Generic title
127595
    1G5    HO5'    1   5.965   5.902   7.806  0.5659  0.2446 -1.0672
    1G5     O5'    2   5.958   5.987   7.850  0.2806 -0.3185  0.0183
    1G5     C5'    3   5.824   6.025   7.831  0.5141  0.7143  0.3589
    1G5     H5'    4   5.769   5.964   7.759 -0.9657  0.4044  1.6909
    1G5    H5''    5   5.834   6.126   7.792 -0.6081  0.2800 -1.1690
    1G5     C4'    6   5.745   6.041   7.961 -0.4988  0.1239 -0.1686
    1G5     H4'    7   5.646   6.069   7.928 -0.2736  1.7802  0.4959
    1G5     O4'    8   5.749   5.910   8.015 -0.0418  0.0934 -0.2679
    1G5     C1'    9   5.711   5.914   8.150 -0.4569 -0.2601 -0.3689
    1G5     H1'   10   5.604   5.899   8.142 -0.4538 -0.4393 -0.0929
    1G5      N9   11   5.789   5.811   8.221 -0.0261  0.4353  0.1898
    1G5      C8   12   5.881   5.727   8.165  0.0562  0.7946 -0.2134
    1G5      H8   13   5.907   5.723   8.060  0.2708 -3.5454 -0.1868
    1G5      N7   14   5.932   5.643   8.251  0.2045  0.6888 -0.4025
    1G5      C5   15   5.879   5.682   8.374  0.1073 -0.3039 -0.1222
    1G5      C6   16   5.918   5.638   8.503  0.1861 -0.1089 -0.0787
    1G5      O6   17   6.005   5.559   8.539  0.0120 -0.2235  0.0859
    1G5      N1   18   5.832   5.689   8.599  0.6962  0.5058  0.0595
    1G5      H1   19   5.865   5.662   8.690  0.4775 -0.4303 -0.1288
    1G5      C2   20   5.749   5.797   8.577 -0.1748 -0.1065  0.2817
    1G5      N2   21   5.684   5.853   8.679 -1.0822 -0.1833 -0.2417
    1G5     H21   22   5.707   5.822   8.773  2.9317 -1.6588 -1.5223
    1G5     H22   23   5.625   5.932   8.657 -2.1101 -1.2285 -1.4058
    1G5      N3   24   5.712   5.836   8.454 -0.0266 -0.5211  0.1011
    1G5      C4   25   5.781   5.777   8.354  0.1965 -0.1770  0.0487
    1G5     C3'   26   5.797   6.124   8.078 -0.1975  0.0071 -0.2183
    1G5     H3'   27   5.906   6.122   8.087 -0.0692  3.1251  0.2637
    1G5     C2'   28   5.727   6.059   8.196  0.9553 -0.5657  0.1669
    1G5     H2'   29   5.789   6.077   8.284 -1.3982  1.2453  1.5943
    1G5     O2'   30   5.606   6.123   8.233  1.0281 -0.3164 -0.0211
    1G5    HO2'   31   5.599   6.205   8.185  0.5625 -0.5239 -0.3152
    1G5     O3'   32   5.760   6.258   8.053 -0.3082  0.0387  0.1111
    2U        P   33   5.847   6.382   8.109 -0.2058 -0.0396  0.1265
    2U      OP1   34   5.761   6.503   8.116  0.2496  0.3172 -0.3763
    2U      OP2   35   5.973   6.383   8.031 -0.2673  0.2865  0.0310
    2U      O5'   36   5.883   6.371   8.265  0.0531  0.2180  0.0853
    2U      C5'   37   5.797   6.379   8.376 -0.1360  0.2613 -0.0648
    2U      H5'   38   5.720   6.305   8.356  0.2660 -0.4282  0.8415
    2U     H5''   39   5.755   6.480   8.382  1.3447  0.9332 -0.4087
    2U      C4'   40   5.862   6.331   8.505 -0.5286  0.0182  0.0426
    2U      H4'   41   5.785   6.346   8.581 -0.1794 -0.0776  0.4175
    2U      O4'   42   5.905   6.197   8.492 -0.0729  0.1197  0.4570
    2U      C1'   43   6.042   6.180   8.518 -0.0630 -0.0709  0.2819
    2U      H1'   44   6.051   6.151   8.623 -1.1496 -0.2317  0.3394
    2U       N1   45   6.110   6.093   8.420  0.5432  0.0318  0.6012
    2U       C6   46   6.113   6.106   8.284  0.7913  0.3793  0.6408
    2U       H6   47   6.073   6.202   8.255  5.4197  1.9305 -1.5996
    2U       C5   48   6.154   6.011   8.198  0.4889  0.0812  0.8205
    2U       H5   49   6.166   6.036   8.093 -1.3707 -0.5061  0.4329
    2U       C4   50   6.209   5.888   8.248 -0.5525 -0.8463 -0.2525
    2U       O4   51   6.264   5.799   8.184  0.3394 -0.5548  0.0924
    2U       N3   52   6.199   5.875   8.386  0.1663  0.2185 -0.0903
    2U       H3   53   6.256   5.804   8.431  1.5388  1.6485  0.5489
    2U       C2   54   6.158   5.975   8.474  0.0068 -0.2793  0.4103
    2U       O2   55   6.167   5.951   8.594 -0.0736 -0.3190  0.4089
    2U      C3'   56   5.988   6.402   8.554 -0.4715 -0.0154 -0.0558
    2U      H3'   57   5.983   6.503   8.514 -1.8336 -0.7630 -1.9166
    2U      C2'   58   6.108   6.317   8.514 -0.2866  0.0392  0.3708
    2U      H2'   59   6.132   6.340   8.410 -0.2525  1.4351  0.6607
    2U      O2'   60   6.228   6.313   8.588 -0.2308 -0.2637  0.2650
    2U     HO2'   61   6.286   6.376   8.545 -1.5382 -1.2245 -3.2855
    2U      O3'   62   5.983   6.409   8.695  0.5782  0.2337 -0.0211
    3U        P   63   5.932   6.537   8.779 -0.0492  0.0870 -0.1722
    3U      OP1   64   6.031   6.646   8.767  0.3222 -0.2689 -0.3917
    3U      OP2   65   5.901   6.480   8.912  0.4979  0.3553  0.0744
    3U      O5'   66   5.787   6.582   8.725 -0.1928 -0.1061  0.0523
    3U      C5'   67   5.770   6.679   8.624 -0.2246 -0.0422  0.1196
    3U      H5'   68   5.826   6.640   8.539  0.7874 -0.1354  0.8052
    3U     H5''   69   5.818   6.769   8.662  0.1291 -0.9433  1.9307
    3U      C4'   70   5.623   6.711   8.601 -0.0596  0.5621 -0.1120
    3U      H4'   71   5.610   6.804   8.545 -0.7595 -0.6025 -1.9862
    3U      O4'   72   5.568   6.607   8.523  0.3480 -0.2246  0.6409
    3U      C1'   73   5.429   6.629   8.515  0.4403  0.2651  0.3509
    3U      H1'   74   5.406   6.689   8.427 -2.4446  2.0970  2.1825
    3U       N1   75   5.358   6.501   8.529 -0.4047  0.6954  0.0458
    3U       C6   76   5.408   6.398   8.603 -0.2848  0.5528 -0.2314
    3U       H6   77   5.499   6.399   8.661  0.5717 -2.2305 -1.3403
    3U       C5   78   5.331   6.287   8.611  0.1133  0.2913 -0.0222
    3U       H5   79   5.358   6.196   8.663 -1.5497 -1.6809 -2.3562
    3U       C4   80   5.204   6.262   8.547 -0.0807  0.2875  0.3677
    3U       O4   81   5.129   6.165   8.551 -0.2364  0.3908 -0.0139
    3U       N3   82   5.172   6.366   8.461  0.4480 -0.2176 -0.4512
    3U       H3   83   5.105   6.345   8.388  0.3747 -1.4022 -0.0685
    3U       C2   84   5.242   6.485   8.454 -0.3686  0.3071  0.0702
    3U       O2   85   5.189   6.572   8.386  0.4501  1.2323  0.5830
    3U      C3'   86   5.525   6.713   8.718  0.7083 -0.5097  0.5681
    3U      H3'   87   5.540   6.614   8.761  0.3352 -0.8737 -0.1316
    3U      C2'   88   5.397   6.717   8.635  0.8106  0.2857  0.4369
    3U      H2'   89   5.310   6.684   8.694  2.5563 -1.6126  2.1141
    3U      O2'   90   5.365   6.846   8.589 -0.4950  0.0701  0.6917
    3U     HO2'   91   5.324   6.893   8.663  0.6237  0.8120  0.8751
    3U      O3'   92   5.552   6.823   8.803  0.1054 -0.3033  0.4975
    4U        P   93   5.483   6.824   8.948 -0.2639  0.1982  0.3220
    4U      OP1   94   5.574   6.916   9.020 -0.0713  0.2515  0.0101
    4U      OP2   95   5.477   6.683   8.992  0.2291  0.1078  0.1119
    4U      O5'   96   5.345   6.904   8.929 -0.3030  0.0906  0.1553
    4U      C5'   97   5.338   7.032   8.871  0.0841 -0.0185 -0.1295
    4U      H5'   98   5.371   7.028   8.767 -2.3622 -2.6939 -0.9196
    4U     H5''   99   5.403   7.096   8.931  0.2843  0.4543 -0.8345
    4U      C4'  100   5.196   7.086   8.881  0.1798  0.1607  0.2793
    4U      H4'  101   5.198   7.189   8.843  1.8225  0.3977  0.9503
    4U      O4'  102   5.118   6.997   8.804  0.4362 -0.3705  0.6271
    4U      C1'  103   5.001   6.960   8.872 -0.1164  0.1977  0.0061
    4U      H1'  104   4.918   7.027   8.849  0.0194  0.4613  0.2795
    4U       N1  105   4.956   6.824   8.836  0.0023  0.1409  0.0699
    4U       C6  106   5.046   6.722   8.849  0.0987  0.3162  0.8382
    4U       H6  107   5.144   6.743   8.888  0.5807  4.1157 -1.8375
    4U       C5  108   5.008   6.595   8.824  0.3827  0.5023 -0.6180
    4U       H5  109   5.072   6.510   8.838 -2.2041 -1.2289  1.7005
    4U       C4  110   4.870   6.563   8.793  0.4275  0.3435 -0.6590
    4U       O4  111   4.825   6.451   8.775  0.4435  0.1933  0.1820
    4U       N3  112   4.787   6.673   8.774 -0.3836 -0.1587 -0.0797
    4U       H3  113   4.697   6.657   8.730  0.0411  0.5734 -1.2710
    4U       C2  114   4.827   6.805   8.790  0.1579 -0.3050 -0.1873
    4U       O2  115   4.752   6.893   8.749  0.1400 -0.0190  0.4486
    4U      C3'  116   5.145   7.077   9.024  0.0732  0.1429  0.2403
    4U      H3'  117   5.221   7.046   9.096 -1.5376 -1.8699  1.2123
    4U      C2'  118   5.038   6.968   9.020 -0.3020  0.5169  0.0372
    4U      H2'  119   5.094   6.878   9.044 -1.0775 -0.2623 -1.0015
    4U      O2'  120   4.923   6.987   9.100 -0.2821 -0.4254  0.3030
    4U     HO2'  121   4.956   6.992   9.190  1.5975  1.7393 -0.4018
    4U      O3'  122   5.101   7.202   9.072 -0.5966 -0.1246  0.3329
    5U        P  123   5.202   7.320   9.111 -0.1208 -0.2756 -0.4301
    5U      OP1  124   5.337   7.278   9.156 -0.0914  0.1479 -0.1172
    5U      OP2  125   5.128   7.405   9.207  0.2340 -0.5867  0.1247
    5U      O5'  126   5.216   7.416   8.982 -0.1439 -0.0084 -0.2343
    5U      C5'  127   5.102   7.486   8.939 -0.2727 -0.2180 -0.2346
    5U      H5'  128   5.047   7.541   9.016  2.4205  1.3945  0.6895
    5U     H5''  129   5.024   7.416   8.910 -0.9166  0.0764  0.7285
    5U      C4'  130   5.125   7.579   8.820  0.4374 -0.0976 -0.0099
    5U      H4'  131   5.034   7.624   8.778 -0.5167  0.7515  2.7273
    5U      O4'  132   5.187   7.699   8.861 -0.2549  0.1686  0.2775
    5U      C1'  133   5.274   7.742   8.759 -0.1229  0.3584  0.4688
    5U      H1'  134   5.245   7.845   8.736  1.9477  1.1572  1.1490
    5U       N1  135   5.415   7.740   8.803  0.1075 -0.4187 -0.2825
    5U       C6  136   5.454   7.659   8.905 -0.2035 -0.4085 -0.1546
    5U       H6  137   5.373   7.605   8.951 -2.4612  3.2916  0.6410
    5U       C5  138   5.581   7.660   8.953 -0.0804 -0.0108 -0.4810
    5U       H5  139   5.609   7.595   9.034  1.5537  1.4522  0.1855
    5U       C4  140   5.685   7.736   8.889 -0.2803  0.9651  0.3342
    5U       O4  141   5.802   7.745   8.927 -0.2472 -0.4392  0.6019
    5U       N3  142   5.636   7.810   8.782 -0.2352 -0.0025 -0.3668
    5U       H3  143   5.702   7.861   8.725 -0.5953  0.3003 -0.5138
    5U       C2  144   5.504   7.826   8.742 -0.3055  0.1683 -0.0725
    5U       O2  145   5.471   7.904   8.653  0.7225  0.4946 -0.1861
    5U      C3'  146   5.213   7.521   8.711  0.4569  0.2167 -0.1611
    5U      H3'  147   5.298   7.467   8.753  2.1531  2.4660 -0.4579
    5U      C2'  148   5.262   7.647   8.640  0.1792  0.5692  0.2721
    5U      H2'  149   5.350   7.634   8.577 -0.1747 -0.5994  0.0017
    5U      O2'  150   5.165   7.695   8.550 -0.2181 -0.5782  0.0750
    5U     HO2'  151   5.144   7.626   8.487  2.4278 -1.9320  0.5470
    5U      O3'  152   5.146   7.446   8.612  0.5695 -0.5554  0.3456
    6U        P  153   5.225   7.359   8.502  0.0065 -0.0639 -0.4520
    6U      OP1  154   5.348   7.304   8.564 -0.0619  0.0884 -0.1802
    6U      OP2  155   5.240   7.447   8.383 -0.3019  0.6837  0.0539
    6U      O5'  156   5.135   7.234   8.457  0.1288 -0.2141 -0.2774
    6U      C5'  157   5.089   7.132   8.544 -0.0864  0.3863  0.3212
    6U      H5'  158   5.077   7.179   8.642  1.2836  0.4303  0.5015
    6U     H5''  159   5.164   7.052   8.539  0.6165  1.1095 -2.8376
    6U      C4'  160   4.959   7.066   8.502  0.1881  0.1172 -0.1064
    6U      H4'  161   4.964   6.960   8.527  0.3538  0.1814  0.1332
    6U      O4'  162   4.856   7.128   8.574  0.8644  1.0022  0.1122
    6U      C1'  163   4.750   7.169   8.489  0.3615 -0.0485  0.2199
    6U      H1'  164   4.687   7.083   8.465  0.8248  0.0779 -1.5958
    6U       N1  165   4.677   7.285   8.542 -0.2011 -0.5513  0.5609
    6U       C6  166   4.753   7.386   8.593 -0.5847  0.0666 -0.0807
    6U       H6  167   4.861   7.385   8.590 -0.2681 -4.2961  3.4399
    6U       C5  168   4.691   7.493   8.648  0.0166  0.5427 -0.3044
    6U       H5  169   4.739   7.573   8.702 -0.5353  0.3188  0.5340
    6U       C4  170   4.548   7.510   8.638 -0.0730  0.1984  0.3444
    6U       O4  171   4.476   7.596   8.689 -0.1462  0.2155  0.2122
    6U       N3  172   4.482   7.408   8.571  0.0771  0.2214  0.1620
    6U       H3  173   4.383   7.393   8.582  0.0165 -0.3357 -1.0234
    6U       C2  174   4.540   7.290   8.528 -0.0882  0.3196 -0.3360
    6U       O2  175   4.475   7.199   8.476 -0.5534  0.3985  0.1062
    6U      C3'  176   4.920   7.074   8.354  0.1738 -0.3793 -0.1351
    6U      H3'  177   5.012   7.104   8.303 -0.0148  2.4109  0.9789
    6U      C2'  178   4.823   7.192   8.357  0.3081 -0.2744  0.1503
    6U      H2'  179   4.880   7.283   8.377 -0.0365 -0.5197  2.4934
    6U      O2'  180   4.733   7.211   8.250  0.0341 -0.1127  0.4050
    6U     HO2'  181   4.766   7.158   8.176 -0.3989 -2.0770  1.5402
    6U      O3'  182   4.863   6.957   8.300 -0.0321 -0.5251  0.3930
    7A        P  183   4.897   6.914   8.149 -0.3120  0.0664  0.1598
    7A      OP1  184   5.043   6.914   8.120 -0.3285  0.3802  0.0677
    7A      OP2  185   4.800   6.980   8.058  0.2701 -0.0445 -0.5552
    7A      O5'  186   4.852   6.761   8.172  0.2633 -0.1490 -0.1196
    7A      C5'  187   4.923   6.670   8.251 -0.1926 -0.1195  0.3290
    7A      H5'  188   4.971   6.720   8.335 -3.9157  1.5332  1.6888
    7A     H5''  189   5.005   6.630   8.192  1.4541 -0.4290  2.6621
    7A      C4'  190   4.824   6.574   8.317 -0.7763  0.0351 -0.3154
    7A      H4'  191   4.879   6.531   8.401 -0.3468  0.1608 -0.5309
    7A      O4'  192   4.719   6.645   8.380  0.1453 -0.0375  1.3709
    7A      C1'  193   4.607   6.562   8.357  0.3864 -0.0887  0.3405
    7A      H1'  194   4.597   6.477   8.423 -1.8927  0.5674  0.9192
    7A       N9  195   4.485   6.644   8.351  0.5798  0.2262  0.6722
    7A       C8  196   4.474   6.771   8.301  0.3950 -0.2259 -0.4645
    7A       H8  197   4.553   6.828   8.253  1.0131 -1.9892 -1.6338
    7A       N7  198   4.353   6.813   8.328  0.5659 -0.0604  0.0689
    7A       C5  199   4.280   6.715   8.392  0.4889  0.4184  0.7256
    7A       C6  200   4.149   6.692   8.438  0.1444  0.1400 -0.3451
    7A       N6  201   4.035   6.762   8.434  0.1025  0.1292  0.4610
    7A      H61  202   4.041   6.851   8.388  1.7145 -0.3302 -0.2713
    7A      H62  203   3.943   6.721   8.441 -0.6071  1.5426 -0.1828
    7A       N1  204   4.110   6.573   8.487 -0.0132  0.2857 -0.1063
    7A       C2  205   4.199   6.474   8.484  0.2300  0.4836  0.5166
    7A       H2  206   4.171   6.381   8.530  0.0531  0.0426 -0.4604
    7A       N3  207   4.324   6.483   8.442  0.2519  0.1935  0.5167
    7A       C4  208   4.363   6.607   8.403 -0.0247 -0.1827 -0.9925
    7A      C3'  209   4.773   6.467   8.222 -0.1092 -0.6316  0.0717
    7A      H3'  210   4.832   6.481   8.131  1.7143  0.3058  1.3362
    7A      C2'  211   4.624   6.500   8.218  0.0545  0.1266  0.2013
    7A      H2'  212   4.612   6.574   8.139 -1.2439  0.0383  0.2947
    7A      O2'  213   4.533   6.396   8.193  0.4314 -0.2432  0.3564
    7A     HO2'  214   4.542   6.358   8.105  1.3672 -1.7317  1.0372
    7A      O3'  215   4.806   6.343   8.281  0.3661 -0.3564  0.3956
    8A        P  216   4.923   6.252   8.217  0.0318 -0.5766  0.0895
    8A      OP1  217   4.935   6.134   8.305 -0.0375 -0.1002  0.7519
    8A      OP2  218   5.040   6.339   8.192  0.1853 -0.5894  0.7357
    8A      O5'  219   4.850   6.210   8.080  0.1844  0.2070 -0.2395
    8A      C5'  220   4.761   6.102   8.063 -0.0245  0.4448 -0.6723
    8A      H5'  221   4.708   6.081   8.156 -0.4489 -0.8935 -1.1825
    8A     H5''  222   4.822   6.016   8.034  0.2511  0.1587  0.6836
    8A      C4'  223   4.652   6.113   7.957 -0.1469  0.1572 -0.5785
    8A      H4'  224   4.576   6.039   7.982 -0.3269  1.1597  2.1859
    8A      O4'  225   4.592   6.240   7.957 -0.4044  0.0428  0.3788
    8A      C1'  226   4.592   6.301   7.830 -0.1245 -0.1717  0.2748
    8A      H1'  227   4.491   6.273   7.800  0.1276 -2.3499  1.2611
    8A       N9  228   4.613   6.446   7.848 -0.4501 -0.1358  0.3676
    8A       C8  229   4.730   6.518   7.850 -0.5309  0.0376 -0.5864
    8A       H8  230   4.831   6.485   7.833 -1.0981 -1.6924 -0.7165
    8A       N7  231   4.715   6.646   7.874 -0.3170 -0.0698  0.1493
    8A       C5  232   4.577   6.662   7.887 -0.3148  0.1979 -0.1307
    8A       C6  233   4.486   6.760   7.929 -0.0891  0.0681  0.6895
    8A       N6  234   4.519   6.881   7.976  0.0839  0.2970 -0.0097
    8A      H61  235   4.613   6.909   8.000 -0.5343  1.0540  1.7105
    8A      H62  236   4.445   6.934   8.020 -2.0643 -3.3764  1.2252
    8A       N1  237   4.353   6.742   7.934 -0.0776 -0.1643  0.2389
    8A       C2  238   4.312   6.623   7.893  0.4205 -0.1642 -0.2800
    8A       H2  239   4.205   6.609   7.888  0.2831  0.2674  0.9732
    8A       N3  240   4.382   6.515   7.864 -0.1829 -0.6041 -0.1277
    8A       C4  241   4.515   6.541   7.868 -0.3156  0.3470 -1.1226
    8A      C3'  242   4.700   6.090   7.814  0.1572 -0.6190 -0.3586
    8A      H3'  243   4.805   6.064   7.813  0.2199 -0.3753 -0.0577
    8A      C2'  244   4.689   6.224   7.741 -0.5429 -0.4454  0.0532
    8A      H2'  245   4.785   6.274   7.751 -0.2302 -0.1752 -3.2254
    8A      O2'  246   4.657   6.216   7.604  0.4124 -0.2863 -0.1912
    8A     HO2'  247   4.633   6.124   7.589  1.7192 -1.3289  3.2235
    8A      O3'  248   4.618   5.988   7.760 -0.4209 -0.2275 -0.2265
    9A        P  249   4.668   5.836   7.740 -0.1106 -0.1563 -0.0006
    9A      OP1  250   4.579   5.784   7.634 -0.4408 -0.1421  0.2679
    9A      OP2  251   4.653   5.775   7.874 -0.1168 -0.0120  0.0652
    9A      O5'  252   4.823   5.834   7.697 -0.1430 -0.1633 -0.1159
    9A      C5'  253   4.867   5.734   7.607 -0.1404  0.0536 -0.3574
    9A      H5'  254   4.806   5.731   7.517 -1.9835  0.2296  0.8192
    9A     H5''  255   4.849   5.645   7.668  0.4024  0.0367 -0.2153
    9A      C4'  256   5.015   5.757   7.581 -0.0079 -0.0305  0.3057
    9A      H4'  257   5.010   5.852   7.528 -0.5491 -0.5030 -0.5147
    9A      O4'  258   5.105   5.786   7.686 -0.3563 -0.0146  0.5994
    9A      C1'  259   5.229   5.731   7.649 -0.2017  0.6703  0.0799
    9A      H1'  260   5.302   5.810   7.633  1.1140 -0.3330  0.8977
    9A       N9  261   5.275   5.639   7.755 -0.0271  0.5951 -0.0606
    9A       C8  262   5.207   5.540   7.821  0.5778  0.1151 -0.1475
    9A       H8  263   5.102   5.528   7.797  0.8975 -0.6117 -1.2891
    9A       N7  264   5.278   5.468   7.904 -0.0722 -0.2247  0.1239
    9A       C5  265   5.406   5.521   7.888 -0.3411  0.4628  0.1983
    9A       C6  266   5.528   5.496   7.954 -0.1716  0.2677 -0.1871
    9A       N6  267   5.563   5.418   8.057 -0.8583  0.3740  0.1333
    9A      H61  268   5.503   5.337   8.065 -0.3823  0.1071  1.2302
    9A      H62  269   5.659   5.410   8.089 -1.2721 -0.0529  1.3128
    9A       N1  270   5.627   5.585   7.937 -0.4123  0.7184  0.7461
    9A       C2  271   5.612   5.679   7.846 -0.1606  0.0236 -0.0266
    9A       H2  272   5.697   5.745   7.839 -0.0811  0.4981  3.6127
    9A       N3  273   5.514   5.693   7.758 -0.0586  0.3699 -0.0854
    9A       C4  274   5.405   5.625   7.800  0.0908 -0.2181 -0.6309
    9A      C3'  275   5.075   5.639   7.505 -0.5872 -0.3276  0.3071
    9A      H3'  276   5.047   5.548   7.559  1.7457 -0.5047  1.3280
    9A      C2'  277   5.226   5.660   7.515 -0.6774  0.3999  0.2314
    9A      H2'  278   5.272   5.561   7.525 -2.3592 -0.3470  0.9267
    9A      O2'  279   5.268   5.749   7.415  0.1231  0.2089  0.3929
    9A     HO2'  280   5.246   5.715   7.328  1.3060  1.8376 -0.6158
    9A      O3'  281   5.020   5.623   7.376 -0.3646 -0.5365  0.2375
   10C        P  282   5.045   5.487   7.292  0.4514 -0.3164  0.1164
   10C      OP1  283   5.180   5.488   7.232  0.0793 -0.4022 -0.7329
   10C      OP2  284   4.924   5.486   7.207  0.0497 -0.1095  0.6766
   10C      O5'  285   5.048   5.361   7.391  0.1357 -0.1639  0.3256
   10C      C5'  286   4.933   5.319   7.460 -0.0807  0.2172  0.1957
   10C      H5'  287   4.864   5.265   7.395 -0.1280  1.7188 -1.0390
   10C     H5''  288   4.881   5.394   7.520  0.5803 -1.2061  2.7107
   10C      C4'  289   4.973   5.214   7.564  0.1440 -0.1623 -0.2700
   10C      H4'  290   5.062   5.167   7.523  0.7656  0.2817  0.5346
   10C      O4'  291   4.992   5.270   7.692 -0.1293  0.0110 -0.3033
   10C      C1'  292   4.949   5.181   7.793  0.2430  0.0599 -0.0973
   10C      H1'  293   5.019   5.100   7.813 -1.1664 -0.8926  1.1841
   10C       N1  294   4.915   5.251   7.918  0.8613  0.6909 -0.2756
   10C       C6  295   4.803   5.329   7.923  0.1045 -0.3982  0.1944
   10C       H6  296   4.762   5.359   7.828 -0.3178 -1.4724  0.0296
   10C       C5  297   4.754   5.381   8.038  0.0546 -0.5551  0.2436
   10C       H5  298   4.668   5.446   8.044  0.7327  0.2753  1.3311
   10C       C4  299   4.822   5.340   8.158  0.1281  0.1704  0.4560
   10C       N4  300   4.782   5.376   8.280 -0.1486 -0.0287  0.4262
   10C      H41  301   4.722   5.457   8.288 -1.0022 -0.2953 -2.2944
   10C      H42  302   4.835   5.322   8.347 -2.1787  0.9053  2.9494
   10C       N3  303   4.924   5.254   8.153 -0.1140 -0.0824 -0.5211
   10C       C2  304   4.973   5.207   8.036  0.1055 -0.4076 -0.3008
   10C       O2  305   5.062   5.124   8.053  0.2628 -0.1022  0.3946
   10C      C3'  306   4.857   5.116   7.579 -0.1485  0.2263  0.0301
   10C      H3'  307   4.769   5.149   7.525  1.8291  1.8011 -2.4373
   10C      C2'  308   4.829   5.111   7.729 -0.0488  0.4179  0.0559
   10C      H2'  309   4.737   5.162   7.758 -0.6782 -0.7393  0.1617
   10C      O2'  310   4.830   4.977   7.773  0.1213  0.1449 -0.7639
   10C     HO2'  311   4.860   4.930   7.695 -2.3257 -4.0807  0.4861
   10C      O3'  312   4.898   4.992   7.526 -0.5122  0.1781 -0.1420
   11G        P  313   4.871   4.935   7.378 -0.3789  0.1633 -0.1608
   11G      OP1  314   4.952   4.812   7.363  0.1474  0.4726  0.1153
   11G      OP2  315   4.891   5.044   7.279 -0.5059  0.2438 -0.0991
   11G      O5'  316   4.719   4.886   7.396 -0.1543 -0.4869 -0.0168
   11G      C5'  317   4.692   4.785   7.491  0.5010 -0.1241  0.5622
   11G      H5'  318   4.770   4.789   7.567 -0.3094  1.6576  1.3489
   11G     H5''  319   4.685   4.683   7.454 -3.2588  0.9733 -2.3862
   11G      C4'  320   4.562   4.816   7.563 -0.0455  0.1370 -0.5120
   11G      H4'  321   4.556   4.736   7.638 -2.0200 -1.2520 -2.0273
   11G      O4'  322   4.591   4.930   7.640  0.1709 -0.0921 -0.2538
   11G      C1'  323   4.485   5.020   7.618  0.0435 -0.1118  0.2687
   11G      H1'  324   4.467   5.087   7.703 -2.5701  0.2405 -0.4720
   11G       N9  325   4.517   5.127   7.521 -0.7234 -0.0652  0.0667
   11G       C8  326   4.533   5.123   7.385 -0.1938  0.1803  0.1236
   11G       H8  327   4.496   5.039   7.329 -3.2500  0.5569  1.4182
   11G       N7  328   4.584   5.233   7.337  0.3688  0.1012  0.5236
   11G       C5  329   4.581   5.323   7.444  0.1556 -0.1198  0.7043
   11G       C6  330   4.610   5.461   7.453  1.4536 -0.3222 -0.0323
   11G       O6  331   4.650   5.537   7.365  0.3012  0.2490 -0.0917
   11G       N1  332   4.584   5.515   7.579  0.3903  0.0554 -0.4022
   11G       H1  333   4.595   5.615   7.590  1.0194  0.0883 -1.2327
   11G       C2  334   4.556   5.437   7.689  0.2965  0.0643 -0.4197
   11G       N2  335   4.508   5.504   7.795 -0.1282 -0.1054 -0.5035
   11G      H21  336   4.525   5.603   7.805  0.4743 -0.0661 -1.6801
   11G      H22  337   4.440   5.453   7.850 -0.6537  0.5437 -0.5281
   11G       N3  338   4.532   5.305   7.684 -0.5843  0.1830  0.2781
   11G       C4  339   4.542   5.257   7.557 -0.4263 -0.2263  0.4450
   11G      C3'  340   4.424   4.820   7.497 -0.0703  0.5712 -0.4328
   11G      H3'  341   4.429   4.850   7.392 -0.7894 -2.8301 -1.5501
   11G      C2'  342   4.366   4.932   7.584 -0.0772  0.0731  0.2137
   11G      H2'  343   4.299   4.988   7.518  1.0872  2.7281  1.1649
   11G      O2'  344   4.288   4.877   7.687 -0.4405  0.7731  0.3147
   11G     HO2'  345   4.352   4.820   7.730  0.7495  1.8807  0.0639
   11G      O3'  346   4.357   4.696   7.493  0.6288  0.1709  0.0023
   12G        P  347   4.400   4.560   7.418 -0.2036 -0.2921  0.3512
   12G      OP1  348   4.287   4.466   7.399 -0.3676 -0.0291  0.0237
   12G      OP2  349   4.526   4.513   7.479  0.0689 -0.3068 -0.2156
   12G      O5'  350   4.426   4.624   7.273 -0.1059  0.4195  0.6737
   12G      C5'  351   4.338   4.622   7.163  0.3085  0.3293  0.3389
   12G      H5'  352   4.295   4.524   7.142  0.6433  0.3369 -0.4370
   12G     H5''  353   4.391   4.648   7.071 -0.6236 -3.1983 -1.3723
   12G      C4'  354   4.227   4.725   7.185  0.0515  0.1430 -0.0623
   12G      H4'  355   4.174   4.704   7.278 -1.8619  0.7841 -0.9653
   12G      O4'  356   4.275   4.857   7.192 -0.1551  0.1931  0.4586
   12G      C1'  357   4.177   4.958   7.189 -0.1572  0.1784 -0.1614
   12G      H1'  358   4.154   4.989   7.291 -0.3819 -1.1051  0.1953
   12G       N9  359   4.230   5.082   7.130 -0.4759  0.4298  0.0800
   12G       C8  360   4.283   5.087   7.004  0.3234  0.3119  0.4112
   12G       H8  361   4.271   5.002   6.938 -1.2029 -1.5339  2.9024
   12G       N7  362   4.316   5.210   6.975 -0.3855  0.3377 -0.2929
   12G       C5  363   4.310   5.280   7.095 -0.1650  0.3755 -0.3052
   12G       C6  364   4.366   5.405   7.133  0.5443 -0.1059  0.2253
   12G       O6  365   4.432   5.484   7.065  0.3373  0.2043  0.3863
   12G       N1  366   4.316   5.446   7.255  0.1926 -0.1080  0.0804
   12G       H1  367   4.339   5.543   7.273 -0.4730  0.4571 -1.8404
   12G       C2  368   4.259   5.359   7.345  1.0402 -0.1231  0.6108
   12G       N2  369   4.243   5.395   7.473  0.1158  0.1629  0.4195
   12G      H21  370   4.285   5.481   7.507 -0.8694  0.5764  0.6297
   12G      H22  371   4.210   5.322   7.535 -2.9340 -0.3322 -1.5540
   12G       N3  372   4.226   5.231   7.322  0.7958  0.0269  0.1159
   12G       C4  373   4.254   5.202   7.192  0.2635  0.3620 -0.0734
   12G      C3'  374   4.116   4.751   7.084  0.3454  0.0415 -0.4135
   12G      H3'  375   4.165   4.762   6.987  0.0919  0.3870 -0.5042
   12G      C2'  376   4.063   4.891   7.112 -0.0203 -0.1662 -0.0631
   12G      H2'  377   4.052   4.935   7.013 -1.9700  2.3847  1.1782
   12G      O2'  378   3.939   4.900   7.178 -0.1877 -0.9023 -0.2700
   12G     HO2'  379   3.911   4.992   7.180 -0.9677 -1.1359  0.1007
   12G      O3'  380   4.022   4.646   7.094  1.0028 -0.4855  0.3188
   13G        P  381   3.967   4.569   6.964  0.2440 -0.0644  0.3862
   13G      OP1  382   3.849   4.488   7.002  0.3916 -0.1670  0.6263
   13G      OP2  383   4.083   4.496   6.910 -0.0063 -0.2290  0.0688
   13G      O5'  384   3.915   4.679   6.859  0.2241  0.0019  0.4649
   13G      C5'  385   3.798   4.755   6.881 -0.5152 -1.0180  0.0935
   13G      H5'  386   3.786   4.768   6.988 -0.1062  2.6169 -0.1884
   13G     H5''  387   3.717   4.691   6.847 -3.9820  2.8783  0.2662
   13G      C4'  388   3.802   4.885   6.801  0.4017 -1.0200  0.1167
   13G      H4'  389   3.709   4.938   6.822 -0.0835 -0.7159 -2.5068
   13G      O4'  390   3.911   4.969   6.831 -0.4816  0.3465 -0.3961
   13G      C1'  391   3.956   5.053   6.727  0.2069  0.0238 -0.3640
   13G      H1'  392   3.936   5.155   6.762 -1.0786 -0.0805 -0.7471
   13G       N9  393   4.097   5.032   6.688  0.3822  0.3290  0.0896
   13G       C8  394   4.172   4.918   6.698 -0.2490 -0.0668  0.3558
   13G       H8  395   4.125   4.832   6.744 -1.8657  1.2200  1.2168
   13G       N7  396   4.293   4.925   6.651 -0.4989  0.1922 -0.2602
   13G       C5  397   4.295   5.053   6.596 -0.1552  0.2304 -0.1641
   13G       C6  398   4.390   5.118   6.514  0.1471 -0.5003 -0.4079
   13G       O6  399   4.499   5.072   6.483  0.5428  0.2684 -0.1960
   13G       N1  400   4.349   5.242   6.465  0.1617 -0.1342  0.4802
   13G       H1  401   4.411   5.302   6.412  0.0917  1.1836  1.8233
   13G       C2  402   4.232   5.304   6.504  0.4309  0.6086  0.1249
   13G       N2  403   4.191   5.416   6.444  0.0222  0.4077  0.0303
   13G      H21  404   4.250   5.479   6.391  0.1176  0.7307  0.5198
   13G      H22  405   4.098   5.449   6.466 -0.1535  1.2713 -1.7642
   13G       N3  406   4.135   5.238   6.568  0.3482  0.6920  0.0866
   13G       C4  407   4.173   5.115   6.609  0.0109  0.5381 -0.0543
   13G      C3'  408   3.800   4.883   6.649  0.3300 -0.3979  0.1038
   13G      H3'  409   3.873   4.807   6.619 -0.8954 -1.8594  0.6800
   13G      C2'  410   3.856   5.021   6.617  0.0636 -0.3416 -0.1281
   13G      H2'  411   3.911   5.009   6.523 -0.4992  0.4796 -0.5691
   13G      O2'  412   3.747   5.110   6.608  0.2522 -0.1424 -0.4529
   13G     HO2'  413   3.666   5.062   6.589  1.1233 -1.5915 -0.6422
   13G      O3'  414   3.669   4.856   6.605  0.4120  0.1638 -0.5121
   14U        P  415   3.619   4.782   6.471  0.1386 -0.0137 -0.3152
   14U      OP1  416   3.471   4.792   6.475  0.1553 -0.0102  0.3437
   14U      OP2  417   3.693   4.656   6.452 -0.3042 -0.4057  0.5051
   14U      O5'  418   3.671   4.877   6.352  0.3776 -0.6324 -0.7085
   14U      C5'  419   3.606   4.999   6.321  0.4145 -0.4652 -0.1288
   14U      H5'  420   3.588   5.053   6.414  2.7709  1.8096 -0.8944
   14U     H5''  421   3.504   4.996   6.282  0.9331 -1.6913 -1.4702
   14U      C4'  422   3.682   5.093   6.228 -0.4428 -0.3548 -0.7348
   14U      H4'  423   3.621   5.182   6.216 -3.6997 -1.6855  3.4113
   14U      O4'  424   3.802   5.142   6.284 -0.2884 -0.2866 -1.1259
   14U      C1'  425   3.900   5.160   6.184  0.2510  0.3942 -0.4847
   14U      H1'  426   3.913   5.268   6.176 -2.5996  0.8123 -0.5400
   14U       N1  427   4.030   5.092   6.205 -0.1722 -0.3253 -0.1526
   14U       C6  428   4.023   4.961   6.242 -0.2065 -0.0489  0.8194
   14U       H6  429   3.936   4.921   6.293  0.0378  0.4650  1.6685
   14U       C5  430   4.143   4.901   6.245 -0.0180  0.2761 -0.0070
   14U       H5  431   4.135   4.801   6.286 -0.7862 -0.6058 -2.1741
   14U       C4  432   4.272   4.957   6.211  0.0665 -0.1292 -0.3590
   14U       O4  433   4.381   4.900   6.211  0.1032 -0.0795  0.5415
   14U       N3  434   4.259   5.088   6.167 -0.0124  0.0866  0.2994
   14U       H3  435   4.335   5.136   6.121  0.5690  1.3752  2.4456
   14U       C2  436   4.140   5.159   6.157 -0.1746 -0.2295 -0.0218
   14U       O2  437   4.147   5.274   6.112  0.4236 -0.4046 -0.3908
   14U      C3'  438   3.718   5.033   6.092  0.1589 -1.3650 -0.1477
   14U      H3'  439   3.747   4.930   6.111 -1.2236 -1.6065  0.7776
   14U      C2'  440   3.835   5.122   6.051 -0.8616  0.1480  0.1144
   14U      H2'  441   3.898   5.066   5.982 -0.9641  0.9611 -0.6500
   14U      O2'  442   3.795   5.242   5.989 -0.8967  0.2631  0.3581
   14U     HO2'  443   3.699   5.237   5.985 -1.1217  2.1528  2.1065
   14U      O3'  444   3.602   5.045   6.013  0.1133  0.1661  0.1196
   15U        P  445   3.567   4.962   5.879  0.0423  0.0152  0.2318
   15U      OP1  446   3.424   4.989   5.853  0.0981  0.5632  0.4730
   15U      OP2  447   3.615   4.824   5.897 -0.4661 -0.1374  0.4422
   15U      O5'  448   3.643   5.036   5.758  0.6276  0.1917  0.6993
   15U      C5'  449   3.605   5.162   5.707  0.7646  0.1280  0.4406
   15U      H5'  450   3.587   5.223   5.795  0.0277  1.5359 -0.6458
   15U     H5''  451   3.516   5.150   5.645  0.5872  0.9118  0.5276
   15U      C4'  452   3.718   5.219   5.621  0.3625  0.1994 -0.0510
   15U      H4'  453   3.686   5.317   5.589  4.2834  1.4371 -0.7216
   15U      O4'  454   3.830   5.233   5.706  0.7046 -0.2729 -0.4143
   15U      C1'  455   3.943   5.198   5.628  0.6455  0.1571 -0.6976
   15U      H1'  456   4.006   5.287   5.624 -1.4043  1.6587 -2.8630
   15U       N1  457   4.029   5.097   5.692  0.1503 -0.0863 -0.4084
   15U       C6  458   3.981   4.980   5.743 -0.4356  0.5008  0.4289
   15U       H6  459   3.881   4.944   5.727  0.4261 -0.8220 -2.7672
   15U       C5  460   4.060   4.899   5.816  0.0006  0.4618 -0.0813
   15U       H5  461   4.027   4.800   5.845  0.2165  0.2019 -0.7065
   15U       C4  462   4.200   4.926   5.842  0.1789 -0.5409  0.0524
   15U       O4  463   4.278   4.857   5.907  1.0183  0.0296 -0.3274
   15U       N3  464   4.232   5.057   5.808 -0.4025 -0.2524  0.5848
   15U       H3  465   4.316   5.087   5.853 -0.1863 -0.2934  0.2138
   15U       C2  466   4.158   5.137   5.721  0.1514 -0.3755 -0.0039
   15U       O2  467   4.213   5.238   5.678  0.1684 -0.6038 -0.5220
   15U      C3'  468   3.756   5.129   5.503 -0.1083 -0.0316 -0.0278
   15U      H3'  469   3.742   5.027   5.538 -2.7399 -0.4342 -1.9507
   15U      C2'  470   3.903   5.164   5.485 -0.0982 -0.2637 -0.3973
   15U      H2'  471   3.970   5.088   5.445  0.0404 -0.1356 -0.4106
   15U      O2'  472   3.930   5.278   5.407  0.1323 -0.0311  0.0158
   15U     HO2'  473   3.844   5.318   5.393 -0.0294 -0.7940 -1.4384
   15U      O3'  474   3.669   5.145   5.393 -0.1635 -0.6444 -0.0749
   16U        P  475   3.676   5.037   5.274  0.3150 -0.2406 -0.4126
   16U      OP1  476   3.565   5.068   5.181 -0.4392 -0.0116  0.5566
   16U      OP2  477   3.674   4.900   5.330 -0.3341 -0.1070 -0.1035
   16U      O5'  478   3.814   5.076   5.200  0.6521  0.4156  0.5386
   16U      C5'  479   3.890   4.986   5.123  0.3305  0.6159 -0.0196
   16U      H5'  480   3.827   4.934   5.050 -0.8815  1.3676  0.4787
   16U     H5''  481   3.938   4.916   5.191  0.0857  2.2482  1.9040
   16U      C4'  482   3.996   5.059   5.041 -0.0660  0.4272 -0.7163
   16U      H4'  483   4.046   4.975   4.994  0.3483 -0.6925  1.5735
   16U      O4'  484   3.935   5.136   4.940 -0.1997  0.3877 -0.6651
   16U      C1'  485   3.980   5.269   4.941  1.0531 -0.0262 -0.6451
   16U      H1'  486   4.067   5.278   4.876 -0.3175 -1.5656 -2.8431
   16U       N1  487   3.880   5.364   4.889  0.3512 -0.5123 -0.2028
   16U       C6  488   3.769   5.321   4.822  0.1960 -0.0731 -0.2322
   16U       H6  489   3.744   5.216   4.831  1.2683 -0.3186  0.0872
   16U       C5  490   3.677   5.396   4.759 -0.0897  0.0134  0.2848
   16U       H5  491   3.586   5.361   4.712  0.3331 -1.3137  0.4216
   16U       C4  492   3.692   5.540   4.760  0.1248 -0.0061 -0.0678
   16U       O4  493   3.636   5.620   4.686 -0.0362 -0.2803 -0.2438
   16U       N3  494   3.807   5.580   4.828 -0.1284 -0.0567  0.3961
   16U       H3  495   3.825   5.679   4.838  1.3179 -0.2970  0.3304
   16U       C2  496   3.906   5.500   4.882 -0.2265 -0.3829  0.0913
   16U       O2  497   4.006   5.561   4.920 -0.8019  0.1351  0.7796
   16U      C3'  498   4.086   5.153   5.121  0.5715 -0.3898 -0.4569
   16U      H3'  499   4.086   5.136   5.229  1.8741  1.4416 -0.1139
   16U      C2'  500   4.023   5.288   5.086  0.5776 -0.3877 -0.4577
   16U      H2'  501   3.945   5.298   5.162  1.3356 -2.0553  0.6082
   16U      O2'  502   4.101   5.404   5.103  0.1479 -0.0405 -0.8319
   16U     HO2'  503   4.049   5.468   5.054 -0.9372  0.5209  0.9533
   16U      O3'  504   4.220   5.148   5.077  0.6191  0.1071 -0.3706
   17G        P  505   4.318   5.025   5.112  0.2180 -0.0147  0.3588
   17G      OP1  506   4.459   5.063   5.087 -0.0984  0.9140 -0.0532
   17G      OP2  507   4.270   4.904   5.042  0.7250 -0.1326  0.2076
   17G      O5'  508   4.276   5.002   5.265  0.0649  0.0792  0.3310
   17G      C5'  509   4.306   5.104   5.357  0.6966  0.3951 -0.2171
   17G      H5'  510   4.216   5.157   5.390  0.8715 -0.7923  2.4827
   17G     H5''  511   4.372   5.172   5.304  0.5289 -0.2711 -1.3093
   17G      C4'  512   4.385   5.052   5.476  0.1491  0.5542  0.2222
   17G      H4'  513   4.395   5.136   5.544  2.3179  0.2465  0.3559
   17G      O4'  514   4.340   4.936   5.544 -0.0597  0.2655 -0.4067
   17G      C1'  515   4.449   4.871   5.605 -0.0925  0.2740 -0.3400
   17G      H1'  516   4.423   4.870   5.711  2.7199  0.1857  0.4161
   17G       N9  517   4.475   4.737   5.551  0.1595  0.0106  0.4145
   17G       C8  518   4.501   4.691   5.424 -0.1365  0.1964  0.2832
   17G       H8  519   4.519   4.756   5.340  1.7090  2.2979  2.1546
   17G       N7  520   4.504   4.561   5.413  0.0228  0.2150  0.0978
   17G       C5  521   4.504   4.519   5.546  0.2730  0.0426  0.0437
   17G       C6  522   4.518   4.387   5.596  0.1242 -0.0360 -0.1225
   17G       O6  523   4.529   4.281   5.535 -0.1475 -0.2602  0.2148
   17G       N1  524   4.503   4.377   5.733 -0.3427  0.1561 -0.1587
   17G       H1  525   4.502   4.286   5.777 -3.1548  0.3762  0.4656
   17G       C2  526   4.490   4.492   5.808  0.3785  0.0095  0.2017
   17G       N2  527   4.482   4.478   5.941 -0.1021 -0.5735  0.1147
   17G      H21  528   4.474   4.382   5.972  3.2882 -2.2065 -3.2718
   17G      H22  529   4.444   4.557   5.991  1.5919 -0.2601  0.9914
   17G       N3  530   4.469   4.617   5.765  0.4183  0.0333  0.2503
   17G       C4  531   4.478   4.625   5.630  0.2100 -0.1194  0.2284
   17G      C3'  532   4.535   5.033   5.456 -0.0169 -0.0199 -0.5261
   17G      H3'  533   4.555   4.967   5.372 -3.8606  0.9073 -2.3867
   17G      C2'  534   4.574   4.955   5.582  0.0753 -0.0372 -0.5655
   17G      H2'  535   4.662   4.892   5.568 -0.0412 -0.4064  0.3025
   17G      O2'  536   4.596   5.044   5.689 -0.1001 -0.2636 -0.3419
   17G     HO2'  537   4.662   5.107   5.658 -0.1957  0.6539  1.1986
   17G      O3'  538   4.596   5.159   5.439 -0.0234  0.0826  0.1598
   18C        P  539   4.748   5.174   5.387 -0.2152 -0.0621 -0.4519
   18C      OP1  540   4.759   5.311   5.333 -0.4968 -0.2676 -1.0440
   18C      OP2  541   4.784   5.064   5.295 -0.3298 -0.6192  0.1578
   18C      O5'  542   4.841   5.137   5.513  0.0566  0.1505 -0.5916
   18C      C5'  543   4.880   5.226   5.616  0.3089  0.4826 -0.9693
   18C      H5'  544   4.795   5.280   5.658  1.3699  0.0607  1.9758
   18C     H5''  545   4.949   5.297   5.570  2.4832 -0.0532  1.2615
   18C      C4'  546   4.953   5.165   5.736 -0.3219 -0.2608 -0.9536
   18C      H4'  547   4.961   5.240   5.814 -1.0962  0.3741 -1.4525
   18C      O4'  548   4.881   5.054   5.784 -0.1363  0.0747  0.1274
   18C      C1'  549   4.968   4.970   5.855 -0.1427 -0.0155  0.0291
   18C      H1'  550   4.960   4.990   5.962  0.1738 -3.2703  0.7623
   18C       N1  551   4.946   4.827   5.825  1.0466 -0.0931 -0.5216
   18C       C6  552   4.898   4.780   5.706  0.6252 -0.3219 -0.2651
   18C       H6  553   4.887   4.851   5.625  0.7090  1.9446  1.5924
   18C       C5  554   4.867   4.651   5.684 -0.6189 -0.0617 -0.0683
   18C       H5  555   4.838   4.611   5.588  1.0843 -0.3877 -0.4761
   18C       C4  556   4.891   4.562   5.794  0.4588 -0.0477 -0.2858
   18C       N4  557   4.866   4.430   5.784  0.6673 -0.1956  0.9177
   18C      H41  558   4.816   4.410   5.699 -3.3338  1.1708  2.7316
   18C      H42  559   4.864   4.367   5.862 -0.5847  0.9858  1.8828
   18C       N3  560   4.936   4.603   5.913 -0.1856  0.2389 -0.1372
   18C       C2  561   4.963   4.735   5.927 -0.2526  0.2379  0.0075
   18C       O2  562   4.995   4.764   6.041  0.1778 -0.8536  0.1735
   18C      C3'  563   5.086   5.101   5.697 -0.0267 -0.3080  0.1107
   18C      H3'  564   5.074   5.054   5.599  2.4867  1.3575 -1.0941
   18C      C2'  565   5.109   4.993   5.802 -0.0889 -0.4595 -0.0303
   18C      H2'  566   5.139   4.906   5.744 -4.3466 -2.1786 -0.0156
   18C      O2'  567   5.194   5.043   5.903 -0.1436  0.0210 -0.2166
   18C     HO2'  568   5.278   5.059   5.860  0.5059  3.3683  1.9553
   18C      O3'  569   5.181   5.203   5.677 -0.5709  0.0320 -0.7914
   19G        P  570   5.319   5.169   5.603 -0.1189  0.0395  0.0385
   19G      OP1  571   5.396   5.295   5.594  0.1462 -0.1585 -0.5417
   19G      OP2  572   5.283   5.097   5.478 -0.0120  0.1423 -0.0511
   19G      O5'  573   5.393   5.057   5.692  0.2960  0.0682 -0.2648
   19G      C5'  574   5.504   5.098   5.769  0.2133 -0.3117  0.0613
   19G      H5'  575   5.481   5.183   5.833  0.9978  1.2942 -1.6710
   19G     H5''  576   5.585   5.142   5.711  1.2500  3.3672  3.7985
   19G      C4'  577   5.576   4.991   5.851  0.5059 -0.5118 -0.4528
   19G      H4'  578   5.657   5.043   5.904 -1.6041  2.7016 -0.1108
   19G      O4'  579   5.498   4.931   5.951 -0.2056  0.1345 -0.6109
   19G      C1'  580   5.541   4.797   5.966 -0.0895  0.2057 -0.3198
   19G      H1'  581   5.554   4.771   6.071  2.5842  1.5115 -0.2412
   19G       N9  582   5.448   4.711   5.892 -0.1540  0.0044 -0.0089
   19G       C8  583   5.348   4.736   5.801 -0.5038  0.1595  0.4170
   19G       H8  584   5.337   4.831   5.751  0.1373 -0.4625 -0.9419
   19G       N7  585   5.272   4.635   5.771 -0.4964  0.2194  0.1932
   19G       C5  586   5.321   4.532   5.851  0.1004  0.0842 -0.3404
   19G       C6  587   5.282   4.397   5.870 -0.7819  0.4212  0.2922
   19G       O6  588   5.198   4.334   5.806 -0.2205  0.5253 -0.5601
   19G       N1  589   5.366   4.324   5.953 -0.3689  0.2164 -0.3011
   19G       H1  590   5.346   4.225   5.960  0.1065  0.0599 -1.0483
   19G       C2  591   5.473   4.383   6.017  0.0369 -0.1032 -0.6794
   19G       N2  592   5.543   4.301   6.097  0.1924  0.1535 -0.5502
   19G      H21  593   5.514   4.204   6.099  2.4508 -0.6051  2.5606
   19G      H22  594   5.618   4.339   6.152 -1.0070  2.4674 -0.3897
   19G       N3  595   5.515   4.509   6.000 -0.1684  0.0947  0.2391
   19G       C4  596   5.434   4.577   5.916 -0.2768  0.0780  0.3289
   19G      C3'  597   5.661   4.888   5.777  0.5263 -0.7152 -0.1465
   19G      H3'  598   5.598   4.852   5.695  0.5339 -1.0455 -0.0104
   19G      C2'  599   5.671   4.782   5.887  0.1505 -0.4143  0.1791
   19G      H2'  600   5.679   4.681   5.849 -0.1325 -0.4114  0.1082
   19G      O2'  601   5.768   4.811   5.985  0.4596 -0.3292 -0.1511
   19G     HO2'  602   5.800   4.725   6.012 -2.7310 -1.9425 -0.9998
   19G      O3'  603   5.782   4.935   5.723  0.1895  0.2924 -0.0505
   20G        P  604   5.856   4.846   5.611 -0.0921 -0.0572  0.0381
   20G      OP1  605   5.979   4.922   5.579 -0.4000  0.5687  0.3287
   20G      OP2  606   5.760   4.828   5.499  0.7425  0.9125 -0.8549
   20G      O5'  607   5.904   4.708   5.679 -0.0647 -0.1141 -0.0939
   20G      C5'  608   6.019   4.707   5.760  0.0726 -0.3862 -0.2959
   20G      H5'  609   6.017   4.790   5.830 -2.1234 -0.2656 -0.4322
   20G     H5''  610   6.112   4.716   5.703  0.3350  0.2499  0.2252
   20G      C4'  611   6.017   4.582   5.847 -0.1315 -0.2957 -0.1702
   20G      H4'  612   6.084   4.601   5.931 -0.2146 -1.0799  0.0840
   20G      O4'  613   5.893   4.547   5.904 -0.1121  0.2986  0.2457
   20G      C1'  614   5.888   4.406   5.913 -0.2246  0.2317 -0.7685
   20G      H1'  615   5.851   4.374   6.010  2.3139 -1.6588 -0.3269
   20G       N9  616   5.785   4.351   5.823 -0.6222 -0.3116  0.0096
   20G       C8  617   5.717   4.413   5.721 -0.4151  0.6348  0.4320
   20G       H8  618   5.738   4.516   5.699  1.1554  0.4388  0.8783
   20G       N7  619   5.613   4.346   5.679  0.4361 -0.5184  0.1015
   20G       C5  620   5.628   4.221   5.738 -0.1813 -0.3670  0.5959
   20G       C6  621   5.559   4.099   5.719  0.3251 -0.5147 -0.3412
   20G       O6  622   5.467   4.072   5.642 -0.0926 -0.0728  0.0013
   20G       N1  623   5.610   3.992   5.792 -0.1813 -0.2205  0.4523
   20G       H1  624   5.572   3.900   5.774  0.5742  0.0672 -3.2390
   20G       C2  625   5.718   4.008   5.877 -0.1613 -0.7141  0.5255
   20G       N2  626   5.755   3.898   5.943  0.6535 -0.4538  0.5089
   20G      H21  627   5.682   3.829   5.949  0.4661 -0.1769  1.9326
   20G      H22  628   5.812   3.919   6.024  0.0590  0.6378  0.6541
   20G       N3  629   5.776   4.125   5.908 -0.6618 -0.5337  0.8020
   20G       C4  630   5.729   4.226   5.831 -0.2582 -0.4336  0.6857
   20G      C3'  631   6.069   4.455   5.779  0.5877 -0.0577 -0.0707
   20G      H3'  632   6.009   4.453   5.688 -0.4925 -0.4048  0.6280
   20G      C2'  633   6.021   4.344   5.871 -0.1580  0.0643 -0.3057
   20G      H2'  634   6.006   4.245   5.828  0.7494  0.0528 -0.6062
   20G      O2'  635   6.094   4.331   5.992 -0.2821  1.0455 -0.1205
   20G     HO2'  636   6.125   4.417   6.023 -0.6024  1.0481  0.1963
   20G      O3'  637   6.209   4.460   5.758  0.5870  0.2438 -0.0086
   21U        P  638   6.286   4.370   5.650  0.0588  0.0748 -0.2482
   21U      OP1  639   6.431   4.387   5.675  0.1089 -0.4398 -0.1894
   21U      OP2  640   6.232   4.400   5.515 -0.2733  0.5101 -0.0194
   21U      O5'  641   6.255   4.214   5.676 -1.0750  0.3860  0.2930
   21U      C5'  642   6.221   4.127   5.571  0.1683  0.3284 -0.0734
   21U      H5'  643   6.307   4.098   5.511 -1.0410 -0.4148 -1.5331
   21U     H5''  644   6.141   4.164   5.507 -1.7288 -3.2949 -0.0241
   21U      C4'  645   6.173   3.996   5.632  0.4564  0.1141 -0.3064
   21U      H4'  646   6.243   3.954   5.704 -1.2095  1.5160  2.2788
   21U      O4'  647   6.057   4.006   5.711  0.2842 -0.0951 -0.5308
   21U      C1'  648   5.975   3.896   5.677  0.3151 -0.1282 -0.4983
   21U      H1'  649   5.933   3.863   5.772  0.3080  0.5872 -0.2439
   21U       N1  650   5.858   3.927   5.592 -0.1978 -0.2302  0.1545
   21U       C6  651   5.842   4.050   5.535 -0.4259 -0.0811  0.5420
   21U       H6  652   5.897   4.132   5.580 -0.5397 -0.7623  1.9843
   21U       C5  653   5.747   4.079   5.443 -0.1779  0.0815  0.3360
   21U       H5  654   5.742   4.175   5.395 -1.2446 -0.3902 -0.5420
   21U       C4  655   5.654   3.975   5.404  0.5409 -0.2621 -0.5127
   21U       O4  656   5.565   3.991   5.322  0.4016  0.0363 -0.3044
   21U       N3  657   5.673   3.853   5.468  0.7077 -0.2155 -0.4699
   21U       H3  658   5.611   3.777   5.439 -1.1598  1.3068 -0.6844
   21U       C2  659   5.771   3.824   5.561  0.3174 -0.5759 -0.1627
   21U       O2  660   5.759   3.718   5.622  0.0286 -0.2129  0.4175
   21U      C3'  661   6.152   3.890   5.524  0.0114  0.2027 -0.3104
   21U      H3'  662   6.100   3.943   5.444  2.0640  4.5465  0.9473
   21U      C2'  663   6.055   3.796   5.595  0.5936 -0.2387 -0.0909
   21U      H2'  664   5.990   3.747   5.523  0.1417 -1.1562  0.9177
   21U      O2'  665   6.118   3.710   5.688 -0.2378 -0.8348 -0.0735
   21U     HO2'  666   6.204   3.706   5.646 -0.9971  1.2297 -2.0574
   21U      O3'  667   6.274   3.824   5.496 -0.1976 -0.4239  0.2416
   22G        P  668   6.289   3.710   5.383  0.2136  0.1405 -0.2835
   22G      OP1  669   6.433   3.675   5.395  0.1957  0.0517 -0.3154
   22G      OP2  670   6.234   3.764   5.257  0.4561  0.2680 -0.3341
   22G      O5'  671   6.207   3.577   5.425  0.6500  0.1182  0.5353
   22G      C5'  672   6.272   3.465   5.481  0.3363 -0.1542  0.3590
   22G      H5'  673   6.312   3.488   5.580  0.4162 -0.3993  0.3845
   22G     H5''  674   6.362   3.442   5.423 -0.0146 -0.8829  0.0940
   22G      C4'  675   6.193   3.335   5.475  0.1108 -0.0087  0.1646
   22G      H4'  676   6.255   3.254   5.513  2.2099  1.0792 -0.7636
   22G      O4'  677   6.062   3.352   5.526  0.1212  0.0500  0.1728
   22G      C1'  678   5.968   3.290   5.442  0.6122  0.4216 -0.6663
   22G      H1'  679   5.924   3.216   5.509  0.1444  2.0604  0.8979
   22G       N9  680   5.874   3.385   5.380 -0.1653 -0.0280 -0.1928
   22G       C8  681   5.871   3.521   5.396 -0.3760 -0.1031  0.4278
   22G       H8  682   5.949   3.557   5.461  1.1265 -1.9713 -0.2708
   22G       N7  683   5.799   3.595   5.316 -0.5107 -0.0579  0.5889
   22G       C5  684   5.743   3.495   5.237 -0.6717  0.4461  0.0523
   22G       C6  685   5.639   3.508   5.142 -0.8046  0.1532  0.1558
   22G       O6  686   5.585   3.610   5.100 -0.6176  0.1001 -0.2251
   22G       N1  687   5.595   3.384   5.097 -1.5166  0.3934  0.1777
   22G       H1  688   5.511   3.382   5.041 -0.5512 -1.4745 -1.3261
   22G       C2  689   5.644   3.263   5.145  0.7562  0.8443 -0.8812
   22G       N2  690   5.593   3.156   5.081 -0.3288  0.4548  0.5845
   22G      H21  691   5.537   3.170   4.998  2.1389  0.6969 -1.1423
   22G      H22  692   5.618   3.065   5.116  0.1072 -0.8662 -2.8128
   22G       N3  693   5.747   3.251   5.228  0.2671  0.3979 -0.3311
   22G       C4  694   5.779   3.371   5.282 -0.2135  0.4759 -0.2228
   22G      C3'  695   6.173   3.295   5.329  0.4158  0.1823  0.0698
   22G      H3'  696   6.149   3.388   5.277 -2.6555 -1.5450 -1.9038
   22G      C2'  697   6.044   3.213   5.334  0.4320  0.1145 -0.5772
   22G      H2'  698   6.000   3.210   5.234  1.4741 -1.5832 -1.0248
   22G      O2'  699   6.056   3.080   5.380 -0.3524  0.1115 -0.3722
   22G     HO2'  700   5.982   3.031   5.344 -0.1130  0.0142 -0.7419
   22G      O3'  701   6.283   3.237   5.264  0.4082 -0.0750  0.2847
   23U        P  702   6.309   3.265   5.107 -0.2823 -0.2100  0.1451
   23U      OP1  703   6.412   3.163   5.079 -0.3649 -0.2541 -0.0002
   23U      OP2  704   6.337   3.410   5.094 -0.6326 -0.2079 -0.6113
   23U      O5'  705   6.174   3.220   5.032 -0.4355  0.0974  0.2326
   23U      C5'  706   6.134   3.084   5.031 -0.0215 -0.0266  0.2963
   23U      H5'  707   6.114   3.059   5.135 -0.2319 -0.2683  0.1978
   23U     H5''  708   6.217   3.021   5.001 -0.0216 -0.3811  1.0221
   23U      C4'  709   6.016   3.044   4.942  0.1726 -0.7547  0.3661
   23U      H4'  710   6.008   2.936   4.952 -3.3906 -0.7150 -0.7489
   23U      O4'  711   5.887   3.079   4.986  0.3954  0.8146 -0.1606
   23U      C1'  712   5.812   3.095   4.868  0.1353  0.0596 -0.1020
   23U      H1'  713   5.719   3.039   4.881  0.2264  0.1772  1.2644
   23U       N1  714   5.766   3.231   4.835  0.2303 -0.0542 -0.7124
   23U       C6  715   5.831   3.338   4.889 -0.2558 -0.2202  0.2194
   23U       H6  716   5.917   3.317   4.951  1.6056  1.8535 -1.5249
   23U       C5  717   5.787   3.464   4.865  0.3931 -0.2344 -1.0966
   23U       H5  718   5.831   3.553   4.907 -1.4059 -0.4039  1.3409
   23U       C4  719   5.672   3.493   4.783 -0.7770  0.1783  0.6515
   23U       O4  720   5.628   3.603   4.751 -0.6825 -0.0254 -0.1882
   23U       N3  721   5.614   3.379   4.729 -0.4327  0.0244  0.6045
   23U       H3  722   5.547   3.387   4.654  0.3256 -2.0462 -0.3926
   23U       C2  723   5.667   3.251   4.741 -0.3832 -0.0227 -0.0677
   23U       O2  724   5.612   3.162   4.676 -0.0042  0.4752 -1.0833
   23U      C3'  725   6.031   3.073   4.793 -0.0567 -0.4620  0.3998
   23U      H3'  726   6.047   3.179   4.776 -0.9372 -0.4252 -0.2919
   23U      C2'  727   5.889   3.033   4.752 -0.0580  0.2891 -0.3549
   23U      H2'  728   5.843   3.080   4.665  1.7099  0.6491 -1.1491
   23U      O2'  729   5.879   2.893   4.739  0.0882  0.2563 -0.1291
   23U     HO2'  730   5.941   2.872   4.669  0.7002  1.4396  0.0380
   23U      O3'  731   6.138   2.999   4.738  0.5765  0.4914  0.3378
   24A        P  732   6.225   3.056   4.615 -0.3628  0.2362 -0.4631
   24A      OP1  733   6.342   2.967   4.597  0.0395  0.6313  0.1692
   24A      OP2  734   6.255   3.196   4.650  0.0510  0.0904 -0.2246
   24A      O5'  735   6.145   3.066   4.475 -0.3224 -0.2709 -0.5245
   24A      C5'  736   6.111   2.953   4.399  0.2850 -0.6325 -0.2750
   24A      H5'  737   6.122   2.875   4.474 -1.1893  1.5724  2.4136
   24A     H5''  738   6.189   2.933   4.326 -0.1794 -3.7561 -0.0653
   24A      C4'  739   5.979   2.968   4.324  0.0948 -0.3059  0.1223
   24A      H4'  740   5.940   2.869   4.301  1.2122 -0.6139 -0.4889
   24A      O4'  741   5.891   3.036   4.410 -0.2669 -0.1792 -0.3405
   24A      C1'  742   5.791   3.100   4.333 -0.5520 -0.0421  0.1371
   24A      H1'  743   5.695   3.051   4.351 -0.5910 -0.6107 -1.4614
   24A       N9  744   5.789   3.241   4.376  0.5401  0.0912 -0.2315
   24A       C8  745   5.876   3.312   4.455 -0.3473  0.2427  0.6255
   24A       H8  746   5.964   3.269   4.501 -0.6613  0.7673  1.7343
   24A       N7  747   5.841   3.437   4.461 -0.2976  0.3094 -0.2845
   24A       C5  748   5.721   3.442   4.390 -0.2431 -0.1908 -0.4126
   24A       C6  749   5.621   3.537   4.364 -0.0873  0.1097  0.0806
   24A       N6  750   5.619   3.666   4.401  0.1901 -0.0894  0.8218
   24A      H61  751   5.705   3.709   4.430 -1.1405  2.2951  1.4524
   24A      H62  752   5.529   3.712   4.394 -0.7099 -1.6038  1.9191
   24A       N1  753   5.514   3.517   4.287 -0.4795 -0.0799  0.6707
   24A       C2  754   5.492   3.391   4.251  0.4190  0.0435 -0.3512
   24A       H2  755   5.398   3.364   4.207 -0.5667 -0.2672  1.8138
   24A       N3  756   5.571   3.286   4.272 -0.0920 -0.2442  0.1441
   24A       C4  757   5.684   3.320   4.338  0.2457 -0.3611 -0.3702
   24A      C3'  758   5.986   3.065   4.206 -0.3012  0.1748  0.4888
   24A      H3'  759   6.038   3.154   4.242  1.4068 -0.8136  0.5953
   24A      C2'  760   5.837   3.092   4.188 -0.2542  0.2564  0.2158
   24A      H2'  761   5.825   3.186   4.133 -0.4754 -0.0556 -0.2675
   24A      O2'  762   5.782   2.986   4.114  0.2529  0.5035 -0.5338
   24A     HO2'  763   5.820   2.988   4.026 -0.2965 -0.1754 -0.7972
   24A      O3'  764   6.044   2.991   4.101  0.0061  0.8357  0.1842
   25A        P  765   6.119   3.071   3.983  0.1830 -0.2621 -0.4686
   25A      OP1  766   6.169   2.967   3.891 -0.0559 -0.4385 -0.3988
   25A      OP2  767   6.211   3.175   4.035 -0.2039 -0.1613  0.0283
   25A      O5'  768   5.992   3.144   3.916  0.1528  0.1195 -0.0013
   25A      C5'  769   5.898   3.082   3.831 -0.0759  0.2733  0.1346
   25A      H5'  770   5.852   2.996   3.880 -2.1028  0.0138 -2.0466
   25A     H5''  771   5.934   3.031   3.742 -0.0457  0.8585 -0.1922
   25A      C4'  772   5.781   3.170   3.789 -0.0841  0.2082  0.0186
   25A      H4'  773   5.715   3.114   3.723  0.1160  0.1346 -0.1196
   25A      O4'  774   5.703   3.216   3.897 -0.3076  0.0404 -0.0729
   25A      C1'  775   5.660   3.347   3.865 -0.1843  0.1282  0.1138
   25A      H1'  776   5.551   3.355   3.864 -0.1897  0.0729  0.3037
   25A       N9  777   5.722   3.451   3.947  0.0348  0.6427 -0.6918
   25A       C8  778   5.846   3.456   4.005 -0.4770 -0.2078  0.5132
   25A       H8  779   5.913   3.371   4.003 -1.1313 -0.7780 -3.1083
   25A       N7  780   5.877   3.571   4.058  0.6895  0.2507 -1.0956
   25A       C5  781   5.758   3.642   4.052  0.1883 -0.4352  0.4199
   25A       C6  782   5.715   3.766   4.100 -0.1234 -0.4761  0.2527
   25A       N6  783   5.778   3.857   4.177 -0.1212  0.0789 -0.3894
   25A      H61  784   5.878   3.849   4.191 -0.3060  0.2301  1.2354
   25A      H62  785   5.721   3.937   4.198  1.4347  1.8946 -2.6872
   25A       N1  786   5.596   3.812   4.059  0.0301 -0.1516  0.1620
   25A       C2  787   5.520   3.735   3.982 -0.4883  0.5834 -0.0706
   25A       H2  788   5.434   3.790   3.947 -0.3284  0.8363 -0.0679
   25A       N3  789   5.539   3.609   3.946 -0.5679  0.1559  1.3217
   25A       C4  790   5.664   3.571   3.981 -0.0397  0.4680 -0.1854
   25A      C3'  791   5.821   3.288   3.700  0.4039  0.3310  0.3896
   25A      H3'  792   5.907   3.344   3.734 -2.2287  3.9020  1.8051
   25A      C2'  793   5.700   3.379   3.721  0.4047  0.3467  0.3252
   25A      H2'  794   5.734   3.482   3.709 -1.1306  0.7364 -1.0960
   25A      O2'  795   5.590   3.370   3.633  0.7093 -0.1580 -0.0091
   25A     HO2'  796   5.624   3.316   3.561  1.1613 -0.4974  0.4573
   25A      O3'  797   5.830   3.249   3.565  0.4807  0.0081  0.4856
   26G        P  798   5.911   3.339   3.457  0.1042 -0.0620  0.1419
   26G      OP1  799   5.911   3.260   3.332 -1.1956  0.1627 -0.0202
   26G      OP2  800   6.041   3.373   3.519  0.3851  0.0496 -0.5087
   26G      O5'  801   5.835   3.478   3.427  0.0270 -0.0907  0.2012
   26G      C5'  802   5.733   3.480   3.330 -0.0543  0.1388  0.2911
   26G      H5'  803   5.656   3.403   3.340  0.0258 -0.1861 -1.3636
   26G     H5''  804   5.777   3.454   3.234 -2.0035 -1.3576 -0.2728
   26G      C4'  805   5.663   3.615   3.333 -0.5631 -0.0985 -0.5601
   26G      H4'  806   5.580   3.612   3.262 -2.2174 -2.2097  1.3556
   26G      O4'  807   5.599   3.650   3.453 -0.1344 -0.2854 -0.2757
   26G      C1'  808   5.617   3.789   3.466  0.5941 -0.4165  0.1646
   26G      H1'  809   5.520   3.832   3.489  1.0647  1.3402 -0.9282
   26G       N9  810   5.690   3.802   3.593 -0.3098 -0.2717  0.6760
   26G       C8  811   5.798   3.727   3.632  0.0344 -0.3327 -0.3646
   26G       H8  812   5.821   3.627   3.598  0.4219 -0.5153  0.3972
   26G       N7  813   5.871   3.785   3.724  0.1575 -0.3227 -0.4689
   26G       C5  814   5.803   3.902   3.756  0.0744 -0.4068 -0.3392
   26G       C6  815   5.831   4.008   3.847 -0.2326 -0.1693 -0.5218
   26G       O6  816   5.922   4.015   3.929 -0.2374  0.7461 -0.5903
   26G       N1  817   5.745   4.115   3.826 -0.5303 -0.2713  0.1896
   26G       H1  818   5.743   4.200   3.880 -2.5313 -0.1481  0.0186
   26G       C2  819   5.638   4.107   3.738  0.1079  0.0090 -0.6166
   26G       N2  820   5.554   4.211   3.736 -0.4205 -0.3943  0.0877
   26G      H21  821   5.564   4.288   3.801 -0.1617 -0.3721  0.0205
   26G      H22  822   5.465   4.204   3.688 -0.3264 -3.9345  0.2136
   26G       N3  823   5.604   4.011   3.652 -0.4364 -0.0322 -0.3598
   26G       C4  824   5.692   3.911   3.677  0.0475  0.4231 -0.2176
   26G      C3'  825   5.761   3.725   3.293 -0.1802 -0.2116  0.0636
   26G      H3'  826   5.850   3.724   3.356  1.3405  2.7465 -1.7910
   26G      C2'  827   5.684   3.848   3.342 -0.1146 -0.1130 -0.0792
   26G      H2'  828   5.744   3.939   3.348 -1.3748  0.8672 -1.6479
   26G      O2'  829   5.579   3.877   3.253 -0.4301  0.1434  0.3727
   26G     HO2'  830   5.559   3.804   3.194  2.9482 -1.4881  0.9816
   26G      O3'  831   5.788   3.725   3.155 -0.0861 -0.2938  0.0819
   27U        P  832   5.902   3.821   3.093 -0.2275 -0.1980 -0.0319
   27U      OP1  833   5.880   3.961   3.132  0.1312 -0.1375 -0.0398
   27U      OP2  834   5.899   3.796   2.947 -0.5683 -0.2346 -0.0194
   27U      O5'  835   6.048   3.787   3.152 -0.4446 -0.0905  0.5671
   27U      C5'  836   6.082   3.658   3.197 -0.1460 -0.1938  0.0510
   27U      H5'  837   6.075   3.596   3.107 -2.0740 -2.3357  1.5480
   27U     H5''  838   6.020   3.639   3.284 -2.0722  1.8575 -0.7884
   27U      C4'  839   6.230   3.652   3.236  0.0024  0.4519 -0.4020
   27U      H4'  840   6.242   3.560   3.293 -1.3152  1.0512  0.9117
   27U      O4'  841   6.321   3.638   3.130 -0.0313 -0.0040 -0.3701
   27U      C1'  842   6.445   3.663   3.193 -0.1641 -0.3719  0.0409
   27U      H1'  843   6.493   3.567   3.209 -0.0627 -0.4981 -0.9774
   27U       N1  844   6.535   3.730   3.097 -0.3340 -0.4850 -0.1969
   27U       C6  845   6.494   3.818   3.002 -0.8932  0.0142  0.4919
   27U       H6  846   6.387   3.825   2.989 -1.1041  1.3168  2.5245
   27U       C5  847   6.585   3.897   2.940 -0.1812 -0.6385  0.6954
   27U       H5  848   6.555   3.969   2.866  1.8273 -0.9214 -0.4725
   27U       C4  849   6.727   3.895   2.964 -0.0687 -0.7164  0.0257
   27U       O4  850   6.807   3.982   2.930  0.1549 -0.7954  0.3481
   27U       N3  851   6.757   3.786   3.044 -0.1756 -0.5360  0.3086
   27U       H3  852   6.852   3.790   3.078  0.2027  1.4964 -0.7920
   27U       C2  853   6.670   3.710   3.121 -0.3908 -0.2357  0.3598
   27U       O2  854   6.730   3.631   3.192  0.6466  0.2178 -0.0011
   27U      C3'  855   6.280   3.773   3.315  0.2708 -0.1458  0.3479
   27U      H3'  856   6.269   3.859   3.249  0.0581 -1.3063 -1.1849
   27U      C2'  857   6.426   3.730   3.329  0.3141 -0.1183 -0.0157
   27U      H2'  858   6.494   3.816   3.330  1.7473 -1.1997 -1.1772
   27U      O2'  859   6.451   3.639   3.434  0.0697  0.6385  0.7105
   27U     HO2'  860   6.523   3.579   3.416 -1.1402 -2.2875  4.4351
   27U      O3'  861   6.207   3.802   3.432  0.2741  0.2382  0.2546
   28G        P  862   6.262   3.917   3.532  0.3994  0.1769  0.2559
   28G      OP1  863   6.387   3.977   3.481  0.3864  0.7068  0.8488
   28G      OP2  864   6.264   3.858   3.668  0.7539 -0.4681 -0.0207
   28G      O5'  865   6.148   4.030   3.519  0.7185  0.4205 -0.4968
   28G      C5'  866   6.062   4.038   3.407  0.2054  0.5011 -0.0991
   28G      H5'  867   6.009   3.944   3.421  1.7975 -0.1630  2.0153
   28G     H5''  868   6.110   4.033   3.310 -2.2313 -3.5161 -1.2987
   28G      C4'  869   5.976   4.163   3.424 -0.4097  0.0090  0.4580
   28G      H4'  870   5.905   4.160   3.342 -1.0037  1.6110  0.8801
   28G      O4'  871   5.905   4.164   3.546  0.1933  0.2553  0.8096
   28G      C1'  872   5.890   4.299   3.585 -0.1717  0.3815  0.2450
   28G      H1'  873   5.784   4.310   3.604 -0.1635 -0.5550  0.9350
   28G       N9  874   5.969   4.305   3.710  0.3160 -0.0703 -0.0351
   28G       C8  875   6.061   4.220   3.766 -0.2713 -0.6117  0.1199
   28G       H8  876   6.087   4.127   3.719 -0.6023 -0.8766  0.4498
   28G       N7  877   6.121   4.264   3.873 -0.6564  0.1621  0.0306
   28G       C5  878   6.064   4.389   3.891 -0.4626  0.2038  0.3718
   28G       C6  879   6.084   4.477   4.000 -0.1680  0.2199  0.3046
   28G       O6  880   6.141   4.459   4.108 -0.0740 -0.2018  0.1858
   28G       N1  881   6.031   4.602   3.974 -0.1297  0.1400 -0.1591
   28G       H1  882   6.035   4.673   4.046 -1.6167 -1.9856  2.1931
   28G       C2  883   5.956   4.629   3.861  0.0720  0.0730 -0.3095
   28G       N2  884   5.917   4.755   3.837  0.3981  0.3773  0.6966
   28G      H21  885   5.959   4.840   3.871  1.5127  0.0669  0.1195
   28G      H22  886   5.857   4.756   3.756  0.2335 -1.3962  0.7610
   28G       N3  887   5.918   4.538   3.771 -0.7239 -0.3171  0.4115
   28G       C4  888   5.979   4.418   3.787  0.1103  0.0271 -0.1499
   28G      C3'  889   6.054   4.294   3.410  0.3105 -0.4387  0.2129
   28G      H3'  890   6.142   4.284   3.472  0.2390 -2.4700  0.0649
   28G      C2'  891   5.944   4.382   3.469  0.0311 -0.4557 -0.2703
   28G      H2'  892   5.988   4.468   3.519  0.3293 -1.2038  0.8014
   28G      O2'  893   5.828   4.399   3.391 -0.1734 -0.2441  0.0761
   28G     HO2'  894   5.847   4.403   3.297  0.7450 -1.9300  0.1444
   28G      O3'  895   6.085   4.324   3.275 -0.2883  0.0329  0.1742
   29C        P  896   6.222   4.395   3.229 -0.2190 -0.1280  0.1299
   29C      OP1  897   6.222   4.408   3.082  0.6201 -0.1363  0.1250
   29C      OP2  898   6.338   4.331   3.294  0.0700  0.4334  0.1749
   29C      O5'  899   6.220   4.544   3.292  0.1462 -0.2608  0.4562
   29C      C5'  900   6.128   4.642   3.249  0.1631 -0.2377  0.4736
   29C      H5'  901   6.028   4.602   3.264  0.7233 -2.1945 -0.6379
   29C     H5''  902   6.138   4.669   3.144 -0.9932 -0.5970  0.2562
   29C      C4'  903   6.142   4.760   3.345  0.1145  0.0395  0.1393
   29C      H4'  904   6.079   4.841   3.308 -0.3904 -0.5207 -0.2460
   29C      O4'  905   6.111   4.732   3.479 -0.7689  0.3390  0.0030
   29C      C1'  906   6.194   4.808   3.564 -0.5719 -0.0627  0.1752
   29C      H1'  907   6.136   4.889   3.609  1.0941  1.4004 -0.1855
   29C       N1  908   6.257   4.727   3.669  0.0255 -0.0465 -0.1659
   29C       C6  909   6.271   4.591   3.658 -0.4123 -0.0768 -0.3629
   29C       H6  910   6.276   4.541   3.562  3.0514 -2.3863  0.8341
   29C       C5  911   6.310   4.516   3.763  0.1591  0.3186 -0.2838
   29C       H5  912   6.311   4.408   3.760 -2.5654  0.1506  1.2514
   29C       C4  913   6.359   4.586   3.878 -0.3678 -0.0609  0.1815
   29C       N4  914   6.415   4.525   3.983  0.1142  0.7814  0.4240
   29C      H41  915   6.420   4.425   3.992 -0.5716  0.7336  0.2836
   29C      H42  916   6.450   4.580   4.060 -1.1027  3.1733 -0.6318
   29C       N3  917   6.357   4.720   3.883 -0.6480 -0.0607  0.0788
   29C       C2  918   6.303   4.793   3.782  1.0247  0.1757 -0.6823
   29C       O2  919   6.299   4.915   3.796  0.6025  0.0206  0.7943
   29C      C3'  920   6.284   4.816   3.333  0.0287  0.1860 -0.2065
   29C      H3'  921   6.357   4.741   3.303 -0.3565 -0.6640  0.9065
   29C      C2'  922   6.303   4.867   3.475 -0.4272 -0.4499  0.0920
   29C      H2'  923   6.403   4.832   3.499 -0.2153 -1.2034 -1.7277
   29C      O2'  924   6.294   5.008   3.477 -0.9760 -0.4749 -0.4397
   29C     HO2'  925   6.331   5.025   3.391  1.0227  1.0720  0.6365
   29C      O3'  926   6.301   4.924   3.244 -0.0975  0.2734 -0.1260
   30A        P  927   6.325   4.902   3.086  0.0695  0.0122 -0.0646
   30A      OP1  928   6.386   5.029   3.042 -0.5048  0.1767 -0.3941
   30A      OP2  929   6.200   4.856   3.021 -0.7832  0.1712  1.4150
   30A      O5'  930   6.432   4.783   3.062 -0.0673 -0.1497  0.1188
   30A      C5'  931   6.562   4.800   3.114 -0.1381 -0.2484  0.3255
   30A      H5'  932   6.576   4.775   3.219  1.0803  1.1204  0.5067
   30A     H5''  933   6.608   4.898   3.107 -1.5255  0.4203  0.3023
   30A      C4'  934   6.652   4.695   3.050 -0.0196 -0.0558  0.1769
   30A      H4'  935   6.594   4.612   3.010 -2.8030  0.6792  2.3910
   30A      O4'  936   6.726   4.755   2.945 -0.3826  0.0565 -0.0168
   30A      C1'  937   6.850   4.691   2.923 -0.4315 -0.0266 -0.0518
   30A      H1'  938   6.858   4.636   2.829 -1.6696  0.9317 -0.7503
   30A       N9  939   6.963   4.784   2.935 -0.4674  0.0236 -0.1061
   30A       C8  940   6.965   4.919   2.960 -0.0781 -0.0172  0.0759
   30A       H8  941   6.880   4.985   2.949 -1.4985 -1.8503 -0.3437
   30A       N7  942   7.086   4.964   2.982  0.1632 -0.6276  0.0259
   30A       C5  943   7.165   4.850   2.969  0.1095 -0.6520 -0.0788
   30A       C6  944   7.299   4.823   2.998  0.2767  0.2613  0.0351
   30A       N6  945   7.392   4.910   3.041  0.0533  0.5015  0.0304
   30A      H61  946   7.351   4.995   3.078 -0.3540 -0.0486  0.8544
   30A      H62  947   7.481   4.876   3.072  1.3448  0.6903 -3.0849
   30A       N1  948   7.352   4.700   2.986 -0.0912  0.0666  0.3921
   30A       C2  949   7.273   4.608   2.933 -0.1145  0.5251 -0.3940
   30A       H2  950   7.321   4.517   2.901 -3.0140 -0.8163 -1.2397
   30A       N3  951   7.142   4.615   2.913 -0.2438 -0.1341  0.1982
   30A       C4  952   7.092   4.739   2.934 -0.5313 -0.1570 -0.3499
   30A      C3'  953   6.766   4.641   3.135  0.1106  0.1668  0.1432
   30A      H3'  954   6.809   4.725   3.191 -0.7030  0.8136 -0.1829
   30A      C2'  955   6.861   4.583   3.031 -0.0436  0.1038  0.0372
   30A      H2'  956   6.959   4.570   3.078  1.0810  0.5488 -2.0622
   30A      O2'  957   6.814   4.467   2.966  0.1762  0.1755 -0.2566
   30A     HO2'  958   6.850   4.392   3.014  0.6288  1.6005  1.7867
   30A      O3'  959   6.729   4.535   3.220 -0.2903  0.4445  0.3153
   31G        P  960   6.801   4.525   3.364  0.2666  0.1857  0.0231
   31G      OP1  961   6.751   4.402   3.428 -0.0829  0.4512  0.2662
   31G      OP2  962   6.776   4.652   3.437 -0.1485  0.1891 -0.1237
   31G      O5'  963   6.960   4.520   3.344  0.2821  0.7018  0.0067
   31G      C5'  964   7.037   4.413   3.293  0.2738  0.4455  0.5313
   31G      H5'  965   7.014   4.390   3.189 -0.8644 -0.1845  0.9032
   31G     H5''  966   7.003   4.316   3.328 -1.6659  0.5104 -1.0256
   31G      C4'  967   7.189   4.420   3.308  0.4396 -0.6610 -0.5381
   31G      H4'  968   7.233   4.334   3.257 -1.3380 -0.4332 -2.6066
   31G      O4'  969   7.237   4.531   3.235  0.5395 -0.3504 -0.0069
   31G      C1'  970   7.321   4.611   3.315  0.0738  0.5346 -0.3864
   31G      H1'  971   7.412   4.627   3.257  0.8076  0.7527  0.8022
   31G       N9  972   7.267   4.744   3.344  0.1234  0.3954  0.3577
   31G       C8  973   7.154   4.806   3.297  0.2830  0.4461  0.0456
   31G       H8  974   7.078   4.747   3.249  0.0287 -0.7579  1.8428
   31G       N7  975   7.154   4.936   3.310 -0.2571  0.4375  0.1324
   31G       C5  976   7.274   4.957   3.376 -0.2610 -0.2242  0.3512
   31G       C6  977   7.324   5.084   3.415  0.1012 -0.0878 -0.5542
   31G       O6  978   7.275   5.196   3.403  0.5625  0.2919  0.8973
   31G       N1  979   7.442   5.071   3.487 -0.3505 -0.2595  0.1575
   31G       H1  980   7.474   5.163   3.513  0.4613 -0.2985 -0.6718
   31G       C2  981   7.518   4.956   3.475 -0.4704 -0.3142 -0.0760
   31G       N2  982   7.648   4.975   3.504 -0.4861 -0.1714 -0.1025
   31G      H21  983   7.666   5.061   3.555 -1.6147 -0.2795  0.5288
   31G      H22  984   7.707   4.894   3.492  0.7065  0.9440 -2.4660
   31G       N3  985   7.481   4.838   3.426  0.4397 -0.6963  0.1275
   31G       C4  986   7.350   4.844   3.389  0.5469  0.2579 -0.1195
   31G      C3'  987   7.245   4.446   3.447  0.0373 -0.2421 -0.4539
   31G      H3'  988   7.166   4.505   3.494  0.0294 -1.6101  1.3797
   31G      C2'  989   7.370   4.533   3.437 -0.7466  1.0089  0.2537
   31G      H2'  990   7.385   4.595   3.526 -0.4971 -1.6840  2.2067
   31G      O2'  991   7.496   4.477   3.406 -0.6686  1.0022  0.5778
   31G     HO2'  992   7.568   4.540   3.417  3.2835 -2.4060 -2.5371
   31G      O3'  993   7.266   4.333   3.528  0.0023 -0.3036 -0.5301
   32C        P  994   7.228   4.345   3.685  0.3573 -0.1138 -0.4575
   32C      OP1  995   7.271   4.221   3.755  0.3206  0.0266 -0.1868
   32C      OP2  996   7.089   4.393   3.696  0.5110  0.3811 -0.6691
   32C      O5'  997   7.330   4.456   3.741  0.2662 -0.3734  0.2254
   32C      C5'  998   7.466   4.427   3.760  0.3040  0.0351  0.6044
   32C      H5'  999   7.509   4.396   3.664 -0.9517  1.8794 -0.6248
   32C     H5'' 1000   7.477   4.360   3.845 -1.2120 -1.0026  0.0300
   32C      C4' 1001   7.554   4.542   3.809  0.0484  0.3298  0.3774
   32C      H4' 1002   7.648   4.488   3.818 -0.6480 -1.1669 -0.7567
   32C      O4' 1003   7.573   4.654   3.726  0.5870  0.0374  0.1046
   32C      C1' 1004   7.585   4.771   3.802  0.5666  0.1094 -0.0014
   32C      H1' 1005   7.678   4.819   3.773  0.3736  2.1266  2.3469
   32C       N1 1006   7.473   4.866   3.782  0.3258 -0.1268  0.2098
   32C       C6 1007   7.354   4.826   3.729  0.3725  0.2940 -0.2129
   32C       H6 1008   7.337   4.723   3.702 -5.6408  0.5238  1.2243
   32C       C5 1009   7.252   4.915   3.724 -0.3239 -0.4971 -0.2961
   32C       H5 1010   7.162   4.880   3.675 -0.9399  0.2642  0.2576
   32C       C4 1011   7.278   5.046   3.776 -0.4064 -0.5802 -0.0400
   32C       N4 1012   7.178   5.136   3.777  0.3198  0.2337  0.4105
   32C      H41 1013   7.086   5.110   3.746  0.1160  1.2326  0.1371
   32C      H42 1014   7.199   5.227   3.816 -2.6581  2.2420 -2.2437
   32C       N3 1015   7.390   5.082   3.839 -0.3245 -0.0554 -0.4676
   32C       C2 1016   7.492   4.991   3.837 -0.1940  0.0778 -0.0735
   32C       O2 1017   7.602   5.015   3.885 -0.0568  0.3259 -0.5066
   32C      C3' 1018   7.522   4.594   3.949  0.0660  0.2837  0.3987
   32C      H3' 1019   7.414   4.607   3.949 -0.1130 -1.1026 -0.0839
   32C      C2' 1020   7.594   4.729   3.949  0.2902  0.1640  0.0337
   32C      H2' 1021   7.538   4.802   4.006  1.8328  2.2133 -0.9420
   32C      O2' 1022   7.731   4.711   3.980  0.2337  0.2483  0.3286
   32C     HO2' 1023   7.731   4.659   4.061  1.3455 -2.6750 -1.4140
   32C      O3' 1024   7.570   4.508   4.050  0.0666 -0.2851 -0.0854
   33C        P 1025   7.501   4.509   4.196  0.1254 -0.3823 -0.0570
   33C      OP1 1026   7.590   4.436   4.289 -0.2226 -0.5584  0.1393
   33C      OP2 1027   7.369   4.446   4.172  0.1687 -0.5103  0.0372
   33C      O5' 1028   7.478   4.661   4.243  0.3521 -0.1711 -0.6113
   33C      C5' 1029   7.590   4.733   4.288  0.4273 -0.3069 -0.5799
   33C      H5' 1030   7.664   4.742   4.209 -0.1129 -1.1233 -1.1855
   33C     H5'' 1031   7.646   4.681   4.366  2.0949  0.2282 -1.3707
   33C      C4' 1032   7.544   4.869   4.340 -0.4921 -0.6971 -0.3560
   33C      H4' 1033   7.626   4.918   4.393 -0.1840  1.1860 -2.4132
   33C      O4' 1034   7.501   4.963   4.244  0.3912 -0.6354 -0.7009
   33C      C1' 1035   7.441   5.070   4.314 -0.4294 -1.0777 -0.7254
   33C      H1' 1036   7.519   5.144   4.331 -1.3046  0.3627 -2.5904
   33C       N1 1037   7.324   5.115   4.236 -0.7514 -0.2091  0.2327
   33C       C6 1038   7.255   5.027   4.158 -0.6161 -0.1284  0.0200
   33C       H6 1039   7.287   4.923   4.161 -0.4046 -0.1349  4.8095
   33C       C5 1040   7.150   5.068   4.083 -0.4083  0.2056 -0.0882
   33C       H5 1041   7.091   4.997   4.028 -0.8228 -0.2266  0.8909
   33C       C4 1042   7.113   5.206   4.094 -0.2516  0.2586 -0.2154
   33C       N4 1043   7.009   5.259   4.028 -0.1430  1.0287  0.2119
   33C      H41 1044   6.941   5.189   4.000  2.2628 -0.7376 -1.7101
   33C      H42 1045   6.981   5.352   4.054  0.2570  0.8426  1.3624
   33C       N3 1046   7.179   5.296   4.168  0.4082 -0.0885 -0.3724
   33C       C2 1047   7.282   5.247   4.241 -1.0985 -0.3624  1.6350
   33C       O2 1048   7.333   5.325   4.321 -0.0009  0.2444  0.3851
   33C      C3' 1049   7.423   4.860   4.432  0.1262 -0.0309  0.5428
   33C      H3' 1050   7.336   4.811   4.389 -1.6898  2.3521  1.2481
   33C      C2' 1051   7.393   5.010   4.445 -0.1206 -0.0187 -0.1130
   33C      H2' 1052   7.286   5.016   4.466 -0.6568 -2.0429 -1.8519
   33C      O2' 1053   7.462   5.072   4.551  0.4264  0.0438 -0.4997
   33C     HO2' 1054   7.455   5.020   4.631  0.9976 -0.5243 -0.8138
   33C      O3' 1055   7.465   4.787   4.544  0.1676 -0.3630  0.3114
   34C        P 1056   7.365   4.744   4.663 -0.4873 -0.0060 -0.1042
   34C      OP1 1057   7.450   4.687   4.771 -0.6841  0.0084  0.0590
   34C      OP2 1058   7.259   4.657   4.606 -0.0212 -0.3992 -0.3847
   34C      O5' 1059   7.295   4.880   4.712  0.2218  0.4441 -0.3300
   34C      C5' 1060   7.157   4.904   4.693  0.1494 -0.0410 -0.4207
   34C      H5' 1061   7.099   4.823   4.738 -0.7186  1.4879  1.3030
   34C     H5'' 1062   7.144   4.894   4.585  0.9686  0.6628 -0.6013
   34C      C4' 1063   7.131   5.043   4.749 -0.0107 -0.2365 -0.0063
   34C      H4' 1064   7.195   5.070   4.833 -0.3373  0.8163 -0.0727
   34C      O4' 1065   7.153   5.138   4.647 -0.5608 -0.4531 -0.3339
   34C      C1' 1066   7.046   5.230   4.640 -0.3574 -0.1855  0.0497
   34C      H1' 1067   7.091   5.329   4.651 -0.7883 -0.0188  0.3439
   34C       N1 1068   6.951   5.242   4.528 -0.1302 -0.2359 -0.1501
   34C       C6 1069   6.920   5.133   4.451 -0.0767 -0.1735 -0.2588
   34C       H6 1070   6.949   5.036   4.489 -2.6759 -0.8083  0.3004
   34C       C5 1071   6.840   5.148   4.344  0.5191 -0.1579 -0.7037
   34C       H5 1072   6.814   5.056   4.294  0.9963  0.2543 -1.7557
   34C       C4 1073   6.796   5.282   4.317  0.5699  0.0749  0.3372
   34C       N4 1074   6.705   5.301   4.220  0.8627 -0.4972 -0.0516
   34C      H41 1075   6.664   5.216   4.184 -0.7081  0.0148  0.4439
   34C      H42 1076   6.674   5.395   4.200  0.4088 -0.8732 -1.2151
   34C       N3 1077   6.829   5.388   4.392 -0.0026  0.0219  0.6746
   34C       C2 1078   6.911   5.371   4.499 -0.2013 -0.0304  0.8185
   34C       O2 1079   6.929   5.473   4.566 -0.3864  0.3763  0.2585
   34C      C3' 1080   6.986   5.063   4.792 -0.0297 -0.2642 -0.0555
   34C      H3' 1081   6.920   5.006   4.727 -1.8144 -4.5169  4.8072
   34C      C2' 1082   6.971   5.214   4.772  0.3003 -0.1620  0.4322
   34C      H2' 1083   6.870   5.243   4.743  0.6277  2.1394  1.4248
   34C      O2' 1084   7.013   5.299   4.876 -0.1110 -0.0893  0.5433
   34C     HO2' 1085   6.997   5.387   4.841 -0.1726 -0.6736 -0.9604
   34C      O3' 1086   6.943   5.019   4.919 -0.1608 -0.5997 -0.2148
   35G        P 1087   6.795   4.977   4.964 -0.2209  0.0668  0.2281
   35G      OP1 1088   6.770   5.011   5.106 -0.0086 -0.3747  0.3725
   35G      OP2 1089   6.784   4.833   4.932 -0.2808  0.0727  0.2238
   35G      O5' 1090   6.684   5.053   4.875 -0.1774 -0.1581 -0.0184
   35G      C5' 1091   6.647   5.189   4.881 -0.3841 -0.2005 -0.3147
   35G      H5' 1092   6.736   5.251   4.888  1.2779 -2.3129 -1.5281
   35G     H5'' 1093   6.583   5.207   4.967 -0.3472 -1.1268 -0.0832
   35G      C4' 1094   6.566   5.220   4.755 -0.4349 -0.0445 -0.2427
   35G      H4' 1095   6.552   5.328   4.747  0.3142 -0.0161 -1.3171
   35G      O4' 1096   6.629   5.180   4.636 -0.1527  0.0534 -0.1275
   35G      C1' 1097   6.528   5.148   4.543 -0.3049  0.1201  0.0139
   35G      H1' 1098   6.541   5.217   4.459 -0.6913 -0.6424 -0.6948
   35G       N9 1099   6.535   5.009   4.491 -0.1330  0.0125  0.3242
   35G       C8 1100   6.587   4.893   4.542 -0.3980 -0.3745 -0.2815
   35G       H8 1101   6.629   4.910   4.640 -0.3095  1.8771 -0.6359
   35G       N7 1102   6.588   4.791   4.461 -0.3171 -0.5679 -0.0365
   35G       C5 1103   6.527   4.845   4.348  0.0722 -0.1454 -0.0493
   35G       C6 1104   6.502   4.783   4.223  0.2825 -0.0449 -0.1409
   35G       O6 1105   6.533   4.670   4.185 -0.1224 -0.2283  0.0683
   35G       N1 1106   6.443   4.868   4.131  0.3014  0.3533  0.2102
   35G       H1 1107   6.405   4.821   4.050  0.7309  2.0618 -1.0236
   35G       C2 1108   6.398   4.993   4.165 -0.3473  0.1783  0.0114
   35G       N2 1109   6.306   5.047   4.084 -0.6435  0.3672  0.4617
   35G      H21 1110   6.286   5.009   3.992 -0.7638  2.3173 -0.3793
   35G      H22 1111   6.273   5.136   4.119 -1.8513 -0.9427  2.8352
   35G       N3 1112   6.418   5.055   4.283 -0.1334 -0.3669  0.2630
   35G       C4 1113   6.487   4.975   4.367  0.7771  0.0777 -0.0507
   35G      C3' 1114   6.424   5.164   4.749 -0.4073 -0.1386 -0.0143
   35G      H3' 1115   6.413   5.056   4.762 -0.8173 -0.5193 -2.8747
   35G      C2' 1116   6.391   5.180   4.601 -0.2972  0.1847 -0.0044
   35G      H2' 1117   6.318   5.105   4.572 -1.1536  0.6254  0.9227
   35G      O2' 1118   6.350   5.312   4.574 -0.3068  0.1884  0.0315
   35G     HO2' 1119   6.309   5.354   4.650 -1.9860 -1.4841  0.1261
   35G      O3' 1120   6.326   5.234   4.823 -0.2789  0.6309 -0.5608
   36U        P 1121   6.187   5.170   4.872  0.2334 -0.1034 -0.0469
   36U      OP1 1122   6.100   5.279   4.920 -0.4431 -0.5413 -0.2685
   36U      OP2 1123   6.216   5.067   4.975 -0.1874  0.0779  0.2547
   36U      O5' 1124   6.106   5.094   4.755 -0.3257 -0.1270  0.3506
   36U      C5' 1125   6.018   5.170   4.675 -0.5287 -0.3526  0.3608
   36U      H5' 1126   6.063   5.268   4.660  1.1962 -0.9764  1.1658
   36U     H5'' 1127   5.923   5.186   4.727 -1.0414  0.2442 -0.7295
   36U      C4' 1128   5.980   5.122   4.535 -0.2667  0.2669  0.0747
   36U      H4' 1129   5.933   5.197   4.471 -1.0492 -0.8404 -0.6871
   36U      O4' 1130   6.100   5.084   4.473 -0.3091  0.3940 -0.0845
   36U      C1' 1131   6.069   4.983   4.380 -0.0020  0.4206 -0.2204
   36U      H1' 1132   6.094   5.024   4.282  3.4544 -2.1394 -0.5643
   36U       N1 1133   6.142   4.858   4.407 -0.7496  0.1022  0.3766
   36U       C6 1134   6.211   4.836   4.523  0.3642  0.2890 -0.2347
   36U       H6 1135   6.206   4.908   4.604  1.4376  0.1703 -0.0553
   36U       C5 1136   6.261   4.714   4.548  0.6681  0.4601 -0.0024
   36U       H5 1137   6.294   4.689   4.648 -4.2819  2.6800  2.5663
   36U       C4 1138   6.262   4.608   4.451  1.0720  0.3803  0.0877
   36U       O4 1139   6.316   4.498   4.467  0.0775 -0.1657 -0.2453
   36U       N3 1140   6.198   4.642   4.333  0.0792  0.1673  0.5620
   36U       H3 1141   6.192   4.573   4.259 -0.5557 -0.0867  0.8346
   36U       C2 1142   6.138   4.764   4.305  0.3791  0.2330  0.1993
   36U       O2 1143   6.081   4.775   4.197  0.2546  0.1699  0.2577
   36U      C3' 1144   5.890   5.000   4.522  0.4268 -0.1822 -0.5859
   36U      H3' 1145   5.933   4.928   4.592 -1.5303  1.6202  2.7046
   36U      C2' 1146   5.918   4.960   4.377  0.0843 -0.1189 -0.6713
   36U      H2' 1147   5.883   4.861   4.348  1.8727 -0.0755 -3.2610
   36U      O2' 1148   5.852   5.047   4.288 -0.9674  0.1623  0.3507
   36U     HO2' 1149   5.759   5.035   4.308 -1.3320  2.2001  0.0489
   36U      O3' 1150   5.759   5.044   4.552  0.4450 -0.2232 -0.4490
   37C        P 1151   5.640   4.937   4.537  0.4308 -0.2959  0.1618
   37C      OP1 1152   5.521   4.995   4.605  0.6106  0.4961 -0.1884
   37C      OP2 1153   5.692   4.805   4.578 -0.2417 -0.5755  0.1375
   37C      O5' 1154   5.615   4.938   4.378 -0.1415 -0.5438  0.2478
   37C      C5' 1155   5.493   4.882   4.334  0.0435 -0.3916 -0.4661
   37C      H5' 1156   5.413   4.951   4.361  1.1718  0.2404  1.4918
   37C     H5'' 1157   5.477   4.789   4.390  1.3066  0.5167  1.5406
   37C      C4' 1158   5.495   4.849   4.185 -0.2459 -0.1010 -0.5339
   37C      H4' 1159   5.478   4.941   4.129 -1.2747  0.3420  0.4747
   37C      O4' 1160   5.618   4.790   4.151 -0.3803 -1.0198  0.5058
   37C      C1' 1161   5.594   4.688   4.056 -0.2421 -0.3803 -0.2320
   37C      H1' 1162   5.647   4.720   3.967 -3.3861  3.8375 -0.9206
   37C       N1 1163   5.653   4.562   4.106  0.1083 -0.0434  0.2076
   37C       C6 1164   5.715   4.547   4.227 -0.0784 -0.1432  0.2912
   37C       H6 1165   5.707   4.627   4.300 -0.2895 -0.6301  0.8111
   37C       C5 1166   5.797   4.442   4.246  0.3647  0.1983  0.3113
   37C       H5 1167   5.859   4.435   4.334 -1.1363 -1.1911  1.3330
   37C       C4 1168   5.815   4.345   4.141  0.3504  0.4892  0.0393
   37C       N4 1169   5.902   4.244   4.151  0.2265  0.3834  0.0557
   37C      H41 1170   5.972   4.240   4.224  0.3725 -1.4537 -0.1213
   37C      H42 1171   5.912   4.185   4.069  4.0238 -0.7589  1.1095
   37C       N3 1172   5.748   4.357   4.026  0.0926  0.2195  0.1611
   37C       C2 1173   5.660   4.459   4.014 -0.0248  0.1042  0.0320
   37C       O2 1174   5.594   4.458   3.911  0.0058  0.1485  0.0110
   37C      C3' 1175   5.379   4.755   4.152 -0.1801 -0.5409  0.4550
   37C      H3' 1176   5.352   4.688   4.234  2.5712 -0.5165  1.5184
   37C      C2' 1177   5.443   4.684   4.033 -0.2875  0.1893 -0.0396
   37C      H2' 1178   5.419   4.578   4.029  0.4763 -0.0369  0.9240
   37C      O2' 1179   5.431   4.753   3.910  0.2023 -0.2639 -0.3493
   37C     HO2' 1180   5.355   4.810   3.924  1.4820  1.1851  1.2795
   37C      O3' 1181   5.263   4.827   4.120  0.1606 -0.0631  0.2866
   38U        P 1182   5.116   4.769   4.153  0.0748  0.1198  0.2289
   38U      OP1 1183   5.038   4.864   4.071  0.0051 -0.5739 -0.5228
   38U      OP2 1184   5.091   4.765   4.298 -0.7339  0.0420  0.0905
   38U      O5' 1185   5.117   4.621   4.089 -0.1016 -0.0901  0.7091
   38U      C5' 1186   5.090   4.598   3.953  0.8008  0.8284  0.3560
   38U      H5' 1187   5.149   4.664   3.890  1.0770  0.0649 -0.1933
   38U     H5'' 1188   4.986   4.624   3.934 -0.9450 -3.5567  2.4459
   38U      C4' 1189   5.112   4.452   3.914 -0.1509  0.7353  0.1300
   38U      H4' 1190   5.086   4.449   3.808 -1.8477  1.7811  0.4784
   38U      O4' 1191   5.247   4.421   3.942 -0.2833 -0.1013 -0.1298
   38U      C1' 1192   5.253   4.280   3.947  0.3332 -0.0653  0.2318
   38U      H1' 1193   5.291   4.246   3.851  1.9538  0.9726  0.4623
   38U       N1 1194   5.350   4.234   4.048  1.2752  0.4031 -0.4431
   38U       C6 1195   5.396   4.315   4.148  0.3538  0.3674  0.0137
   38U       H6 1196   5.347   4.411   4.155  0.3004  0.4695 -1.5427
   38U       C5 1197   5.503   4.273   4.219  0.3758  0.0564 -0.1978
   38U       H5 1198   5.545   4.338   4.294 -0.0799 -1.7276  1.6858
   38U       C4 1199   5.563   4.142   4.214  1.1182  0.4005 -0.4779
   38U       O4 1200   5.650   4.093   4.286 -0.2087 -0.1611  0.7948
   38U       N3 1201   5.507   4.066   4.113 -0.6672  0.0464  0.7355
   38U       H3 1202   5.546   3.973   4.104  2.2260  0.9667  2.3672
   38U       C2 1203   5.401   4.106   4.033 -0.3770 -0.3484  0.1454
   38U       O2 1204   5.350   4.029   3.952 -0.1467 -0.2414 -0.1035
   38U      C3' 1205   5.030   4.339   3.975 -0.2580  0.6772 -0.1197
   38U      H3' 1206   5.028   4.374   4.078 -0.7779 -0.9502  0.4541
   38U      C2' 1207   5.116   4.214   3.960 -0.1296  0.7781 -0.2318
   38U      H2' 1208   5.109   4.150   4.048  0.4775  1.7181  0.5339
   38U      O2' 1209   5.080   4.143   3.844  0.1929 -0.7117  0.5454
   38U     HO2' 1210   4.988   4.115   3.853 -0.2028  0.7162  1.2495
   38U      O3' 1211   4.893   4.322   3.945 -0.1522 -0.4020 -0.0422
   39U        P 1212   4.790   4.251   4.046 -0.1349 -0.3002  0.0480
   39U      OP1 1213   4.655   4.281   3.995 -0.0190  0.1299 -0.0086
   39U      OP2 1214   4.832   4.290   4.183 -0.3877 -0.0405  0.0504
   39U      O5' 1215   4.821   4.093   4.042  0.4270 -0.2104  0.5585
   39U      C5' 1216   4.762   4.009   3.945 -0.1390  0.3638  0.3985
   39U      H5' 1217   4.787   4.038   3.843  0.4875 -2.2470 -0.2659
   39U     H5'' 1218   4.653   4.017   3.948 -0.1673  2.8154 -2.4248
   39U      C4' 1219   4.820   3.868   3.947 -0.0352  0.4032  0.1011
   39U      H4' 1220   4.790   3.803   3.865 -1.4625  1.3012 -0.1257
   39U      O4' 1221   4.961   3.870   3.953  0.0060 -0.0797 -0.5538
   39U      C1' 1222   5.007   3.759   4.027 -0.3197  0.4857  0.5135
   39U      H1' 1223   5.050   3.687   3.958  0.7462  3.0339 -1.6207
   39U       N1 1224   5.113   3.787   4.125  0.3080 -0.1781  0.0306
   39U       C6 1225   5.095   3.888   4.215 -0.7237 -0.5838  0.3002
   39U       H6 1226   5.005   3.945   4.198 -0.5761 -0.6209 -0.6882
   39U       C5 1227   5.182   3.911   4.316  0.0973 -1.2039 -0.2523
   39U       H5 1228   5.157   3.996   4.377 -0.9986 -1.1983 -0.6796
   39U       C4 1229   5.299   3.828   4.331  0.9268 -0.0099  0.0139
   39U       O4 1230   5.382   3.838   4.421  0.0932  0.5044  0.7417
   39U       N3 1231   5.301   3.718   4.246 -0.0452 -0.5790  0.7098
   39U       H3 1232   5.369   3.646   4.267 -0.6457 -1.1354  0.7623
   39U       C2 1233   5.219   3.698   4.136 -0.0262 -0.5010  0.6809
   39U       O2 1234   5.238   3.595   4.071  0.2801  0.0103 -0.0467
   39U      C3' 1235   4.780   3.800   4.077  0.4831 -0.0955  0.0066
   39U      H3' 1236   4.784   3.874   4.157  2.6998  1.0180 -1.0614
   39U      C2' 1237   4.882   3.687   4.080  0.0654 -0.4758  0.1385
   39U      H2' 1238   4.893   3.660   4.185  2.1653  1.3244  0.4599
   39U      O2' 1239   4.860   3.576   3.997  0.6044 -0.5642  0.1099
   39U     HO2' 1240   4.769   3.551   4.015  0.7719  1.0104  4.1448
   39U      O3' 1241   4.652   3.741   4.083  0.2698  0.3488 -0.0738
   40A        P 1242   4.576   3.705   4.220  0.0486 -0.2067 -0.3388
   40A      OP1 1243   4.438   3.667   4.182 -0.1185 -0.0918  0.1403
   40A      OP2 1244   4.596   3.814   4.318 -0.5673  0.3559 -0.8306
   40A      O5' 1245   4.656   3.573   4.267 -0.1604 -0.0171  0.5670
   40A      C5' 1246   4.617   3.438   4.269  0.4341 -0.1889  0.9044
   40A      H5' 1247   4.581   3.417   4.168 -0.4938  1.2556  0.8973
   40A     H5'' 1248   4.531   3.432   4.336 -1.5389  1.4076 -1.2839
   40A      C4' 1249   4.714   3.331   4.318  0.4262 -0.3288  0.6167
   40A      H4' 1250   4.670   3.233   4.298 -1.2088  0.2186  1.3372
   40A      O4' 1251   4.837   3.357   4.255 -0.1229  0.5696 -0.1133
   40A      C1' 1252   4.942   3.321   4.342 -0.3387  0.4208  0.0848
   40A      H1' 1253   5.011   3.242   4.312 -1.9598 -0.5473 -1.2609
   40A       N9 1254   5.017   3.437   4.393  0.1656 -0.0082  0.3289
   40A       C8 1255   4.981   3.565   4.426  0.3338  0.2774 -0.5716
   40A       H8 1256   4.885   3.611   4.408 -0.3239 -2.2600 -4.7770
   40A       N7 1257   5.063   3.619   4.512  0.4221 -0.1841 -0.3662
   40A       C5 1258   5.169   3.528   4.523 -0.0405 -0.6282  0.4906
   40A       C6 1259   5.296   3.520   4.582 -0.0071 -0.1704  0.4845
   40A       N6 1260   5.359   3.612   4.657 -0.2207 -0.0579  0.5271
   40A      H61 1261   5.313   3.702   4.660  1.3601  0.7411  2.5100
   40A      H62 1262   5.449   3.588   4.695  1.0390  0.2420 -2.0686
   40A       N1 1263   5.375   3.413   4.581  0.2900  0.0478  0.0156
   40A       C2 1264   5.335   3.314   4.502  0.5765  0.3737 -0.5430
   40A       H2 1265   5.392   3.223   4.497  3.1029  1.9276 -2.4557
   40A       N3 1266   5.220   3.307   4.437 -0.0274 -0.6254  0.5840
   40A       C4 1267   5.142   3.418   4.446  0.1881 -0.4328  0.1285
   40A      C3' 1268   4.732   3.338   4.469  0.1474  0.3125  0.6221
   40A      H3' 1269   4.736   3.444   4.495  0.5292  0.5214 -0.2518
   40A      C2' 1270   4.868   3.270   4.466 -0.3548 -0.6624 -0.3638
   40A      H2' 1271   4.923   3.298   4.555 -3.2780 -0.4691  1.5148
   40A      O2' 1272   4.853   3.130   4.448 -0.1749 -0.6377 -0.7183
   40A     HO2' 1273   4.759   3.114   4.447 -0.6117  1.4303  0.3157
   40A      O3' 1274   4.639   3.263   4.544  0.0125 -0.2593 -0.1082
   41C        P 1275   4.632   3.275   4.704  0.3782 -0.2827 -0.0910
   41C      OP1 1276   4.517   3.194   4.750 -0.2172  0.5341 -0.1198
   41C      OP2 1277   4.629   3.420   4.734  0.0088 -0.3449  0.1916
   41C      O5' 1278   4.766   3.218   4.775  0.0231 -0.1002  0.7435
   41C      C5' 1279   4.782   3.079   4.790 -0.4464 -0.2549 -0.0951
   41C      H5' 1280   4.775   3.032   4.692  0.1724  2.5804 -1.6005
   41C     H5'' 1281   4.712   3.040   4.863  1.0559 -0.9384  1.0436
   41C      C4' 1282   4.916   3.039   4.852 -0.1996  0.4467 -0.1704
   41C      H4' 1283   4.943   2.934   4.845  1.1431  0.7353  0.4283
   41C      O4' 1284   5.014   3.109   4.778  0.2568 -0.0630 -0.0462
   41C      C1' 1285   5.125   3.104   4.865  0.3178  0.3287 -0.1022
   41C      H1' 1286   5.200   3.041   4.817  0.6100  0.6975 -0.1386
   41C       N1 1287   5.175   3.243   4.871  0.0432  0.4102  0.2993
   41C       C6 1288   5.083   3.343   4.875 -0.0879  0.2903  0.3057
   41C       H6 1289   4.983   3.325   4.840 -0.2936 -2.1997  1.9597
   41C       C5 1290   5.129   3.464   4.914  0.2386  0.1916  0.2294
   41C       H5 1291   5.051   3.539   4.912 -1.3470 -1.3962 -0.0223
   41C       C4 1292   5.266   3.480   4.952  0.1288 -0.5124  0.9382
   41C       N4 1293   5.320   3.593   5.000 -0.3866 -0.0209  0.3760
   41C      H41 1294   5.260   3.668   5.029  0.6804 -0.1283  3.1927
   41C      H42 1295   5.419   3.600   5.022 -0.6962  1.1304  1.5221
   41C       N3 1296   5.355   3.381   4.943  0.5364 -0.0644 -0.1927
   41C       C2 1297   5.309   3.260   4.901  0.2257  0.0971 -0.3234
   41C       O2 1298   5.389   3.166   4.892  0.4887  0.3177 -0.3038
   41C      C3' 1299   4.929   3.079   4.999 -0.9132  0.4385 -0.1049
   41C      H3' 1300   4.912   3.184   5.021  0.0302  0.8347 -1.1766
   41C      C2' 1301   5.080   3.057   5.002 -0.9287  0.2397 -0.5352
   41C      H2' 1302   5.125   3.118   5.080  0.4509 -4.1544  2.4969
   41C      O2' 1303   5.116   2.921   5.005 -0.0912  0.4635 -0.4001
   41C     HO2' 1304   5.041   2.871   5.039 -0.4635  1.3086  0.0530
   41C      O3' 1305   4.850   2.992   5.077 -0.1781 -0.0218  0.1263
   42A        P 1306   4.837   3.024   5.235 -0.1295  0.3981  0.0465
   42A      OP1 1307   4.787   2.900   5.298 -0.2247 -0.0742 -0.9282
   42A      OP2 1308   4.755   3.146   5.246 -0.0445  0.5082 -0.4810
   42A      O5' 1309   4.977   3.053   5.309 -0.2258 -0.3016  0.5101
   42A      C5' 1310   5.070   2.948   5.323  0.1601 -0.0324 -0.0049
   42A      H5' 1311   5.083   2.901   5.226  0.3086  1.4499 -0.7259
   42A     H5'' 1312   5.028   2.880   5.397 -0.0018 -0.8763 -0.8509
   42A      C4' 1313   5.208   2.991   5.372  0.2260 -0.1348 -0.1047
   42A      H4' 1314   5.287   2.916   5.384  1.0530  0.4794 -1.3914
   42A      O4' 1315   5.270   3.077   5.279  0.5594 -0.1842  0.0709
   42A      C1' 1316   5.365   3.154   5.349  0.7187 -0.3897  0.0833
   42A      H1' 1317   5.467   3.129   5.320  2.2023  1.0844  3.4495
   42A       N9 1318   5.330   3.294   5.320  0.5911 -0.4647 -0.1270
   42A       C8 1319   5.224   3.339   5.246  0.5821 -0.3051 -0.0169
   42A       H8 1320   5.145   3.280   5.202 -1.6032 -1.4247  4.7866
   42A       N7 1321   5.207   3.468   5.260 -0.4112 -0.4360  0.0663
   42A       C5 1322   5.314   3.511   5.338 -1.2823 -0.0266  1.0616
   42A       C6 1323   5.382   3.632   5.362 -0.4943 -0.4272  0.8900
   42A       N6 1324   5.336   3.752   5.325  0.2358 -0.3164  0.3431
   42A      H61 1325   5.243   3.764   5.288 -0.2483  0.7168  1.8162
   42A      H62 1326   5.398   3.831   5.338  1.2924 -0.8425 -1.2333
   42A       N1 1327   5.500   3.636   5.425 -0.0132  0.3586 -0.0387
   42A       C2 1328   5.551   3.523   5.472 -0.2439  0.1736 -0.2291
   42A       H2 1329   5.645   3.523   5.525 -0.8543 -0.2020  0.9053
   42A       N3 1330   5.511   3.401   5.439 -0.0044  0.2889 -0.9541
   42A       C4 1331   5.394   3.405   5.370 -0.2915  0.2190 -0.4746
   42A      C3' 1332   5.205   3.070   5.502 -0.1003 -0.0396 -0.1691
   42A      H3' 1333   5.121   3.139   5.506  0.6119  0.7964  0.9685
   42A      C2' 1334   5.348   3.124   5.497 -0.1327  0.0681  0.0844
   42A      H2' 1335   5.355   3.221   5.547  0.9407 -0.2633  0.5960
   42A      O2' 1336   5.448   3.035   5.541 -0.2731  0.1102  0.5014
   42A     HO2' 1337   5.533   3.078   5.526  0.4022 -1.5518 -0.8888
   42A      O3' 1338   5.174   2.975   5.601 -0.1850 -0.1638 -0.3150
   43C        P 1339   5.140   3.012   5.754  0.1839  0.1868 -0.3167
   43C      OP1 1340   5.126   2.885   5.830  0.9610  0.2605 -0.0434
   43C      OP2 1341   5.030   3.110   5.755  0.3280  0.3489  0.0681
   43C      O5' 1342   5.267   3.098   5.803  0.0395  0.1087  0.2058
   43C      C5' 1343   5.379   3.039   5.865  0.3300  0.2491 -0.1751
   43C      H5' 1344   5.436   2.982   5.793 -0.9981  1.4613 -2.2762
   43C     H5'' 1345   5.344   2.986   5.954 -1.7092  1.3899 -0.2267
   43C      C4' 1346   5.466   3.150   5.924  0.2527  0.0624  0.2996
   43C      H4' 1347   5.560   3.118   5.969  1.0433  2.3441  0.3594
   43C      O4' 1348   5.509   3.242   5.826 -0.0344 -0.2208 -0.0978
   43C      C1' 1349   5.536   3.362   5.896 -1.3387 -0.0709  0.1601
   43C      H1' 1350   5.643   3.381   5.898 -0.8206 -2.6415 -0.0379
   43C       N1 1351   5.483   3.482   5.828  0.0722  0.3234 -0.2782
   43C       C6 1352   5.371   3.461   5.752  0.0954 -0.3796 -0.1263
   43C       H6 1353   5.332   3.362   5.735 -0.5625 -0.2593  0.6502
   43C       C5 1354   5.311   3.567   5.693  0.4054  0.0660  0.3492
   43C       H5 1355   5.222   3.543   5.637 -0.2294 -0.4177  1.5409
   43C       C4 1356   5.363   3.697   5.720  0.1618  0.1480  0.4182
   43C       N4 1357   5.305   3.803   5.661 -0.5067 -0.1606  0.5173
   43C      H41 1358   5.213   3.779   5.626 -0.2770 -1.9201  1.0280
   43C      H42 1359   5.348   3.893   5.676  1.0462 -0.9436  0.9616
   43C       N3 1360   5.463   3.726   5.804  0.5345  0.3072 -0.0766
   43C       C2 1361   5.517   3.613   5.856  0.1040  0.2180  0.1763
   43C       O2 1362   5.608   3.634   5.936  0.6234  0.1020 -0.3784
   43C      C3' 1363   5.395   3.234   6.029  0.4250 -0.4328  0.8175
   43C      H3' 1364   5.301   3.272   5.988 -0.4027 -0.4976  2.5588
   43C      C2' 1365   5.496   3.347   6.042 -0.1170  0.0912  0.5160
   43C      H2' 1366   5.460   3.443   6.081 -2.4214 -0.7315  0.5302
   43C      O2' 1367   5.609   3.294   6.107 -0.3128 -0.0882  0.7130
   43C     HO2' 1368   5.590   3.248   6.189  1.8910  4.0056  3.8879
   43C      O3' 1369   5.359   3.165   6.146 -0.1067 -0.6769  0.5135
   44C        P 1370   5.267   3.233   6.260 -0.1251 -0.0002  0.1004
   44C      OP1 1371   5.283   3.142   6.376 -0.1860 -0.1057  0.0269
   44C      OP2 1372   5.131   3.254   6.206  0.1381  0.3783 -0.4206
   44C      O5' 1373   5.345   3.367   6.306 -0.1928  0.0373  0.1052
   44C      C5' 1374   5.286   3.494   6.322  0.0605  0.1651  0.0272
   44C      H5' 1375   5.222   3.487   6.410  0.7306 -0.3407  0.4855
   44C     H5'' 1376   5.224   3.512   6.234  0.1211 -0.7633 -0.2160
   44C      C4' 1377   5.396   3.599   6.330  0.0893  0.1226  0.2038
   44C      H4' 1378   5.477   3.548   6.382  0.8089 -1.2418 -2.1008
   44C      O4' 1379   5.455   3.636   6.207 -0.4307 -0.0716 -0.1113
   44C      C1' 1380   5.472   3.776   6.195 -0.3616 -0.0511  0.1969
   44C      H1' 1381   5.565   3.796   6.142 -0.2534 -2.1486 -0.5250
   44C       N1 1382   5.365   3.842   6.117 -0.1268  0.2031  0.0920
   44C       C6 1383   5.260   3.773   6.065  0.2822 -0.3460 -0.0146
   44C       H6 1384   5.242   3.671   6.093 -0.2627 -0.1945  0.2000
   44C       C5 1385   5.179   3.831   5.973 -0.0844 -0.1326  0.4426
   44C       H5 1386   5.108   3.766   5.923 -1.3208 -0.6913  2.7639
   44C       C4 1387   5.207   3.968   5.943  0.8214 -0.5939 -0.8978
   44C       N4 1388   5.115   4.046   5.884  0.3905 -0.0282  0.4755
   44C      H41 1389   5.043   4.008   5.824  0.8553 -1.4057  0.7493
   44C      H42 1390   5.155   4.138   5.885  1.4922 -0.3934  3.7304
   44C       N3 1391   5.308   4.037   5.998 -0.4526  0.3395  0.3361
   44C       C2 1392   5.394   3.972   6.080 -0.6436  0.4881  0.6586
   44C       O2 1393   5.496   4.032   6.115 -0.3421  0.1685  0.3446
   44C      C3' 1394   5.357   3.728   6.401 -0.6896 -0.0095  0.0256
   44C      H3' 1395   5.257   3.755   6.367 -1.1091 -3.5478 -2.0564
   44C      C2' 1396   5.462   3.820   6.340 -0.0695 -0.4992  0.3531
   44C      H2' 1397   5.438   3.926   6.339  0.8363 -0.2803 -1.2519
   44C      O2' 1398   5.591   3.793   6.393  0.1547  0.7962  0.4862
   44C     HO2' 1399   5.567   3.750   6.475  0.0800  1.7590  0.9860
   44C      O3' 1400   5.379   3.708   6.539  0.0588  0.0643 -0.0791
   45G        P 1401   5.311   3.799   6.654 -0.2018  0.2534 -0.3808
   45G      OP1 1402   5.357   3.745   6.784 -0.1506 -0.2012 -0.5846
   45G      OP2 1403   5.167   3.806   6.622 -0.3333  0.2665  0.2027
   45G      O5' 1404   5.373   3.944   6.621  0.0676  0.3834  0.6662
   45G      C5' 1405   5.498   3.993   6.662  0.3987 -0.4538  0.6787
   45G      H5' 1406   5.571   3.938   6.602  0.5416 -1.8683  2.0834
   45G     H5'' 1407   5.528   3.970   6.764 -3.2882 -2.1885  1.5337
   45G      C4' 1408   5.513   4.139   6.621 -0.1419 -0.4791  0.3895
   45G      H4' 1409   5.615   4.167   6.647 -0.1533 -1.4420  1.5106
   45G      O4' 1410   5.469   4.145   6.487  0.0502 -0.2772  0.3351
   45G      C1' 1411   5.411   4.270   6.453  0.1753 -0.2410  0.2516
   45G      H1' 1412   5.484   4.324   6.393  1.5142 -2.6022 -0.4146
   45G       N9 1413   5.282   4.256   6.384  0.1370  0.0086  0.2741
   45G       C8 1414   5.198   4.149   6.393  0.6210 -0.3566  0.4721
   45G       H8 1415   5.231   4.071   6.461 -2.6238 -0.4150  2.1778
   45G       N7 1416   5.092   4.157   6.318  0.8738  0.3991  0.1923
   45G       C5 1417   5.105   4.280   6.255  0.6605  0.4294  0.2044
   45G       C6 1418   5.021   4.353   6.166  0.0109 -0.3525  0.1703
   45G       O6 1419   4.909   4.324   6.125 -0.0750 -0.2199  0.3099
   45G       N1 1420   5.071   4.476   6.126 -0.4927 -0.3641 -0.5033
   45G       H1 1421   5.015   4.528   6.060 -2.0656 -0.9788  0.2975
   45G       C2 1422   5.191   4.524   6.174 -0.4496 -0.3728 -0.6013
   45G       N2 1423   5.224   4.640   6.115  0.1343 -0.2154  0.0249
   45G      H21 1424   5.154   4.692   6.065  0.3940  1.6983  1.5457
   45G      H22 1425   5.277   4.699   6.179  0.0860 -0.0336 -0.1037
   45G       N3 1426   5.273   4.460   6.259 -0.2292  0.6265 -0.0513
   45G       C4 1427   5.226   4.337   6.288  0.7420  0.2895  0.1499
   45G      C3' 1428   5.403   4.230   6.675  0.2689  0.1781  0.1403
   45G      H3' 1429   5.306   4.180   6.676 -0.2107  1.0818  1.9770
   45G      C2' 1430   5.393   4.350   6.582 -0.2905  0.0354  0.0124
   45G      H2' 1431   5.292   4.389   6.599 -0.5436 -1.2252  1.6068
   45G      O2' 1432   5.488   4.454   6.589 -0.4419  0.1207  0.8542
   45G     HO2' 1433   5.507   4.470   6.682  0.7653 -2.1653  1.0883
   45G      O3' 1434   5.421   4.270   6.809  0.2005  0.2710  0.1216
   46U        P 1435   5.319   4.341   6.911  0.1283  0.0457  0.2054
   46U      OP1 1436   5.389   4.353   7.040  0.1677 -0.9218  0.2815
   46U      OP2 1437   5.180   4.290   6.895  0.5817 -0.8523 -1.0482
   46U      O5' 1438   5.310   4.485   6.841 -0.1541 -0.2022 -0.2776
   46U      C5' 1439   5.215   4.580   6.882  0.0159 -0.1707  0.0443
   46U      H5' 1440   5.224   4.611   6.987  0.6109 -1.6033  0.4474
   46U     H5'' 1441   5.114   4.540   6.880 -0.0104 -0.2544  1.4428
   46U      C4' 1442   5.231   4.686   6.774  0.5386  0.2517  0.5290
   46U      H4' 1443   5.335   4.720   6.766  1.0291 -0.8716  1.7779
   46U      O4' 1444   5.196   4.618   6.655  0.0792  0.4337  0.5611
   46U      C1' 1445   5.083   4.675   6.593  0.1684 -0.0695 -0.0753
   46U      H1' 1446   5.101   4.740   6.507 -0.6356 -1.3049 -1.2079
   46U       N1 1447   4.997   4.563   6.551  0.3351 -0.2672  0.1080
   46U       C6 1448   5.000   4.442   6.615  0.4135 -0.3135  0.0160
   46U       H6 1449   5.063   4.423   6.700  2.3529 -0.0090 -1.2918
   46U       C5 1450   4.921   4.342   6.571 -0.1321 -0.1049  0.5045
   46U       H5 1451   4.929   4.243   6.614  3.6317 -1.3366 -2.4297
   46U       C4 1452   4.813   4.368   6.478 -0.0859  0.0640  0.4982
   46U       O4 1453   4.717   4.298   6.450  0.1299 -0.0215 -0.0536
   46U       N3 1454   4.826   4.489   6.411 -0.1530 -0.2253 -0.0380
   46U       H3 1455   4.749   4.514   6.351  1.5685  0.4515 -2.1068
   46U       C2 1456   4.908   4.594   6.449 -0.2721 -0.3623  0.6001
   46U       O2 1457   4.899   4.703   6.393  0.0894 -0.4981  0.2741
   46U      C3' 1458   5.144   4.809   6.796 -0.0893 -0.0740 -0.0978
   46U      H3' 1459   5.110   4.823   6.899  0.4261  1.8421 -0.1590
   46U      C2' 1460   5.029   4.755   6.711 -0.0437 -0.2907 -0.0219
   46U      H2' 1461   4.980   4.686   6.779 -0.4822  1.2225  1.2696
   46U      O2' 1462   4.931   4.856   6.693  0.3584  0.0293 -0.4216
   46U     HO2' 1463   4.849   4.806   6.687  1.2611 -1.6452  0.3268
   46U      O3' 1464   5.201   4.929   6.751 -0.4201  0.2481  0.3293
   47G        P 1465   5.318   5.006   6.831  0.0306 -0.3741  0.2795
   47G      OP1 1466   5.317   4.951   6.968 -0.0565 -0.2684  0.3218
   47G      OP2 1467   5.290   5.151   6.814  0.1239 -0.3456  0.3707
   47G      O5' 1468   5.462   4.976   6.767 -0.0433  0.3815 -0.2637
   47G      C5' 1469   5.507   5.071   6.673  0.2800  0.4009 -0.0931
   47G      H5' 1470   5.520   5.166   6.724 -3.1616  1.3650 -0.7472
   47G     H5'' 1471   5.430   5.092   6.598 -0.3945  1.3258  0.8257
   47G      C4' 1472   5.629   5.003   6.610  0.4242  0.1237  0.4845
   47G      H4' 1473   5.701   5.000   6.692  0.2900 -4.4315  0.6448
   47G      O4' 1474   5.609   4.875   6.556  0.1582  0.1446  0.5289
   47G      C1' 1475   5.594   4.882   6.416 -0.1643 -0.1445  0.5462
   47G      H1' 1476   5.634   4.790   6.373 -3.1766 -1.1666 -0.2865
   47G       N9 1477   5.453   4.894   6.376 -0.1033 -0.6088  0.1769
   47G       C8 1478   5.360   4.796   6.404 -0.3047 -0.5069 -0.1346
   47G       H8 1479   5.385   4.707   6.458 -0.7314 -0.8317 -0.4668
   47G       N7 1480   5.246   4.809   6.343 -0.2593  0.1804 -0.0803
   47G       C5 1481   5.258   4.937   6.289 -0.1275  0.2242  0.0510
   47G       C6 1482   5.157   5.016   6.227 -0.2136  0.2510  0.2230
   47G       O6 1483   5.038   4.988   6.219 -0.0839 -0.2711  0.0373
   47G       N1 1484   5.201   5.137   6.175  0.0766  0.1631  0.2554
   47G       H1 1485   5.145   5.186   6.106  1.8239  1.0772 -0.5872
   47G       C2 1486   5.330   5.178   6.199  0.0547  0.0569  0.5628
   47G       N2 1487   5.372   5.284   6.128 -0.2964 -0.0057  0.2613
   47G      H21 1488   5.324   5.313   6.043 -0.8954 -0.4361  0.4432
   47G      H22 1489   5.469   5.309   6.135 -0.4351  0.1261  4.7238
   47G       N3 1490   5.420   5.116   6.277 -0.1995 -0.1112  0.7247
   47G       C4 1491   5.380   4.993   6.315  0.2297 -0.4993 -0.0463
   47G      C3' 1492   5.684   5.091   6.499  0.1941  0.0386  0.3029
   47G      H3' 1493   5.621   5.172   6.461  0.8787  0.9636  1.1098
   47G      C2' 1494   5.691   4.995   6.381 -0.6301  0.1379  0.1646
   47G      H2' 1495   5.652   5.033   6.286  0.0060 -0.0996 -0.1986
   47G      O2' 1496   5.820   4.942   6.360 -0.5441  0.6495 -0.6598
   47G     HO2' 1497   5.883   4.983   6.421  1.1739 -3.8322  1.0024
   47G      O3' 1498   5.813   5.136   6.533  0.2195 -0.1057  0.3956
   48C        P 1499   5.828   5.281   6.602  0.0064  0.1679 -0.1284
   48C      OP1 1500   5.967   5.331   6.611 -0.0530  0.3651 -0.3053
   48C      OP2 1501   5.752   5.271   6.729 -0.0595 -0.0040 -0.1798
   48C      O5' 1502   5.748   5.370   6.495 -0.2925 -0.2050 -0.2180
   48C      C5' 1503   5.674   5.484   6.533  0.5852  0.1415  0.4578
   48C      H5' 1504   5.726   5.551   6.602 -0.3930  0.7897  0.5767
   48C     H5'' 1505   5.586   5.456   6.591  2.3093 -2.8498  1.8862
   48C      C4' 1506   5.646   5.560   6.404  0.5796  0.0416  0.4009
   48C      H4' 1507   5.739   5.556   6.348  0.0548 -0.6462 -0.4285
   48C      O4' 1508   5.542   5.510   6.323  0.1035  0.5480  0.6890
   48C      C1' 1509   5.486   5.613   6.245 -0.2151  0.1286  0.3590
   48C      H1' 1510   5.521   5.595   6.144 -0.2108  1.1024  0.1772
   48C       N1 1511   5.339   5.607   6.256 -0.2253  0.0088  0.1619
   48C       C6 1512   5.277   5.581   6.375  0.0172  0.3786  0.3722
   48C       H6 1513   5.342   5.550   6.454  1.2659  1.0389 -0.3666
   48C       C5 1514   5.142   5.591   6.386  0.0182  0.7345  0.1006
   48C       H5 1515   5.098   5.570   6.482 -0.4657  1.1754 -0.0221
   48C       C4 1516   5.064   5.617   6.269  0.6628 -0.3182 -0.5849
   48C       N4 1517   4.930   5.617   6.278  0.6722 -0.4048 -0.4253
   48C      H41 1518   4.884   5.611   6.368 -2.0601  2.9268 -1.3586
   48C      H42 1519   4.864   5.638   6.205 -1.1404  1.1949  1.5372
   48C       N3 1520   5.124   5.646   6.154  0.0772 -0.0473 -0.8293
   48C       C2 1521   5.260   5.656   6.153  0.1210 -0.5520 -0.3797
   48C       O2 1522   5.308   5.705   6.051  0.0213  0.1744 -0.0883
   48C      C3' 1523   5.609   5.708   6.418  0.2499  0.0407 -0.4328
   48C      H3' 1524   5.539   5.713   6.501  0.3036 -0.6713 -0.3377
   48C      C2' 1525   5.538   5.749   6.289  0.1247  0.2184 -0.3052
   48C      H2' 1526   5.456   5.817   6.314  1.4425  2.6618 -2.1815
   48C      O2' 1527   5.625   5.795   6.189  1.0685 -0.3548  0.2382
   48C     HO2' 1528   5.619   5.886   6.219  0.1262  0.7458 -2.8526
   48C      O3' 1529   5.721   5.789   6.445  0.2271 -0.1553  0.2512
   49G        P 1530   5.704   5.924   6.533  0.3459 -0.1745  0.3034
   49G      OP1 1531   5.840   5.969   6.568  0.4951 -0.1079 -0.3523
   49G      OP2 1532   5.610   5.892   6.642  0.4416  0.0259  0.4451
   49G      O5' 1533   5.626   6.023   6.433  0.3364 -0.9584 -0.4810
   49G      C5' 1534   5.689   6.087   6.324  0.2520  0.5423  0.3233
   49G      H5' 1535   5.740   6.017   6.258  1.8745  1.3767  0.6580
   49G     H5'' 1536   5.748   6.172   6.358 -1.6365  1.5346  1.2848
   49G      C4' 1537   5.581   6.145   6.232  0.3782 -0.7149 -0.6518
   49G      H4' 1538   5.630   6.194   6.147 -0.4391  3.4571  1.0240
   49G      O4' 1539   5.488   6.046   6.196 -0.2805 -0.3538  0.0360
   49G      C1' 1540   5.375   6.112   6.144  0.2268  0.4328 -0.0813
   49G      H1' 1541   5.368   6.089   6.038  0.1655 -0.9601  0.2027
   49G       N9 1542   5.254   6.064   6.214  0.3002  0.1976 -0.1175
   49G       C8 1543   5.239   5.982   6.324 -0.3037 -0.0574 -0.3848
   49G       H8 1544   5.327   5.952   6.379  0.8493  1.2973 -1.3832
   49G       N7 1545   5.115   5.959   6.355 -0.1208 -0.0277  0.3806
   49G       C5 1546   5.039   6.016   6.254  0.4120  0.3237  0.1752
   49G       C6 1547   4.897   6.020   6.241  0.4368 -0.5648 -0.4020
   49G       O6 1548   4.807   5.978   6.313  0.6291 -0.3606 -0.0386
   49G       N1 1549   4.869   6.079   6.119 -0.2164  0.6698  0.3319
   49G       H1 1550   4.775   6.057   6.089 -0.8744  1.1515  1.9014
   49G       C2 1551   4.962   6.131   6.031  0.0720  0.0906  0.2950
   49G       N2 1552   4.915   6.158   5.908 -0.0909  0.7736  0.5055
   49G      H21 1553   4.820   6.191   5.902 -0.3809 -0.1440 -0.1567
   49G      H22 1554   4.978   6.202   5.842  0.3049  0.7662  0.8738
   49G       N3 1555   5.094   6.138   6.051  0.1494 -0.0509 -0.1475
   49G       C4 1556   5.126   6.076   6.167  0.2548  0.3736  0.0521
   49G      C3' 1557   5.487   6.247   6.295  0.7737 -0.5345 -0.3432
   49G      H3' 1558   5.437   6.191   6.375  1.1521  0.8222  0.8844
   49G      C2' 1559   5.394   6.261   6.175  0.3297  0.3847  0.0932
   49G      H2' 1560   5.305   6.314   6.208 -1.7932 -2.0290 -1.3013
   49G      O2' 1561   5.440   6.332   6.062 -0.1440 -0.3219 -0.5563
   49G     HO2' 1562   5.511   6.387   6.095 -0.3869 -0.8070  0.8610
   49G      O3' 1563   5.538   6.371   6.337 -0.2146 -0.3703  0.4248
   50G        P 1564   5.453   6.469   6.432  0.2776  0.3240  0.1645
   50G      OP1 1565   5.532   6.593   6.448  0.4800  0.1656  0.4018
   50G      OP2 1566   5.419   6.379   6.545  0.1108  0.5194  0.2704
   50G      O5' 1567   5.316   6.503   6.355  0.1432  0.1929  0.3426
   50G      C5' 1568   5.319   6.602   6.254  0.8391 -0.1309  0.0459
   50G      H5' 1569   5.384   6.573   6.171 -0.3757 -1.0468 -0.6215
   50G     H5'' 1570   5.361   6.690   6.302  2.7655 -1.7324  1.5096
   50G      C4' 1571   5.179   6.629   6.201  0.6274 -0.6529  0.3298
   50G      H4' 1572   5.172   6.700   6.119 -0.9729 -1.8045 -0.6057
   50G      O4' 1573   5.123   6.510   6.149 -0.3052 -0.1328  0.1288
   50G      C1' 1574   4.982   6.521   6.155 -0.2747  0.1508  0.3834
   50G      H1' 1575   4.938   6.497   6.058  2.6070 -1.4556 -0.6573
   50G       N9 1576   4.931   6.423   6.253 -0.5138  0.0384  0.1483
   50G       C8 1577   5.004   6.355   6.347 -0.2136 -0.0643 -0.1521
   50G       H8 1578   5.106   6.379   6.371 -0.1526 -0.3292 -0.1508
   50G       N7 1579   4.938   6.275   6.428  0.2225 -0.1997  0.0708
   50G       C5 1580   4.809   6.304   6.385  0.1608 -0.3690  0.1441
   50G       C6 1581   4.689   6.241   6.427 -0.1196 -0.0576 -0.1903
   50G       O6 1582   4.667   6.160   6.516 -0.5989  0.0006 -0.2552
   50G       N1 1583   4.578   6.295   6.363 -0.2626  0.5834  0.5909
   50G       H1 1584   4.491   6.246   6.379 -0.1255 -0.5148 -1.6789
   50G       C2 1585   4.579   6.375   6.251 -0.3750  0.5736  0.5837
   50G       N2 1586   4.463   6.406   6.190 -0.1555  0.5835  0.1684
   50G      H21 1587   4.377   6.366   6.224  0.0743  0.3731  0.5149
   50G      H22 1588   4.463   6.505   6.171  2.5679  1.0978  2.1822
   50G       N3 1589   4.693   6.426   6.203 -0.3097 -0.0977  0.0131
   50G       C4 1590   4.801   6.382   6.273 -0.5565  0.4626  0.7594
   50G      C3' 1591   5.077   6.677   6.304  0.3548  0.0448 -0.2559
   50G      H3' 1592   5.086   6.614   6.393 -0.8163  1.2227  0.7349
   50G      C2' 1593   4.947   6.649   6.229 -0.0410  0.2295  0.3578
   50G      H2' 1594   4.869   6.650   6.305 -1.6591 -2.1677 -1.1566
   50G      O2' 1595   4.931   6.743   6.125 -1.0078 -0.4385 -0.1134
   50G     HO2' 1596   4.845   6.730   6.085 -1.1975 -0.3190  0.2491
   50G      O3' 1597   5.097   6.811   6.342  0.4631  0.0029 -0.1638
   51C        P 1598   5.043   6.860   6.486 -0.2228 -0.1829 -0.3560
   51C      OP1 1599   5.100   6.988   6.534 -1.0247 -0.1165  0.4629
   51C      OP2 1600   5.052   6.753   6.588  0.1872  0.1881 -0.0015
   51C      O5' 1601   4.883   6.876   6.472 -0.2498 -0.0345  0.1118
   51C      C5' 1602   4.835   6.983   6.394  0.3822  0.7255  0.7499
   51C      H5' 1603   4.889   6.995   6.300  1.3983 -0.4794  1.1512
   51C     H5'' 1604   4.852   7.078   6.445  0.6201  0.5520  1.0015
   51C      C4' 1605   4.685   6.986   6.367  0.4142 -0.3066  0.4178
   51C      H4' 1606   4.656   7.053   6.285 -3.4326 -0.2940  1.6009
   51C      O4' 1607   4.634   6.860   6.331  0.2270 -0.1067 -0.0406
   51C      C1' 1608   4.509   6.839   6.392  0.2726 -0.1139  0.0533
   51C      H1' 1609   4.430   6.828   6.318  1.9549 -1.5275 -1.6283
   51C       N1 1610   4.500   6.713   6.468 -0.5048 -0.4216 -0.5252
   51C       C6 1611   4.617   6.645   6.487 -0.1786  0.2551 -0.0573
   51C       H6 1612   4.711   6.684   6.449  0.5736 -1.4045 -0.0010
   51C       C5 1613   4.626   6.531   6.557  0.0233  0.2393 -0.1049
   51C       H5 1614   4.721   6.484   6.577 -0.7300 -0.4990  2.1006
   51C       C4 1615   4.504   6.468   6.601  0.0939  0.3091  0.1960
   51C       N4 1616   4.497   6.377   6.699  0.2619 -0.1409 -0.2035
   51C      H41 1617   4.576   6.338   6.750  0.1615  0.9068  0.7847
   51C      H42 1618   4.404   6.355   6.731  0.8912 -2.2924  0.3396
   51C       N3 1619   4.389   6.524   6.564 -0.2310 -0.4869 -0.0395
   51C       C2 1620   4.385   6.640   6.492 -0.4775 -0.1307  0.5436
   51C       O2 1621   4.275   6.674   6.451 -0.1108  0.5030  0.0659
   51C      C3' 1622   4.603   7.021   6.491  0.0884 -0.4026  0.2323
   51C      H3' 1623   4.640   6.976   6.583  1.6626 -0.5420 -0.4198
   51C      C2' 1624   4.464   6.965   6.465  0.0390 -0.2084  0.0746
   51C      H2' 1625   4.402   6.939   6.550 -0.4806 -1.9256 -0.7855
   51C      O2' 1626   4.379   7.036   6.378  0.1584  0.6817  0.6714
   51C     HO2' 1627   4.391   7.129   6.401  0.0341  0.8528  0.0696
   51C      O3' 1628   4.604   7.162   6.500 -0.2707 -0.4141  0.4646
   52A        P 1629   4.620   7.231   6.645  0.2818  0.1137  0.1603
   52A      OP1 1630   4.647   7.375   6.626 -0.1321  0.1486 -0.1937
   52A      OP2 1631   4.715   7.164   6.736  0.1132 -0.2809  0.0486
   52A      O5' 1632   4.476   7.216   6.716  0.2064  0.7466  0.1490
   52A      C5' 1633   4.353   7.264   6.665  0.0092 -0.2465 -0.3434
   52A      H5' 1634   4.351   7.251   6.557 -0.8452 -1.5856 -0.2016
   52A     H5'' 1635   4.338   7.369   6.688  1.5474  0.3508 -1.8588
   52A      C4' 1636   4.231   7.196   6.726  0.4591 -0.3332  0.4808
   52A      H4' 1637   4.148   7.214   6.657  0.8615 -2.6446 -0.7038
   52A      O4' 1638   4.249   7.056   6.731  0.3468 -0.3548  0.2798
   52A      C1' 1639   4.244   7.003   6.861 -0.0128  0.1197  0.4614
   52A      H1' 1640   4.144   6.965   6.880 -0.4598  0.7024 -0.6173
   52A       N9 1641   4.338   6.890   6.869  0.1539  0.2467  0.3059
   52A       C8 1642   4.469   6.887   6.829 -0.1799 -0.2892 -0.7907
   52A       H8 1643   4.509   6.957   6.757 -0.6357  0.2461 -0.5298
   52A       N7 1644   4.530   6.774   6.855  0.3846  0.0861 -0.4596
   52A       C5 1645   4.432   6.695   6.914  0.2315  0.1563 -0.6171
   52A       C6 1646   4.423   6.571   6.979  0.2926 -0.0015 -0.9043
   52A       N6 1647   4.522   6.484   7.000  0.1394 -0.0198 -0.2122
   52A      H61 1648   4.620   6.503   6.982  0.8442 -2.1364  1.0309
   52A      H62 1649   4.492   6.389   7.020  1.7573 -0.4772  0.2784
   52A       N1 1650   4.307   6.528   7.031  0.6669  0.2779  0.1822
   52A       C2 1651   4.203   6.607   7.014  0.3812 -0.1281  0.0328
   52A       H2 1652   4.112   6.566   7.056 -0.6970  2.7118  0.7152
   52A       N3 1653   4.190   6.724   6.953  0.3053 -0.4059 -0.4859
   52A       C4 1654   4.311   6.760   6.905  0.1387 -0.0135 -0.6167
   52A      C3' 1655   4.197   7.238   6.869 -0.3521 -0.1637  0.2426
   52A      H3' 1656   4.219   7.339   6.905 -3.2540  0.8993 -0.6310
   52A      C2' 1657   4.275   7.129   6.942 -0.1779  0.1335  0.5028
   52A      H2' 1658   4.381   7.153   6.934 -0.6725  2.0569 -0.9883
   52A      O2' 1659   4.235   7.093   7.072  0.0683  0.2320  0.6048
   52A     HO2' 1660   4.140   7.081   7.075  0.3889 -3.2493  0.9204
   52A      O3' 1661   4.061   7.208   6.893 -0.3888 -0.0572  0.1697
   53C        P 1662   3.949   7.320   6.865  0.1976  0.5511  0.2049
   53C      OP1 1663   3.996   7.415   6.762  0.9739  0.2728  0.2985
   53C      OP2 1664   3.911   7.378   6.996  0.0928  0.3517  0.2649
   53C      O5' 1665   3.815   7.250   6.807  0.3623  0.7230 -0.3895
   53C      C5' 1666   3.810   7.191   6.679  0.5349  0.3507 -0.2258
   53C      H5' 1667   3.908   7.206   6.634 -0.3617  5.6708 -1.0541
   53C     H5'' 1668   3.737   7.243   6.617 -4.0645 -1.8578  2.7319
   53C      C4' 1669   3.778   7.041   6.679 -0.2945  0.5180  0.0699
   53C      H4' 1670   3.777   7.018   6.573  0.6287 -3.8763  0.8274
   53C      O4' 1671   3.865   6.963   6.758 -0.0136  0.4784 -0.2751
   53C      C1' 1672   3.789   6.853   6.803  0.5676  0.0080 -0.4302
   53C      H1' 1673   3.835   6.758   6.778  0.0642 -0.5921  0.8334
   53C       N1 1674   3.794   6.854   6.951  0.5162 -0.2848 -0.4263
   53C       C6 1675   3.869   6.945   7.020 -0.3777  0.0684  0.0864
   53C       H6 1676   3.909   7.024   6.960 -3.3656 -0.0128 -2.2497
   53C       C5 1677   3.866   6.946   7.155  0.2894 -0.1105  0.1057
   53C       H5 1678   3.913   7.022   7.215 -2.0965 -0.2264  2.3362
   53C       C4 1679   3.794   6.844   7.227 -0.3917  0.1974 -0.1352
   53C       N4 1680   3.785   6.856   7.360  0.5647 -0.0902 -0.0420
   53C      H41 1681   3.823   6.937   7.407 -2.5307  0.5826  1.5764
   53C      H42 1682   3.741   6.781   7.411  0.6180  0.1829  0.4197
   53C       N3 1683   3.739   6.744   7.158 -0.8458  0.5155 -0.2429
   53C       C2 1684   3.737   6.751   7.022 -0.2218  0.2195 -0.2689
   53C       O2 1685   3.684   6.655   6.967 -0.0096 -0.1126  0.0931
   53C      C3' 1686   3.641   7.018   6.742 -0.0879  0.5018  0.5220
   53C      H3' 1687   3.639   7.062   6.841  3.2742 -0.0412  0.9577
   53C      C2' 1688   3.650   6.866   6.742  0.4927  0.5280 -0.1559
   53C      H2' 1689   3.573   6.828   6.810 -0.2037  3.6269  0.9470
   53C      O2' 1690   3.645   6.790   6.624 -0.4600  0.2489  0.0574
   53C     HO2' 1691   3.608   6.704   6.645  0.8068  0.4114  3.5005
   53C      O3' 1692   3.538   7.059   6.655 -0.0141  0.7033  0.5280
   54A        P 1693   3.382   7.081   6.688 -0.1982  0.1893  0.0192
   54A      OP1 1694   3.309   7.107   6.562  0.0598  0.1073 -0.1470
   54A      OP2 1695   3.375   7.183   6.796 -0.0008  0.0374  0.1759
   54A      O5' 1696   3.325   6.939   6.739 -0.1319  0.3358  0.5128
   54A      C5' 1697   3.294   6.834   6.649  0.3750  0.0102  0.7158
   54A      H5' 1698   3.383   6.800   6.596  0.5500 -0.3736  1.2405
   54A     H5'' 1699   3.227   6.875   6.574  0.4827 -1.2984 -0.1113
   54A      C4' 1700   3.236   6.711   6.718 -0.1344  0.0578  0.3797
   54A      H4' 1701   3.211   6.633   6.646  3.8304  0.7841 -2.1458
   54A      O4' 1702   3.335   6.650   6.799  0.1310  0.1346  0.1182
   54A      C1' 1703   3.280   6.595   6.917 -0.1694 -0.0519 -0.1077
   54A      H1' 1704   3.326   6.497   6.924  0.1306  0.0760 -0.2712
   54A       N9 1705   3.317   6.674   7.036 -0.4869 -0.0598 -0.0041
   54A       C8 1706   3.402   6.781   7.049  0.1550 -0.5644  0.0034
   54A       H8 1707   3.452   6.814   6.960  0.9429 -3.6178 -0.7866
   54A       N7 1708   3.410   6.834   7.168 -0.2796  0.2593 -0.3233
   54A       C5 1709   3.344   6.741   7.247  0.5510  0.0916  0.1936
   54A       C6 1710   3.312   6.719   7.382  0.2975 -0.2265  0.0856
   54A       N6 1711   3.352   6.796   7.484 -0.0586 -0.6422  0.5399
   54A      H61 1712   3.404   6.879   7.458  0.2471 -1.0217 -0.0724
   54A      H62 1713   3.337   6.774   7.582 -1.8082  1.4267  0.8172
   54A       N1 1714   3.250   6.610   7.427  0.9373 -0.4905  0.3473
   54A       C2 1715   3.195   6.534   7.333  0.4838 -0.0426  0.2451
   54A       H2 1716   3.140   6.449   7.371  2.0999 -1.5223 -0.5714
   54A       N3 1717   3.199   6.548   7.202 -0.3040  0.7611  0.2970
   54A       C4 1718   3.276   6.653   7.165 -0.2023  0.6540  0.2045
   54A      C3' 1719   3.119   6.727   6.813 -0.0342 -0.5686  0.6163
   54A      H3' 1720   3.146   6.808   6.882 -0.5169  1.2645 -1.2388
   54A      C2' 1721   3.129   6.597   6.892 -0.3429 -0.4369  0.8771
   54A      H2' 1722   3.062   6.600   6.978 -0.3256  0.9133  0.8607
   54A      O2' 1723   3.102   6.477   6.823  0.0225 -0.1746  0.2728
   54A     HO2' 1724   3.108   6.419   6.899  3.1332  1.5583  1.5584
   54A      O3' 1725   3.000   6.747   6.740  0.3352 -0.1219  0.1321
   55G        P 1726   2.875   6.819   6.812  0.1399 -0.1547 -0.1729
   55G      OP1 1727   2.767   6.818   6.710  0.1720  0.6604 -0.2186
   55G      OP2 1728   2.925   6.951   6.856  0.1391 -0.5634  1.0816
   55G      O5' 1729   2.837   6.741   6.947 -0.2265 -0.2971 -0.3564
   55G      C5' 1730   2.776   6.614   6.937 -0.5520 -0.1577 -0.1832
   55G      H5' 1731   2.850   6.543   6.902  0.5319  1.2023 -0.7631
   55G     H5'' 1732   2.700   6.612   6.859 -0.5271 -0.1920 -0.2069
   55G      C4' 1733   2.740   6.554   7.072 -0.0246 -0.2122 -0.0636
   55G      H4' 1734   2.709   6.451   7.057 -1.7965  0.4803 -1.5009
   55G      O4' 1735   2.857   6.550   7.150 -0.4363 -0.4082  0.5549
   55G      C1' 1736   2.821   6.534   7.285 -0.2032 -0.4499  0.6141
   55G      H1' 1737   2.848   6.438   7.330  0.7583 -0.3636  0.2302
   55G       N9 1738   2.887   6.642   7.360  0.2429 -0.4893  0.2791
   55G       C8 1739   2.943   6.755   7.306 -0.3002 -0.2279  0.2499
   55G       H8 1740   2.943   6.774   7.200  2.3004 -1.7692 -0.1260
   55G       N7 1741   3.003   6.834   7.390 -0.1973 -0.1760  0.1272
   55G       C5 1742   2.971   6.775   7.512  0.2609 -0.5031  0.0923
   55G       C6 1743   3.031   6.802   7.638  0.2756 -0.2605  0.0333
   55G       O6 1744   3.103   6.891   7.681 -0.2951  0.1213  0.2007
   55G       N1 1745   2.987   6.714   7.736 -0.0508 -0.4279 -0.2581
   55G       H1 1746   3.028   6.716   7.828 -1.5904  2.4752  0.4837
   55G       C2 1747   2.907   6.606   7.707 -0.0711 -0.3829 -0.3661
   55G       N2 1748   2.879   6.532   7.815  0.9859  0.3757  0.4487
   55G      H21 1749   2.904   6.565   7.907  1.4188  4.1437 -0.8640
   55G      H22 1750   2.825   6.447   7.804  1.9309 -0.4634  2.0231
   55G       N3 1751   2.863   6.566   7.587  0.1001 -0.8738 -0.2667
   55G       C4 1752   2.897   6.661   7.496 -0.1683 -0.2529  0.2778
   55G      C3' 1753   2.645   6.636   7.159  0.1517 -0.0284 -0.0442
   55G      H3' 1754   2.692   6.734   7.153  0.0303 -0.0583 -2.7091
   55G      C2' 1755   2.673   6.571   7.294 -0.2752 -0.5224 -0.1926
   55G      H2' 1756   2.648   6.650   7.364 -0.1909 -0.2751 -0.4425
   55G      O2' 1757   2.605   6.447   7.300 -0.0137 -0.6717 -0.2698
   55G     HO2' 1758   2.629   6.406   7.383 -1.6739 -0.7478  0.2153
   55G      O3' 1759   2.512   6.633   7.112  0.1471  0.3021 -0.0568
   56G        P 1760   2.400   6.733   7.170  0.0148  0.1485 -0.0458
   56G      OP1 1761   2.278   6.650   7.161 -0.0614  0.2984 -0.4188
   56G      OP2 1762   2.413   6.857   7.091 -0.1242  0.3322  0.2203
   56G      O5' 1763   2.422   6.772   7.325 -0.5439  0.3412 -0.0147
   56G      C5' 1764   2.375   6.687   7.428  0.6607 -0.1372  0.1607
   56G      H5' 1765   2.409   6.585   7.415  3.4889  0.7474 -0.1333
   56G     H5'' 1766   2.266   6.681   7.424  0.6777 -0.1872 -0.2607
   56G      C4' 1767   2.416   6.733   7.568  0.4784  0.1685  0.1161
   56G      H4' 1768   2.379   6.654   7.633 -2.9333 -1.5563 -3.4768
   56G      O4' 1769   2.556   6.743   7.580  0.4659  0.1885  0.2391
   56G      C1' 1770   2.586   6.841   7.678  0.6138  0.4520 -0.0665
   56G      H1' 1771   2.643   6.803   7.763 -0.1390  0.7603  0.5894
   56G       N9 1772   2.655   6.951   7.609 -0.1281  0.7469 -0.3467
   56G       C8 1773   2.645   6.989   7.478 -0.6270 -0.2862 -0.6169
   56G       H8 1774   2.578   6.947   7.404 -0.1433 -0.1921 -1.1162
   56G       N7 1775   2.733   7.079   7.441 -0.1431 -0.3143  0.4261
   56G       C5 1776   2.806   7.098   7.557  0.0884  0.4842  0.1546
   56G       C6 1777   2.918   7.182   7.579  0.4012  0.1010  0.0449
   56G       O6 1778   2.978   7.246   7.492 -0.1397  0.2108 -0.2542
   56G       N1 1779   2.959   7.180   7.711 -0.0581 -0.0219  0.1881
   56G       H1 1780   3.044   7.229   7.735  0.3851  0.9285 -2.8669
   56G       C2 1781   2.902   7.101   7.809  0.0241  0.2956  0.4941
   56G       N2 1782   2.958   7.093   7.930  0.3357 -0.1123  0.3234
   56G      H21 1783   3.041   7.149   7.940  0.3257  0.1798 -1.0372
   56G      H22 1784   2.924   7.027   7.999 -1.3312  0.1893 -0.1696
   56G       N3 1785   2.795   7.022   7.793  0.0854  0.3076  0.0037
   56G       C4 1786   2.755   7.028   7.664  0.1679  0.1428 -0.0288
   56G      C3' 1787   2.353   6.863   7.617 -0.0275 -0.1586  0.3341
   56G      H3' 1788   2.364   6.932   7.534 -1.5762  1.3953  1.3603
   56G      C2' 1789   2.452   6.894   7.728  0.3447 -0.3069  0.0445
   56G      H2' 1790   2.461   7.003   7.735 -0.5467 -0.2475  0.3686
   56G      O2' 1791   2.422   6.832   7.850  0.1940 -0.1790  0.0735
   56G     HO2' 1792   2.331   6.858   7.867  0.2019 -1.5270  2.7410
   56G      O3' 1793   2.220   6.852   7.665 -0.3769  0.0786 -0.5502
   57C        P 1794   2.117   6.975   7.680  0.1333  0.4996 -0.4600
   57C      OP1 1795   1.979   6.924   7.663  0.0649  0.2529  0.7638
   57C      OP2 1796   2.171   7.081   7.591 -0.1268  0.5166 -0.5988
   57C      O5' 1797   2.136   7.029   7.830 -0.5093  0.0001 -0.1984
   57C      C5' 1798   2.085   6.965   7.945  0.1931 -0.0755  0.0735
   57C      H5' 1799   2.133   6.868   7.943  1.9929  0.7890 -1.3880
   57C     H5'' 1800   1.976   6.958   7.939 -0.3086  3.5551  1.9432
   57C      C4' 1801   2.116   7.041   8.074 -0.0125  0.1280  0.0049
   57C      H4' 1802   2.052   6.998   8.151  1.3299 -1.1595  0.4478
   57C      O4' 1803   2.252   7.022   8.107  0.0050  0.4553  0.1256
   57C      C1' 1804   2.295   7.137   8.177 -0.1832  0.4548  0.2426
   57C      H1' 1805   2.317   7.112   8.281  0.9183 -1.4643 -0.3925
   57C       N1 1806   2.419   7.180   8.110 -0.1895  0.0077 -0.0602
   57C       C6 1807   2.418   7.186   7.974 -0.8778  0.3017 -0.0460
   57C       H6 1808   2.330   7.166   7.913 -0.0463  1.0945 -1.5617
   57C       C5 1809   2.523   7.233   7.903 -0.1580  0.1990  0.9328
   57C       H5 1810   2.524   7.245   7.796 -0.7381  1.6929  1.0550
   57C       C4 1811   2.633   7.282   7.981  0.2833  0.5070  0.1273
   57C       N4 1812   2.733   7.344   7.917  0.2167 -0.0576 -0.5385
   57C      H41 1813   2.746   7.324   7.819  0.6552  0.8037 -0.6692
   57C      H42 1814   2.798   7.400   7.971 -0.6600  2.0546 -1.6006
   57C       N3 1815   2.630   7.288   8.115 -0.2333 -0.0582  0.1454
   57C       C2 1816   2.525   7.233   8.182 -0.2666 -0.0513  0.0996
   57C       O2 1817   2.526   7.236   8.305  0.0829 -0.2218  0.1025
   57C      C3' 1818   2.092   7.192   8.067  0.1307  0.1362 -0.3257
   57C      H3' 1819   2.135   7.239   7.978  0.8010 -0.0300 -0.1009
   57C      C2' 1820   2.187   7.245   8.175 -0.5025  0.1357  0.2374
   57C      H2' 1821   2.224   7.342   8.142  1.0988 -0.6023 -0.2379
   57C      O2' 1822   2.131   7.258   8.304  0.2308  0.8834  0.4842
   57C     HO2' 1823   2.069   7.330   8.295 -1.9794 -1.0102 -0.3041
   57C      O3' 1824   1.954   7.220   8.071  0.1397  0.0821  0.4542
   58A        P 1825   1.902   7.371   8.059 -0.1884 -0.0807 -0.1689
   58A      OP1 1826   1.953   7.449   8.174  0.3830 -0.6560 -0.0269
   58A      OP2 1827   1.754   7.367   8.045 -0.1912 -0.6368  0.0415
   58A      O5' 1828   1.961   7.439   7.925  0.3429  0.1661  0.1881
   58A      C5' 1829   1.970   7.358   7.809  0.4310  0.1073  0.2360
   58A      H5' 1830   1.879   7.300   7.793  0.5357 -0.6149  1.9727
   58A     H5'' 1831   2.053   7.287   7.812  0.3100 -0.0488  3.5581
   58A      C4' 1832   1.982   7.452   7.690 -0.2306  0.1019  0.1599
   58A      H4' 1833   1.988   7.390   7.601  0.6990  0.7488 -0.2476
   58A      O4' 1834   1.871   7.539   7.682 -0.5751 -0.3228  0.3372
   58A      C1' 1835   1.904   7.652   7.606  0.0387 -0.4185  0.4551
   58A      H1' 1836   1.857   7.658   7.507 -0.0178 -0.9378  0.4475
   58A       N9 1837   1.866   7.764   7.694 -0.2640  0.0394 -0.2415
   58A       C8 1838   1.831   7.764   7.827  0.4346  0.4861 -0.0548
   58A       H8 1839   1.822   7.671   7.880 -0.8733 -0.0331 -1.1304
   58A       N7 1840   1.808   7.884   7.873 -0.1114  0.3105  0.1367
   58A       C5 1841   1.832   7.969   7.765  0.0524 -0.1463 -0.1901
   58A       C6 1842   1.846   8.108   7.749  0.8570 -0.1597  0.3313
   58A       N6 1843   1.824   8.207   7.837 -0.0223 -0.0651  0.0197
   58A      H61 1844   1.783   8.174   7.924 -1.6476 -1.3159 -1.1445
   58A      H62 1845   1.857   8.301   7.820 -0.3137 -0.4641 -3.3304
   58A       N1 1846   1.898   8.159   7.637 -0.0725 -0.2687 -0.1562
   58A       C2 1847   1.937   8.077   7.540  0.2396 -0.4429  0.1170
   58A       H2 1848   1.984   8.127   7.457 -1.0717 -1.1962 -1.1327
   58A       N3 1849   1.926   7.945   7.542 -0.2278 -0.4169 -0.5769
   58A       C4 1850   1.875   7.896   7.658 -0.2082 -0.0061 -0.3919
   58A      C3' 1851   2.099   7.551   7.695 -0.1619  0.0499 -0.3444
   58A      H3' 1852   2.105   7.597   7.794  1.4025  0.8357 -0.7811
   58A      C2' 1853   2.056   7.652   7.589 -0.0438  0.0499 -0.3926
   58A      H2' 1854   2.098   7.748   7.617  0.9399 -0.6881  0.7845
   58A      O2' 1855   2.064   7.608   7.456 -0.1646 -0.5870 -0.1960
   58A     HO2' 1856   2.131   7.542   7.436 -0.0025 -0.8273  1.0930
   58A      O3' 1857   2.219   7.488   7.657  0.0893  0.1812  0.2195
   59C        P 1858   2.358   7.555   7.704  0.1704  0.1425  0.0351
   59C      OP1 1859   2.447   7.516   7.593 -0.2425 -0.2570 -0.1604
   59C      OP2 1860   2.389   7.525   7.845  0.3661  0.4423  0.0568
   59C      O5' 1861   2.344   7.715   7.685  0.1298  0.1079 -0.2301
   59C      C5' 1862   2.351   7.785   7.563 -0.2719 -0.0287 -0.3336
   59C      H5' 1863   2.279   7.760   7.485  0.7826 -3.2469 -0.4455
   59C     H5'' 1864   2.450   7.769   7.521  0.9407  0.1170  2.2656
   59C      C4' 1865   2.345   7.936   7.581  0.0927  0.0275 -0.6705
   59C      H4' 1866   2.375   7.976   7.484 -1.8730  0.2724 -1.2257
   59C      O4' 1867   2.218   7.985   7.617  0.1328  0.2719 -0.8602
   59C      C1' 1868   2.224   8.081   7.720  0.3095 -0.7007  0.0550
   59C      H1' 1869   2.162   8.169   7.700  2.9326  1.5385  1.0937
   59C       N1 1870   2.178   8.035   7.852  0.1788 -0.2344  0.1778
   59C       C6 1871   2.158   7.901   7.873  0.1720 -0.3554 -0.5559
   59C       H6 1872   2.179   7.823   7.802  1.4644 -1.0573  0.5437
   59C       C5 1873   2.118   7.859   7.995 -0.0729  0.4489 -0.3515
   59C       H5 1874   2.112   7.752   8.006 -0.9529  0.6015  0.8974
   59C       C4 1875   2.086   7.951   8.100 -0.3204  0.2691 -0.2683
   59C       N4 1876   2.043   7.910   8.220 -0.0205  0.1143 -0.2139
   59C      H41 1877   2.071   7.815   8.243 -2.6974 -1.6399 -3.3167
   59C      H42 1878   2.025   7.980   8.291 -0.4518 -1.1371  0.9687
   59C       N3 1879   2.091   8.082   8.072  0.6252  0.3320  0.1587
   59C       C2 1880   2.144   8.122   7.954  0.7084  0.0620  0.1025
   59C       O2 1881   2.150   8.244   7.938  0.1712 -0.0193 -0.7745
   59C      C3' 1882   2.442   7.996   7.684 -0.5443 -0.0037 -0.0433
   59C      H3' 1883   2.451   7.919   7.761 -1.5405 -0.8742 -0.7561
   59C      C2' 1884   2.370   8.120   7.735  0.0519  0.1758  0.3603
   59C      H2' 1885   2.394   8.145   7.839 -1.2970 -1.6536  1.1617
   59C      O2' 1886   2.375   8.230   7.646  0.7302  0.1138  0.3138
   59C     HO2' 1887   2.431   8.211   7.571 -1.5662  3.0481 -2.3927
   59C      O3' 1888   2.564   8.022   7.619 -0.2272 -0.6632  0.2778
   60U        P 1889   2.699   8.019   7.707  0.1459  0.2427 -0.2468
   60U      OP1 1890   2.804   8.068   7.615  0.0030  0.2824 -0.3880
   60U      OP2 1891   2.724   7.883   7.760  0.9683  0.5711  0.2264
   60U      O5' 1892   2.673   8.124   7.826  0.1333 -0.3047  0.2401
   60U      C5' 1893   2.677   8.265   7.813 -0.6925 -0.2873  0.1323
   60U      H5' 1894   2.592   8.296   7.752  0.5955 -0.5642 -1.8896
   60U     H5'' 1895   2.766   8.293   7.757  1.6536 -1.9487  2.7464
   60U      C4' 1896   2.664   8.343   7.944  0.0115 -0.3065  0.2182
   60U      H4' 1897   2.689   8.445   7.914 -0.2246 -1.2733 -4.0130
   60U      O4' 1898   2.531   8.325   7.988 -0.2651  0.0549 -0.4478
   60U      C1' 1899   2.533   8.329   8.129  0.0832  0.0387 -0.4523
   60U      H1' 1900   2.484   8.420   8.164 -0.6079 -0.2617 -0.6343
   60U       N1 1901   2.465   8.211   8.185  0.0515  0.1916 -0.1702
   60U       C6 1902   2.491   8.086   8.138 -0.4143  0.0075  0.0565
   60U       H6 1903   2.555   8.074   8.052  1.0778  1.3842  0.9189
   60U       C5 1904   2.431   7.980   8.198 -0.7825  0.1137 -0.1218
   60U       H5 1905   2.442   7.882   8.155 -3.2106 -1.5279  2.6619
   60U       C4 1906   2.340   7.989   8.309 -0.0341  0.0745  0.5079
   60U       O4 1907   2.283   7.894   8.364  0.0008 -0.0425  0.3409
   60U       N3 1908   2.305   8.121   8.337 -0.0515  0.1315  0.2181
   60U       H3 1909   2.214   8.134   8.378 -0.3596 -0.5398 -0.2317
   60U       C2 1910   2.369   8.231   8.282  0.3106 -0.1084  0.1515
   60U       O2 1911   2.318   8.341   8.303  0.3261 -0.0478 -0.1201
   60U      C3' 1912   2.761   8.314   8.058  0.4595  0.0041 -0.0788
   60U      H3' 1913   2.797   8.211   8.064  3.7459  1.0378 -0.2127
   60U      C2' 1914   2.676   8.351   8.179  0.0476  0.2244 -0.4298
   60U      H2' 1915   2.701   8.280   8.258 -2.5275 -2.2511 -1.6622
   60U      O2' 1916   2.687   8.482   8.230 -0.5048  0.1750 -0.1653
   60U     HO2' 1917   2.717   8.539   8.158  1.0607  0.0421  0.3320
   60U      O3' 1918   2.869   8.404   8.057 -0.1194  0.7081 -0.3441
   61A        P 1919   3.017   8.355   8.019 -0.1048  0.3580  0.1551
   61A      OP1 1920   3.114   8.468   8.026 -0.0031  0.3086 -0.4403
   61A      OP2 1921   3.025   8.267   7.901 -0.3815  0.7236 -0.1397
   61A      O5' 1922   3.052   8.265   8.148  0.2761  0.0204 -0.1798
   61A      C5' 1923   3.046   8.318   8.279  0.1117  0.1599 -0.2430
   61A      H5' 1924   2.952   8.374   8.286  0.2732  0.5084 -0.7651
   61A     H5'' 1925   3.136   8.377   8.296 -0.6389  2.6523 -3.7222
   61A      C4' 1926   3.041   8.192   8.364 -0.1210  0.4644  0.1977
   61A      H4' 1927   3.039   8.230   8.466 -4.0384 -2.6134  1.5129
   61A      O4' 1928   2.913   8.134   8.362 -0.0061  0.1877  0.5649
   61A      C1' 1929   2.931   7.995   8.375  0.7572  0.2309  0.0296
   61A      H1' 1930   2.861   7.951   8.446 -0.0398 -0.2457 -1.0158
   61A       N9 1931   2.898   7.917   8.254  0.2492  0.0581  0.2746
   61A       C8 1932   2.952   7.942   8.130 -0.0577 -0.3150  0.0624
   61A       H8 1933   3.021   8.021   8.103  0.2923 -0.9208 -0.8680
   61A       N7 1934   2.903   7.866   8.036  0.2546 -0.1993 -0.1951
   61A       C5 1935   2.804   7.793   8.099 -0.1840  0.5734  0.0291
   61A       C6 1936   2.701   7.704   8.064  0.2000  0.1420 -0.0150
   61A       N6 1937   2.659   7.686   7.938 -0.4925  0.1426  0.2107
   61A      H61 1938   2.686   7.764   7.881  1.1146 -0.1889  0.4587
   61A      H62 1939   2.580   7.625   7.920  1.2975 -1.5516 -2.7683
   61A       N1 1940   2.621   7.646   8.155  0.2144  0.2961  0.0946
   61A       C2 1941   2.634   7.685   8.281 -0.1810  0.7774 -0.0078
   61A       H2 1942   2.570   7.638   8.354  1.4615 -1.0382  0.3712
   61A       N3 1943   2.728   7.763   8.330 -0.3179  0.9168  0.0306
   61A       C4 1944   2.810   7.813   8.234  0.2918  0.0566  0.0909
   61A      C3' 1945   3.145   8.080   8.357 -0.4293  0.1658  0.3365
   61A      H3' 1946   3.170   8.058   8.253  2.4372  1.4360  0.6308
   61A      C2' 1947   3.072   7.965   8.424  0.6339 -0.8846 -0.2714
   61A      H2' 1948   3.108   7.869   8.386 -0.5776 -1.5989  0.2974
   61A      O2' 1949   3.057   7.950   8.564 -0.5311  0.2171 -0.2614
   61A     HO2' 1950   3.109   7.875   8.593 -0.9617 -0.8537 -2.0891
   61A      O3' 1951   3.271   8.101   8.419 -0.4828 -0.5822  0.7040
   62G        P 1952   3.390   7.993   8.416  0.0380 -0.0048  0.0862
   62G      OP1 1953   3.489   8.058   8.505  0.2330 -0.4456  0.1935
   62G      OP2 1954   3.425   7.964   8.276  0.2913  0.7720 -0.0151
   62G      O5' 1955   3.357   7.856   8.495  0.2011 -0.4930 -0.6840
   62G      C5' 1956   3.350   7.847   8.636 -0.6117  0.0625 -0.6848
   62G      H5' 1957   3.293   7.932   8.674 -2.2691 -1.5429  0.5487
   62G     H5'' 1958   3.451   7.854   8.675 -0.3722  1.0408 -1.4105
   62G      C4' 1959   3.308   7.711   8.690  0.1954 -0.2636 -0.8749
   62G      H4' 1960   3.288   7.716   8.797 -2.1286 -0.6811 -1.2403
   62G      O4' 1961   3.177   7.689   8.643 -0.3252  0.2017  0.3235
   62G      C1' 1962   3.178   7.558   8.590 -0.1699  0.3792 -0.1133
   62G      H1' 1963   3.104   7.500   8.645  0.7751 -1.6029 -0.8287
   62G       N9 1964   3.148   7.569   8.446 -0.2372  1.0857 -0.0511
   62G       C8 1965   3.222   7.608   8.337  0.6772 -1.0475 -0.2420
   62G       H8 1966   3.321   7.650   8.351 -0.3490  1.1096  0.9880
   62G       N7 1967   3.165   7.586   8.222 -0.4283  0.1107  0.0743
   62G       C5 1968   3.041   7.534   8.260 -0.1225 -0.3503  0.4583
   62G       C6 1969   2.944   7.482   8.170 -0.0379  0.1083  0.0963
   62G       O6 1970   2.945   7.474   8.047  0.2926  0.3052  0.0827
   62G       N1 1971   2.838   7.427   8.241  0.0929 -0.5944 -0.2385
   62G       H1 1972   2.766   7.386   8.183  1.8046 -2.1757 -1.3710
   62G       C2 1973   2.839   7.407   8.377 -0.1302 -0.4559 -0.2146
   62G       N2 1974   2.740   7.345   8.442  0.0911  0.1274  0.7003
   62G      H21 1975   2.664   7.311   8.384 -1.8724 -0.7873  3.5645
   62G      H22 1976   2.761   7.316   8.536  2.1369 -0.4764  0.0960
   62G       N3 1977   2.936   7.447   8.461 -0.4620  0.1294 -0.1105
   62G       C4 1978   3.035   7.510   8.394  0.4385 -0.6983  0.4234
   62G      C3' 1979   3.406   7.597   8.662  0.3169 -0.3437 -0.1419
   62G      H3' 1980   3.456   7.624   8.569 -4.5567 -2.0154 -3.6465
   62G      C2' 1981   3.307   7.486   8.627 -0.2293  0.1837 -0.2856
   62G      H2' 1982   3.352   7.428   8.546  1.1381 -0.3670  0.8113
   62G      O2' 1983   3.280   7.406   8.739 -0.0362 -0.3492 -0.6154
   62G     HO2' 1984   3.359   7.364   8.774  0.4061 -2.0416 -3.3864
   62G      O3' 1985   3.489   7.576   8.774  0.3473 -0.3991 -0.1751
   63U        P 1986   3.649   7.564   8.761  0.4196  0.2463  0.0531
   63U      OP1 1987   3.705   7.551   8.897 -0.0232 -0.0014  0.2138
   63U      OP2 1988   3.702   7.668   8.671  1.0857  0.2640  0.4573
   63U      O5' 1989   3.680   7.421   8.692 -1.3428 -0.1542  0.0588
   63U      C5' 1990   3.683   7.413   8.551 -1.0448 -0.1349  0.0643
   63U      H5' 1991   3.741   7.497   8.513  2.2524 -1.2269  2.2100
   63U     H5'' 1992   3.584   7.420   8.507 -1.7807 -2.6869  1.0892
   63U      C4' 1993   3.732   7.276   8.503 -0.3000  0.4778 -0.9738
   63U      H4' 1994   3.739   7.265   8.395  1.9303  0.2032 -0.8475
   63U      O4' 1995   3.856   7.236   8.557 -0.5422 -0.0153 -0.7792
   63U      C1' 1996   3.841   7.105   8.607  0.0871  0.2778  0.2119
   63U      H1' 1997   3.861   7.029   8.531  2.8589  2.1359 -1.0349
   63U       N1 1998   3.932   7.091   8.722 -0.4259  0.0520  0.5945
   63U       C6 1999   3.973   7.203   8.788  0.0801  0.6497 -0.7094
   63U       H6 2000   3.918   7.296   8.781 -0.0784  0.6891  0.7061
   63U       C5 2001   4.066   7.200   8.886 -0.2556 -0.0312 -0.4136
   63U       H5 2002   4.086   7.293   8.937 -0.3325  0.0028 -0.4475
   63U       C4 2003   4.131   7.076   8.925  0.1003  0.0504 -0.7494
   63U       O4 2004   4.212   7.062   9.016 -0.1553 -0.0655 -0.5400
   63U       N3 2005   4.088   6.965   8.853  0.4836 -0.2715 -0.4783
   63U       H3 2006   4.141   6.881   8.875  0.0693 -0.2732  0.5884
   63U       C2 2007   3.991   6.971   8.754 -0.1841  0.0600  0.1860
   63U       O2 2008   3.952   6.865   8.705  0.1313 -0.1753  0.4373
   63U      C3' 2009   3.625   7.174   8.543  0.3994  0.0257 -0.2244
   63U      H3' 2010   3.541   7.221   8.592  0.3558 -0.9181  0.6389
   63U      C2' 2011   3.695   7.096   8.653  0.0955  0.4515  0.2719
   63U      H2' 2012   3.687   7.157   8.743  0.5625  0.4174  0.3411
   63U      O2' 2013   3.653   6.963   8.676  0.0900  0.4331  0.1514
   63U     HO2' 2014   3.564   6.933   8.655 -0.3822  0.5022  1.8967
   63U      O3' 2015   3.589   7.096   8.431 -0.1370 -0.2090  0.1086
   64A        P 2016   3.462   7.146   8.346  0.0439 -0.2193 -0.1700
   64A      OP1 2017   3.472   7.070   8.219 -0.0273 -0.6191  0.0650
   64A      OP2 2018   3.453   7.294   8.344 -0.1999 -0.2318 -0.0161
   64A      O5' 2019   3.330   7.098   8.424 -0.2485  0.4248 -0.2536
   64A      C5' 2020   3.310   7.122   8.562 -0.4285 -0.1644 -0.1720
   64A      H5' 2021   3.322   7.229   8.576  0.0909  0.0570 -2.0267
   64A     H5'' 2022   3.388   7.068   8.615  1.1212  2.6143  0.5591
   64A      C4' 2023   3.181   7.082   8.632 -0.2550 -0.3325  0.0542
   64A      H4' 2024   3.189   7.126   8.732  1.4706  1.4355 -0.8023
   64A      O4' 2025   3.068   7.135   8.566  0.0875 -0.1802 -0.4145
   64A      C1' 2026   2.959   7.045   8.571 -0.2111  0.2268  0.6337
   64A      H1' 2027   2.866   7.083   8.614  0.2838  0.9789  1.0576
   64A       N9 2028   2.926   7.009   8.431  0.5172 -0.0072  0.5189
   64A       C8 2029   2.993   7.037   8.315 -0.3762  0.1848  0.0360
   64A       H8 2030   3.088   7.088   8.310 -0.3709  0.1811  0.0963
   64A       N7 2031   2.923   7.018   8.207  0.0262  0.5462 -0.2962
   64A       C5 2032   2.800   6.980   8.261  0.3406  0.3583  0.3032
   64A       C6 2033   2.680   6.937   8.203  0.3904  0.3265  0.2243
   64A       N6 2034   2.642   6.936   8.074  0.5007 -0.4143  0.1932
   64A      H61 2035   2.692   6.953   7.988 -2.0036  0.4895 -1.1734
   64A      H62 2036   2.548   6.901   8.063  0.3594 -1.1425  2.9711
   64A       N1 2037   2.577   6.897   8.279 -0.1045  0.3448 -0.4175
   64A       C2 2038   2.595   6.901   8.411 -0.2612 -0.6678 -0.3578
   64A       H2 2039   2.510   6.868   8.469 -0.2019 -1.6475 -0.8078
   64A       N3 2040   2.702   6.929   8.483 -0.3239  0.2650 -0.6068
   64A       C4 2041   2.799   6.969   8.397  0.5336  0.1348  0.2873
   64A      C3' 2042   3.151   6.933   8.644 -0.2102 -0.3541 -0.1007
   64A      H3' 2043   3.175   6.885   8.550  0.4059 -0.7697  0.2665
   64A      C2' 2044   2.999   6.932   8.664 -0.1365  0.1847  0.5495
   64A      H2' 2045   2.958   6.833   8.641 -0.7229  0.0529  2.0655
   64A      O2' 2046   2.960   6.968   8.795 -0.0935  1.1963  0.2910
   64A     HO2' 2047   3.004   6.900   8.847 -1.6506  0.3405  0.5398
   64A      O3' 2048   3.215   6.870   8.752 -0.2030  0.5537  0.4398
   65C        P 2049   3.323   6.759   8.708 -0.2466  0.6422  0.1109
   65C      OP1 2050   3.374   6.695   8.831  0.2389  0.1802 -0.3273
   65C      OP2 2051   3.429   6.815   8.622  0.1171 -0.3001 -0.0612
   65C      O5' 2052   3.235   6.653   8.624  0.3692  0.3494 -0.1698
   65C      C5' 2053   3.134   6.565   8.668  0.4219  0.3995  0.0532
   65C      H5' 2054   3.073   6.623   8.738 -0.9493 -0.5217 -0.3473
   65C     H5'' 2055   3.186   6.479   8.709  0.0826 -0.3490 -1.0586
   65C      C4' 2056   3.049   6.515   8.552  0.7335  0.1399 -0.0624
   65C      H4' 2057   2.965   6.457   8.590 -1.7034  3.6892  0.4595
   65C      O4' 2058   3.003   6.625   8.477  0.1502  0.3740  0.6290
   65C      C1' 2059   2.978   6.580   8.346  0.3339 -0.0444  0.7343
   65C      H1' 2060   2.875   6.591   8.311 -1.4082 -0.9410  4.9582
   65C       N1 2061   3.059   6.656   8.248 -0.4957  0.3914  0.3747
   65C       C6 2062   3.168   6.730   8.284 -0.1789  0.1291 -0.0372
   65C       H6 2063   3.209   6.719   8.383 -1.0141 -0.2414  0.2785
   65C       C5 2064   3.235   6.811   8.200  0.2571 -0.4143 -0.2233
   65C       H5 2065   3.321   6.867   8.233 -0.6787  1.7949 -1.3027
   65C       C4 2066   3.173   6.828   8.072 -0.3172 -0.2910  0.0651
   65C       N4 2067   3.225   6.911   7.980 -0.0598 -0.4368  0.0775
   65C      H41 2068   3.322   6.934   7.996  0.3148 -1.9237  0.1023
   65C      H42 2069   3.187   6.899   7.887 -2.2692 -0.9555  0.9789
   65C       N3 2070   3.070   6.754   8.029 -0.3962 -0.0451 -0.1721
   65C       C2 2071   3.015   6.667   8.118 -0.2204  0.2930  0.2736
   65C       O2 2072   2.922   6.601   8.072 -0.1443  0.0879  0.4162
   65C      C3' 2073   3.123   6.423   8.455 -0.2045  0.0457 -0.7032
   65C      H3' 2074   3.219   6.466   8.427  0.6527 -0.9748  0.5648
   65C      C2' 2075   3.024   6.435   8.340 -0.4781 -0.2649 -0.5018
   65C      H2' 2076   3.067   6.404   8.245  1.3568  1.5924 -0.3268
   65C      O2' 2077   2.901   6.369   8.361 -0.3006 -0.3109  0.4189
   65C     HO2' 2078   2.912   6.274   8.368  2.6148  0.0848  3.5916
   65C      O3' 2079   3.151   6.288   8.486 -0.6180  0.1140 -0.0106
   66U        P 2080   3.258   6.203   8.400 -0.2242  0.0846  0.4965
   66U      OP1 2081   3.261   6.066   8.455 -0.9599 -0.2213 -0.1995
   66U      OP2 2082   3.380   6.286   8.402 -0.4264  0.4008  0.0226
   66U      O5' 2083   3.216   6.197   8.244 -0.9482 -0.0468  0.6917
   66U      C5' 2084   3.124   6.103   8.194 -0.1401 -0.2652 -0.4122
   66U      H5' 2085   3.023   6.131   8.223  0.5508  1.3856  0.5289
   66U     H5'' 2086   3.136   6.002   8.235  1.3328 -0.4313 -1.1861
   66U      C4' 2087   3.116   6.106   8.042 -0.4434 -0.5146 -0.4030
   66U      H4' 2088   3.031   6.041   8.018 -1.8119  2.0265 -3.1624
   66U      O4' 2089   3.086   6.239   8.005  0.7044 -0.1845 -0.1857
   66U      C1' 2090   3.116   6.244   7.867  0.2414 -0.0253 -0.2822
   66U      H1' 2091   3.023   6.250   7.811 -0.1818 -2.7225  0.0311
   66U       N1 2092   3.196   6.366   7.843 -0.4757  0.4870 -0.1298
   66U       C6 2093   3.253   6.439   7.943 -0.4077 -0.0992  0.2682
   66U       H6 2094   3.242   6.403   8.044 -0.5634 -0.7199  0.0339
   66U       C5 2095   3.312   6.558   7.916 -0.0312 -0.3619 -0.0758
   66U       H5 2096   3.327   6.634   7.991 -1.8896 -0.1547  0.1351
   66U       C4 2097   3.324   6.608   7.781 -0.0337 -0.4469 -0.1063
   66U       O4 2098   3.375   6.715   7.746 -0.1444 -0.4102 -0.1522
   66U       N3 2099   3.277   6.522   7.683 -0.0282  0.4911 -0.9431
   66U       H3 2100   3.268   6.550   7.586 -2.1879 -1.6146 -1.4540
   66U       C2 2101   3.206   6.406   7.711  0.1460  0.5976 -0.0506
   66U       O2 2102   3.151   6.346   7.619  0.1323  0.0389  0.3237
   66U      C3' 2103   3.240   6.068   7.962  0.1212  0.5677 -0.0636
   66U      H3' 2104   3.333   6.117   7.992  1.5208 -1.1719 -1.3265
   66U      C2' 2105   3.195   6.121   7.826  0.4808  0.1500 -0.3486
   66U      H2' 2106   3.288   6.131   7.770 -0.9197  1.3831 -2.5600
   66U      O2' 2107   3.099   6.043   7.759  0.0475  0.3160  0.0716
   66U     HO2' 2108   3.115   6.060   7.665  1.3112 -0.1875  0.1895
   66U      O3' 2109   3.264   5.929   7.954  0.3279  0.6402 -0.7995
   67G        P 2110   3.413   5.876   7.923  0.4324  0.1814  0.4255
   67G      OP1 2111   3.405   5.730   7.944 -0.2639  0.1714  0.1074
   67G      OP2 2112   3.507   5.962   7.999  0.4625  0.6134 -0.0945
   67G      O5' 2113   3.451   5.893   7.768  0.5680 -0.6149  0.3704
   67G      C5' 2114   3.363   5.842   7.670  0.6526  0.4955 -0.2976
   67G      H5' 2115   3.258   5.843   7.702  0.2097 -1.0201 -1.5662
   67G     H5'' 2116   3.397   5.739   7.673  0.4715  0.4118 -0.8954
   67G      C4' 2117   3.366   5.892   7.526 -0.0835 -0.1592 -0.5505
   67G      H4' 2118   3.305   5.832   7.458 -0.8632  1.8771 -1.7323
   67G      O4' 2119   3.329   6.027   7.538 -0.1888 -0.2028 -0.3739
   67G      C1' 2120   3.375   6.099   7.426 -0.5611  0.3740 -0.1601
   67G      H1' 2121   3.293   6.126   7.359 -0.6924  1.8523  0.5543
   67G       N9 2122   3.443   6.217   7.484  0.4559 -0.2540 -0.0509
   67G       C8 2123   3.502   6.232   7.607  0.2687  0.1142 -0.0068
   67G       H8 2124   3.511   6.155   7.681  2.1086 -1.3347 -1.6351
   67G       N7 2125   3.553   6.351   7.620  0.5432 -0.0419  0.3313
   67G       C5 2126   3.554   6.406   7.492 -0.1292  0.1029  0.3865
   67G       C6 2127   3.605   6.524   7.433 -0.6357  0.1425  0.0208
   67G       O6 2128   3.649   6.622   7.494 -0.0394 -0.6940  0.9704
   67G       N1 2129   3.603   6.539   7.295  0.5813  0.0420 -0.0226
   67G       H1 2130   3.672   6.601   7.255  0.2561  1.7464  1.8949
   67G       C2 2131   3.549   6.436   7.220  0.2254  0.3745 -0.2244
   67G       N2 2132   3.559   6.444   7.087  0.2165 -0.0004 -0.2472
   67G      H21 2133   3.596   6.530   7.048 -0.4275  0.4197  0.0589
   67G      H22 2134   3.514   6.370   7.036 -1.4652  0.8742 -0.1063
   67G       N3 2135   3.485   6.331   7.272 -0.2690  0.9323  0.3242
   67G       C4 2136   3.486   6.322   7.407 -0.2153  0.2752  0.2871
   67G      C3' 2137   3.505   5.908   7.463  0.1740  0.3540  0.1436
   67G      H3' 2138   3.571   5.948   7.540  0.8358  1.4499 -0.9646
   67G      C2' 2139   3.478   6.012   7.355 -0.5806  0.1298  0.1081
   67G      H2' 2140   3.568   6.069   7.331 -0.6374  1.4185  2.6764
   67G      O2' 2141   3.414   5.962   7.239 -0.3322  0.5006 -0.1935
   67G     HO2' 2142   3.473   5.923   7.174 -2.2171 -0.4081 -1.4494
   67G      O3' 2143   3.562   5.790   7.412  0.2683  0.3298  0.3051
   68A        P 2144   3.721   5.761   7.408  0.2605  0.3457 -0.1188
   68A      OP1 2145   3.745   5.652   7.311  0.6968  0.1225  0.2379
   68A      OP2 2146   3.768   5.739   7.546 -0.2803  0.5359  0.0989
   68A      O5' 2147   3.786   5.895   7.346 -0.4311  0.5712 -0.3705
   68A      C5' 2148   3.792   5.912   7.206  0.3979 -0.3330 -0.4565
   68A      H5' 2149   3.697   5.899   7.154  0.0736  2.7787 -0.8558
   68A     H5'' 2150   3.856   5.829   7.179  1.5670  0.7447 -1.1391
   68A      C4' 2151   3.865   6.039   7.162 -0.2543  0.1504 -0.1611
   68A      H4' 2152   3.859   6.042   7.053  3.8808  0.4421 -0.5539
   68A      O4' 2153   3.799   6.154   7.210 -0.4890  0.0060 -0.1348
   68A      C1' 2154   3.901   6.243   7.251 -0.1781 -0.5186  0.2460
   68A      H1' 2155   3.890   6.342   7.206 -1.6390 -0.5473  0.4759
   68A       N9 2156   3.900   6.264   7.397  0.3376 -0.0441  0.1822
   68A       C8 2157   3.910   6.171   7.497 -0.4219  0.0192  0.3187
   68A       H8 2158   3.892   6.069   7.467 -2.6336  1.2610 -3.0969
   68A       N7 2159   3.914   6.222   7.617 -0.3494  0.1611  0.2563
   68A       C5 2160   3.942   6.356   7.590 -0.6209  0.2272  0.2982
   68A       C6 2161   3.976   6.460   7.678  0.6988 -0.2358  0.3561
   68A       N6 2162   3.973   6.458   7.812  0.1086  1.0524  0.3750
   68A      H61 2163   3.932   6.370   7.841  0.6513  1.2043  1.7000
   68A      H62 2164   3.996   6.534   7.874  1.4709  0.8804  0.1068
   68A       N1 2165   3.995   6.582   7.627  0.5861 -0.1501  0.5187
   68A       C2 2166   3.997   6.591   7.495 -0.2253 -0.2632  0.4961
   68A       H2 2167   4.023   6.687   7.454  0.6176 -1.2744 -1.5144
   68A       N3 2168   3.986   6.497   7.402  0.3425 -0.0621  0.2266
   68A       C4 2169   3.950   6.378   7.455 -0.2826  0.1630  0.3077
   68A      C3' 2170   4.016   6.036   7.185 -0.3000 -0.3187  0.0798
   68A      H3' 2171   4.054   5.996   7.279 -0.3895  3.3016  1.8330
   68A      C2' 2172   4.036   6.185   7.209 -0.3594 -0.1539 -0.8753
   68A      H2' 2173   4.112   6.203   7.285  0.5567 -1.4216 -1.4683
   68A      O2' 2174   4.085   6.250   7.094  0.3908  0.5750 -0.1615
   68A     HO2' 2175   4.118   6.176   7.041  0.6270 -0.3431  1.2274
   68A      O3' 2176   4.093   6.004   7.072  0.6892  0.0307  0.6425
   69U        P 2177   4.112   5.849   7.035 -0.0120  0.0665  0.1074
   69U      OP1 2178   4.115   5.780   7.166  0.0531 -0.1761 -0.0205
   69U      OP2 2179   4.225   5.824   6.943  0.2354  0.6268  0.2607
   69U      O5' 2180   3.975   5.804   6.964  0.0784 -0.0180 -0.0144
   69U      C5' 2181   3.929   5.863   6.844  0.1991 -0.1242 -0.1142
   69U      H5' 2182   4.010   5.860   6.772  0.4530  1.9117  0.0070
   69U     H5'' 2183   3.897   5.966   6.864  1.4275 -0.1670  2.4897
   69U      C4' 2184   3.817   5.791   6.769  0.1395  0.0273 -0.1706
   69U      H4' 2185   3.803   5.830   6.668  1.2045  2.0421  0.3961
   69U      O4' 2186   3.851   5.655   6.763  0.5164  0.1141 -0.0781
   69U      C1' 2187   3.743   5.575   6.806  0.8593 -0.1519  0.2933
   69U      H1' 2188   3.683   5.543   6.721  2.9663 -0.5622 -1.1275
   69U       N1 2189   3.799   5.448   6.858  0.0877 -0.5395  0.1922
   69U       C6 2190   3.904   5.453   6.945 -0.0029  0.1048  0.2737
   69U       H6 2191   3.966   5.538   6.965 -0.7980  0.2397  2.3662
   69U       C5 2192   3.933   5.342   7.017  0.5290  0.0187 -0.0734
   69U       H5 2193   4.010   5.341   7.093 -1.2136 -0.4450  1.7803
   69U       C4 2194   3.844   5.229   7.021  0.0547  0.3914 -0.0396
   69U       O4 2195   3.859   5.138   7.101  0.2475  0.2957 -0.1826
   69U       N3 2196   3.737   5.231   6.932 -0.4359  0.3384  0.5437
   69U       H3 2197   3.661   5.164   6.940 -0.3897  0.1022 -0.7024
   69U       C2 2198   3.714   5.339   6.848 -0.0487 -0.3783 -0.5128
   69U       O2 2199   3.609   5.354   6.787 -0.3484 -0.7981 -0.1048
   69U      C3' 2200   3.688   5.804   6.848  0.0449  0.0699 -0.3306
   69U      H3' 2201   3.697   5.876   6.930 -0.0285 -0.9816  0.6326
   69U      C2' 2202   3.667   5.663   6.904  0.0436  0.0134 -0.4752
   69U      H2' 2203   3.727   5.671   6.995 -2.6303 -1.7922  1.6143
   69U      O2' 2204   3.530   5.633   6.917  0.0847 -0.2436 -0.6331
   69U     HO2' 2205   3.493   5.719   6.897 -0.5370 -0.2680  0.3107
   69U      O3' 2206   3.593   5.845   6.752 -0.1422  0.0020 -0.1780
   70G        P 2207   3.457   5.927   6.775 -0.0734  0.0878 -0.0733
   70G      OP1 2208   3.447   5.936   6.922 -0.3793  0.6586 -0.1261
   70G      OP2 2209   3.363   5.840   6.700  0.2019 -0.1968 -0.0881
   70G      O5' 2210   3.485   6.074   6.717 -0.2936  0.0893 -0.1798
   70G      C5' 2211   3.371   6.152   6.688 -0.3224  0.3366  0.5783
   70G      H5' 2212   3.301   6.149   6.772  0.8143  0.4070  1.5585
   70G     H5'' 2213   3.331   6.113   6.594 -1.9854  2.2740  0.4095
   70G      C4' 2214   3.408   6.297   6.658  0.7661 -0.1195 -0.3231
   70G      H4' 2215   3.316   6.348   6.632  0.6199  1.0537  2.2437
   70G      O4' 2216   3.474   6.350   6.770  0.2309  0.1057 -0.1125
   70G      C1' 2217   3.580   6.429   6.721 -0.0801  0.4620 -0.2130
   70G      H1' 2218   3.579   6.528   6.766 -2.9721  0.0719  0.7770
   70G       N9 2219   3.715   6.377   6.750 -0.2222  0.2206  0.0080
   70G       C8 2220   3.739   6.260   6.818  0.0407  0.6334  0.6368
   70G       H8 2221   3.665   6.194   6.861 -0.1349  0.8756  0.7043
   70G       N7 2222   3.866   6.231   6.820 -0.1165 -0.1778 -0.3744
   70G       C5 2223   3.934   6.339   6.765 -0.1952  0.0771  0.0241
   70G       C6 2224   4.073   6.364   6.750 -0.2765 -0.0012 -0.9189
   70G       O6 2225   4.171   6.308   6.800 -0.6532  0.2212  0.0944
   70G       N1 2226   4.094   6.478   6.675 -0.2461  0.3975 -0.3093
   70G       H1 2227   4.189   6.513   6.673  0.4306 -1.2013  1.2673
   70G       C2 2228   3.993   6.555   6.621 -0.4046  0.0868 -0.4533
   70G       N2 2229   4.034   6.674   6.573  0.5613  0.0619  0.2837
   70G      H21 2230   4.131   6.681   6.546  0.8999  0.4170  1.5126
   70G      H22 2231   3.951   6.723   6.541 -1.5232 -3.9897 -1.3625
   70G       N3 2232   3.863   6.536   6.643 -0.3506 -0.0961 -0.2979
   70G       C4 2233   3.839   6.427   6.719 -0.1685  0.1506  0.1144
   70G      C3' 2234   3.488   6.318   6.529  0.1324  0.7141 -0.5902
   70G      H3' 2235   3.556   6.232   6.525 -1.1986 -0.4318  0.3567
   70G      C2' 2236   3.559   6.446   6.571  0.2544  0.5397 -0.2515
   70G      H2' 2237   3.653   6.456   6.515  0.8301 -1.7799  0.2156
   70G      O2' 2238   3.477   6.561   6.560  0.1780  0.4742 -0.3571
   70G     HO2' 2239   3.397   6.528   6.519 -0.3704  0.6421  0.5489
   70G      O3' 2240   3.411   6.333   6.412 -0.2044  0.0623 -0.4602
   71U        P 2241   3.469   6.310   6.264  0.1577  0.1023 -0.3268
   71U      OP1 2242   3.386   6.382   6.165 -1.0022 -0.8563 -0.0775
   71U      OP2 2243   3.480   6.162   6.259 -0.2491  0.0538  0.1499
   71U      O5' 2244   3.620   6.365   6.269  0.1667  0.0455  0.0029
   71U      C5' 2245   3.658   6.495   6.231  0.2411  0.0469  0.0801
   71U      H5' 2246   3.628   6.569   6.306  1.4271  1.8603 -1.1678
   71U     H5'' 2247   3.601   6.524   6.143  2.1714 -1.1248 -1.6382
   71U      C4' 2248   3.802   6.505   6.182  0.3285 -0.3986  0.2402
   71U      H4' 2249   3.795   6.586   6.109  1.4085 -0.2565  0.2824
   71U      O4' 2250   3.897   6.537   6.281 -0.0222  0.0459  0.4417
   71U      C1' 2251   3.998   6.441   6.262 -0.1651  0.0092 -0.1537
   71U      H1' 2252   4.090   6.498   6.272 -0.2943  0.4510 -1.3056
   71U       N1 2253   4.015   6.334   6.363  0.0335  0.0758 -0.1164
   71U       C6 2254   3.914   6.274   6.432  0.1754  0.2897  0.2793
   71U       H6 2255   3.816   6.319   6.435 -0.7070 -1.3723 -1.7241
   71U       C5 2256   3.931   6.171   6.518  0.0878 -0.0112 -0.0607
   71U       H5 2257   3.844   6.132   6.568 -2.1597  0.8266 -3.0323
   71U       C4 2258   4.062   6.112   6.534  0.1040 -0.0157 -0.2073
   71U       O4 2259   4.087   6.013   6.603 -0.2228 -0.3871 -0.6155
   71U       N3 2260   4.165   6.171   6.463  0.1896  0.0473 -0.0345
   71U       H3 2261   4.257   6.131   6.467 -1.1100 -3.0859  3.1088
   71U       C2 2262   4.140   6.275   6.374  0.1031  0.2888  0.2704
   71U       O2 2263   4.235   6.320   6.310  0.2353  0.4435  0.5726
   71U      C3' 2264   3.847   6.389   6.095  0.2585 -0.0409 -0.2785
   71U      H3' 2265   3.803   6.295   6.128 -5.8387  2.5929  0.4468
   71U      C2' 2266   3.997   6.384   6.120  0.1963 -0.4551  0.0257
   71U      H2' 2267   4.041   6.285   6.110  3.4595  1.0298 -2.2577
   71U      O2' 2268   4.067   6.479   6.043  0.4735 -0.2900  0.4774
   71U     HO2' 2269   4.041   6.460   5.953  0.2254  1.3874  0.1574
   71U      O3' 2270   3.812   6.409   5.959  0.2073 -0.1148 -0.2764
   72C        P 2271   3.834   6.297   5.845  0.0162 -0.1715 -0.2585
   72C      OP1 2272   3.768   6.349   5.724 -0.4146  0.1901  0.1242
   72C      OP2 2273   3.806   6.164   5.905  0.2042 -0.1237 -0.0618
   72C      O5' 2274   3.992   6.301   5.816 -0.0629 -0.5261 -0.7511
   72C      C5' 2275   4.062   6.398   5.740 -0.5577  0.1787 -0.3207
   72C      H5' 2276   4.023   6.496   5.768  1.7232  0.4718  2.2431
   72C     H5'' 2277   4.025   6.390   5.638 -0.0796  2.8288 -0.7672
   72C      C4' 2278   4.213   6.378   5.737 -0.5436  0.2957 -0.3709
   72C      H4' 2279   4.266   6.462   5.692  0.6756 -0.1222  0.2471
   72C      O4' 2280   4.260   6.363   5.869 -0.1601  0.2642 -0.5111
   72C      C1' 2281   4.390   6.308   5.865 -0.2235  0.0451  0.3248
   72C      H1' 2282   4.466   6.386   5.874 -1.0419  0.9740 -0.5916
   72C       N1 2283   4.417   6.195   5.955 -0.0689  0.2631  0.5552
   72C       C6 2284   4.316   6.149   6.035 -0.1078  0.0719  0.3991
   72C       H6 2285   4.215   6.170   6.004  0.0239 -0.0774 -0.1347
   72C       C5 2286   4.342   6.066   6.139  0.1965  0.0402  0.2984
   72C       H5 2287   4.264   6.014   6.192 -1.8651  0.9964 -1.6280
   72C       C4 2288   4.482   6.039   6.157  0.3087  0.2353 -0.2473
   72C       N4 2289   4.516   5.950   6.251  0.1766  1.1718  0.6956
   72C      H41 2290   4.448   5.898   6.304  0.3829 -1.9775 -1.8759
   72C      H42 2291   4.616   5.940   6.262  0.6673  3.2997 -1.1206
   72C       N3 2292   4.582   6.088   6.083  0.5867  0.3836  0.2254
   72C       C2 2293   4.550   6.167   5.977 -0.0752 -0.4191 -0.1916
   72C       O2 2294   4.639   6.222   5.912 -0.0332 -0.0813  0.1438
   72C      C3' 2295   4.273   6.257   5.665  0.0231  0.4168 -0.1030
   72C      H3' 2296   4.215   6.170   5.695  0.7333  0.1136  0.4142
   72C      C2' 2297   4.414   6.256   5.724 -0.1758 -0.0566  0.3714
   72C      H2' 2298   4.459   6.156   5.728 -2.0671 -0.9765  0.0459
   72C      O2' 2299   4.499   6.350   5.662 -0.2083 -0.1273  0.2188
   72C     HO2' 2300   4.592   6.325   5.665 -0.3985 -0.9730 -0.5022
   72C      O3' 2301   4.259   6.275   5.526 -0.0814  0.3276 -0.1040
   73G        P 2302   4.276   6.152   5.424 -0.1594  0.1446  0.1035
   73G      OP1 2303   4.236   6.199   5.290  0.7218  0.1902 -0.1531
   73G      OP2 2304   4.212   6.033   5.485 -0.1397 -0.1621 -0.4664
   73G      O5' 2305   4.433   6.115   5.429 -0.1715  0.1302  0.3855
   73G      C5' 2306   4.533   6.196   5.372  0.0223 -0.3857 -0.0229
   73G      H5' 2307   4.515   6.299   5.404  2.3512 -0.3854  1.5391
   73G     H5'' 2308   4.519   6.200   5.264 -0.1437  3.1489 -0.0161
   73G      C4' 2309   4.674   6.143   5.393  0.2645  0.4061  0.4230
   73G      H4' 2310   4.745   6.197   5.329  2.2702 -1.7709  0.6614
   73G      O4' 2311   4.708   6.140   5.530 -0.8776 -0.7675  0.7050
   73G      C1' 2312   4.803   6.036   5.535 -0.3337 -0.2936  0.4599
   73G      H1' 2313   4.900   6.081   5.554 -0.7039  1.4524 -1.4534
   73G       N9 2314   4.761   5.952   5.649 -0.8459  0.0612  0.5370
   73G       C8 2315   4.635   5.924   5.694 -0.8655 -0.3032  0.2645
   73G       H8 2316   4.551   5.977   5.650 -0.1864 -0.1923 -0.9494
   73G       N7 2317   4.631   5.869   5.812  0.4886 -0.1171  0.4100
   73G       C5 2318   4.763   5.840   5.842  0.5501 -0.1565  0.1091
   73G       C6 2319   4.828   5.791   5.959  0.3543 -0.7060 -0.0096
   73G       O6 2320   4.787   5.753   6.068 -0.0024 -0.5699 -0.0948
   73G       N1 2321   4.966   5.777   5.946  0.5032  0.1229  0.6205
   73G       H1 2322   5.013   5.732   6.023  0.9264 -1.5093 -0.5348
   73G       C2 2323   5.034   5.825   5.836  0.0008  0.0803  0.2871
   73G       N2 2324   5.168   5.825   5.833 -0.0080 -0.3031 -0.1117
   73G      H21 2325   5.217   5.792   5.915 -0.2859 -0.1747  0.1077
   73G      H22 2326   5.210   5.877   5.757 -0.0991 -1.3531 -0.9070
   73G       N3 2327   4.975   5.878   5.728  0.0469 -0.1121  0.1671
   73G       C4 2328   4.841   5.884   5.738  0.0377  0.2133 -0.1174
   73G      C3' 2329   4.690   5.999   5.345 -0.7420  0.3313  0.3008
   73G      H3' 2330   4.609   5.937   5.385 -0.8999  1.7003  2.2761
   73G      C2' 2331   4.821   5.952   5.408 -0.5884  0.3466 -0.0030
   73G      H2' 2332   4.815   5.847   5.435 -3.2425  0.5716  0.5883
   73G      O2' 2333   4.937   5.993   5.341 -0.2224  0.0180  0.4243
   73G     HO2' 2334   4.971   5.917   5.293 -2.0781  0.6907 -2.1539
   73G      O3' 2335   4.684   5.979   5.206  0.0510 -0.6488  0.3933
   74U        P 2336   4.685   5.833   5.137  0.1785 -0.4019 -0.1368
   74U      OP1 2337   4.684   5.868   4.993  0.5892  0.1887  0.0016
   74U      OP2 2338   4.577   5.745   5.187 -0.3854  0.5242  0.3230
   74U      O5' 2339   4.824   5.758   5.168 -0.0656 -0.6770  0.3160
   74U      C5' 2340   4.935   5.795   5.088 -0.4994 -0.1972 -0.0761
   74U      H5' 2341   4.942   5.904   5.085  0.5409 -0.2336  0.5169
   74U     H5'' 2342   4.916   5.753   4.989 -2.1343 -0.2302  0.2242
   74U      C4' 2343   5.059   5.731   5.149 -0.3858 -0.2256 -0.3365
   74U      H4' 2344   5.134   5.765   5.078 -2.5009  2.4739 -1.4392
   74U      O4' 2345   5.088   5.772   5.281  0.0053  0.1783 -0.5474
   74U      C1' 2346   5.157   5.675   5.357 -0.0506  0.8343  0.3606
   74U      H1' 2347   5.255   5.720   5.373  0.6697 -0.5459 -0.0112
   74U       N1 2348   5.095   5.633   5.484 -0.2530 -0.0041 -0.0109
   74U       C6 2349   4.961   5.608   5.497 -0.3899  0.2984 -0.7857
   74U       H6 2350   4.893   5.630   5.415 -1.6225  1.9659  0.6153
   74U       C5 2351   4.915   5.562   5.615  0.3357  0.6358 -0.3640
   74U       H5 2352   4.812   5.530   5.610  0.7133 -0.4467 -2.1822
   74U       C4 2353   5.000   5.530   5.727 -0.1368 -0.0831 -0.2077
   74U       O4 2354   4.965   5.473   5.830  1.1587  0.3745  0.4969
   74U       N3 2355   5.135   5.543   5.699 -0.2687  0.9702 -0.4007
   74U       H3 2356   5.191   5.488   5.762 -1.5137 -2.1042 -1.7515
   74U       C2 2357   5.186   5.598   5.582  0.3652  0.1788 -0.5113
   74U       O2 2358   5.308   5.605   5.573  0.4858 -0.2977  0.6125
   74U      C3' 2359   5.062   5.578   5.155  0.4373 -0.1994  0.1554
   74U      H3' 2360   4.970   5.530   5.187  0.2569  0.2768  0.3656
   74U      C2' 2361   5.165   5.554   5.264  0.2793  0.7323  0.5242
   74U      H2' 2362   5.129   5.466   5.317  2.9050  0.2543  1.6977
   74U      O2' 2363   5.303   5.534   5.239  0.1989  0.5747  0.1989
   74U     HO2' 2364   5.336   5.471   5.304  2.2613 -0.7635 -2.0075
   74U      O3' 2365   5.107   5.512   5.039 -0.0944 -0.0150 -0.1638
   75A        P 2366   5.042   5.508   4.892 -0.0253 -0.1923 -0.1899
   75A      OP1 2367   4.899   5.477   4.915  0.0393 -0.0118  0.4902
   75A      OP2 2368   5.121   5.414   4.808  0.0083  0.1332 -0.5223
   75A      O5' 2369   5.056   5.658   4.836  0.6101 -0.1219  0.1500
   75A      C5' 2370   5.014   5.689   4.705  0.2531 -0.4050  0.1978
   75A      H5' 2371   4.905   5.692   4.712  0.2567 -0.6006  0.3834
   75A     H5'' 2372   5.056   5.618   4.633  0.6028  0.2960 -0.2957
   75A      C4' 2373   5.065   5.825   4.659  0.7479 -0.3523  0.8799
   75A      H4' 2374   5.019   5.851   4.563  0.3738 -0.2457  1.0838
   75A      O4' 2375   5.034   5.924   4.754 -0.0562  0.2844 -0.0155
   75A      C1' 2376   5.144   6.008   4.783  0.2114 -0.0238 -0.1236
   75A      H1' 2377   5.119   6.109   4.748 -3.0088 -1.0638 -1.2032
   75A       N9 2378   5.177   6.010   4.926  0.4622  0.0912 -0.1819
   75A       C8 2379   5.110   6.088   5.017  0.3958  0.3430 -0.4463
   75A       H8 2380   5.014   6.130   4.991  0.2317  0.2523 -0.0039
   75A       N7 2381   5.162   6.100   5.136  0.0121  0.3119 -0.2714
   75A       C5 2382   5.276   6.021   5.122  0.1867  0.5048  0.0507
   75A       C6 2383   5.379   5.976   5.206  0.7700  0.7898 -0.5094
   75A       N6 2384   5.378   5.987   5.339 -0.1253 -0.6798 -0.3681
   75A      H61 2385   5.310   6.050   5.380  0.4256  0.6800 -1.4298
   75A      H62 2386   5.451   5.946   5.395 -1.4292 -2.3405  0.1701
   75A       N1 2387   5.474   5.892   5.163  0.2874 -0.0249 -0.0180
   75A       C2 2388   5.470   5.846   5.039 -0.4880  0.2765 -0.1086
   75A       H2 2389   5.556   5.787   5.011 -0.1217  1.5907 -1.9386
   75A       N3 2390   5.371   5.869   4.954 -0.0491  0.2578 -0.6289
   75A       C4 2391   5.283   5.962   4.999 -0.0520 -0.2200  0.3779
   75A      C3' 2392   5.217   5.822   4.646  0.6783  0.1269 -0.1149
   75A      H3' 2393   5.259   5.757   4.722  0.3128 -1.8100 -1.5036
   75A      C2' 2394   5.250   5.967   4.681  0.5287  0.0958  0.1566
   75A      H2' 2395   5.346   5.961   4.731 -0.5831  2.2725  2.7872
   75A      O2' 2396   5.254   6.046   4.564 -0.2210 -0.4096 -0.2212
   75A     HO2' 2397   5.228   5.982   4.498 -1.2680  1.9850 -2.2818
   75A      O3' 2398   5.255   5.794   4.513 -0.6735 -0.3701 -0.4211
   76U        P 2399   5.345   5.667   4.468 -0.1612 -0.2332  0.2020
   76U      OP1 2400   5.333   5.655   4.321  0.4497 -0.4088  0.1623
   76U      OP2 2401   5.297   5.550   4.545 -0.4723 -0.3642 -0.1920
   76U      O5' 2402   5.499   5.706   4.494 -0.0619 -0.3802 -0.1669
   76U      C5' 2403   5.557   5.682   4.620  0.2549  0.3423 -0.1678
   76U      H5' 2404   5.516   5.588   4.657 -1.0490  0.7606 -0.5337
   76U     H5'' 2405   5.520   5.760   4.686  0.2386 -0.3526  0.6779
   76U      C4' 2406   5.708   5.696   4.602  0.2354  0.4438 -0.2504
   76U      H4' 2407   5.745   5.724   4.700 -0.9998  1.9282 -0.1604
   76U      O4' 2408   5.776   5.583   4.552  0.0309  0.1068  0.2349
   76U      C1' 2409   5.882   5.621   4.468  0.3592  0.2745  0.7181
   76U      H1' 2410   5.965   5.670   4.519  0.7810 -0.9557  1.2654
   76U       N1 2411   5.937   5.513   4.384  0.2153  0.4787  0.3594
   76U       C6 2412   5.862   5.461   4.282  0.1620  0.7542  0.2598
   76U       H6 2413   5.760   5.490   4.263 -0.5193  0.3703  2.9727
   76U       C5 2414   5.923   5.373   4.199  0.0740  0.3837  0.5929
   76U       H5 2415   5.870   5.332   4.114  1.0494 -0.2757  0.2894
   76U       C4 2416   6.051   5.311   4.224 -0.0304 -0.2303 -0.3616
   76U       O4 2417   6.118   5.240   4.149 -0.0998 -0.5217 -0.1493
   76U       N3 2418   6.110   5.360   4.339 -0.4829 -0.0027 -0.2254
   76U       H3 2419   6.198   5.313   4.354 -1.0618 -1.5824 -1.6065
   76U       C2 2420   6.055   5.454   4.426  0.2893  0.3126 -0.0706
   76U       O2 2421   6.107   5.474   4.536  0.2353 -0.0726  0.0291
   76U      C3' 2422   5.759   5.810   4.514  0.8805  0.4322  0.1059
   76U      H3' 2423   5.677   5.866   4.469  0.8333  0.3949  0.1467
   76U      C2' 2424   5.815   5.735   4.393  0.4844  0.0039  0.1872
   76U      H2' 2425   5.728   5.706   4.334 -0.4438  1.0700  0.9817
   76U      O2' 2426   5.911   5.809   4.321 -0.0843  0.6686  0.1045
   76U     HO2' 2427   5.902   5.903   4.339 -0.5746  0.5202  0.6427
   76U      O3' 2428   5.860   5.882   4.581  1.3350  0.0946 -0.2094
   77A        P 2429   5.875   6.039   4.551 -0.0751  0.2713 -0.0561
   77A      OP1 2430   5.864   6.062   4.405  0.2641  0.1141 -0.1078
   77A      OP2 2431   6.004   6.082   4.609  0.1445 -0.0594 -0.2944
   77A      O5' 2432   5.757   6.113   4.632 -0.0483  0.3312 -0.0708
   77A      C5' 2433   5.626   6.106   4.581 -0.0855 -0.4974  0.1192
   77A      H5' 2434   5.581   6.007   4.590  1.6980 -1.2807  0.6750
   77A     H5'' 2435   5.619   6.128   4.474 -1.1536 -2.4042 -0.2577
   77A      C4' 2436   5.527   6.199   4.651  0.1245 -0.2358  0.0666
   77A      H4' 2437   5.439   6.199   4.588  0.8371 -1.0735 -0.9663
   77A      O4' 2438   5.506   6.132   4.773 -0.0389  0.1638  0.2612
   77A      C1' 2439   5.516   6.221   4.882 -0.1007  0.0772  0.3378
   77A      H1' 2440   5.419   6.223   4.932 -0.1808 -1.0143  0.2661
   77A       N9 2441   5.621   6.189   4.981  0.4344  0.0244 -0.2422
   77A       C8 2442   5.728   6.105   4.967  0.3634 -0.1167  0.0638
   77A       H8 2443   5.755   6.066   4.869  1.2190  0.2160  0.1616
   77A       N7 2444   5.801   6.087   5.073  0.0277 -0.0884  0.2982
   77A       C5 2445   5.731   6.160   5.169 -0.1025  0.4716 -0.2165
   77A       C6 2446   5.758   6.190   5.304  0.1501  0.4161 -0.2551
   77A       N6 2447   5.871   6.155   5.367 -0.0593 -0.3393 -0.2941
   77A      H61 2448   5.952   6.122   5.317  0.0487  0.4137 -0.6259
   77A      H62 2449   5.870   6.168   5.467  2.6731 -0.6184 -0.1574
   77A       N1 2450   5.663   6.245   5.380  0.2761  0.0070  0.1976
   77A       C2 2451   5.557   6.292   5.316  0.5021  0.4911  0.1757
   77A       H2 2452   5.481   6.343   5.375 -0.5975  1.9613 -2.3687
   77A       N3 2453   5.531   6.291   5.187  0.2564  0.1892  0.2264
   77A       C4 2454   5.618   6.216   5.115 -0.5633 -0.3955 -0.1727
   77A      C3' 2455   5.574   6.340   4.687  0.0446 -0.2464  0.2113
   77A      H3' 2456   5.682   6.356   4.680  0.0907 -0.6080  0.1058
   77A      C2' 2457   5.534   6.364   4.832  0.5683 -0.0107  0.3195
   77A      H2' 2458   5.619   6.411   4.882  0.4354  2.0072 -1.2251
   77A      O2' 2459   5.416   6.439   4.845  0.4395 -0.0699 -0.4943
   77A     HO2' 2460   5.424   6.510   4.909  1.6940  0.5604 -1.3184
   77A      O3' 2461   5.503   6.435   4.610  0.1593  0.1106  0.5419
   78C        P 2462   5.560   6.585   4.602  0.1528  0.0867  0.0032
   78C      OP1 2463   5.624   6.627   4.729  0.3793  0.1463 -0.1302
   78C      OP2 2464   5.445   6.669   4.561 -0.2619 -0.3500  0.2602
   78C      O5' 2465   5.674   6.581   4.488  0.1514 -0.3461  0.0164
   78C      C5' 2466   5.637   6.581   4.352 -0.3338 -0.2410  0.1458
   78C      H5' 2467   5.616   6.682   4.319  2.1627 -0.8323 -3.9137
   78C     H5'' 2468   5.549   6.519   4.331 -0.4346  0.3658 -1.3182
   78C      C4' 2469   5.748   6.534   4.258 -0.4293  0.1363 -0.1551
   78C      H4' 2470   5.718   6.561   4.157  0.5327  0.2310 -0.4165
   78C      O4' 2471   5.864   6.613   4.262  0.1242 -0.6932  0.4316
   78C      C1' 2472   5.968   6.527   4.304  0.4150 -0.4735  0.1656
   78C      H1' 2473   6.017   6.491   4.214 -0.9690 -0.8249 -0.4584
   78C       N1 2474   6.054   6.594   4.404  0.1203 -0.3620  0.3472
   78C       C6 2475   5.996   6.699   4.469  0.0160 -0.2565  0.0833
   78C       H6 2476   5.889   6.713   4.464 -0.1309 -1.0332  0.8047
   78C       C5 2477   6.075   6.789   4.530 -0.1834  0.1677 -0.2839
   78C       H5 2478   6.033   6.869   4.589 -0.6115  0.5751 -1.1082
   78C       C4 2479   6.215   6.759   4.537 -0.2871 -0.2396  0.0372
   78C       N4 2480   6.296   6.827   4.619 -1.0840  0.3019  0.3961
   78C      H41 2481   6.257   6.904   4.671 -1.2114 -0.5317  1.5447
   78C      H42 2482   6.391   6.800   4.641 -0.7153 -0.9122 -2.2418
   78C       N3 2483   6.268   6.645   4.491  0.2565  0.0141  0.0270
   78C       C2 2484   6.189   6.565   4.414  0.1838 -0.1077  0.2281
   78C       O2 2485   6.235   6.463   4.364  0.1872 -0.3126  0.6407
   78C      C3' 2486   5.780   6.386   4.276  0.3511  0.3874  0.5962
   78C      H3' 2487   5.703   6.336   4.335 -2.1779  0.5519 -2.3084
   78C      C2' 2488   5.903   6.403   4.364  0.5574 -0.4030  0.4708
   78C      H2' 2489   5.876   6.436   4.464  0.4202  0.9022  0.0280
   78C      O2' 2490   5.992   6.294   4.359  0.6514 -0.3459  0.8791
   78C     HO2' 2491   5.939   6.215   4.345  0.7886  0.1390 -4.0754
   78C      O3' 2492   5.817   6.325   4.154  0.0387 -0.0400  0.7118
   79A        P 2493   5.715   6.284   4.036  0.1351 -0.2469  0.6990
   79A      OP1 2494   5.707   6.392   3.935  0.7408 -0.4055  0.4785
   79A      OP2 2495   5.595   6.221   4.094 -0.2828  0.0540  0.1718
   79A      O5' 2496   5.787   6.155   3.974  0.0287 -0.0245  0.1071
   79A      C5' 2497   5.924   6.162   3.943 -0.1249 -0.4134 -0.6908
   79A      H5' 2498   5.933   6.263   3.903 -0.8329 -0.1537 -0.1995
   79A     H5'' 2499   5.949   6.093   3.862 -1.7922  0.7858 -2.3051
   79A      C4' 2500   6.027   6.140   4.053 -0.5305  0.0790 -0.2091
   79A      H4' 2501   6.016   6.217   4.130 -1.7983  1.4600 -1.7076
   79A      O4' 2502   6.020   6.011   4.110 -0.1986  0.2759  0.2903
   79A      C1' 2503   6.145   5.967   4.159  0.2928  0.2013 -0.9817
   79A      H1' 2504   6.128   5.966   4.267  3.6230 -1.4751 -0.3366
   79A       N9 2505   6.182   5.835   4.105  0.1155 -0.0748 -0.4303
   79A       C8 2506   6.149   5.759   3.995  0.3542  0.2076 -0.6960
   79A       H8 2507   6.077   5.797   3.924 -2.4534 -0.4750  1.6129
   79A       N7 2508   6.190   5.635   3.995 -0.5697 -0.1105  0.4150
   79A       C5 2509   6.265   5.631   4.112 -0.1313  0.3805  0.1546
   79A       C6 2510   6.346   5.535   4.175 -0.1946  0.0031 -0.3273
   79A       N6 2511   6.380   5.414   4.128 -0.3761 -0.2813  0.2569
   79A      H61 2512   6.338   5.383   4.042 -0.8438  0.1997  0.3063
   79A      H62 2513   6.455   5.368   4.178  0.1558 -1.4840 -1.5389
   79A       N1 2514   6.414   5.562   4.287 -0.5239  0.6111 -0.2717
   79A       C2 2515   6.393   5.678   4.348 -0.4710  0.3197  0.3171
   79A       H2 2516   6.441   5.703   4.441 -1.2174 -0.4697  0.9228
   79A       N3 2517   6.327   5.780   4.293 -0.2352  0.4799  0.3301
   79A       C4 2518   6.262   5.750   4.178  0.6763  0.6224 -0.2324
   79A      C3' 2519   6.170   6.140   3.999 -0.3507 -0.5042  0.2453
   79A      H3' 2520   6.179   6.068   3.917  1.2270  1.4066 -1.3909
   79A      C2' 2521   6.244   6.073   4.114  0.7653  0.1524 -0.0786
   79A      H2' 2522   6.342   6.053   4.070  1.3504  2.1181  0.2355
   79A      O2' 2523   6.253   6.162   4.223 -0.1656 -0.5421  0.5718
   79A     HO2' 2524   6.332   6.216   4.220 -0.9834  0.6449 -1.5052
   79A      O3' 2525   6.218   6.268   3.965 -0.2258 -0.5995  0.0605
   80G        P 2526   6.363   6.298   3.902 -0.3464 -0.2843 -0.0711
   80G      OP1 2527   6.357   6.435   3.846  0.5392 -0.2618 -0.1348
   80G      OP2 2528   6.393   6.188   3.807  0.3347 -0.2899  0.1464
   80G      O5' 2529   6.465   6.301   4.026 -0.5278 -0.1747  0.0755
   80G      C5' 2530   6.490   6.412   4.109  0.6221 -0.0566 -0.4048
   80G      H5' 2531   6.389   6.432   4.144  0.1767  0.1336 -1.7378
   80G     H5'' 2532   6.536   6.500   4.063  0.5703 -0.5722 -1.4811
   80G      C4' 2533   6.588   6.367   4.216 -0.2221  0.4958  0.6211
   80G      H4' 2534   6.612   6.445   4.289  2.4591  0.4552 -0.1093
   80G      O4' 2535   6.535   6.257   4.286  0.1758 -0.0055  0.1468
   80G      C1' 2536   6.635   6.162   4.316  0.2272 -0.1682 -0.5386
   80G      H1' 2537   6.627   6.139   4.422 -0.6593  0.5817 -0.4299
   80G       N9 2538   6.615   6.031   4.251  0.1719 -0.3205 -0.2188
   80G       C8 2539   6.581   6.001   4.121 -0.9530 -0.1489  0.0244
   80G       H8 2540   6.557   6.073   4.044 -0.6486  0.1915  0.2434
   80G       N7 2541   6.597   5.875   4.093  0.7934  0.1110 -0.2815
   80G       C5 2542   6.652   5.816   4.206  0.3776 -0.3424 -0.3110
   80G       C6 2543   6.701   5.685   4.229 -0.8964 -0.7385  0.2901
   80G       O6 2544   6.701   5.589   4.152 -0.2869 -0.6867  0.2165
   80G       N1 2545   6.751   5.668   4.357 -0.2967  0.1893  0.1932
   80G       H1 2546   6.804   5.589   4.390 -0.7389 -0.2753 -0.1974
   80G       C2 2547   6.767   5.775   4.444 -0.6576 -0.1529  0.6893
   80G       N2 2548   6.823   5.734   4.558  0.3477 -0.5885  0.0592
   80G      H21 2549   6.862   5.642   4.573  2.1281 -0.6187 -3.7077
   80G      H22 2550   6.824   5.794   4.639 -1.0184  1.6753 -1.4972
   80G       N3 2551   6.717   5.897   4.425  0.1442  0.0511 -0.2155
   80G       C4 2552   6.663   5.913   4.302  0.1527 -0.3526 -0.2730
   80G      C3' 2553   6.727   6.323   4.169 -0.2638  0.4787  0.5164
   80G      H3' 2554   6.726   6.272   4.073  2.5386  0.3850  0.4683
   80G      C2' 2555   6.769   6.225   4.278  0.2762 -0.0390 -0.1520
   80G      H2' 2556   6.848   6.158   4.242  2.6564  3.3006 -1.6894
   80G      O2' 2557   6.821   6.272   4.401 -0.0549 -0.2284  0.0602
   80G     HO2' 2558   6.904   6.313   4.377  0.8247 -2.2932 -0.7394
   80G      O3' 2559   6.804   6.439   4.146  0.3972  0.0382  0.4888
   81G        P 2560   6.945   6.425   4.069  0.0723 -0.3823 -0.0306
   81G      OP1 2561   7.003   6.559   4.046 -0.2859 -0.2131  0.0465
   81G      OP2 2562   6.926   6.334   3.954  0.2206  0.2138 -0.5312
   81G      O5' 2563   7.042   6.342   4.168 -0.4597 -0.6389  0.2824
   81G      C5' 2564   7.105   6.401   4.279 -0.5640  0.0438 -0.0123
   81G      H5' 2565   7.030   6.452   4.339  0.8743  2.0434  0.1704
   81G     H5'' 2566   7.171   6.484   4.254  0.7762 -0.5998  1.2097
   81G      C4' 2567   7.178   6.291   4.356 -0.5092 -0.2815 -0.5196
   81G      H4' 2568   7.225   6.325   4.449  0.7397  0.9310 -1.5416
   81G      O4' 2569   7.089   6.190   4.396  0.3471 -0.9545 -0.2784
   81G      C1' 2570   7.161   6.070   4.412  0.2062 -0.9190  0.6498
   81G      H1' 2571   7.148   6.021   4.509  2.2611 -0.5104  1.1769
   81G       N9 2572   7.098   5.971   4.323 -0.9897  0.2149  0.2163
   81G       C8 2573   7.048   5.995   4.197 -0.1697  0.0372 -0.1458
   81G       H8 2574   7.034   6.100   4.173  1.2549  0.4768  0.7949
   81G       N7 2575   7.011   5.891   4.128 -0.3325  0.1229 -0.1872
   81G       C5 2576   7.051   5.787   4.211  0.2002  0.2839 -0.2398
   81G       C6 2577   7.055   5.649   4.177 -0.6310  0.0353  0.6210
   81G       O6 2578   7.008   5.585   4.083 -0.0938  0.3168  0.1543
   81G       N1 2579   7.135   5.580   4.268 -0.0638  0.1373  0.2090
   81G       H1 2580   7.157   5.484   4.248  5.9324  1.3271 -0.6337
   81G       C2 2581   7.181   5.636   4.385  0.1483  0.2823  0.0559
   81G       N2 2582   7.233   5.547   4.471  0.2320  0.1046 -0.1775
   81G      H21 2583   7.245   5.456   4.429 -0.6727 -0.1645  0.0994
   81G      H22 2584   7.244   5.576   4.567  0.3668  1.3690 -0.5666
   81G       N3 2585   7.167   5.763   4.425  0.0777  0.3206 -0.0934
   81G       C4 2586   7.105   5.834   4.328  0.2269  0.2507 -0.2384
   81G      C3' 2587   7.286   6.223   4.273  0.1521  0.2037 -0.0729
   81G      H3' 2588   7.242   6.179   4.183  2.2419 -0.7783 -0.6873
   81G      C2' 2589   7.303   6.105   4.368 -0.2874 -0.0290 -0.2801
   81G      H2' 2590   7.355   6.029   4.309  0.3594  1.5394 -1.8058
   81G      O2' 2591   7.384   6.136   4.480 -0.0298 -0.4201 -0.3561
   81G     HO2' 2592   7.433   6.218   4.488  1.7198 -1.4760  0.3147
   81G      O3' 2593   7.398   6.302   4.238  0.0989  0.0657 -0.5656
   82G        P 2594   7.499   6.273   4.116  0.5802 -0.2632 -0.0912
   82G      OP1 2595   7.606   6.372   4.145  0.7487 -0.5918  0.4290
   82G      OP2 2596   7.429   6.278   3.986  0.3799  0.2015  0.0347
   82G      O5' 2597   7.554   6.125   4.145  0.0321 -0.3846  0.3416
   82G      C5' 2598   7.641   6.099   4.254  0.0376 -0.2719  0.3638
   82G      H5' 2599   7.595   6.123   4.350 -0.7163 -1.0054  0.1968
   82G     H5'' 2600   7.728   6.157   4.221 -0.6823  2.1092  2.3072
   82G      C4' 2601   7.687   5.954   4.249  0.1476 -0.2387  0.4204
   82G      H4' 2602   7.784   5.946   4.298 -0.2261 -1.4001  1.0212
   82G      O4' 2603   7.585   5.872   4.302  0.0722 -0.0551  0.5581
   82G      C1' 2604   7.603   5.745   4.244 -0.3773 -0.0754  0.4618
   82G      H1' 2605   7.623   5.665   4.315  3.1101  0.1420 -0.1034
   82G       N9 2606   7.489   5.696   4.164  0.1322 -0.0787 -0.2706
   82G       C8 2607   7.382   5.759   4.106 -0.2389 -0.2003  0.2696
   82G       H8 2608   7.360   5.864   4.119  2.4828  0.4764  0.0203
   82G       N7 2609   7.308   5.691   4.022  0.3985  0.5012 -0.8817
   82G       C5 2610   7.374   5.569   4.028 -0.1796  0.2199 -0.1486
   82G       C6 2611   7.341   5.449   3.958 -0.2719  0.1065  0.0868
   82G       O6 2612   7.248   5.422   3.883  0.3599 -0.0585 -0.6581
   82G       N1 2613   7.432   5.347   3.981 -0.5092 -0.0435  0.3565
   82G       H1 2614   7.416   5.258   3.936  2.2078  0.7328 -2.4057
   82G       C2 2615   7.542   5.355   4.064 -0.5804 -0.3579  0.4869
   82G       N2 2616   7.631   5.256   4.066  0.0425  0.1653 -0.4563
   82G      H21 2617   7.615   5.171   4.013 -0.1920 -0.3138  0.3585
   82G      H22 2618   7.717   5.257   4.119 -0.4003  0.3211  0.2742
   82G       N3 2619   7.570   5.469   4.130 -0.3381 -0.2038  0.1209
   82G       C4 2620   7.485   5.571   4.108 -0.1117 -0.0892 -0.2321
   82G      C3' 2621   7.720   5.902   4.110 -0.4236  0.2369  0.1000
   82G      H3' 2622   7.642   5.915   4.035  0.9352 -0.7020 -1.5445
   82G      C2' 2623   7.724   5.755   4.152 -0.4481  0.3232  0.4082
   82G      H2' 2624   7.710   5.691   4.065  0.2024 -1.4261  1.5330
   82G      O2' 2625   7.834   5.715   4.230 -0.1828  0.0338 -0.1055
   82G     HO2' 2626   7.910   5.771   4.217 -0.3107 -0.1534 -1.8298
   82G      O3' 2627   7.843   5.948   4.058 -0.4797  0.3448  0.0634
   83C        P 2628   7.869   5.940   3.899  0.4330 -0.3642  0.2408
   83C      OP1 2629   8.002   5.992   3.861 -0.0693  0.7947  0.0295
   83C      OP2 2630   7.753   5.991   3.823  0.2740 -0.5103  0.3827
   83C      O5' 2631   7.869   5.783   3.862  0.1538 -0.0685 -1.0673
   83C      C5' 2632   7.970   5.703   3.919 -0.2084 -0.0797 -0.4362
   83C      H5' 2633   7.952   5.692   4.026 -1.6049  0.5987 -0.5790
   83C     H5'' 2634   8.070   5.744   3.908  1.4933 -3.2010  1.4994
   83C      C4' 2635   7.969   5.560   3.864 -0.6601 -0.1013 -0.3762
   83C      H4' 2636   8.053   5.502   3.902 -1.0098  0.2537  0.9915
   83C      O4' 2637   7.853   5.495   3.910 -0.2668 -0.1912  0.5069
   83C      C1' 2638   7.828   5.396   3.813  0.0798  0.0441  0.1741
   83C      H1' 2639   7.830   5.302   3.868 -1.3177 -0.1034  0.0257
   83C       N1 2640   7.699   5.419   3.745 -0.1169  0.0309  0.5374
   83C       C6 2641   7.624   5.531   3.769  0.2149  0.5577 -0.7401
   83C       H6 2642   7.651   5.609   3.839 -1.8430 -0.6955  1.6560
   83C       C5 2643   7.506   5.540   3.703 -0.1626  0.2990 -0.1152
   83C       H5 2644   7.442   5.626   3.710 -1.4181 -0.6917  1.1855
   83C       C4 2645   7.463   5.425   3.629  0.2052  0.4089 -0.5028
   83C       N4 2646   7.350   5.423   3.557 -0.0937  0.1710 -0.0335
   83C      H41 2647   7.299   5.510   3.560 -1.8068 -0.5324 -3.4383
   83C      H42 2648   7.323   5.344   3.501 -2.6535  0.2449  0.9563
   83C       N3 2649   7.538   5.317   3.605  0.1033  0.2201  0.0081
   83C       C2 2650   7.655   5.310   3.672  0.4944  0.5367 -0.6252
   83C       O2 2651   7.723   5.208   3.665  0.0107  0.1814 -0.2056
   83C      C3' 2652   7.977   5.537   3.713 -0.7609  0.0771 -0.4099
   83C      H3' 2653   7.915   5.607   3.658 -0.7542 -1.1143 -1.9900
   83C      C2' 2654   7.931   5.392   3.700  0.1123 -0.2689  0.2135
   83C      H2' 2655   7.901   5.379   3.596  2.2874 -0.6194 -0.4178
   83C      O2' 2656   8.038   5.304   3.723  0.3575  0.1104  0.5288
   83C     HO2' 2657   8.118   5.356   3.729  0.5531 -0.2690  1.4306
   83C      O3' 2658   8.108   5.552   3.662 -0.5094  0.4033  0.3186
   84U        P 2659   8.141   5.604   3.514 -0.0222 -0.1378  0.2351
   84U      OP1 2660   8.288   5.598   3.497 -0.0166  0.2889  0.1063
   84U      OP2 2661   8.066   5.729   3.489  0.3213  0.0471  0.1209
   84U      O5' 2662   8.080   5.501   3.407  0.5750  0.0515 -0.2952
   84U      C5' 2663   8.138   5.373   3.395 -0.1801 -0.3746  0.5141
   84U      H5' 2664   8.139   5.337   3.498 -2.8730 -1.6118  0.2086
   84U     H5'' 2665   8.238   5.380   3.353 -0.5849 -1.7412 -0.7866
   84U      C4' 2666   8.054   5.267   3.324  0.1481 -0.5326  0.3627
   84U      H4' 2667   8.118   5.180   3.310  0.0976 -0.1087 -3.4878
   84U      O4' 2668   7.938   5.218   3.388  0.0909 -0.4038  0.3567
   84U      C1' 2669   7.843   5.177   3.292  0.5484 -0.3503 -0.1279
   84U      H1' 2670   7.818   5.073   3.314  0.7935 -0.3779  0.0162
   84U       N1 2671   7.719   5.256   3.284  0.3280 -0.6672  0.1127
   84U       C6 2672   7.722   5.389   3.318 -0.2172 -0.4669 -0.5958
   84U       H6 2673   7.815   5.431   3.352 -0.0783 -0.4657 -0.9757
   84U       C5 2674   7.611   5.464   3.303  0.0992  0.1023 -0.1417
   84U       H5 2675   7.613   5.570   3.323 -3.0635  0.5486 -1.5275
   84U       C4 2676   7.490   5.413   3.243 -0.3789 -0.0188  0.9082
   84U       O4 2677   7.390   5.476   3.211  0.5165  1.0237  0.0907
   84U       N3 2678   7.507   5.285   3.190 -0.1855  0.2692  0.2603
   84U       H3 2679   7.442   5.254   3.119  0.6658  2.0383 -1.3725
   84U       C2 2680   7.608   5.197   3.226 -0.2238  0.2178  0.2419
   84U       O2 2681   7.593   5.077   3.205  0.3966  0.1407  0.2234
   84U      C3' 2682   8.012   5.304   3.182  0.2340 -0.0334  0.4664
   84U      H3' 2683   7.959   5.399   3.186 -0.9347 -0.5392 -1.6486
   84U      C2' 2684   7.909   5.194   3.156  0.1839  0.1793 -0.2420
   84U      H2' 2685   7.836   5.228   3.083  1.5876  1.0643 -1.2874
   84U      O2' 2686   7.973   5.078   3.107 -0.4580 -0.4204  0.3251
   84U     HO2' 2687   8.030   5.115   3.039 -1.5573 -0.1290 -0.4599
   84U      O3' 2688   8.117   5.302   3.088 -0.5232 -0.3736 -0.3800
   85U        P 2689   8.094   5.380   2.949  0.0428  0.3342 -0.0826
   85U      OP1 2690   8.228   5.416   2.897  0.1926  0.1376  0.1646
   85U      OP2 2691   7.986   5.482   2.955 -0.0702  0.2212 -0.1699
   85U      O5' 2692   8.052   5.254   2.857  0.3164  0.5211 -0.4627
   85U      C5' 2693   8.147   5.155   2.824 -0.4941 -0.3302 -0.2450
   85U      H5' 2694   8.169   5.097   2.914 -2.0567  2.2415  1.9486
   85U     H5'' 2695   8.234   5.195   2.774 -0.4737 -0.7572 -0.5563
   85U      C4' 2696   8.089   5.047   2.733  0.6294 -0.7354 -0.4960
   85U      H4' 2697   8.158   4.963   2.739  0.0010 -1.2864 -0.8069
   85U      O4' 2698   7.962   5.001   2.772  0.4464  0.1546 -0.0122
   85U      C1' 2699   7.869   5.002   2.666  0.5055 -0.1481 -0.0689
   85U      H1' 2700   7.847   4.901   2.632 -1.2245  0.7475 -1.8506
   85U       N1 2701   7.743   5.062   2.714  0.2752 -0.4108 -0.3427
   85U       C6 2702   7.732   5.181   2.779 -0.0334 -0.4745 -0.2720
   85U       H6 2703   7.819   5.245   2.787  1.6009 -2.7218  1.1223
   85U       C5 2704   7.614   5.228   2.824  0.1961 -0.2188  0.0690
   85U       H5 2705   7.598   5.321   2.877  0.3678 -0.2414  0.1599
   85U       C4 2706   7.495   5.151   2.800 -0.1095  0.3394 -0.2527
   85U       O4 2707   7.382   5.194   2.824  0.0822  0.5857  0.2163
   85U       N3 2708   7.507   5.031   2.732  0.3064  0.1741  0.1084
   85U       H3 2709   7.421   4.980   2.718  0.5474 -0.1627 -0.1911
   85U       C2 2710   7.629   4.992   2.678  0.0587 -0.1083 -0.2535
   85U       O2 2711   7.625   4.902   2.594  0.1699 -0.3084 -0.0467
   85U      C3' 2712   8.080   5.060   2.581  0.5320  0.3784 -0.4019
   85U      H3' 2713   8.135   5.141   2.533 -1.8601  0.9744 -2.3623
   85U      C2' 2714   7.931   5.084   2.554  0.3786 -0.6755 -0.5297
   85U      H2' 2715   7.917   5.191   2.564 -2.1936 -1.0188  0.1169
   85U      O2' 2716   7.888   5.045   2.425 -0.6950 -0.7149 -0.1669
   85U     HO2' 2717   7.960   4.996   2.385 -1.3479 -1.8533 -0.0031
   85U      O3' 2718   8.120   4.943   2.514  0.1380  0.0537 -0.0767
   86U        P 2719   8.272   4.894   2.498  0.1042  0.0477 -0.3988
   86U      OP1 2720   8.361   5.007   2.535 -0.1703  0.2968 -0.4953
   86U      OP2 2721   8.298   4.827   2.369 -0.0235  0.5617 -0.6921
   86U      O5' 2722   8.282   4.783   2.614 -0.5755  0.1629 -0.2254
   86U      C5' 2723   8.208   4.663   2.615 -0.3368  0.0119 -0.4234
   86U      H5' 2724   8.236   4.610   2.524  0.0244  1.5655 -1.2470
   86U     H5'' 2725   8.099   4.669   2.618 -0.5886 -2.5164  4.3546
   86U      C4' 2726   8.245   4.586   2.741  0.0412  0.3636 -0.3173
   86U      H4' 2727   8.176   4.502   2.737  1.4797 -0.8368 -1.4140
   86U      O4' 2728   8.378   4.546   2.713  0.1194  0.4513 -0.0652
   86U      C1' 2729   8.467   4.586   2.815  0.1380 -0.5789  0.3283
   86U      H1' 2730   8.468   4.507   2.890  0.2764  0.9422  1.9989
   86U       N1 2731   8.593   4.651   2.775 -0.2553  0.3596  0.6120
   86U       C6 2732   8.606   4.749   2.681  0.1673 -0.2129  0.0714
   86U       H6 2733   8.526   4.763   2.609  0.3885 -1.3478 -0.4123
   86U       C5 2734   8.714   4.828   2.666 -0.3876  0.5721  0.1716
   86U       H5 2735   8.721   4.901   2.586  1.9462  0.4105  0.1739
   86U       C4 2736   8.829   4.811   2.751 -0.0545 -0.5323 -0.4806
   86U       O4 2737   8.927   4.886   2.752 -0.1161 -0.4582  0.1090
   86U       N3 2738   8.808   4.713   2.847 -0.2913  0.4886  0.5285
   86U       H3 2739   8.893   4.688   2.895  0.2184  0.6484 -0.2720
   86U       C2 2740   8.702   4.624   2.855 -0.1676  0.3390  0.4839
   86U       O2 2741   8.716   4.525   2.927  0.3767  0.3534  0.4036
   86U      C3' 2742   8.238   4.666   2.870 -0.3065 -0.1923  0.0162
   86U      H3' 2743   8.178   4.756   2.859 -2.7628 -1.4930  1.9272
   86U      C2' 2744   8.387   4.689   2.894 -0.2289 -0.4356 -0.2249
   86U      H2' 2745   8.413   4.787   2.854  1.4837 -0.8111 -0.1284
   86U      O2' 2746   8.416   4.686   3.032 -0.2275  0.2752 -0.2064
   86U     HO2' 2747   8.334   4.672   3.080  0.7776 -1.7179  1.0755
   86U      O3' 2748   8.183   4.568   2.954  0.3194 -0.3556  0.2456
   87U3       P 2749   8.109   4.597   3.095 -0.0831 -0.0559 -0.0246
   87U3     OP1 2750   8.174   4.709   3.168 -0.2483  0.0066  0.0277
   87U3     OP2 2751   8.078   4.463   3.148  0.5354 -0.1166  0.1971
   87U3     O5' 2752   7.983   4.662   3.019  0.0806  0.4422  0.1219
   87U3     C5' 2753   7.943   4.796   3.039  0.2619  0.4429  0.4759
   87U3     H5' 2754   8.003   4.864   2.979  1.4831 -0.7693  0.2617
   87U3    H5'' 2755   7.957   4.834   3.140  0.5922  1.5059  0.0427
   87U3     C4' 2756   7.796   4.822   3.011  0.3019  0.3784  0.2049
   87U3     H4' 2757   7.770   4.924   3.036  0.3628  0.1153  1.3657
   87U3     O4' 2758   7.761   4.799   2.876 -0.0451  0.2629  0.3124
   87U3     C1' 2759   7.662   4.700   2.861 -0.0838  0.4130 -0.5049
   87U3     H1' 2760   7.562   4.740   2.877 -0.5940 -0.6041 -1.0641
   87U3      N1 2761   7.677   4.631   2.732  0.2721  0.1238 -0.3122
   87U3      C6 2762   7.797   4.570   2.705 -0.0253 -0.2994 -0.7043
   87U3      H6 2763   7.886   4.592   2.763 -0.2445 -0.1877 -0.4034
   87U3      C5 2764   7.818   4.495   2.596 -0.1982 -0.3794 -0.6831
   87U3      H5 2765   7.921   4.467   2.576 -0.4510 -0.8698 -1.3267
   87U3      C4 2766   7.716   4.457   2.501 -0.5139 -1.2141 -0.0252
   87U3      O4 2767   7.724   4.380   2.405  0.1603 -0.3504 -0.6862
   87U3      N3 2768   7.600   4.526   2.532  0.4246  0.6146 -0.4130
   87U3      H3 2769   7.524   4.520   2.466  0.5409 -2.6857 -0.4141
   87U3      C2 2770   7.572   4.591   2.651  0.1080 -1.1971  0.5366
   87U3      O2 2771   7.460   4.630   2.682  0.0413  0.0347 -1.1564
   87U3     C3' 2772   7.708   4.726   3.092  0.2297 -0.0833 -0.4081
   87U3     H3' 2773   7.773   4.678   3.165 -0.0221  0.7273  0.3690
   87U3     C2' 2774   7.674   4.618   2.990 -0.3458  0.2556 -0.5797
   87U3     H2' 2775   7.763   4.554   2.990  0.5389  1.4557 -0.1756
   87U3     O2' 2776   7.561   4.538   3.014 -0.1110  0.1908  0.3190
   87U3    HO2' 2777   7.488   4.598   3.032 -1.0833 -1.5852  3.1193
   87U3     O3' 2778   7.605   4.796   3.158  0.5353 -0.2911  0.3025
   87U3    HO3' 2779   7.604   4.769   3.249  0.6117  0.6065  0.5810
   88Na+    Na+ 2780   5.385   4.736   5.039  0.1108  0.3136 -0.3859
   89Na+    Na+ 2781   5.612   5.406   5.584 -0.2739  0.0481 -0.4465
   90Na+    Na+ 2782   7.002   6.326   5.031  0.1772 -0.4284  0.2120
   91Na+    Na+ 2783   2.714   5.755   6.269 -0.3141  0.6092 -0.2797
   92Na+    Na+ 2784   5.329   5.733   4.106 -0.0941 -0.4169 -0.3110
   93Na+    Na+ 2785   3.958   7.823   7.004  0.0803  0.6146 -0.7212
   94Na+    Na+ 2786   4.497   5.544   6.823  0.5508 -0.5969 -0.1873
   95Na+    Na+ 2787   3.377   3.077   6.325 -0.2950  0.2575  0.2805
   96Na+    Na+ 2788   3.743   6.822   7.987  0.5860 -0.6622  0.6274
   97Na+    Na+ 2789   2.574   1.528   0.140 -0.1184 -0.0545 -0.6895
   98Na+    Na+ 2790   2.933   5.875   7.100  0.2173  0.0095  0.2264
   99Na+    Na+ 2791   4.634   6.070   4.931  0.0875 -0.7211 -0.4021
  100Na+    Na+ 2792   4.646   2.371   6.325  0.0224  0.3531 -0.1638
  101Na+    Na+ 2793   5.231   7.634   6.596  0.1519 -0.5629 -0.1776
  102Na+    Na+ 2794   6.311   4.047   4.187  0.6415  0.2635 -0.4635
  103Na+    Na+ 2795   4.899   5.143   6.599 -0.4283  0.4653 -0.6822
  104Na+    Na+ 2796   3.210   7.055   6.210 -0.5197 -0.4685  0.2214
  105Na+    Na+ 2797   6.949   4.371   3.902 -0.1442 -0.1662 -0.3946
  106Na+    Na+ 2798   7.015   5.509   3.878  0.4085  0.2830  0.5094
  107Na+    Na+ 2799   4.328   5.576   5.415  0.5913  0.1474 -0.1587
  108Na+    Na+ 2800   6.052   3.577   4.427  0.1976  0.4391 -0.0534
  109Na+    Na+ 2801   2.980   7.854   7.800  0.4152  0.6302  0.2962
  110Na+    Na+ 2802   5.032   4.346   5.326  0.0789  0.1421  0.0710
  111Na+    Na+ 2803   4.590   4.165   7.296  0.0931  0.3128 -0.0933
  112Na+    Na+ 2804   5.468   6.019   6.759 -0.6294 -0.1041 -0.2614
  113Na+    Na+ 2805   6.394   5.989   3.658 -0.4949  0.0135  0.2326
  114Na+    Na+ 2806   5.170   5.947   8.633 -0.0058 -0.2810 -0.3341
  115Na+    Na+ 2807   5.168   7.483   7.485  0.0189 -0.2505  0.3164
  116Na+    Na+ 2808   7.118   6.721   4.138 -0.3608 -0.2552  0.2808
  117Na+    Na+ 2809   4.871   5.174   7.094  0.2548 -0.1104  0.3382
  118Na+    Na+ 2810   3.407   4.957   0.962 -0.3029  0.5521  0.6964
  119Na+    Na+ 2811   4.839   4.853   6.221 -0.5813 -0.2987  0.8853
  120Na+    Na+ 2812   7.253   3.114   2.754 -0.5911 -0.2960  0.3839
  121Na+    Na+ 2813   0.202   3.899   1.035 -0.2680 -0.3170  0.4094
  122Na+    Na+ 2814   5.284   5.352   4.660 -0.4445  0.1223 -0.2040
  123Na+    Na+ 2815   5.773   2.758   6.739  0.5227  0.0837 -1.1280
  124Na+    Na+ 2816   8.540   4.265   5.748  0.2407 -0.0927 -0.0964
  125Na+    Na+ 2817   4.905   6.133   8.526 -0.1185 -0.1506  0.0752
  126Na+    Na+ 2818   8.932   5.098   2.852  0.1398 -0.1948 -0.0688
  127Na+    Na+ 2819   5.668   5.104   2.639 -0.2423  0.2038  0.8705
  128Na+    Na+ 2820   6.507   3.537   5.028 -0.0078  0.2832  0.3638
  129Na+    Na+ 2821   4.020   6.649   8.728  0.5720  0.3033 -0.2092
  130Na+    Na+ 2822   3.423   7.433   5.366 -0.1613 -0.1537  0.3047
  131Na+    Na+ 2823   4.757   2.326   1.961  1.1322  0.1357 -0.2141
  132Na+    Na+ 2824   9.034   5.336   5.172 -0.0213  0.4683 -0.3968
  133Na+    Na+ 2825   6.165   6.192   4.476  0.0977 -0.3623 -0.4346
  134Na+    Na+ 2826   9.627   2.496   0.026  0.3821 -0.2936  0.3867
  135Na+    Na+ 2827   5.566   6.893   6.727  0.1411 -0.0215 -0.9289
  136Na+    Na+ 2828   3.898   4.708   7.689 -0.1176  0.5604  0.1000
  137Na+    Na+ 2829   4.791   5.008   5.075 -0.2492  0.0463  0.4061
  138Na+    Na+ 2830   8.473   1.678   1.876  0.2091  0.0688 -0.1949
  139Na+    Na+ 2831   4.002   7.664   6.375 -0.1416  0.1349 -0.1761
  140Na+    Na+ 2832  10.290   5.444   3.930 -0.2109 -1.1008  0.5404
  141Na+    Na+ 2833   5.970   7.139   8.426  0.3364  0.0562  0.1999
  142Na+    Na+ 2834   3.183   2.249   3.283 -0.2530 -0.0548 -0.2293
  143Na+    Na+ 2835   3.514   8.635   8.086 -0.2044  0.0052 -0.5898
  144Na+    Na+ 2836   3.029   3.423   2.719 -0.3005  0.0828 -0.7685
  145Na+    Na+ 2837   4.856   6.379   4.249  0.1926 -0.2509  0.4614
  146Na+    Na+ 2838   8.498   6.179   4.194  0.2463  0.2084  0.0291
  147Na+    Na+ 2839   3.630   6.032   5.885 -0.0852 -0.2247 -0.0177
  148Na+    Na+ 2840  10.198  10.089   0.787  0.0089 -0.0161  0.0257
  149Na+    Na+ 2841   1.784   8.730   6.428 -0.2176 -0.1536  0.3955
  150Na+    Na+ 2842   7.286   5.933   3.710  0.3150 -0.0302 -0.4617
  151Na+    Na+ 2843   5.542   4.527   7.046 -0.0884 -0.3204  0.8517
  152Na+    Na+ 2844   5.308   5.292   7.224  0.0862  0.3104  0.1974
  153Na+    Na+ 2845   8.820   7.391   0.141 -0.1389  0.3885 -0.3866
  154Na+    Na+ 2846   6.301   3.645   3.602  0.0219  0.3782 -0.0124
  155Na+    Na+ 2847   8.360   6.999   2.867  0.8721  0.2302 -0.6315
  156Na+    Na+ 2848   1.544   6.391   8.324  0.1054  0.2694 -0.3086
  157Na+    Na+ 2849   4.975   6.245   7.295  0.0923 -0.6931 -0.2978
  158Na+    Na+ 2850   6.450   3.084   5.309  0.0219 -0.1370 -0.0642
  159Na+    Na+ 2851   0.748   6.397   7.721  0.4188 -0.2135  0.1474
  160Na+    Na+ 2852   6.363   4.797   1.400 -0.3738  0.6645  0.0092
  161Na+    Na+ 2853   2.139   1.833   1.832  0.2061 -0.3940 -0.2982
  162Na+    Na+ 2854   6.597   5.243   7.229  0.2110  0.0724  0.0689
  163Na+    Na+ 2855   4.325   3.215   4.654  0.5156  0.1190 -0.0592
  164Na+    Na+ 2856   6.242   4.197   6.104 -0.0387 -0.0475 -0.7036
  165Na+    Na+ 2857   1.897   8.572   5.109  0.0226  0.1042 -0.3203
  166Na+    Na+ 2858  10.355   4.284   3.931  0.0360  0.0730  0.6224
  167Na+    Na+ 2859   3.581   7.494   7.991 -0.1561 -0.2145 -0.4546
  168Na+    Na+ 2860   5.642   1.408   6.515 -0.0838  0.0927 -0.1312
  169Na+    Na+ 2861   4.164   5.953   7.862 -0.3322  0.5009 -0.0359
  170Na+    Na+ 2862   1.141   5.607   8.659 -0.3649  0.5422  0.0216
  171Na+    Na+ 2863  10.645   4.932   4.837  0.1673 -0.9296  0.0245
  172Na+    Na+ 2864   5.678   9.725   7.236 -0.6965 -0.4862 -0.0475
  173Na+    Na+ 2865   0.736   1.477   0.588  0.0141  0.5005 -0.5166
  174Na+    Na+ 2866   6.420   4.433   5.252  0.3255  0.1243  0.4704
  175Na+    Na+ 2867   4.294   3.950   3.174 -0.0102 -0.4168  0.6850
  176Na+    Na+ 2868  10.381   4.990   2.598  0.4441 -0.1209 -0.3162
  177Na+    Na+ 2869   3.311   7.054   7.196 -0.3379  0.6907 -0.3875
  178Na+    Na+ 2870   6.942   7.361   8.453  0.1458  0.5619 -0.2553
  179Na+    Na+ 2871   6.105   3.724   6.410  0.2551 -0.0055  0.1881
  180Na+    Na+ 2872   2.837   4.813   2.181  0.1337 -0.2934  1.0510
  181Na+    Na+ 2873   6.778   7.483   5.464 -0.3935 -0.4994 -0.0287
  182Na+    Na+ 2874   3.347   8.282   6.508  0.4245 -0.1963  0.0333
  183Na+    Na+ 2875   5.492   4.091   3.207  0.2722  0.5037  0.0125
  184Na+    Na+ 2876   5.127   0.491   6.612  0.1355 -0.0529 -0.3125
  185Na+    Na+ 2877   7.905   3.571   4.037  0.1675 -0.0138  0.2298
  186Na+    Na+ 2878   6.889   7.314   4.785 -0.0878 -0.6695  0.1957
  187Na+    Na+ 2879   4.391   7.734   8.855 -0.1791 -0.1754  0.4029
  188Na+    Na+ 2880   8.361   4.181   3.342 -0.0687 -0.4470 -0.1114
  189Na+    Na+ 2881   4.038   5.275   3.300 -0.0963 -0.0663 -0.0769
  190Na+    Na+ 2882   4.778  10.028   0.486  0.5111  0.4635 -0.2612
  191Na+    Na+ 2883   8.753   8.845   0.332 -0.4706  0.6760  0.4094
  192Na+    Na+ 2884   4.951   3.865   6.630 -0.2217 -0.5600 -0.2904
  193Na+    Na+ 2885   6.204   4.244   2.929  0.1577 -0.2950  0.5980
  194Na+    Na+ 2886   9.867   3.660   1.524 -0.3115 -0.3689  0.1924
  195Na+    Na+ 2887   7.877   4.188   1.182  0.3047 -0.0549 -0.4538
  196Na+    Na+ 2888   6.048   5.041   5.150  0.4438  0.5336 -0.1188
  197Na+    Na+ 2889   4.968   1.126   5.241  0.2343 -0.4680 -0.0570
  198Na+    Na+ 2890   8.506   8.716   4.125  0.4017  0.3259 -0.6634
  199Na+    Na+ 2891   9.677   1.003   0.154 -0.0257 -0.1958 -0.0772
  200Na+    Na+ 2892  10.350   1.292   1.354 -0.5142  0.6222  0.0788
  201Na+    Na+ 2893   4.203   9.156   7.924  0.1526 -0.0149 -0.2245
  202Na+    Na+ 2894   0.512   6.501   5.528 -0.3009 -0.1358  0.5162
  203Na+    Na+ 2895   7.412   3.885   4.740 -0.2012  0.0741  0.1565
  204Na+    Na+ 2896   3.732   9.708   6.529 -0.2049  0.0085 -0.2396
  205Na+    Na+ 2897   0.415   8.155   5.299 -0.0826  0.1943 -0.3290
  206Na+    Na+ 2898   2.058   2.357   2.317  0.1181 -0.1105 -0.2522
  207Na+    Na+ 2899   7.387   4.485   1.831 -0.2001 -0.1235  0.1408
  208Na+    Na+ 2900   2.340   4.078   2.673  0.3022  0.9461  0.0540
  209Na+    Na+ 2901   3.714   4.686   5.399  0.4633  0.4295  0.1626
  210Na+    Na+ 2902   9.339   3.429   0.141 -0.0018 -0.9061  0.6810
  211Na+    Na+ 2903   9.014   6.037   1.368  0.5348 -0.2256 -0.0670
  212Na+    Na+ 2904   9.499   5.312   7.737 -0.2218 -0.3294 -0.4193
  213Na+    Na+ 2905   7.651   3.600   1.822  0.2912 -0.2988  0.7948
  214Na+    Na+ 2906   4.049   4.664   2.365  0.4913  0.1431  0.6557
  215Na+    Na+ 2907   9.673   6.423   1.440  0.5278 -0.0897 -0.4240
  216Na+    Na+ 2908   7.466   3.413   6.549 -0.1988 -0.0948  0.2505
  217Na+    Na+ 2909   6.033   6.232   5.055 -0.2717  0.2916 -0.1729
  218Na+    Na+ 2910  10.682   2.659   1.450  0.5813  0.4582  0.3776
  219Na+    Na+ 2911   6.538   4.894   6.460 -0.2338 -0.5240 -0.3032
  220Na+    Na+ 2912  10.292   4.888   0.406  0.4854  0.4635  0.0922
  221Na+    Na+ 2913   3.915   9.345   8.601 -0.1445  0.3674 -0.1514
  222Na+    Na+ 2914   3.386   5.679   8.159  0.3239 -0.0973 -0.1689
  223Na+    Na+ 2915   7.105   2.977   4.655  0.4023  0.0828  0.3648
  224Na+    Na+ 2916   4.675   5.408   4.919 -0.2580  0.2572 -0.4114
  225Na+    Na+ 2917   1.107   7.513   6.048 -0.2155 -0.3327 -0.2706
  226Na+    Na+ 2918   3.874   0.945   1.897  0.0887  0.4554 -0.8130
  227Na+    Na+ 2919   4.870  10.018   5.848 -0.6547  0.1261 -0.2428
  228Na+    Na+ 2920   0.944   9.493   3.782 -0.1183  0.1138 -0.3057
  229Na+    Na+ 2921   5.207   4.926   2.395 -0.0727  0.4599 -0.1725
  230Na+    Na+ 2922   2.651   1.673   4.715  0.0283 -0.4322 -0.3211
  231Na+    Na+ 2923   0.654   8.549   7.123 -0.1979 -0.4201 -0.4502
  232Na+    Na+ 2924   8.499   7.830   6.761 -0.1613  0.0991 -0.9410
  233Na+    Na+ 2925   2.487   4.413   4.955  0.5647 -0.3452 -0.0177
  234Na+    Na+ 2926   0.065   4.325   3.526  0.7993  0.1861 -0.0134
  235Cl-    Cl- 2927   9.217   3.927   0.259  0.2700  0.2342 -0.4981
  236Cl-    Cl- 2928   3.135   1.980   2.301 -0.1609 -0.2907 -0.5621
  237Cl-    Cl- 2929   6.135   4.758   1.473 -0.1373 -0.0024 -0.1100
  238Cl-    Cl- 2930   6.210   7.030   6.251  0.3533  0.2520 -0.1287
  239Cl-    Cl- 2931   9.428   1.904   5.899  0.4596 -0.5397  0.0430
  240Cl-    Cl- 2932  10.806   2.280   5.827 -0.1215 -0.2475 -0.4942
  241Cl-    Cl- 2933   0.859   8.858   5.667  0.1480 -0.2489 -0.1333
  242Cl-    Cl- 2934   7.113   4.399   2.224  0.1964 -0.1958 -0.4511
  243Cl-    Cl- 2935   2.346   3.394   2.694 -0.4635 -0.0303  0.1670
  244Cl-    Cl- 2936   4.250   1.251   6.703  0.4856  0.0593 -0.0862
  245Cl-    Cl- 2937   3.332   4.572   1.567 -0.3777 -0.2631  0.0479
  246Cl-    Cl- 2938   5.919   4.149   0.832  0.3214  0.0620 -0.0540
  247Cl-    Cl- 2939   2.777   7.778   4.431 -0.0804 -0.1145  0.3511
  248Cl-    Cl- 2940  10.978   4.789   3.439 -0.1862  0.3421  0.2310
  249Cl-    Cl- 2941   2.498   8.578   6.309  0.1249 -0.0644  0.1348
  250Cl-    Cl- 2942   4.185   9.003   8.136  0.4172  0.2577 -0.0887
  251Cl-    Cl- 2943   3.971   4.628   2.620 -0.0521  0.1168  0.7397
  252Cl-    Cl- 2944   9.124   0.997   0.440  0.0270 -0.2449 -0.1356
  253Cl-    Cl- 2945   0.078   7.105   0.966  0.2250  0.2362 -0.1439
  254Cl-    Cl- 2946   5.500   7.660   6.597  0.3958  0.0529 -0.3644
  255Cl-    Cl- 2947   4.229   2.749   2.513 -0.2107 -0.3554 -0.1891
  256Cl-    Cl- 2948  10.359   1.569   1.370 -0.2522 -0.1935 -0.4826
  257Cl-    Cl- 2949   6.747   7.250   4.974  0.3415 -0.1635 -0.0147
  258Cl-    Cl- 2950   4.564   0.928   1.624 -0.4402 -0.4854 -0.1433
  259Cl-    Cl- 2951   7.469   3.287   6.024 -0.2099 -0.0438 -0.2623
  260Cl-    Cl- 2952   3.773  10.201   6.579  0.8899  0.2817 -0.6257
  261Cl-    Cl- 2953   5.261   3.877   8.941 -0.1587  0.1623  0.0873
  262Cl-    Cl- 2954   5.220   9.541   4.402 -0.1021 -0.3055  0.0700
  263Cl-    Cl- 2955  10.430   4.857   4.711 -0.4213 -0.5347  0.3067
  264Cl-    Cl- 2956   1.543   5.491   8.547 -0.0815 -0.0286 -0.1605
  265Cl-    Cl- 2957  10.652   3.434   1.904 -0.2394  0.3218  0.1095
  266Cl-    Cl- 2958   6.968   6.820   4.616 -0.5211  0.1535 -0.1407
  267Cl-    Cl- 2959   2.965   2.349   3.182  0.2509 -0.0742  0.3680
  268Cl-    Cl- 2960   3.077  10.027   8.004 -0.0341  0.2860 -0.0796
  269Cl-    Cl- 2961   6.110   4.290   6.592 -0.7031  0.6160 -0.2193
  270Cl-    Cl- 2962   8.240   1.408   1.408  0.0581 -0.2108  0.1728
  271Cl-    Cl- 2963   5.850   1.350   7.635 -0.2571  0.5655  0.1788
  272Cl-    Cl- 2964   0.191   4.289   0.056  0.0177 -0.1387 -0.2282
  273Cl-    Cl- 2965   9.536   5.294   2.549  0.0881 -0.0125 -0.4669
  274Cl-    Cl- 2966   5.267   7.346   2.180 -0.2841  0.2879 -0.3364
  275Cl-    Cl- 2967   1.700   8.734   1.320  0.3342  0.2451 -0.0199
  276Cl-    Cl- 2968   9.720   3.881   6.800  0.3487  0.0870  0.5144
  277Cl-    Cl- 2969   3.908   7.652   1.930 -0.1884 -0.3007 -0.0691
  278Cl-    Cl- 2970   5.286   0.312   5.205  0.3077  0.1498 -0.0510
  279Cl-    Cl- 2971   9.166   6.480   1.486 -0.2879 -0.0751  0.1726
  280Cl-    Cl- 2972   3.681   4.930   0.217  0.0849 -0.2597  0.3415
  281Cl-    Cl- 2973   1.872   2.871   2.974  0.2463 -0.2515  0.0803
  282Cl-    Cl- 2974   5.499   0.626   2.935  0.2595 -0.0011 -0.0476
  283Cl-    Cl- 2975   1.381   9.597   4.796 -0.0422 -0.2134 -0.1269
  284Cl-    Cl- 2976   8.319   8.297   6.907 -0.1965 -0.1444  0.4411
  285Cl-    Cl- 2977   2.690   1.045   0.561  0.6316 -0.1860 -0.1082
  286Cl-    Cl- 2978   7.101   0.811   0.715 -0.1278 -0.6137 -0.2798
  287Cl-    Cl- 2979   7.071   2.692   3.983  0.1501  0.2332 -0.3115
  288Cl-    Cl- 2980   9.044   0.325   7.345 -0.1727  0.0982 -0.4054
  289Cl-    Cl- 2981   9.035   2.819   0.454  0.4965  0.2561  0.0074
  290Cl-    Cl- 2982   1.305   6.310   8.398  0.0777  0.0581  0.0879
  291Cl-    Cl- 2983  10.428   4.528   0.602 -0.3626 -0.6459  0.0977
  292Cl-    Cl- 2984  10.626   7.523   3.504  0.0968 -0.1933 -0.4008
  293Cl-    Cl- 2985   0.312   2.724   0.152 -0.2016 -0.1582  0.2197
  294Cl-    Cl- 2986   9.257   4.907   8.172  0.1506 -0.1958  0.1606
  295Cl-    Cl- 2987   2.330   1.393   5.528 -0.3922 -0.3289  0.3165
  296WAT      O 2988   2.407   9.777   8.595 -0.0795 -0.3212 -0.5825
  296WAT     H1 2989   2.481   9.836   8.579 -1.1679  0.7073 -2.0653
  296WAT     H2 2990   2.410   9.759   8.689  3.4697 -2.2519 -0.8865
  296WAT    EPW 2991   2.417   9.782   8.605  0.2451 -0.4396 -0.8183
  297WAT      O 2992   0.236   0.328   2.357  0.2219  0.0680  0.2833
  297WAT     H1 2993   0.281   0.295   2.280  2.4178  1.5012  0.8687
  297WAT     H2 2994   0.170   0.389   2.321  2.5313  2.2660 -0.5165
  297WAT    EPW 2995   0.233   0.332   2.342  0.8161  0.5469  0.2550
  298WAT      O 2996   9.964   9.015   0.062  0.2678 -0.7817 -0.7222
  298WAT     H1 2997   9.898   8.982   0.001  1.0813 -2.3797 -0.7952
  298WAT     H2 2998  10.025   8.942   0.073  1.8321  0.5200 -0.3614
  298WAT    EPW 2999   9.963   9.001   0.056  0.5808 -0.8206 -0.6842
  299WAT      O 3000   7.798   2.463   8.341 -0.2323  0.6259 -0.3741
  299WAT     H1 3001   7.756   2.424   8.417  3.0280 -1.0461  0.7555
  299WAT     H2 3002   7.776   2.556   8.345  0.6954  0.8269  3.3424
  299WAT    EPW 3003   7.790   2.470   8.352  0.3200  0.4318  0.2646
  300WAT      O 3004   3.231   3.886   4.148 -0.6480  0.1045  0.4082
  300WAT     H1 3005   3.277   3.817   4.100  1.7238  0.7921  1.5309
  300WAT     H2 3006   3.212   3.848   4.234 -0.3128  0.4652  0.6506
  300WAT    EPW 3007   3.234   3.872   4.153 -0.2911  0.2428  0.5884
  301WAT      O 3008   3.004   0.114   0.004  0.6939 -0.2676 -0.0713
  301WAT     H1 3009   3.047   0.141   0.085  0.6726  1.0989 -0.4987
  301WAT     H2 3010   3.070   0.059  -0.040  1.7067  1.1156 -0.3290
  301WAT    EPW 3011   3.018   0.110   0.009  0.8247  0.0950 -0.1617
  302WAT      O 3012   6.352   4.828   8.873 -0.2269  0.3096  0.4319
  302WAT     H1 3013   6.304   4.892   8.925 -1.2872 -0.7213  0.7794
  302WAT     H2 3014   6.295   4.750   8.873  0.3683 -0.1679 -1.1341
  302WAT    EPW 3015   6.338   4.826   8.880 -0.2885  0.1106  0.2713
  303WAT      O 3016  10.714   6.422   2.257 -0.0861 -0.7299 -0.5152
  303WAT     H1 3017  10.709   6.326   2.260 -0.9984 -0.7041 -0.7572
  303WAT     H2 3018  10.635   6.448   2.208 -0.5305  0.2152  0.6697
  303WAT    EPW 3019  10.703   6.412   2.251 -0.2651 -0.6020 -0.3909
  304WAT      O 3020   1.168   7.034   2.018  0.4438  0.4035 -0.4388
  304WAT     H1 3021   1.088   6.988   2.042 -0.4249  1.8972 -0.3326
  304WAT     H2 3022   1.160   7.046   1.923  0.4900  0.6490 -0.4107
  304WAT    EPW 3023   1.156   7.030   2.008  0.3353  0.6330 -0.4212
  305WAT      O 3024   7.063   7.678   8.861  0.1716 -0.0038 -0.5285
  305WAT     H1 3025   6.989   7.701   8.917  0.6175 -0.1631  0.1446
  305WAT     H2 3026   7.078   7.756   8.808 -1.2168 -0.3795 -1.5223
  305WAT    EPW 3027   7.055   7.691   8.862  0.0474 -0.0741 -0.5708
  306WAT      O 3028   0.617   7.072   1.045 -0.3814  0.0786 -1.0096
  306WAT     H1 3029   0.553   7.055   0.976 -0.2120  1.6234 -1.5853
  306WAT     H2 3030   0.678   7.135   1.007  1.9151 -1.8042 -0.7007
  306WAT    EPW 3031   0.617   7.078   1.031 -0.0562  0.0339 -1.0449
  307WAT      O 3032   7.443   5.334   8.904 -0.3664 -0.0752  0.5901
  307WAT     H1 3033   7.446   5.340   9.000  1.9030 -0.8740  0.6190
  307WAT     H2 3034   7.530   5.361   8.875 -0.3307 -1.8164 -1.1168
  307WAT    EPW 3035   7.455   5.338   8.913 -0.0620 -0.4103  0.3691
  308WAT      O 3036   2.432   7.941   4.924 -0.0901  0.1618 -0.2303
  308WAT     H1 3037   2.339   7.943   4.901 -0.0093  2.5817 -0.7027
  308WAT     H2 3038   2.464   7.857   4.893 -1.9878 -0.4290 -0.6549
  308WAT    EPW 3039   2.424   7.930   4.917 -0.3297  0.4029 -0.3486
  309WAT      O 3040   2.718   6.123   0.843  0.3170 -0.0559 -0.4142
  309WAT     H1 3041   2.682   6.119   0.754 -1.6599  0.7645  0.2783
  309WAT     H2 3042   2.647   6.088   0.898  1.8801 -1.5038  0.7712
  309WAT    EPW 3043   2.704   6.118   0.839  0.2624 -0.1385 -0.1666
  310WAT      O 3044   1.000   6.406   5.953 -0.0596  0.6320 -0.8036
  310WAT     H1 3045   0.940   6.396   5.880 -1.0926 -1.4535  0.2692
  310WAT     H2 3046   1.056   6.328   5.950 -1.1490 -0.3149  1.4832
  310WAT    EPW 3047   1.000   6.395   5.943 -0.3395  0.2317 -0.3605
  311WAT      O 3048   7.856   7.257   6.274  0.1293  1.3111  0.1087
  311WAT     H1 3049   7.860   7.170   6.314  1.9217  2.4369  2.6611
  311WAT     H2 3050   7.937   7.263   6.223 -0.5328  1.1085 -0.9863
  311WAT    EPW 3051   7.867   7.246   6.272  0.2785  1.4329  0.3011
  312WAT      O 3052   8.580   8.222   4.407 -0.5970 -0.6727 -0.3701
  312WAT     H1 3053   8.514   8.196   4.342  0.2359  1.4074 -2.1461
  312WAT     H2 3054   8.529   8.263   4.477 -1.2742  0.2350 -1.3687
  312WAT    EPW 3055   8.564   8.224   4.408 -0.5765 -0.2789 -0.7360
  313WAT      O 3056   2.908   1.763   4.400  0.1271  0.4523  0.3901
  313WAT     H1 3057   2.968   1.832   4.427 -0.1097  1.2736 -1.1135
  313WAT     H2 3058   2.924   1.752   4.307 -0.0184 -1.3718  0.5388
  313WAT    EPW 3059   2.918   1.770   4.392  0.0768  0.3201  0.2115
  314WAT      O 3060  10.517   8.682   0.743  0.0143 -0.4457 -0.8277
  314WAT     H1 3061  10.516   8.764   0.793 -1.2137 -0.2208 -1.1772
  314WAT     H2 3062  10.481   8.617   0.803 -0.3196 -0.4320 -1.0123
  314WAT    EPW 3063  10.512   8.684   0.757 -0.1922 -0.4139 -0.8982
  315WAT      O 3064   4.624   0.144   2.602 -0.2997  0.4390 -0.3874
  315WAT     H1 3065   4.718   0.130   2.591 -0.1431  1.4203 -0.4294
  315WAT     H2 3066   4.617   0.233   2.639 -1.1448 -0.1089  0.8599
  315WAT    EPW 3067   4.635   0.154   2.606 -0.3905  0.4962 -0.2284
  316WAT      O 3068   2.356   1.477   2.462  0.1501 -0.0025 -1.0236
  316WAT     H1 3069   2.276   1.425   2.454  0.2773 -0.6160  1.0840
  316WAT     H2 3070   2.326   1.568   2.461 -0.8595 -0.2272  1.5693
  316WAT    EPW 3071   2.342   1.482   2.461  0.0337 -0.1130 -0.4036
  317WAT      O 3072   4.241   4.357   8.145 -0.3337  0.3523 -0.2490
  317WAT     H1 3073   4.173   4.329   8.084 -0.7215  1.9688 -0.5946
  317WAT     H2 3074   4.299   4.281   8.152 -0.2104  0.1388 -2.7186
  317WAT    EPW 3075   4.240   4.343   8.138 -0.3686  0.5372 -0.6204
  318WAT      O 3076   0.015   1.122   3.396  0.4883 -0.3663  0.3022
  318WAT     H1 3077  -0.005   1.068   3.319  1.3315 -1.6670  0.9523
  318WAT     H2 3078  -0.056   1.186   3.399  0.7770  0.1426 -1.9199
  318WAT    EPW 3079   0.003   1.123   3.386  0.6376 -0.4708  0.0948
  319WAT      O 3080  10.539   6.167   2.499  0.3025 -0.3270 -0.1353
  319WAT     H1 3081  10.519   6.247   2.548  0.1133  0.3899 -1.3406
  319WAT     H2 3082  10.617   6.131   2.543  0.2931  0.4280  0.5180
  319WAT    EPW 3083  10.547   6.173   2.512  0.2766 -0.1326 -0.2081
  320WAT      O 3084   2.323   7.686   4.530 -0.0799 -0.6933  0.3913
  320WAT     H1 3085   2.382   7.612   4.514 -1.0211 -1.0051 -2.0920
  320WAT     H2 3086   2.286   7.706   4.444 -1.2685  1.4849  1.3351
  320WAT    EPW 3087   2.326   7.679   4.517 -0.3608 -0.4470  0.1881
  321WAT      O 3088   3.708   0.450   3.259  0.5899  0.4862  0.3523
  321WAT     H1 3089   3.755   0.523   3.298 -0.7577  1.1161  0.8592
  321WAT     H2 3090   3.625   0.447   3.306 -0.2268 -0.0687 -1.0515
  321WAT    EPW 3091   3.704   0.459   3.270  0.3045  0.4961  0.2340
  322WAT      O 3092   6.804   7.217   2.896 -1.0739 -0.5950 -0.1461
  322WAT     H1 3093   6.732   7.242   2.838 -1.4958  0.1565  0.6633
  322WAT     H2 3094   6.779   7.254   2.981  0.5761  0.2534  0.0089
  322WAT    EPW 3095   6.791   7.225   2.900 -0.9120 -0.3841 -0.0188
  323WAT      O 3096  10.395   9.646   2.413  0.0901 -0.0302  0.2757
  323WAT     H1 3097  10.338   9.597   2.472 -0.9737  0.0592 -0.6190
  323WAT     H2 3098  10.334   9.693   2.356  1.0595 -0.3940 -1.1190
  323WAT    EPW 3099  10.379   9.646   2.413  0.0772 -0.0668 -0.0262
  324WAT      O 3100   2.854   1.166   1.481  0.2179 -0.0178 -0.3050
  324WAT     H1 3101   2.826   1.080   1.449 -4.7816  0.7817  0.9387
  324WAT     H2 3102   2.881   1.150   1.572 -0.1151 -0.3997 -0.2680
  324WAT    EPW 3103   2.854   1.153   1.489 -0.4852  0.0373 -0.1361
  325WAT      O 3104   1.116   9.075   6.853 -0.0914  0.5113  0.5068
  325WAT     H1 3105   1.208   9.051   6.863  0.1914  1.4733  0.3071
  325WAT     H2 3106   1.076   9.055   6.938 -0.0082 -1.1413  0.1962
  325WAT    EPW 3107   1.123   9.069   6.865 -0.0431  0.4201  0.4394
  326WAT      O 3108   1.830   9.385   0.211 -0.1038  1.2272 -0.1338
  326WAT     H1 3109   1.917   9.346   0.222 -0.4119  0.2743 -0.9158
  326WAT     H2 3110   1.770   9.311   0.217 -0.7243  1.6053 -1.4202
  326WAT    EPW 3111   1.833   9.370   0.213 -0.2263  1.1516 -0.4066
  327WAT      O 3112   0.313   6.663   0.677 -0.0094 -0.8590 -0.2268
  327WAT     H1 3113   0.244   6.611   0.635  0.9222 -2.3222 -0.0291
  327WAT     H2 3114   0.308   6.640   0.769 -0.2790  0.2728  0.0594
  327WAT    EPW 3115   0.303   6.653   0.683  0.0779 -0.9027 -0.1629
  328WAT      O 3116   0.064  10.013   5.651 -0.5946  0.1463  0.6153
  328WAT     H1 3117   0.139   9.956   5.671  0.0080  0.9396  0.6958
  328WAT     H2 3118   0.067  10.080   5.719 -1.7813 -0.1631  1.0002
  328WAT    EPW 3119   0.075  10.014   5.662 -0.6717  0.2098  0.6766
  329WAT      O 3120   3.453   0.805   3.569  0.3591 -0.1920 -0.1775
  329WAT     H1 3121   3.409   0.852   3.640 -2.1297 -1.9805 -0.3896
  329WAT     H2 3122   3.469   0.718   3.605  0.2987 -0.7011 -1.3518
  329WAT    EPW 3123   3.449   0.800   3.583  0.0230 -0.4950 -0.3605
  330WAT      O 3124   6.224   3.192   0.339  0.7076 -0.1874 -0.2568
  330WAT     H1 3125   6.144   3.153   0.374  0.7114 -0.2057 -0.2680
  330WAT     H2 3126   6.194   3.253   0.272  0.6959 -0.1018 -0.1748
  330WAT    EPW 3127   6.209   3.195   0.335  0.7064 -0.1786 -0.2474
  331WAT      O 3128   9.542   9.986   4.061 -0.6458 -0.0360  0.1546
  331WAT     H1 3129   9.524   9.965   3.970 -0.4827  0.9738 -0.1179
  331WAT     H2 3130   9.629   9.949   4.078 -1.4910 -1.9649  0.4986
  331WAT    EPW 3131   9.551   9.978   4.051 -0.7358 -0.1569  0.1638
  332WAT      O 3132   8.602   7.966   1.451  0.2175  0.0417 -0.1506
  332WAT     H1 3133   8.674   7.932   1.397  0.0350 -1.0531  0.2554
  332WAT     H2 3134   8.585   8.053   1.416  2.8357  1.0350  0.7652
  332WAT    EPW 3135   8.609   7.973   1.439  0.5388  0.0281  0.0237
  333WAT      O 3136   1.015   2.635   3.316  0.2801 -0.0877 -0.3377
  333WAT     H1 3137   0.921   2.632   3.334  0.5426  1.5424  1.5714
  333WAT     H2 3138   1.028   2.567   3.250 -2.6673  1.4960 -2.8191
  333WAT    EPW 3139   1.004   2.626   3.310 -0.0740  0.3361 -0.4132
  334WAT      O 3140   6.044   7.746   6.192  0.5818 -0.2351 -0.1114
  334WAT     H1 3141   5.988   7.669   6.185  1.8755 -1.1671 -0.7816
  334WAT     H2 3142   6.049   7.780   6.103  0.4673  0.2981  0.0819
  334WAT    EPW 3143   6.037   7.740   6.179  0.7374 -0.2878 -0.1743
  335WAT      O 3144   5.113   1.415   2.290 -0.8617  0.1913  0.2176
  335WAT     H1 3145   5.143   1.388   2.203  0.0389  0.5413  0.4122
  335WAT     H2 3146   5.068   1.498   2.274 -0.5116  0.3643  0.1053
  335WAT    EPW 3147   5.111   1.423   2.276 -0.6967  0.2603  0.2283
  336WAT      O 3148   2.053   0.051   0.806  0.1169  0.6164  0.4424
  336WAT     H1 3149   1.990   0.073   0.874  2.5890  1.1282  2.6874
  336WAT     H2 3150   2.114   0.125   0.803  1.7869 -0.6983 -0.2138
  336WAT    EPW 3151   2.053   0.064   0.814  0.6633  0.5105  0.6520
  337WAT      O 3152  10.844   0.109   1.706 -1.0645 -0.6295  0.0623
  337WAT     H1 3153  10.852   0.144   1.617 -1.6998 -0.4685  0.0594
  337WAT     H2 3154  10.792   0.029   1.695  3.3280 -3.7320 -0.4399
  337WAT    EPW 3155  10.838   0.103   1.693 -0.5689 -1.0174 -0.0042
  338WAT      O 3156   0.052   6.593   1.404 -0.5443  0.3059 -0.1912
  338WAT     H1 3157   0.013   6.511   1.372 -3.9113  0.7876  2.0979
  338WAT     H2 3158   0.099   6.567   1.483  1.3069  0.1757 -1.2933
  338WAT    EPW 3159   0.053   6.578   1.410 -0.7442  0.3524 -0.0346
  339WAT      O 3160   9.203   9.932   6.828  0.2767  0.1613 -0.1794
  339WAT     H1 3161   9.161   9.886   6.755  0.4206 -0.0757 -0.1143
  339WAT     H2 3162   9.156   9.900   6.906 -0.0273  0.5823 -0.1860
  339WAT    EPW 3163   9.191   9.922   6.829  0.2556  0.1860 -0.1717
  340WAT      O 3164   5.159   1.788   1.997 -0.1611  0.1782  0.6846
  340WAT     H1 3165   5.251   1.806   2.020 -1.0182  2.1152  3.0685
  340WAT     H2 3166   5.137   1.856   1.934 -0.8227  1.9612  2.7161
  340WAT    EPW 3167   5.168   1.800   1.992 -0.3612  0.6689  1.2669
  341WAT      O 3168   9.377   8.557   1.604  0.1484  0.1859 -0.1609
  341WAT     H1 3169   9.296   8.602   1.582  0.4023  0.1864 -1.1611
  341WAT     H2 3170   9.392   8.578   1.696  0.1479  1.9845 -0.5337
  341WAT    EPW 3171   9.369   8.566   1.613  0.1822  0.4234 -0.3421
  342WAT      O 3172   1.281   9.694   2.813 -0.0905 -0.0202 -0.3145
  342WAT     H1 3173   1.375   9.714   2.812 -0.2994  1.0982  0.0145
  342WAT     H2 3174   1.257   9.682   2.721 -0.2061  2.8513 -0.7546
  342WAT    EPW 3175   1.290   9.695   2.801 -0.1333  0.5064 -0.3291
  343WAT      O 3176   9.189   8.722   0.257  0.5868  0.0645 -1.0105
  343WAT     H1 3177   9.138   8.654   0.301  2.9808 -0.2404  1.5524
  343WAT     H2 3178   9.216   8.683   0.175 -0.0794 -1.1868 -0.6581
  343WAT    EPW 3179   9.186   8.708   0.252  0.8140 -0.1407 -0.6260
  344WAT      O 3180   8.579   7.916   1.916  0.6965  0.3534  0.1732
  344WAT     H1 3181   8.578   7.860   1.838 -0.0094  0.9989 -0.2963
  344WAT     H2 3182   8.564   7.857   1.989  0.3323 -0.1235 -0.2824
  344WAT    EPW 3183   8.577   7.901   1.915  0.5555  0.3755  0.0513
  345WAT      O 3184   3.376   2.243   3.395  0.3689 -0.0918  0.0264
  345WAT     H1 3185   3.458   2.282   3.366  1.5856 -1.4431  1.4603
  345WAT     H2 3186   3.390   2.223   3.488 -0.3998 -3.2172 -0.4094
  345WAT    EPW 3187   3.388   2.245   3.403  0.4281 -0.6822  0.1581
  346WAT      O 3188   9.184  10.116   1.345 -0.1691  0.4310 -0.0575
  346WAT     H1 3189   9.198  10.043   1.284  0.3999  0.7803 -0.3556
  346WAT     H2 3190   9.099  10.098   1.385  0.7138 -1.2923  1.1496
  346WAT    EPW 3191   9.174  10.104   1.342  0.0224  0.2499  0.0624
  347WAT      O 3192   7.320   4.555   8.386  0.0326 -0.0388 -0.1091
  347WAT     H1 3193   7.275   4.637   8.370 -1.3883 -1.0550 -1.6125
  347WAT     H2 3194   7.331   4.515   8.300  1.8843 -0.8641  0.4338
  347WAT    EPW 3195   7.316   4.560   8.373  0.0894 -0.2816 -0.2356
  348WAT      O 3196  10.888   5.166   1.475  0.6819 -0.1133 -0.3806
  348WAT     H1 3197  10.831   5.218   1.419  0.1679  0.1174  0.3459
  348WAT     H2 3198  10.864   5.191   1.564  1.6059 -0.3459 -0.0525
  348WAT    EPW 3199  10.877   5.176   1.479  0.7358 -0.1140 -0.2415
  349WAT      O 3200   8.893   9.779   2.608 -0.6368 -0.0904 -0.0751
  349WAT     H1 3201   8.976   9.777   2.654 -1.2795  0.9502  1.2240
  349WAT     H2 3202   8.913   9.750   2.519  0.5179 -2.9619  1.0090
  349WAT    EPW 3203   8.906   9.775   2.602 -0.5698 -0.3314  0.2393
  350WAT      O 3204   2.059   7.864   1.580  0.1221  0.1345  0.1992
  350WAT     H1 3205   2.004   7.942   1.575 -0.2720 -0.0784  0.9904
  350WAT     H2 3206   2.017   7.809   1.647 -0.4277 -1.4254 -1.3334
  350WAT    EPW 3207   2.046   7.867   1.588 -0.0023 -0.0994  0.1014
  351WAT      O 3208   9.219   8.800   3.129 -0.5108  0.0189 -0.6080
  351WAT     H1 3209   9.184   8.804   3.040 -1.9168 -2.5605 -0.2887
  351WAT     H2 3210   9.289   8.735   3.125  0.6691  1.2127 -0.1420
  351WAT    EPW 3211   9.223   8.792   3.117 -0.5407 -0.1640 -0.5044
  352WAT      O 3212   3.636   2.631   3.246  0.2184 -0.0342  0.3018
  352WAT     H1 3213   3.660   2.564   3.183  0.1781  1.3158 -1.2026
  352WAT     H2 3214   3.719   2.675   3.267  0.0629  0.2320  0.3581
  352WAT    EPW 3215   3.650   2.628   3.241  0.1925  0.1791  0.1109
  353WAT      O 3216  10.990   9.616   2.742  0.2920  0.3912 -0.5349
  353WAT     H1 3217  10.947   9.584   2.821 -0.3975 -0.2630 -1.1516
  353WAT     H2 3218  11.043   9.690   2.771 -0.9381  0.9597  0.3384
  353WAT    EPW 3219  10.991   9.621   2.756  0.0386  0.3796 -0.5012
  354WAT      O 3220   0.360   2.376   5.580 -0.2226 -0.2266  0.3848
  354WAT     H1 3221   0.380   2.437   5.509  0.4864 -1.1037 -0.1869
  354WAT     H2 3222   0.269   2.351   5.567  0.3398 -1.6303 -1.2130
  354WAT    EPW 3223   0.351   2.381   5.569 -0.0549 -0.5273  0.0987
  355WAT      O 3224   1.881   0.527   1.168 -0.1006  0.6028  0.5737
  355WAT     H1 3225   1.961   0.497   1.125  0.0929  0.5311  0.9818
  355WAT     H2 3226   1.827   0.561   1.096 -0.3146 -0.6676  0.1098
  355WAT    EPW 3227   1.884   0.528   1.153 -0.1033  0.4258  0.5664
  356WAT      O 3228  10.822   7.526   5.429 -0.3350  0.5755 -0.5900
  356WAT     H1 3229  10.903   7.477   5.420 -1.0016 -0.3115 -2.1721
  356WAT     H2 3230  10.830   7.571   5.514  1.6739  0.3270 -0.6069
  356WAT    EPW 3231  10.833   7.526   5.439 -0.1574  0.4258 -0.8008
  357WAT      O 3232   5.927   0.619   2.182  0.1731 -0.2847 -0.3705
  357WAT     H1 3233   5.857   0.683   2.193 -1.4435 -2.0822  0.3928
  357WAT     H2 3234   5.886   0.547   2.132  2.0078 -0.6118 -1.4973
  357WAT    EPW 3235   5.912   0.618   2.177  0.2019 -0.5649 -0.4185
  358WAT      O 3236   8.940   9.647   6.040  0.3729  0.3582 -0.4756
  358WAT     H1 3237   8.930   9.559   6.076 -2.0361  0.4132 -0.8642
  358WAT     H2 3238   8.943   9.634   5.945  1.8232  0.5892 -0.4820
  358WAT    EPW 3239   8.939   9.634   6.032  0.2456  0.3963 -0.5276
  359WAT      O 3240   0.943   9.685   3.120 -0.8636  0.2239 -0.7084
  359WAT     H1 3241   1.013   9.639   3.075 -0.2561 -0.6614  1.0404
  359WAT     H2 3242   0.866   9.629   3.109 -1.0290  0.6234 -1.6483
  359WAT    EPW 3243   0.942   9.672   3.113 -0.8053  0.1597 -0.6018
  360WAT      O 3244   6.416   3.453   7.163  0.6069 -0.2934 -0.7276
  360WAT     H1 3245   6.339   3.503   7.137 -0.2390 -0.6640  0.9241
  360WAT     H2 3246   6.428   3.389   7.093  0.6206  1.0149 -1.9627
  360WAT    EPW 3247   6.407   3.451   7.151  0.4973 -0.1696 -0.6731
  361WAT      O 3248   4.582   3.492   5.416 -0.2604  0.4871 -0.6016
  361WAT     H1 3249   4.643   3.495   5.343  0.5425 -0.1140  0.0313
  361WAT     H2 3250   4.632   3.526   5.490 -0.5890 -0.2933 -0.0104
  361WAT    EPW 3251   4.597   3.497   5.416 -0.1979  0.3049 -0.4401
  362WAT      O 3252   2.269   7.747   6.380 -0.1502  0.1852  0.4514
  362WAT     H1 3253   2.213   7.756   6.457 -1.3025 -0.6681 -0.2552
  362WAT     H2 3254   2.304   7.658   6.386 -0.7651 -0.1181 -0.3425
  362WAT    EPW 3255   2.266   7.736   6.391 -0.3833  0.0327  0.2539
  363WAT      O 3256   0.159   8.662   2.529  0.4350 -0.0299  0.4888
  363WAT     H1 3257   0.145   8.611   2.449 -0.9915  0.1929  0.5766
  363WAT     H2 3258   0.145   8.753   2.503  1.4952  0.2013  0.6671
  363WAT    EPW 3259   0.155   8.667   2.515  0.3867  0.0305  0.5239
  364WAT      O 3260   6.444   0.371   4.631 -0.1476  0.0621  0.0436
  364WAT     H1 3261   6.447   0.464   4.608  3.3823  0.2242  0.5251
  364WAT     H2 3262   6.378   0.334   4.574 -3.4296  3.1801  1.4441
  364WAT    EPW 3263   6.436   0.378   4.621 -0.1149  0.4947  0.2918
  365WAT      O 3264   3.165   3.710   0.493  0.3132 -0.3284  0.3558
  365WAT     H1 3265   3.228   3.739   0.427 -0.7159  0.2858 -0.3862
  365WAT     H2 3266   3.083   3.699   0.445 -0.4862  0.2232  1.5413
  365WAT    EPW 3267   3.163   3.712   0.478  0.0721 -0.1746  0.4143
  366WAT      O 3268   3.394   0.758   2.360  0.0063 -0.0839 -0.8148
  366WAT     H1 3269   3.426   0.805   2.438  1.3879 -0.5988 -1.0458
  366WAT     H2 3270   3.351   0.680   2.395 -0.3875  0.2517 -0.5317
  366WAT    EPW 3271   3.392   0.754   2.375  0.1367 -0.1075 -0.8078
  367WAT      O 3272  10.780   6.338   3.554  0.5082  0.4892 -0.2003
  367WAT     H1 3273  10.745   6.426   3.567  0.5207  0.4018  0.4652
  367WAT     H2 3274  10.728   6.283   3.613 -1.0732 -0.3484 -2.2664
  367WAT    EPW 3275  10.769   6.342   3.564  0.3014  0.3672 -0.3850
  368WAT      O 3276   9.822   6.332   1.602  0.3561  0.3021  0.5760
  368WAT     H1 3277   9.866   6.255   1.636 -1.2578 -1.3258 -0.7764
  368WAT     H2 3278   9.839   6.401   1.667 -0.0415 -1.7812  3.0657
  368WAT    EPW 3279   9.830   6.331   1.615  0.0906 -0.1874  0.7259
  369WAT      O 3280   9.283   7.704   1.581  0.1381 -0.1600 -0.8500
  369WAT     H1 3281   9.224   7.776   1.598 -1.9753 -2.1603  0.9992
  369WAT     H2 3282   9.348   7.708   1.652  0.9421  0.7279 -1.6064
  369WAT    EPW 3283   9.284   7.714   1.593 -0.0343 -0.3066 -0.7058
  370WAT      O 3284   3.981   1.674   2.050 -0.1244 -0.1102  0.6371
  370WAT     H1 3285   4.062   1.711   2.085 -0.5633 -1.4148  3.3498
  370WAT     H2 3286   3.997   1.580   2.045 -1.7761 -0.5521  2.3728
  370WAT    EPW 3287   3.993   1.667   2.054 -0.4002 -0.3406  1.2239
  371WAT      O 3288   0.437   9.771   1.160 -0.8157  0.2851  0.6435
  371WAT     H1 3289   0.502   9.825   1.205 -0.9647  0.9658  0.0705
  371WAT     H2 3290   0.386   9.732   1.231 -0.5774  0.7419  1.0802
  371WAT    EPW 3291   0.439   9.773   1.175 -0.8039  0.4354  0.6255
  372WAT      O 3292   5.950   1.645   8.411 -0.3965 -0.1900  0.0189
  372WAT     H1 3293   5.991   1.596   8.483  1.8183  0.1835 -0.8830
  372WAT     H2 3294   5.974   1.596   8.332 -2.1529 -0.1917 -0.5415
  372WAT    EPW 3295   5.959   1.632   8.410 -0.3362 -0.1410 -0.1740
  373WAT      O 3296   1.064   2.011   4.515 -0.0743  0.1995 -0.2127
  373WAT     H1 3297   1.119   2.029   4.591 -1.4674  0.9285  0.6684
  373WAT     H2 3298   0.975   2.012   4.549 -0.6041 -2.9753 -1.2023
  373WAT    EPW 3299   1.059   2.014   4.529 -0.3279 -0.1229 -0.2272
  374WAT      O 3300  10.922   4.936   2.571  1.1640 -0.1893  0.4645
  374WAT     H1 3301  10.964   4.910   2.654 -0.5449 -0.9380  1.1388
  374WAT     H2 3302  10.951   4.870   2.508  1.5434 -0.2983  0.7480
  374WAT    EPW 3303  10.931   4.924   2.574  0.9885 -0.3023  0.5908
  375WAT      O 3304   9.388   5.170   5.903 -0.0249  0.0794 -0.4914
  375WAT     H1 3305   9.454   5.111   5.940 -0.0987  0.3583  0.0948
  375WAT     H2 3306   9.415   5.257   5.931 -0.2131  0.2729 -0.9049
  375WAT    EPW 3307   9.400   5.174   5.912 -0.0601  0.1416 -0.4685
  376WAT      O 3308   5.567   2.361   7.989 -0.2261  0.1698  1.2204
  376WAT     H1 3309   5.578   2.456   7.977  0.1237  0.1505  1.3849
  376WAT     H2 3310   5.656   2.329   8.006 -0.3109 -0.2187  0.9440
  376WAT    EPW 3311   5.581   2.370   7.989 -0.1912  0.1161  1.2057
  377WAT      O 3312   0.999   9.540   2.337 -0.1102  1.1183  0.5753
  377WAT     H1 3313   1.023   9.596   2.411 -2.8780  1.7189  1.1503
  377WAT     H2 3314   0.926   9.487   2.370  0.0898 -0.2709 -1.0654
  377WAT    EPW 3315   0.992   9.540   2.351 -0.4489  1.0142  0.4350
  378WAT      O 3316   1.531   8.059   4.864 -0.8320 -0.0974  0.4790
  378WAT     H1 3317   1.499   8.144   4.897 -0.5253  0.5780 -0.8954
  378WAT     H2 3318   1.470   8.037   4.793  0.5148  0.2118 -0.8226
  378WAT    EPW 3319   1.519   8.067   4.859 -0.6139  0.0329  0.1261
  379WAT      O 3320   3.066   1.219   2.387  0.2584 -0.5476  0.2252
  379WAT     H1 3321   2.999   1.280   2.356  0.2799 -0.3308  0.6052
  379WAT     H2 3322   3.094   1.173   2.308  1.2838  0.9435 -0.3407
  379WAT    EPW 3323   3.061   1.221   2.372  0.3964 -0.3224  0.2006
  380WAT      O 3324   1.566   1.177   0.483  0.1843 -0.0350 -1.0902
  380WAT     H1 3325   1.639   1.232   0.512  0.6175 -1.5682  1.0254
  380WAT     H2 3326   1.606   1.114   0.423  0.3312  0.0113 -1.0426
  380WAT    EPW 3327   1.581   1.176   0.479  0.2608 -0.2311 -0.8049
  381WAT      O 3328   3.079   0.339   4.700 -0.5303  0.1925 -0.4180
  381WAT     H1 3329   3.027   0.259   4.697 -0.5413  0.2185 -1.1034
  381WAT     H2 3330   3.170   0.309   4.708 -0.3946  0.0548 -2.2182
  381WAT    EPW 3331   3.084   0.325   4.701 -0.5139  0.1778 -0.7460
  382WAT      O 3332   8.923   5.864   0.989 -0.0009 -0.1402 -0.1246
  382WAT     H1 3333   8.907   5.880   1.082  2.1384 -4.6627  1.3189
  382WAT     H2 3334   8.994   5.923   0.966  0.5784 -0.0913  1.6642
  382WAT    EPW 3335   8.930   5.874   0.998  0.3576 -0.7303  0.3017
  383WAT      O 3336   1.634   9.067   3.547  0.4683  0.4853  0.0396
  383WAT     H1 3337   1.555   9.110   3.513 -0.1559  0.4044  1.3553
  383WAT     H2 3338   1.705   9.111   3.501 -0.3513 -0.4288 -2.2914
  383WAT    EPW 3339   1.633   9.078   3.536  0.2778  0.3538 -0.0942
  384WAT      O 3340   8.707   5.535   2.226  0.4037  0.1757 -0.7790
  384WAT     H1 3341   8.653   5.499   2.296  0.1922 -0.4142 -1.2343
  384WAT     H2 3342   8.682   5.627   2.220  0.7503  0.3385  0.2179
  384WAT    EPW 3343   8.697   5.542   2.234  0.4220  0.1190 -0.7075
  385WAT      O 3344   8.547   4.245   2.935  0.1946 -0.0153  0.6509
  385WAT     H1 3345   8.579   4.219   2.848 -0.9957 -0.9719  0.4787
  385WAT     H2 3346   8.515   4.164   2.974  0.0596  0.5331  1.7138
  385WAT    EPW 3347   8.547   4.231   2.928  0.0200 -0.0694  0.7683
  386WAT      O 3348  10.464   5.422   1.681 -0.0563  0.1387 -1.1739
  386WAT     H1 3349  10.534   5.366   1.646 -1.0225 -1.8457 -0.0975
  386WAT     H2 3350  10.431   5.470   1.605  1.8549  0.4693 -1.8569
  386WAT    EPW 3351  10.469   5.421   1.667  0.0687 -0.0794 -1.1221
  387WAT      O 3352   6.985   3.106   7.175 -0.2374  0.0451  0.2972
  387WAT     H1 3353   7.014   3.049   7.103 -1.5610  0.1997 -0.3871
  387WAT     H2 3354   6.998   3.195   7.142  2.0339  0.2330  1.4450
  387WAT    EPW 3355   6.991   3.110   7.161 -0.1125  0.0902  0.3583
  388WAT      O 3356  10.103   7.551   1.580 -0.6873 -0.9445  0.3140
  388WAT     H1 3357  10.158   7.539   1.502  1.6476 -1.4921  1.9487
  388WAT     H2 3358  10.014   7.541   1.548  0.1599 -0.8193 -2.3446
  388WAT    EPW 3359  10.099   7.548   1.565 -0.2680 -1.0002  0.1789
  389WAT      O 3360   6.761   3.331   8.459 -0.3201 -0.5058 -0.0576
  389WAT     H1 3361   6.831   3.375   8.508 -0.5268 -2.6296  2.3716
  389WAT     H2 3362   6.680   3.371   8.492 -0.3997 -0.6897 -0.0294
  389WAT    EPW 3363   6.760   3.342   8.470 -0.3579 -0.8103  0.2670
  390WAT      O 3364   7.235   3.752   3.662 -0.6427 -0.1169  0.2620
  390WAT     H1 3365   7.201   3.839   3.645 -0.2739 -0.1838 -0.8912
  390WAT     H2 3366   7.188   3.723   3.741  0.4611  1.7686  1.7061
  390WAT    EPW 3367   7.224   3.759   3.671 -0.4485  0.1231  0.3002
  391WAT      O 3368   8.470   1.493   8.748 -0.4931  0.5932 -0.0569
  391WAT     H1 3369   8.472   1.411   8.698  1.2757  0.4716  0.1374
  391WAT     H2 3370   8.540   1.483   8.813 -0.4155  2.1602  0.1371
  391WAT    EPW 3371   8.480   1.481   8.750 -0.2499  0.7839 -0.0062
  392WAT      O 3372   4.563   0.717   4.809  0.3149  0.1454 -0.4771
  392WAT     H1 3373   4.601   0.673   4.733  1.2244  0.9166 -0.4878
  392WAT     H2 3374   4.510   0.788   4.773 -1.2551 -0.9561 -0.4644
  392WAT    EPW 3375   4.561   0.721   4.794  0.2275  0.1019 -0.4766
  393WAT      O 3376   8.059   4.168   7.121 -0.3522  0.2928 -0.0038
  393WAT     H1 3377   8.083   4.260   7.115  1.5265 -0.0779  1.0882
  393WAT     H2 3378   8.134   4.121   7.084 -2.3765 -0.7945 -3.1213
  393WAT    EPW 3379   8.072   4.174   7.115 -0.3710  0.1004 -0.2713
  394WAT      O 3380   2.611   5.535   4.458  0.3628 -1.0801 -0.3034
  394WAT     H1 3381   2.658   5.459   4.424 -2.1797 -1.9983 -2.0843
  394WAT     H2 3382   2.603   5.594   4.382 -1.6270 -1.1524 -0.2048
  394WAT    EPW 3383   2.616   5.533   4.443 -0.2350 -1.2107 -0.5250
  395WAT      O 3384   2.746  10.085   1.574 -0.2245  0.9130  0.5697
  395WAT     H1 3385   2.693  10.068   1.497  1.1244 -0.9718 -0.0218
  395WAT     H2 3386   2.715  10.023   1.640  0.0213  1.0543  0.8234
  395WAT    EPW 3387   2.735  10.075   1.572 -0.0142  0.6833  0.5252
  396WAT      O 3388   0.577   0.574   3.236  0.8343 -0.5585  0.2396
  396WAT     H1 3389   0.564   0.506   3.170  1.6394 -0.6144  0.1306
  396WAT     H2 3390   0.489   0.607   3.253  0.6021 -0.5666 -0.8347
  396WAT    EPW 3391   0.564   0.570   3.229  0.9099 -0.5669  0.0834
  397WAT      O 3392   9.986   7.311   3.346 -0.7797  0.1251 -0.7597
  397WAT     H1 3393   9.902   7.300   3.390 -1.7541 -1.7329 -2.8846
  397WAT     H2 3394   9.986   7.401   3.315 -0.0525  1.5244  2.7965
  397WAT    EPW 3395   9.975   7.321   3.348 -0.8121  0.0646 -0.5709
  398WAT      O 3396   5.385   3.779   8.692 -0.1152  0.4912 -0.3072
  398WAT     H1 3397   5.347   3.829   8.765  0.1869  0.5201 -0.1651
  398WAT     H2 3398   5.317   3.715   8.668  0.3530 -0.5790  1.0510
  398WAT    EPW 3399   5.371   3.777   8.699 -0.0136  0.3538 -0.1087
  399WAT      O 3400   1.433   9.377   0.956  0.0567  0.7468 -0.4912
  399WAT     H1 3401   1.459   9.449   1.013 -0.5623  1.4371 -1.0532
  399WAT     H2 3402   1.345   9.353   0.986  0.7274 -0.6238  0.4862
  399WAT    EPW 3403   1.425   9.383   0.967  0.0635  0.6571 -0.4364
  400WAT      O 3404   4.202   2.056   7.773  0.2325 -0.7315  0.0160
  400WAT     H1 3405   4.138   2.011   7.718 -1.0087 -0.7872  1.4435
  400WAT     H2 3406   4.176   2.035   7.863  1.5978  0.1720  0.6635
  400WAT    EPW 3407   4.190   2.047   7.778  0.2489 -0.6196  0.2894
  401WAT      O 3408   8.451   6.624   1.616 -0.1154 -0.2843 -0.0357
  401WAT     H1 3409   8.355   6.633   1.615 -0.0825  1.5631 -3.7012
  401WAT     H2 3410   8.468   6.541   1.573 -0.0794 -0.1086 -0.3646
  401WAT    EPW 3411   8.440   6.614   1.610 -0.1063 -0.0176 -0.5625
  402WAT      O 3412   4.210   4.844   8.907  0.0233  0.8564 -0.2528
  402WAT     H1 3413   4.179   4.754   8.917  1.9736  0.1052 -0.5133
  402WAT     H2 3414   4.301   4.841   8.934 -0.1094  2.9812  0.6022
  402WAT    EPW 3415   4.218   4.832   8.912  0.2630  1.0374 -0.1745
  403WAT      O 3416   0.645   8.112   3.992 -0.7223  0.2161  0.7723
  403WAT     H1 3417   0.621   8.024   4.021  2.7245 -0.4953  1.8739
  403WAT     H2 3418   0.677   8.099   3.902 -2.5665  0.8529 -0.0271
  403WAT    EPW 3419   0.646   8.099   3.984 -0.5110  0.2065  0.8122
  404WAT      O 3420   0.496   7.061   1.648  0.0012  0.2883  0.0650
  404WAT     H1 3421   0.408   7.072   1.612  0.0619  1.4337  0.2445
  404WAT     H2 3422   0.554   7.101   1.583  0.3037  0.4339  0.4231
  404WAT    EPW 3423   0.492   7.067   1.634  0.0491  0.4587  0.1359
  405WAT      O 3424   2.439   9.349   7.592 -0.2850 -0.6753  0.5347
  405WAT     H1 3425   2.397   9.311   7.669 -0.8840 -0.2663  0.4188
  405WAT     H2 3426   2.525   9.379   7.624 -1.3968  1.5623  1.6390
  405WAT    EPW 3427   2.445   9.348   7.606 -0.5106 -0.3266  0.6652
  406WAT      O 3428   8.117   3.897   6.408 -1.0058 -0.0831  0.1841
  406WAT     H1 3429   8.143   3.805   6.408  1.0788  0.4623 -0.5379
  406WAT     H2 3430   8.145   3.929   6.494  0.6821  0.4702 -0.5387
  406WAT    EPW 3431   8.124   3.889   6.419 -0.5083  0.0619 -0.0064
  407WAT      O 3432   8.883   7.948   1.059 -0.5867  0.1257 -0.5200
  407WAT     H1 3433   8.947   7.912   1.121  0.5950  1.5713 -0.8247
  407WAT     H2 3434   8.859   7.874   1.003  1.4002 -0.3378 -0.8449
  407WAT    EPW 3435   8.889   7.933   1.059 -0.1683  0.2553 -0.6030
  408WAT      O 3436   3.945   2.774   8.197 -0.2307  0.1217 -0.1299
  408WAT     H1 3437   3.934   2.772   8.292 -0.2663  1.7670 -0.0758
  408WAT     H2 3438   3.934   2.682   8.170 -2.1334 -0.1125  1.2173
  408WAT    EPW 3439   3.942   2.761   8.206 -0.4864  0.3078  0.0553
  409WAT      O 3440   0.139   5.151   2.746  0.2100 -0.0017 -0.0110
  409WAT     H1 3441   0.068   5.212   2.725 -0.1194 -1.0936 -2.5265
  409WAT     H2 3442   0.096   5.078   2.789  0.2622  0.5245  0.9589
  409WAT    EPW 3443   0.124   5.150   2.749  0.1734 -0.0765 -0.2148
  410WAT      O 3444   0.670   8.300   1.898  0.2746  0.5393  0.5235
  410WAT     H1 3445   0.725   8.225   1.873  0.8465  1.5117 -1.3174
  410WAT     H2 3446   0.617   8.317   1.820  1.0609  2.8205  0.4213
  410WAT    EPW 3447   0.670   8.292   1.884  0.4538  0.9680  0.2671
  411WAT      O 3448   3.117   4.199   1.876 -0.1966 -0.1365  0.0812
  411WAT     H1 3449   3.083   4.210   1.965 -1.9977 -1.4347 -0.4025
  411WAT     H2 3450   3.118   4.288   1.840  1.2048  0.5068  1.5748
  411WAT    EPW 3451   3.113   4.212   1.883 -0.2493 -0.2229  0.2145
  412WAT      O 3452   5.263   0.475   8.358  0.6467 -0.2021  0.1783
  412WAT     H1 3453   5.303   0.393   8.388 -0.7024 -1.7030 -1.7786
  412WAT     H2 3454   5.315   0.544   8.399  0.6619 -1.9741  3.5067
  412WAT    EPW 3455   5.275   0.473   8.367  0.4706 -0.6338  0.3595
  413WAT      O 3456   8.280   8.627   0.077  0.4825 -0.2414  0.2819
  413WAT     H1 3457   8.231   8.671   0.146 -0.5133 -2.2025  0.8932
  413WAT     H2 3458   8.271   8.534   0.096  6.1107 -0.8520  1.6298
  413WAT    EPW 3459   8.272   8.621   0.088  1.0924 -0.5803  0.5403
  414WAT      O 3460   7.868   6.156   7.634 -0.3531  0.3481  0.0994
  414WAT     H1 3461   7.957   6.123   7.620 -0.0561  1.6194 -1.1772
  414WAT     H2 3462   7.872   6.201   7.719  0.1306  0.1120  0.2052
  414WAT    EPW 3463   7.880   6.157   7.644 -0.2503  0.4845 -0.0551
  415WAT      O 3464   9.516   8.906   2.149 -0.3183  0.1264 -1.0457
  415WAT     H1 3465   9.559   8.882   2.231  0.7663 -0.8282 -1.8638
  415WAT     H2 3466   9.422   8.897   2.168 -0.0773 -3.9130 -0.9253
  415WAT    EPW 3467   9.509   8.901   2.162 -0.1435 -0.5322 -1.1377
  416WAT      O 3468   0.652   4.788   1.550  0.4709  0.2573  0.4753
  416WAT     H1 3469   0.638   4.876   1.584 -1.7074 -0.8735  2.8230
  416WAT     H2 3470   0.612   4.730   1.615  2.1333 -2.5229 -0.7678
  416WAT    EPW 3471   0.645   4.792   1.563  0.4028 -0.2587  0.6210
  417WAT      O 3472   8.483   5.273   2.912 -0.0573  0.6960  0.2968
  417WAT     H1 3473   8.396   5.310   2.930 -0.0985  0.6602  0.1666
  417WAT     H2 3474   8.474   5.230   2.827  0.4382  1.8199 -0.3546
  417WAT    EPW 3475   8.470   5.272   2.903  0.0033  0.8395  0.1937
  418WAT      O 3476   8.444   5.063   0.010 -0.4948  0.0142 -0.2515
  418WAT     H1 3477   8.481   5.106  -0.067  1.1103 -0.1825  0.3786
  418WAT     H2 3478   8.479   4.974   0.007 -0.8611 -0.1570  0.4054
  418WAT    EPW 3479   8.454   5.057  -0.000 -0.3319 -0.0343 -0.0818
  419WAT      O 3480   8.426   7.815   0.317 -0.0348 -0.4120  0.7383
  419WAT     H1 3481   8.441   7.721   0.308 -1.1125 -0.5089 -0.4245
  419WAT     H2 3482   8.505   7.849   0.359  1.9315 -1.3064 -1.9382
  419WAT    EPW 3483   8.438   7.807   0.321  0.0825 -0.5429  0.2319
  420WAT      O 3484   7.404   9.166   0.521 -0.1379  0.2034 -0.5117
  420WAT     H1 3485   7.479   9.222   0.540 -1.5480  1.0399  3.5928
  420WAT     H2 3486   7.423   9.085   0.568 -0.8874 -0.3808 -1.1967
  420WAT    EPW 3487   7.417   9.163   0.530 -0.4227  0.2365 -0.0607
  421WAT      O 3488  10.750   7.397   0.082  0.7986  0.3718  0.3352
  421WAT     H1 3489  10.781   7.487   0.088  1.2449  0.1196  3.4810
  421WAT     H2 3490  10.669   7.395   0.133 -0.3528 -0.6396 -1.4059
  421WAT    EPW 3491  10.744   7.408   0.089  0.7062  0.2053  0.5205
  422WAT      O 3492   1.859   5.431   1.611 -0.9709  0.1888  0.2867
  422WAT     H1 3493   1.814   5.489   1.549 -3.0748 -2.2252 -0.6536
  422WAT     H2 3494   1.882   5.354   1.559  2.5655  0.4070  1.2682
  422WAT    EPW 3495   1.856   5.429   1.596 -0.7820 -0.1011  0.2921
  423WAT      O 3496  10.738   6.678   1.756 -1.0226  0.1892 -0.3272
  423WAT     H1 3497  10.772   6.724   1.680 -0.3085  0.6428  0.2472
  423WAT     H2 3498  10.663   6.731   1.784 -1.9819 -0.5805 -1.3429
  423WAT    EPW 3499  10.732   6.691   1.750 -1.0557  0.1476 -0.3854
  424WAT      O 3500  10.558   8.956   2.377 -0.1240  0.6041 -0.3869
  424WAT     H1 3501  10.532   8.978   2.287 -0.8782 -0.1165 -0.3598
  424WAT     H2 3502  10.503   9.013   2.431  1.2232  1.9644 -0.3712
  424WAT    EPW 3503  10.547   8.967   2.372 -0.0458  0.6886 -0.3812
  425WAT      O 3504  10.371   6.726   2.617 -0.1660 -0.1291  0.1399
  425WAT     H1 3505  10.277   6.711   2.609 -0.6295  2.0392  0.8976
  425WAT     H2 3506  10.391   6.709   2.709  1.0372 -4.2989 -0.6704
  425WAT    EPW 3507  10.362   6.722   2.628 -0.0682 -0.3932  0.1330
  426WAT      O 3508   8.403   2.696   7.570 -0.1621  0.3245  0.0045
  426WAT     H1 3509   8.421   2.644   7.491  2.9190 -0.5960  1.1536
  426WAT     H2 3510   8.330   2.650   7.612  0.2733 -1.1141 -0.7261
  426WAT    EPW 3511   8.396   2.683   7.565  0.3023  0.0134  0.0596
  427WAT      O 3512  10.920   4.526   0.007 -0.2908 -0.3657 -0.4465
  427WAT     H1 3513  10.930   4.562  -0.081  2.1227 -0.4153 -0.2430
  427WAT     H2 3514  11.005   4.487   0.027 -0.7331 -0.1953  1.9917
  427WAT    EPW 3515  10.933   4.525  -0.002 -0.0315 -0.3498 -0.0981
  428WAT      O 3516   2.656   9.610   1.620 -0.2134 -0.2161  0.7119
  428WAT     H1 3517   2.626   9.682   1.675  1.0608  0.4613  0.5579
  428WAT     H2 3518   2.749   9.603   1.640 -0.0391 -0.9165 -0.3016
  428WAT    EPW 3519   2.664   9.618   1.630 -0.0223 -0.2189  0.5580
  429WAT      O 3520   9.447   6.733   8.268 -0.7904  0.3069 -0.4051
  429WAT     H1 3521   9.433   6.793   8.194 -0.5957 -0.9507 -1.5114
  429WAT     H2 3522   9.449   6.790   8.345  1.0767  1.9280 -1.5427
  429WAT    EPW 3523   9.445   6.748   8.268 -0.5183  0.3548 -0.7014
  430WAT      O 3524   1.391   6.853   3.462 -0.4763  0.3839 -0.1775
  430WAT     H1 3525   1.378   6.913   3.389 -2.7585  0.7744  0.4776
  430WAT     H2 3526   1.393   6.909   3.539  0.1870 -0.1703  0.2224
  430WAT    EPW 3527   1.390   6.868   3.463 -0.6898  0.3626 -0.0384
  431WAT      O 3528   0.611   9.973   5.048 -0.3163 -0.2472  0.4382
  431WAT     H1 3529   0.609   9.901   4.985 -3.5608 -0.4587  0.6297
  431WAT     H2 3530   0.567   9.939   5.125 -2.9021  2.1327  0.1698
  431WAT    EPW 3531   0.605   9.959   5.050 -1.0853  0.0391  0.4280
  432WAT      O 3532   7.900   4.828   7.488  0.2154 -1.4730  0.1787
  432WAT     H1 3533   7.977   4.802   7.538 -0.7191 -1.7652  1.4953
  432WAT     H2 3534   7.838   4.757   7.499 -1.5992  0.2774  2.1369
  432WAT    EPW 3535   7.902   4.815   7.496 -0.1469 -1.2805  0.6106
  433WAT      O 3536   4.703   5.972   2.871  0.5235 -0.3900 -0.2276
  433WAT     H1 3537   4.759   5.913   2.821 -0.0509 -0.8153 -0.3793
  433WAT     H2 3538   4.714   5.945   2.962  2.1088  0.8365 -0.0215
  433WAT    EPW 3539   4.712   5.961   2.876  0.6568 -0.2842 -0.2204
  434WAT      O 3540   2.800   4.869   0.711  0.2201 -0.2045  0.1100
  434WAT     H1 3541   2.827   4.925   0.638  0.1842  1.1505  1.0993
  434WAT     H2 3542   2.881   4.851   0.759  0.0094  0.3966  0.7167
  434WAT    EPW 3543   2.814   4.874   0.708  0.1876  0.0534  0.3205
  435WAT      O 3544   1.167   7.140   4.841  0.4119  0.0369 -0.0957
  435WAT     H1 3545   1.075   7.117   4.829 -0.4368  2.4676  1.0933
  435WAT     H2 3546   1.207   7.127   4.755 -2.1722  3.4792 -2.0877
  435WAT    EPW 3547   1.160   7.135   4.828 -0.0409  0.8118 -0.2017
  436WAT      O 3548   9.441   7.699   2.681  0.1619  0.1841 -0.0816
  436WAT     H1 3549   9.438   7.766   2.613  0.5507  3.3744  2.7598
  436WAT     H2 3550   9.515   7.643   2.657 -1.2859 -0.4785 -3.5103
  436WAT    EPW 3551   9.451   7.700   2.669  0.0224  0.5176 -0.1591
  437WAT      O 3552   1.441   9.868   5.699  0.2405 -0.1520  0.2940
  437WAT     H1 3553   1.536   9.874   5.698  0.4486 -2.4879 -0.2076
  437WAT     H2 3554   1.412   9.920   5.624  1.2300 -0.4812 -0.3350
  437WAT    EPW 3555   1.450   9.876   5.689  0.3985 -0.5031  0.1450
  438WAT      O 3556  10.189   1.731   8.970  0.1421  0.5240  0.0378
  438WAT     H1 3557  10.163   1.760   9.058 -0.5754  0.1268 -0.0365
  438WAT     H2 3558  10.222   1.643   8.982  0.9467  0.8215  0.0457
  438WAT    EPW 3559  10.190   1.723   8.983  0.1537  0.5107  0.0290
  439WAT      O 3560   2.009   8.462   3.407 -0.2363  0.0255  0.3104
  439WAT     H1 3561   1.925   8.437   3.367  0.4466 -0.7996 -0.6345
  439WAT     H2 3562   1.989   8.471   3.500 -1.2596 -0.6897  0.1778
  439WAT    EPW 3563   1.995   8.460   3.414 -0.2812 -0.1779  0.1683
  440WAT      O 3564   1.319   2.269   7.106  0.6430 -0.1625  0.9096
  440WAT     H1 3565   1.308   2.220   7.025  0.0903 -0.5953  1.2364
  440WAT     H2 3566   1.401   2.235   7.143  1.8059  1.2365 -0.2715
  440WAT    EPW 3567   1.329   2.258   7.100  0.7235 -0.0352  0.7970
  441WAT      O 3568   8.426   3.343   8.933  0.8689  0.1625 -0.2788
  441WAT     H1 3569   8.414   3.340   8.838 -0.7753 -0.2116 -0.0813
  441WAT     H2 3570   8.520   3.359   8.945  1.5542 -2.0597 -1.9508
  441WAT    EPW 3571   8.437   3.345   8.922  0.7429 -0.1800 -0.4735
  442WAT      O 3572   9.448   7.054   0.807 -0.0108  0.3644  0.4208
  442WAT     H1 3573   9.470   7.108   0.882  1.2472 -1.1527  1.1917
  442WAT     H2 3574   9.497   7.092   0.734 -0.7375  1.4502  0.4705
  442WAT    EPW 3575   9.457   7.066   0.807  0.0596  0.3078  0.5290
  443WAT      O 3576  10.235   8.927   0.956 -0.1299 -0.3925 -0.0816
  443WAT     H1 3577  10.197   9.013   0.975  2.5650  0.7550  0.5692
  443WAT     H2 3578  10.256   8.930   0.862  0.4312 -0.1118  0.0474
  443WAT    EPW 3579  10.233   8.938   0.946  0.2999 -0.2046  0.0213
  444WAT      O 3580   0.078   9.504   1.773 -0.1518  0.2230  0.5591
  444WAT     H1 3581  -0.014   9.528   1.780 -0.1752 -0.2135  2.0671
  444WAT     H2 3582   0.117   9.531   1.856  0.9792 -0.0153  0.1292
  444WAT    EPW 3583   0.071   9.511   1.784 -0.0057  0.1345  0.7013
  445WAT      O 3584   9.769   5.236   2.961  0.5896 -0.5561  0.2332
  445WAT     H1 3585   9.831   5.227   2.889  0.9767  1.2711  0.2668
  445WAT     H2 3586   9.824   5.246   3.039  0.1912 -1.5196  0.6480
  445WAT    EPW 3587   9.785   5.236   2.962  0.5884 -0.4423  0.2923
  446WAT      O 3588   9.163   9.333   2.606  0.0475  0.2847 -0.0859
  446WAT     H1 3589   9.188   9.364   2.692  0.9924  0.0101 -0.2528
  446WAT     H2 3590   9.088   9.275   2.622  0.8528 -0.5794  0.6778
  446WAT    EPW 3591   9.156   9.329   2.619  0.2789  0.1345 -0.0073
  447WAT      O 3592   0.931   9.039   0.822  0.4833  0.1012 -0.1308
  447WAT     H1 3593   0.929   9.071   0.913 -1.4577  2.1697 -0.8118
  447WAT     H2 3594   0.869   9.095   0.776 -1.4430 -3.2836 -1.9868
  447WAT    EPW 3595   0.923   9.051   0.828 -0.0267 -0.0725 -0.4654
  448WAT      O 3596   8.639   9.910   1.004  0.2977  0.4146 -0.4013
  448WAT     H1 3597   8.549   9.937   0.984 -0.6240 -2.3495 -0.3930
  448WAT     H2 3598   8.637   9.887   1.097  0.4156 -1.6267 -0.8642
  448WAT    EPW 3599   8.627   9.911   1.014  0.1917 -0.2193 -0.4613
  449WAT      O 3600   1.909   6.316   6.832 -0.0231 -0.1272 -0.6551
  449WAT     H1 3601   2.003   6.329   6.840 -0.2482  1.5484 -0.2756
  449WAT     H2 3602   1.873   6.405   6.833 -1.9729 -0.7181  3.6974
  449WAT    EPW 3603   1.917   6.329   6.833 -0.3099  0.0160 -0.0312
  450WAT      O 3604   4.418   2.046   6.733 -0.3549  0.7683  0.4711
  450WAT     H1 3605   4.478   2.034   6.659 -0.4768  3.2115 -0.1080
  450WAT     H2 3606   4.340   2.085   6.695 -1.7207 -0.8629  1.4746
  450WAT    EPW 3607   4.416   2.050   6.719 -0.5512  0.8754  0.5271
  451WAT      O 3608   8.230   6.973   0.672  0.2274 -0.2723  0.1317
  451WAT     H1 3609   8.318   6.955   0.705  0.4949 -0.9765 -0.9062
  451WAT     H2 3610   8.172   6.955   0.746  0.9690  0.6247  0.9670
  451WAT    EPW 3611   8.234   6.968   0.686  0.3605 -0.2470  0.1050
  452WAT      O 3612   8.008   6.709   0.171 -0.4056 -0.0462 -0.0973
  452WAT     H1 3613   8.079   6.680   0.115 -0.7654 -2.0424  0.3971
  452WAT     H2 3614   7.995   6.801   0.148  1.8267  0.1756 -0.6999
  452WAT    EPW 3615   8.015   6.717   0.161 -0.1578 -0.2801 -0.1116
  453WAT      O 3616   8.954   9.035   1.543 -0.5134 -0.4545  0.9736
  453WAT     H1 3617   9.049   9.042   1.542 -0.5385 -0.1789  0.5058
  453WAT     H2 3618   8.925   9.074   1.461 -1.0526 -0.2437  1.2553
  453WAT    EPW 3619   8.962   9.041   1.532 -0.5879 -0.3901  0.9490
  454WAT      O 3620   1.094   4.869   2.550  0.2165  0.0485  0.3376
  454WAT     H1 3621   1.147   4.813   2.493  1.7489  0.8678  0.9127
  454WAT     H2 3622   1.119   4.843   2.639 -0.9957 -0.1306  0.6522
  454WAT    EPW 3623   1.104   4.858   2.554  0.2587  0.1330  0.4549
  455WAT      O 3624   8.519   4.995   0.429 -0.1255  0.0638  0.0860
  455WAT     H1 3625   8.538   5.081   0.392 -3.0514  2.2256  2.9528
  455WAT     H2 3626   8.439   4.967   0.385 -0.3217 -0.1732  0.5833
  455WAT    EPW 3627   8.510   5.003   0.419 -0.5374  0.3176  0.5297
  456WAT      O 3628   2.901   0.203   2.758  1.3200 -0.4800  0.0599
  456WAT     H1 3629   2.957   0.262   2.809 -1.1845  1.1952  1.0761
  456WAT     H2 3630   2.867   0.258   2.687  0.0158 -1.0740  0.2008
  456WAT    EPW 3631   2.904   0.218   2.755  0.8178 -0.3374  0.2124
  457WAT      O 3632  10.185   8.419   2.287  0.1878 -0.6437  0.2872
  457WAT     H1 3633  10.275   8.425   2.321  1.1227  0.6010 -2.1450
  457WAT     H2 3634  10.146   8.504   2.308  1.2013  0.6663 -2.5533
  457WAT    EPW 3635  10.192   8.431   2.294  0.4444 -0.3066 -0.4083
  458WAT      O 3636   8.391   9.458   2.138  0.0661  0.0802 -0.1912
  458WAT     H1 3637   8.413   9.427   2.050  1.6016 -0.0157  0.2093
  458WAT     H2 3638   8.328   9.394   2.171  1.7214 -1.5945 -0.1131
  458WAT    EPW 3639   8.385   9.446   2.130  0.4864 -0.1535 -0.1280
  459WAT      O 3640  10.934   8.254   1.363 -0.7222 -0.4140 -0.8063
  459WAT     H1 3641  10.876   8.329   1.346  0.8059  0.9854 -0.1244
  459WAT     H2 3642  10.881   8.194   1.416 -1.3924  1.0717  0.2648
  459WAT    EPW 3643  10.919   8.256   1.367 -0.6089 -0.0334 -0.5751
  460WAT      O 3644  10.532   7.455   0.286  0.2180  0.0767  0.5024
  460WAT     H1 3645  10.581   7.449   0.368  2.2557 -3.1913 -0.7856
  460WAT     H2 3646  10.473   7.380   0.288  1.1760 -0.7841 -1.4958
  460WAT    EPW 3647  10.530   7.445   0.297  0.6132 -0.4678  0.0689
  461WAT      O 3648   1.670  10.169   3.194  0.5920 -0.1034  0.0141
  461WAT     H1 3649   1.698  10.154   3.104  0.5002 -1.6394  0.2073
  461WAT     H2 3650   1.581  10.203   3.186  1.0437  0.9838 -0.4946
  461WAT    EPW 3651   1.662  10.171   3.181  0.6394 -0.1626 -0.0275
  462WAT      O 3652   9.765  10.178   2.658 -0.1309  0.3879 -0.5159
  462WAT     H1 3653   9.848  10.136   2.638  0.5862  1.3234  0.3642
  462WAT     H2 3654   9.698  10.113   2.638  0.8284 -0.4170 -1.1153
  462WAT    EPW 3655   9.767  10.164   2.653  0.0901  0.4048 -0.4787
  463WAT      O 3656   7.228   0.202   8.154  0.2571  0.6468 -0.5888
  463WAT     H1 3657   7.254   0.113   8.134  1.4809  1.2055 -1.6378
  463WAT     H2 3658   7.173   0.195   8.232 -0.3738 -1.0936 -1.1520
  463WAT    EPW 3659   7.224   0.190   8.162  0.3352  0.4910 -0.8016
  464WAT      O 3660   3.022   0.849   5.522  0.6002 -0.3475  0.1277
  464WAT     H1 3661   3.095   0.846   5.460  1.2917 -1.7494  0.9627
  464WAT     H2 3662   2.976   0.766   5.509 -0.2010  0.0489  0.3889
  464WAT    EPW 3663   3.026   0.838   5.512  0.5858 -0.4801  0.2723
  465WAT      O 3664  10.545   6.797   1.367 -0.2692 -0.2569  0.2284
  465WAT     H1 3665  10.475   6.732   1.361 -0.7255  0.2003  0.5449
  465WAT     H2 3666  10.502   6.876   1.398 -0.1082  0.7910 -1.9798
  465WAT    EPW 3667  10.530   6.799   1.370 -0.3085 -0.0582 -0.0211
  466WAT      O 3668   8.878   5.250   7.658 -0.3200  0.3435 -0.3436
  466WAT     H1 3669   8.906   5.188   7.726  0.6360  3.6481  2.5795
  466WAT     H2 3670   8.785   5.230   7.645  0.1301 -2.2015 -0.2709
  466WAT    EPW 3671   8.870   5.239   7.665 -0.1340  0.4437  0.0515
  467WAT      O 3672   7.365   4.367   7.072 -0.2560  0.0639  0.6603
  467WAT     H1 3673   7.324   4.287   7.039  0.6193 -0.5374  0.9723
  467WAT     H2 3674   7.410   4.339   7.152  0.3656  0.7872  0.5753
  467WAT    EPW 3675   7.366   4.353   7.078 -0.0589  0.0799  0.6902
  468WAT      O 3676   6.980   5.460   3.634 -0.2793 -0.1967  0.0724
  468WAT     H1 3677   6.980   5.383   3.576 -1.9813  0.8198 -1.3762
  468WAT     H2 3678   6.899   5.507   3.612  0.8942  2.2361  0.6150
  468WAT    EPW 3679   6.969   5.456   3.623 -0.3490  0.2580 -0.0472
  469WAT      O 3680   9.895   9.590   0.441  0.8125  0.4100 -0.7191
  469WAT     H1 3681   9.881   9.685   0.436  3.1881  0.7791 -1.5042
  469WAT     H2 3682   9.964   9.573   0.377 -0.0144 -1.9754 -1.0633
  469WAT    EPW 3683   9.902   9.600   0.432  1.0166  0.1445 -0.8680
  470WAT      O 3684   3.078   1.943   4.529 -0.1168  0.8554 -0.1065
  470WAT     H1 3685   3.038   1.941   4.615  0.1066  0.5488 -0.0096
  470WAT     H2 3686   3.166   1.907   4.542  0.3189  1.8204 -0.2508
  470WAT    EPW 3687   3.085   1.938   4.542 -0.0299  0.9422 -0.1128
  471WAT      O 3688   5.613   0.261   5.139  0.1216  0.1832  0.2978
  471WAT     H1 3689   5.654   0.344   5.116  0.2014 -0.0069 -0.2707
  471WAT     H2 3690   5.525   0.285   5.168  1.1351  0.7686  3.1761
  471WAT    EPW 3691   5.607   0.275   5.140  0.2656  0.2353  0.6022
  472WAT      O 3692   3.161   6.338   3.412  0.6062 -0.4736  0.2886
  472WAT     H1 3693   3.161   6.433   3.424 -0.3046 -0.2944 -0.9224
  472WAT     H2 3694   3.237   6.307   3.462  0.7071  0.8429  0.9854
  472WAT    EPW 3695   3.171   6.346   3.420  0.4995 -0.2761  0.2208
  473WAT      O 3696   9.327   0.646   7.712 -0.0185  0.3927 -0.0476
  473WAT     H1 3697   9.253   0.638   7.651 -0.6798 -1.2694  0.8896
  473WAT     H2 3698   9.376   0.565   7.699 -0.4118 -0.1963  1.8872
  473WAT    EPW 3699   9.324   0.634   7.702 -0.1578  0.0958  0.3314
  474WAT      O 3700   2.970   0.410   0.517  0.4682  0.1045 -0.4120
  474WAT     H1 3701   3.032   0.338   0.530  1.6585  1.5258  2.5500
  474WAT     H2 3702   2.978   0.432   0.424  2.0441 -1.8142 -0.7995
  474WAT    EPW 3703   2.979   0.403   0.506  0.8332  0.0389 -0.0724
  475WAT      O 3704   8.932   8.712   1.617 -0.1327 -0.6605 -0.1111
  475WAT     H1 3705   8.922   8.798   1.576  1.4900 -0.0368  0.7391
  475WAT     H2 3706   8.977   8.729   1.699  0.5715 -2.3600 -0.1023
  475WAT    EPW 3707   8.936   8.726   1.622  0.1740 -0.8035  0.0021
  476WAT      O 3708   2.839   0.273   8.521  0.4951  0.4426  0.2855
  476WAT     H1 3709   2.880   0.311   8.599  0.2285  0.7588  0.2767
  476WAT     H2 3710   2.784   0.344   8.487  2.0526  1.0038 -1.2851
  476WAT    EPW 3711   2.837   0.288   8.527  0.6653  0.5583  0.0772
  477WAT      O 3712   1.022   5.452   4.587  0.0384  0.3618  0.4289
  477WAT     H1 3713   1.057   5.452   4.497 -2.1588 -1.2691 -0.5312
  477WAT     H2 3714   0.976   5.535   4.595 -2.5315 -0.7552 -1.2674
  477WAT    EPW 3715   1.021   5.463   4.576 -0.5904 -0.0005  0.0787
  478WAT      O 3716   8.457   4.243   8.195 -0.4999 -0.7362  0.9937
  478WAT     H1 3717   8.398   4.190   8.248 -2.0866  0.9866  1.0698
  478WAT     H2 3718   8.408   4.262   8.115 -0.6504  1.7548  1.5813
  478WAT    EPW 3719   8.443   4.239   8.192 -0.7286 -0.1805  1.0810
  479WAT      O 3720   0.516   4.714   1.080 -0.0261  0.3119 -0.2499
  479WAT     H1 3721   0.526   4.663   1.000  0.9883  1.8162 -1.1258
  479WAT     H2 3722   0.505   4.648   1.149  0.1165 -1.0374 -1.4701
  479WAT    EPW 3723   0.516   4.698   1.079  0.1265  0.3326 -0.5264
  480WAT      O 3724   5.783   0.767   0.796 -0.4236  0.0697 -0.0155
  480WAT     H1 3725   5.765   0.787   0.888 -0.3941  2.2085 -0.4264
  480WAT     H2 3726   5.739   0.836   0.747 -0.1638 -0.8419 -1.6077
  480WAT    EPW 3727   5.775   0.779   0.802 -0.3855  0.2316 -0.2797
  481WAT      O 3728   2.361   5.916   3.710 -0.0096 -0.1085 -0.4039
  481WAT     H1 3729   2.284   5.868   3.680  0.2565 -1.4180  0.8628
  481WAT     H2 3730   2.396   5.958   3.632 -0.6785 -1.4086 -1.4368
  481WAT    EPW 3731   2.355   5.915   3.696 -0.0627 -0.4528 -0.3730
  482WAT      O 3732   9.377   7.397   2.328  0.0229  0.8407 -0.2229
  482WAT     H1 3733   9.462   7.419   2.365  0.4893 -1.3086  0.0981
  482WAT     H2 3734   9.358   7.469   2.267  1.8560  1.5744  0.0129
  482WAT    EPW 3735   9.386   7.409   2.325  0.3266  0.6542 -0.1496
  483WAT      O 3736   7.093   5.752   1.857 -0.3150  0.2321 -0.2431
  483WAT     H1 3737   7.164   5.809   1.827  0.8666 -1.9809 -1.9381
  483WAT     H2 3738   7.122   5.724   1.944  0.2830  0.3132 -0.4078
  483WAT    EPW 3739   7.107   5.756   1.865 -0.0803 -0.0491 -0.4884
  484WAT      O 3740   0.233   6.688   5.348  0.0704  0.1962  0.9268
  484WAT     H1 3741   0.219   6.757   5.284 -4.4435 -1.6118 -0.4746
  484WAT     H2 3742   0.269   6.615   5.297 -1.0809 -0.3955  0.9104
  484WAT    EPW 3743   0.236   6.687   5.333 -0.6768 -0.1204  0.7398
  485WAT      O 3744   1.092  10.198   1.095  0.0638  0.1201  0.2822
  485WAT     H1 3745   1.092  10.292   1.112  1.3279 -0.3586  3.7290
  485WAT     H2 3746   1.006  10.168   1.125  0.9922 -0.2302  2.8232
  485WAT    EPW 3747   1.081  10.206   1.101  0.3530  0.0110  1.0720
  486WAT      O 3748   8.775   4.447   0.203  0.1728  0.0014 -0.5137
  486WAT     H1 3749   8.844   4.396   0.161  1.9926  1.7899  0.1406
  486WAT     H2 3750   8.741   4.503   0.134 -2.2641 -2.3607 -1.3935
  486WAT    EPW 3751   8.779   4.448   0.189  0.0916 -0.0744 -0.5434
  487WAT      O 3752   8.030   2.426   7.534 -0.1110 -0.3294  0.1982
  487WAT     H1 3753   8.085   2.444   7.610  1.6881 -0.9714 -0.8657
  487WAT     H2 3754   8.088   2.443   7.459 -1.8975  0.5800 -1.0539
  487WAT    EPW 3755   8.045   2.431   7.534 -0.1092 -0.2941 -0.1070
  488WAT      O 3756   9.083   7.009   2.780 -0.1432  0.0044  0.1620
  488WAT     H1 3757   9.097   6.948   2.707 -0.0508 -0.9858  0.9912
  488WAT     H2 3758   9.090   7.096   2.740  0.1870 -0.5186 -0.9554
  488WAT    EPW 3759   9.086   7.012   2.765 -0.0873 -0.1953  0.1241
  489WAT      O 3760   8.009   5.572   0.525  0.1490 -0.3433  0.1596
  489WAT     H1 3761   8.028   5.635   0.594 -0.8333 -1.5211  1.5688
  489WAT     H2 3762   8.002   5.624   0.446 -2.3019  1.5953  1.5300
  489WAT    EPW 3763   8.011   5.587   0.524 -0.3037 -0.2429  0.5262
  490WAT      O 3764   9.790   3.517   8.087  0.3299 -0.1375  0.4569
  490WAT     H1 3765   9.815   3.532   7.996  1.3352 -2.0900  0.3599
  490WAT     H2 3766   9.819   3.596   8.133  1.4326  0.1162 -0.6285
  490WAT    EPW 3767   9.797   3.530   8.081  0.6080 -0.3616  0.3009
  491WAT      O 3768   3.000   7.389   0.568  0.2009  0.4087  0.4780
  491WAT     H1 3769   2.982   7.330   0.494  2.6953 -1.2364  1.0452
  491WAT     H2 3770   2.927   7.375   0.628  0.1200 -1.2449  0.0442
  491WAT    EPW 3771   2.988   7.379   0.566  0.5192 -0.0267  0.4956
  492WAT      O 3772   1.190   7.185   1.040  0.3584 -0.1176  0.5041
  492WAT     H1 3773   1.104   7.179   0.999  0.8908  0.7313 -0.7901
  492WAT     H2 3774   1.219   7.094   1.049  0.7495 -0.3396 -2.2229
  492WAT    EPW 3775   1.182   7.172   1.036  0.4801 -0.0346 -0.0263
  493WAT      O 3776   5.508   1.306   5.716 -0.4033 -0.7635 -0.3035
  493WAT     H1 3777   5.587   1.252   5.709  0.3897  0.2773  0.3467
  493WAT     H2 3778   5.437   1.246   5.696  0.3361 -2.3918  1.5556
  493WAT    EPW 3779   5.509   1.291   5.712 -0.2015 -0.8410  0.0272
  494WAT      O 3780   0.441   9.245   1.501 -0.2176  0.4945 -0.1540
  494WAT     H1 3781   0.410   9.300   1.573  0.0447 -1.4300  1.5129
  494WAT     H2 3782   0.536   9.255   1.502 -0.1783  0.0783  0.0774
  494WAT    EPW 3783   0.449   9.254   1.510 -0.1778  0.1855  0.0964
  495WAT      O 3784  10.006   9.588   3.365  0.1022  0.2639 -0.8272
  495WAT     H1 3785   9.981   9.620   3.452  0.4314  0.5246 -0.8278
  495WAT     H2 3786  10.093   9.551   3.377  0.0487  0.0782 -0.9972
  495WAT    EPW 3787  10.014   9.587   3.378  0.1388  0.2737 -0.8497
  496WAT      O 3788   7.797   5.359   2.268 -0.1755  0.1548 -0.0415
  496WAT     H1 3789   7.865   5.362   2.335 -1.7154  1.7602  1.5701
  496WAT     H2 3790   7.730   5.302   2.305  0.1132 -1.1822 -1.4856
  496WAT    EPW 3791   7.797   5.352   2.282 -0.3405  0.1900 -0.0194
  497WAT      O 3792  10.326   7.369   6.437 -0.1943  0.3248  0.1063
  497WAT     H1 3793  10.347   7.355   6.529  2.2813 -1.2719 -0.5978
  497WAT     H2 3794  10.411   7.389   6.397 -1.1981  0.8393 -1.8729
  497WAT    EPW 3795  10.340   7.370   6.444  0.0000  0.1822 -0.2472
  498WAT      O 3796   8.884   5.425   1.841 -0.4565 -0.8945  0.5044
  498WAT     H1 3797   8.847   5.514   1.839 -1.0574 -1.1469 -0.0472
  498WAT     H2 3798   8.918   5.415   1.930 -2.2678 -0.8619  1.2334
  498WAT    EPW 3799   8.884   5.436   1.852 -0.7749 -0.9234  0.5278
  499WAT      O 3800   8.757   6.074   0.923 -0.5048 -0.4528  0.0081
  499WAT     H1 3801   8.749   6.064   0.828 -3.2315 -0.7820  0.1915
  499WAT     H2 3802   8.819   6.006   0.949  2.6692  1.5063 -1.7464
  499WAT    EPW 3803   8.764   6.064   0.914 -0.4454 -0.2377 -0.1991
  500WAT      O 3804   1.634   5.962   3.582 -0.7168 -0.2386  0.2641
  500WAT     H1 3805   1.640   5.867   3.577  0.5055 -0.1209 -1.2419
  500WAT     H2 3806   1.603   5.979   3.670 -0.1012 -2.0041  0.8745
  500WAT    EPW 3807   1.631   5.952   3.593 -0.4744 -0.4559  0.1462
  501WAT      O 3808   1.265   8.017   3.132 -0.6395  0.3237 -0.5016
  501WAT     H1 3809   1.310   7.986   3.211 -1.2810  2.7935  0.9438
  501WAT     H2 3810   1.188   7.960   3.125  0.1848 -0.8705 -0.2450
  501WAT    EPW 3811   1.261   8.005   3.142 -0.6154  0.4921 -0.2772
  502WAT      O 3812  10.882   9.561   3.278  0.6799  0.2388 -0.8124
  502WAT     H1 3813  10.969   9.585   3.248  0.9453 -0.2141 -0.4181
  502WAT     H2 3814  10.895   9.479   3.326  0.1273  0.4554 -0.2728
  502WAT    EPW 3815  10.895   9.554   3.281  0.6418  0.2079 -0.6893
  503WAT      O 3816   1.605   8.258   0.415 -0.2365  0.0678 -1.0841
  503WAT     H1 3817   1.550   8.294   0.484  0.5097  0.4752 -0.6974
  503WAT     H2 3818   1.565   8.172   0.396  2.2454 -2.4162  3.2881
  503WAT    EPW 3819   1.592   8.251   0.422  0.1893 -0.2060 -0.4564
  504WAT      O 3820   8.702   4.258   7.672 -0.5083 -0.5096 -0.9654
  504WAT     H1 3821   8.668   4.345   7.696  0.0943 -0.4032 -0.4741
  504WAT     H2 3822   8.781   4.249   7.724 -0.3756 -1.2118 -1.2904
  504WAT    EPW 3823   8.708   4.268   7.682 -0.4110 -0.5879 -0.9434
  505WAT      O 3824   4.216   1.746   0.145 -0.0566 -0.0092  0.0387
  505WAT     H1 3825   4.221   1.748   0.241 -1.5783 -3.2872  0.3229
  505WAT     H2 3826   4.290   1.800   0.116  0.7476  0.6814  3.0442
  505WAT    EPW 3827   4.226   1.753   0.154 -0.1512 -0.3505  0.4726
  506WAT      O 3828   7.661  10.371   2.414 -0.4202 -0.4090  0.5920
  506WAT     H1 3829   7.584  10.416   2.381 -0.8660  0.2139  2.3724
  506WAT     H2 3830   7.680  10.414   2.498  1.1718 -1.3059  0.7277
  506WAT    EPW 3831   7.653  10.382   2.421 -0.2690 -0.4452  0.8447
  507WAT      O 3832   8.021   0.841   8.699  0.4802  0.1828 -0.1134
  507WAT     H1 3833   8.036   0.930   8.731  0.1463 -0.2807  1.3979
  507WAT     H2 3834   7.973   0.853   8.617  1.4222  1.4155 -0.5181
  507WAT    EPW 3835   8.017   0.854   8.693  0.5603  0.2842  0.0324
  508WAT      O 3836   2.963   6.844   0.916  1.1423  0.8627 -0.2348
  508WAT     H1 3837   2.950   6.899   0.994 -0.2164  0.6544 -0.2750
  508WAT     H2 3838   3.017   6.897   0.858  0.6098  1.8082  0.0958
  508WAT    EPW 3839   2.968   6.859   0.919  0.8929  0.9596 -0.1965
  509WAT      O 3840   6.503   0.688   0.117  0.7812  0.3505 -0.1147
  509WAT     H1 3841   6.575   0.685   0.054  0.6672  0.5279 -0.2549
  509WAT     H2 3842   6.485   0.597   0.138  1.7478  0.3354  0.7182
  509WAT    EPW 3843   6.510   0.676   0.111  0.8936  0.3719 -0.0234
  510WAT      O 3844   8.960   8.952   0.460 -0.0438 -0.3909 -0.7185
  510WAT     H1 3845   8.981   8.905   0.541 -1.6786 -1.4611 -0.8810
  510WAT     H2 3846   9.042   8.996   0.437  0.7644 -0.9289  0.9279
  510WAT    EPW 3847   8.973   8.952   0.468 -0.1526 -0.6032 -0.5227
  511WAT      O 3848   2.985   6.206   2.605  0.0768 -0.0719  0.2098
  511WAT     H1 3849   3.005   6.153   2.682  4.0269 -1.9902 -1.8633
  511WAT     H2 3850   3.000   6.148   2.531  0.2699  2.7021 -2.1001
  511WAT    EPW 3851   2.990   6.192   2.606  0.6232  0.0410 -0.3682
  512WAT      O 3852   0.849  10.138   1.226 -0.6871  0.3625  0.0039
  512WAT     H1 3853   0.788  10.079   1.270 -0.0227  1.1990  2.1571
  512WAT     H2 3854   0.817  10.226   1.247  1.2199  0.8304  1.2192
  512WAT    EPW 3855   0.837  10.142   1.235 -0.3480  0.5350  0.4482
  513WAT      O 3856   1.145   9.004   3.385  0.5176  0.3114  0.0764
  513WAT     H1 3857   1.137   8.959   3.301  0.3804 -1.4707  0.9943
  513WAT     H2 3858   1.239   9.014   3.398  0.6280 -1.2181  0.5934
  513WAT    EPW 3859   1.156   8.999   3.376  0.5141 -0.1254  0.2656
  514WAT      O 3860   1.566   4.482   4.538 -0.3340  0.1413 -0.1669
  514WAT     H1 3861   1.475   4.451   4.539  0.2141 -1.6018 -0.2447
  514WAT     H2 3862   1.599   4.464   4.626 -0.2321  1.3383  0.0479
  514WAT    EPW 3863   1.558   4.475   4.549 -0.2482  0.0694 -0.1488
  515WAT      O 3864   2.474   0.090   1.372  0.0376 -0.3210  0.3904
  515WAT     H1 3865   2.471   0.125   1.461 -0.7066  2.6259 -0.6605
  515WAT     H2 3866   2.567   0.093   1.348 -0.0612  1.9500  0.0599
  515WAT    EPW 3867   2.486   0.095   1.380 -0.0736  0.3672  0.2082
  516WAT      O 3868   7.039   1.138   1.808  0.4624  0.3072  0.2118
  516WAT     H1 3869   6.986   1.097   1.876 -1.4836 -1.1396 -2.0302
  516WAT     H2 3870   7.094   1.068   1.773 -0.8752  0.1597 -1.7751
  516WAT    EPW 3871   7.039   1.124   1.812  0.0296  0.0969 -0.3460
  517WAT      O 3872   7.540   6.019   8.800  0.1964  0.2138  0.1072
  517WAT     H1 3873   7.451   6.036   8.771 -0.2047  0.7481  1.5541
  517WAT     H2 3874   7.556   6.085   8.867  1.5751 -0.0706  0.0844
  517WAT    EPW 3875   7.530   6.030   8.805  0.3254  0.2465  0.2942
  518WAT      O 3876  10.006   0.659   1.311 -0.1053 -0.1926  0.1196
  518WAT     H1 3877   9.965   0.732   1.358  1.9832  1.2606 -0.1781
  518WAT     H2 3878  10.071   0.700   1.254  1.7041 -2.3314  0.4973
  518WAT    EPW 3879  10.009   0.674   1.310  0.4086 -0.2831  0.1302
  519WAT      O 3880   8.177   7.164   8.378  0.0760  0.3464  0.5288
  519WAT     H1 3881   8.127   7.087   8.349  0.2954  0.9561 -1.7007
  519WAT     H2 3882   8.220   7.195   8.298  1.5976  1.6205  1.7912
  519WAT    EPW 3883   8.176   7.158   8.364  0.3052  0.5949  0.4010
  520WAT      O 3884   5.968   0.040   4.406  0.0478 -0.0712 -0.1820
  520WAT     H1 3885   5.903   0.110   4.408 -0.7574 -0.8392  1.5536
  520WAT     H2 3886   5.928  -0.033   4.452  2.2500 -0.4595  1.3027
  520WAT    EPW 3887   5.954   0.040   4.412  0.2320 -0.2237  0.2425
  521WAT      O 3888   9.495   3.060   8.200 -0.0857  0.7560  1.3965
  521WAT     H1 3889   9.430   3.130   8.197 -0.0071  0.8655  2.1014
  521WAT     H2 3890   9.484   3.021   8.286 -0.4215 -0.3792  0.8603
  521WAT    EPW 3891   9.485   3.064   8.211 -0.1197  0.6206  1.4191
  522WAT      O 3892   8.144   4.522   7.762 -0.5739  0.3835 -0.2359
  522WAT     H1 3893   8.158   4.590   7.696  2.2577 -0.1338 -0.2641
  522WAT     H2 3894   8.068   4.474   7.730 -0.9898  1.8600 -1.6215
  522WAT    EPW 3895   8.136   4.525   7.749 -0.2551  0.5100 -0.4220
  523WAT      O 3896   3.714   0.893   0.596 -0.4650 -0.2686 -0.6143
  523WAT     H1 3897   3.649   0.958   0.623  0.0639 -0.0758  0.2507
  523WAT     H2 3898   3.682   0.810   0.633  0.2637 -0.0031  0.6729
  523WAT    EPW 3899   3.702   0.890   0.605 -0.2992 -0.2081 -0.3305
  524WAT      O 3900   0.674   8.491   0.084  0.1441  0.0996 -0.0879
  524WAT     H1 3901   0.613   8.521   0.018 -0.5847 -1.2363 -0.0542
  524WAT     H2 3902   0.739   8.561   0.091 -0.7736  1.0519 -0.8976
  524WAT    EPW 3903   0.675   8.504   0.076 -0.0730  0.0491 -0.1903
  525WAT      O 3904   4.952   0.173   0.381 -1.1445 -0.1713 -0.6616
  525WAT     H1 3905   4.985   0.262   0.368 -1.4388  0.1723  0.8091
  525WAT     H2 3906   4.985   0.147   0.467 -1.3130 -1.3780 -0.9420
  525WAT    EPW 3907   4.961   0.182   0.391 -1.2057 -0.2851 -0.5046
  526WAT      O 3908  10.457  10.226   3.975  0.2648 -0.2911 -0.1418
  526WAT     H1 3909  10.459  10.160   4.045  1.2797 -0.5111 -0.3755
  526WAT     H2 3910  10.411  10.301   4.015 -0.4812 -0.9543  0.2731
  526WAT    EPW 3911  10.451  10.227   3.990  0.2999 -0.4082 -0.1178
  527WAT      O 3912   5.648   3.238   7.937 -0.2364 -0.6573  0.1887
  527WAT     H1 3913   5.681   3.183   7.865  1.4085 -1.5321  1.5481
  527WAT     H2 3914   5.723   3.247   7.996 -1.7307 -0.5491  2.1556
  527WAT    EPW 3915   5.663   3.232   7.935 -0.2165 -0.7583  0.6273
  528WAT      O 3916   8.177   4.226   8.256 -0.3987  0.2989  0.0383
  528WAT     H1 3917   8.085   4.237   8.280 -0.0462  0.7605  1.2678
  528WAT     H2 3918   8.217   4.310   8.277  0.8928 -0.8315  2.5154
  528WAT    EPW 3919   8.170   4.238   8.262 -0.1817  0.2108  0.5274
  529WAT      O 3920   1.190   9.072   1.786  0.1699 -0.4950  0.0734
  529WAT     H1 3921   1.113   9.031   1.823 -2.1412  1.9609 -1.6543
  529WAT     H2 3922   1.174   9.074   1.692  2.6068 -0.3508 -0.4107
  529WAT    EPW 3923   1.178   9.067   1.779  0.1865 -0.1516 -0.2183
  530WAT      O 3924   7.826   6.005   8.872  0.1538  0.9067 -0.0910
  530WAT     H1 3925   7.741   5.967   8.850 -0.1304  2.1274 -1.2265
  530WAT     H2 3926   7.884   5.978   8.801  1.4818 -2.0909  1.9411
  530WAT    EPW 3927   7.823   5.997   8.860  0.2916  0.6723  0.0272
  531WAT      O 3928   0.336  10.150   1.769 -0.1547  0.0907 -0.4894
  531WAT     H1 3929   0.257  10.159   1.822 -0.0376 -0.5877 -0.1859
  531WAT     H2 3930   0.357  10.056   1.773  1.1030  0.3679  0.0747
  531WAT    EPW 3931   0.328  10.139   1.777  0.0266  0.0377 -0.3750
  532WAT      O 3932   9.856   9.471   1.193 -0.3566  0.7220 -0.2024
  532WAT     H1 3933   9.951   9.467   1.193 -0.2820 -1.6037  3.2816
  532WAT     H2 3934   9.835   9.531   1.265 -1.3144 -2.1670  2.1439
  532WAT    EPW 3935   9.866   9.478   1.203 -0.4735  0.0343  0.5665
  533WAT      O 3936   1.647   9.551   1.867  0.8376 -0.2579 -0.0050
  533WAT     H1 3937   1.612   9.482   1.811  0.6151  0.0101 -0.2017
  533WAT     H2 3938   1.742   9.546   1.855  0.7138  1.4199 -2.4032
  533WAT    EPW 3939   1.655   9.542   1.858  0.7919 -0.0010 -0.3472
  534WAT      O 3940   3.502   0.677   2.119 -0.1453  0.7509  0.0515
  534WAT     H1 3941   3.447   0.605   2.091 -0.8047  1.7458 -1.3653
  534WAT     H2 3942   3.475   0.695   2.209 -0.0004 -0.6972  0.4053
  534WAT    EPW 3943   3.491   0.670   2.127 -0.2133  0.6911 -0.0885
  535WAT      O 3944   9.002   1.362   8.104  0.1040 -0.1292 -0.5620
  535WAT     H1 3945   9.033   1.291   8.047 -0.3550 -1.1097  0.3734
  535WAT     H2 3946   9.053   1.438   8.077  1.6677 -1.1517 -0.6167
  535WAT    EPW 3947   9.013   1.363   8.093  0.2494 -0.3935 -0.4458
  536WAT      O 3948   0.590   9.537   1.146  0.2717 -0.1812 -0.1906
  536WAT     H1 3949   0.558   9.627   1.147  0.4941 -0.0467  2.4165
  536WAT     H2 3950   0.513   9.484   1.131 -0.4308  0.3484  1.3372
  536WAT    EPW 3951   0.576   9.542   1.144  0.2083 -0.0930  0.3548
  537WAT      O 3952   3.137   8.956   1.478  0.2656  0.0020 -0.4712
  537WAT     H1 3953   3.065   9.008   1.513 -0.6397 -2.4713  1.6068
  537WAT     H2 3954   3.164   8.900   1.551  4.3590  0.7991 -1.1365
  537WAT    EPW 3955   3.131   8.956   1.492  0.6862 -0.2189 -0.2849
  538WAT      O 3956   5.791   0.564   2.785 -1.0831  0.4367  0.4570
  538WAT     H1 3957   5.712   0.608   2.816 -0.6969  2.5363 -1.2275
  538WAT     H2 3958   5.861   0.629   2.799  0.0925 -0.8150  0.5955
  538WAT    EPW 3959   5.790   0.579   2.791 -0.8769  0.5485  0.2531
  539WAT      O 3960   3.381   9.690   1.076 -0.0744 -0.1809 -0.2970
  539WAT     H1 3961   3.372   9.633   1.152  0.4083  2.0804  1.5363
  539WAT     H2 3962   3.422   9.634   1.010 -0.4119 -2.1860  1.0926
  539WAT    EPW 3963   3.385   9.675   1.077 -0.0552 -0.1473  0.1280
  540WAT      O 3964   6.096   2.906   8.079 -0.0124 -0.1915  0.2052
  540WAT     H1 3965   6.162   2.857   8.030  0.5449  0.1866  0.5497
  540WAT     H2 3966   6.142   2.986   8.106 -0.4624 -0.1562  0.8866
  540WAT    EPW 3967   6.111   2.910   8.076  0.0021 -0.1370  0.3409
  541WAT      O 3968   1.048   9.369   0.276 -1.0165  0.2297 -0.6918
  541WAT     H1 3969   0.992   9.368   0.354  2.0883 -0.3930  1.7433
  541WAT     H2 3970   1.062   9.276   0.256 -0.9076  0.3779 -1.3175
  541WAT    EPW 3971   1.042   9.357   0.284 -0.5926  0.1674 -0.4532
  542WAT      O 3972   0.389   5.408   1.787  0.1730  0.5575  0.0869
  542WAT     H1 3973   0.417   5.347   1.718 -1.2022 -1.5075  1.2448
  542WAT     H2 3974   0.400   5.495   1.748  2.1293 -0.3819 -1.6901
  542WAT    EPW 3975   0.394   5.411   1.772  0.2496  0.1612  0.0052
  543WAT      O 3976   1.195   8.316   1.126 -0.7330  0.8104 -0.1856
  543WAT     H1 3977   1.140   8.371   1.070 -2.6770 -1.3935 -0.6356
  543WAT     H2 3978   1.257   8.376   1.166  0.4813  2.6379 -4.3192
  543WAT    EPW 3979   1.196   8.331   1.124 -0.8293  0.7606 -0.7902
  544WAT      O 3980  10.002   4.821   8.227 -0.2028  0.2764  0.1638
  544WAT     H1 3981   9.990   4.743   8.281 -0.2737  0.2693  0.1377
  544WAT     H2 3982   9.940   4.809   8.155 -2.0901  1.5824  1.4807
  544WAT    EPW 3983   9.992   4.809   8.224 -0.4611  0.4480  0.3333
  545WAT      O 3984   4.838   9.196   0.126  0.7918 -0.3632  0.0536
  545WAT     H1 3985   4.912   9.136   0.140  0.6849 -0.4075  0.4358
  545WAT     H2 3986   4.812   9.180   0.036 -0.6775 -2.5308  0.7781
  545WAT    EPW 3987   4.844   9.186   0.116  0.5839 -0.6547  0.1996
  546WAT      O 3988   7.763  10.326   3.465 -0.1850  0.2917  0.3059
  546WAT     H1 3989   7.796  10.356   3.549  2.2696  0.9013 -0.7961
  546WAT     H2 3990   7.821  10.254   3.440 -1.2066 -0.2414 -0.6560
  546WAT    EPW 3991   7.775  10.320   3.473  0.0038  0.3023  0.0336
  547WAT      O 3992   0.516   9.392   1.995  0.1921  0.6912 -0.0890
  547WAT     H1 3993   0.479   9.475   2.026 -0.8515  1.5202 -3.1901
  547WAT     H2 3994   0.606   9.394   2.027 -0.6304  1.5814  2.4012
  547WAT    EPW 3995   0.523   9.403   2.003 -0.0540  0.9179 -0.1696
  548WAT      O 3996   4.845   0.121   1.406  0.0497 -0.1952  0.2294
  548WAT     H1 3997   4.899   0.181   1.457 -2.0258  1.4201  0.6921
  548WAT     H2 3998   4.842   0.160   1.319 -0.9273  0.1543  0.4058
  548WAT    EPW 3999   4.851   0.134   1.401 -0.3526  0.0639  0.3137
  549WAT      O 4000   6.499   0.743   0.836 -0.6138  0.0397 -0.1998
  549WAT     H1 4001   6.549   0.667   0.865 -1.1495 -0.9157 -1.7028
  549WAT     H2 4002   6.472   0.786   0.918  1.1039 -0.4210  0.6463
  549WAT    EPW 4003   6.502   0.739   0.851 -0.4580 -0.1471 -0.2865
  550WAT      O 4004   5.774   0.023   3.154  0.1764  0.2125  0.4535
  550WAT     H1 4005   5.696   0.078   3.152 -0.7903 -1.0844  1.0935
  550WAT     H2 4006   5.833   0.067   3.215 -1.0044  0.0412  1.7807
  550WAT    EPW 4007   5.772   0.036   3.162 -0.1070  0.0191  0.7130
  551WAT      O 4008   2.175   9.602   3.303  0.3444 -0.5028 -0.9530
  551WAT     H1 4009   2.171   9.634   3.393  2.0169 -0.5631 -0.8254
  551WAT     H2 4010   2.250   9.543   3.302  0.2043 -0.6961 -2.3335
  551WAT    EPW 4011   2.185   9.598   3.315  0.5467 -0.5364 -1.1182
  552WAT      O 4012   0.092   0.786   0.155  0.2378  0.7385  0.4446
  552WAT     H1 4013   0.026   0.734   0.201 -1.0907  1.5250 -0.5020
  552WAT     H2 4014   0.133   0.839   0.224 -0.2023  0.3290  1.0311
  552WAT    EPW 4015   0.088   0.786   0.170  0.0046  0.7883  0.3971
  553WAT      O 4016   1.993   8.632   2.264 -0.3835  0.3998 -0.1381
  553WAT     H1 4017   1.972   8.540   2.247  1.0742 -0.3770  1.8596
  553WAT     H2 4018   2.086   8.640   2.246  0.8340  0.0132  4.5367
  553WAT    EPW 4019   2.002   8.621   2.260 -0.0306  0.2465  0.7421
  554WAT      O 4020   8.229   9.259   3.245 -0.1985 -0.0744  0.4253
  554WAT     H1 4021   8.297   9.297   3.188 -0.9766  1.0079  0.1928
  554WAT     H2 4022   8.181   9.200   3.187 -1.7002  1.8595 -0.4189
  554WAT    EPW 4023   8.232   9.257   3.230 -0.4992  0.3238  0.2832
  555WAT      O 4024   3.985   9.361   4.095  1.4083  0.0506 -0.4395
  555WAT     H1 4025   4.047   9.389   4.028  2.2678 -0.2682  0.2024
  555WAT     H2 4026   3.902   9.353   4.049  1.2583  2.8917 -0.8102
  555WAT    EPW 4027   3.983   9.363   4.080  1.5018  0.3834 -0.4036
  556WAT      O 4028   0.639   4.693   2.952  0.0403 -0.3415 -0.4089
  556WAT     H1 4029   0.679   4.698   3.039  2.8497  0.8293 -1.6712
  556WAT     H2 4030   0.638   4.599   2.932  0.5506 -0.5194  0.3548
  556WAT    EPW 4031   0.644   4.681   2.961  0.4781 -0.2108 -0.4747
  557WAT      O 4032   8.821   1.772   8.099 -0.6665 -0.1052  0.3322
  557WAT     H1 4033   8.761   1.841   8.073 -1.9917 -1.2488  0.2057
  557WAT     H2 4034   8.819   1.773   8.195  1.1049  1.4812  0.4089
  557WAT    EPW 4035   8.813   1.781   8.108 -0.6080 -0.0468  0.3252
  558WAT      O 4036   2.183   7.920   0.415  0.1102 -0.0126 -0.4226
  558WAT     H1 4037   2.272   7.897   0.389 -1.0662 -1.8712 -3.3379
  558WAT     H2 4038   2.180   8.015   0.407  1.1969 -0.0974 -2.8254
  558WAT    EPW 4039   2.194   7.929   0.410  0.0983 -0.2692 -1.1240
  559WAT      O 4040   1.280   9.579   1.494  0.0539  0.2233  0.1346
  559WAT     H1 4041   1.339   9.617   1.559  0.4221  1.2926 -0.8137
  559WAT     H2 4042   1.196   9.622   1.510 -0.1556 -0.3612  0.6449
  559WAT    EPW 4043   1.276   9.589   1.505  0.0748  0.2875  0.0768
  560WAT      O 4044   9.164   6.995   5.011 -0.3002 -0.3568  0.3831
  560WAT     H1 4045   9.221   7.019   4.937 -0.6090 -0.2746  0.1738
  560WAT     H2 4046   9.160   6.899   5.008 -2.3663 -0.2751 -1.2624
  560WAT    EPW 4047   9.171   6.986   5.001 -0.6142 -0.3355  0.1383
  561WAT      O 4048   7.940   9.111   8.178  0.1967  0.2566 -0.2066
  561WAT     H1 4049   7.870   9.048   8.159 -0.5768  0.5091  1.6133
  561WAT     H2 4050   7.913   9.153   8.260  3.2498 -0.7803  1.4918
  561WAT    EPW 4051   7.927   9.108   8.186  0.4971  0.1531  0.2580
  562WAT      O 4052   0.531   7.342   3.800 -0.1224  0.2664  0.7112
  562WAT     H1 4053   0.613   7.371   3.840  0.1687  0.0188  0.3050
  562WAT     H2 4054   0.558   7.304   3.716 -0.4348 -1.5761  1.4113
  562WAT    EPW 4055   0.545   7.341   3.794 -0.1252 -0.0093  0.7499
  563WAT      O 4056   1.850   6.433   1.668  0.1616  0.2349  0.0876
  563WAT     H1 4057   1.846   6.429   1.573 -2.9998 -0.3533  0.1457
  563WAT     H2 4058   1.848   6.526   1.689 -0.4422  0.3338 -0.4012
  563WAT    EPW 4059   1.849   6.444   1.658 -0.3350  0.1707  0.0308
  564WAT      O 4060   2.624   4.256   4.015  0.0365  0.1721  0.0008
  564WAT     H1 4061   2.629   4.326   4.080  1.0421 -0.6577  0.8581
  564WAT     H2 4062   2.689   4.279   3.950 -1.0512  1.0648 -0.8136
  564WAT    EPW 4063   2.633   4.268   4.015  0.0256  0.1807  0.0064
  565WAT      O 4064   8.009   3.262   8.546 -0.4932 -0.4917  0.2885
  565WAT     H1 4065   8.084   3.286   8.599 -1.1603 -0.7405  1.3730
  565WAT     H2 4066   7.986   3.343   8.500 -0.2207 -0.1325  0.7777
  565WAT    EPW 4067   8.016   3.276   8.547 -0.5455 -0.4772  0.4959
  566WAT      O 4068   4.476   1.798   1.353 -0.0406 -0.2671  0.2247
  566WAT     H1 4069   4.557   1.848   1.342 -0.5640  0.6631  0.4638
  566WAT     H2 4070   4.499   1.709   1.326  1.4683 -0.3823  1.7359
  566WAT    EPW 4071   4.490   1.793   1.348  0.0896 -0.1596  0.4556
  567WAT      O 4072   2.029   9.928   3.873  0.5550  0.0990 -0.0382
  567WAT     H1 4073   1.992  10.005   3.830 -3.6828 -2.3485 -1.3330
  567WAT     H2 4074   2.107   9.907   3.822  0.3288  2.0297 -1.2767
  567WAT    EPW 4075   2.035   9.935   3.861 -0.0337  0.0310 -0.3723
  568WAT      O 4076   2.479   9.757   6.360  0.0816  0.3967  0.1483
  568WAT     H1 4077   2.497   9.781   6.451  1.8948  2.0089 -0.5743
  568WAT     H2 4078   2.472   9.662   6.362 -0.4953  0.4253  2.0458
  568WAT    EPW 4079   2.480   9.748   6.372  0.2447  0.6132  0.3033
  569WAT      O 4080   8.473   5.557   8.852 -0.2842  1.0256 -0.0937
  569WAT     H1 4081   8.431   5.533   8.769  0.2314  0.8351 -0.3019
  569WAT     H2 4082   8.407   5.536   8.919 -0.7280  1.2406 -0.4547
  569WAT    EPW 4083   8.459   5.551   8.850 -0.2742  1.0288 -0.1688
  570WAT      O 4084   4.053   2.903   1.725  0.4960 -0.5628 -0.4737
  570WAT     H1 4085   4.016   2.822   1.763 -1.6055  0.8627  0.7585
  570WAT     H2 4086   4.143   2.904   1.755  0.2575 -1.9354  0.3943
  570WAT    EPW 4087   4.060   2.892   1.734  0.1874 -0.5559 -0.1966
  571WAT      O 4088   7.068   2.456   3.806  0.0003 -0.1670 -0.0137
  571WAT     H1 4089   7.101   2.386   3.862  0.8321 -0.3466 -0.6963
  571WAT     H2 4090   7.079   2.536   3.858 -1.4265 -0.5843  0.9606
  571WAT    EPW 4091   7.074   2.457   3.820 -0.0782 -0.2458  0.0247
  572WAT      O 4092   3.124   0.380   1.736  0.8868 -0.5057 -0.5225
  572WAT     H1 4093   3.065   0.455   1.728  2.1657  0.4263 -1.4869
  572WAT     H2 4094   3.212   0.418   1.737  1.5135 -1.7826  1.9109
  572WAT    EPW 4095   3.128   0.395   1.735  1.1381 -0.5512 -0.3288
  573WAT      O 4096   1.846   8.741   2.492 -0.0843 -0.2052 -0.7938
  573WAT     H1 4097   1.774   8.679   2.483  0.0156 -0.1584 -2.1720
  573WAT     H2 4098   1.906   8.720   2.420  0.7442  0.4574 -0.3267
  573WAT    EPW 4099   1.845   8.730   2.482  0.0382 -0.1111 -0.9139
  574WAT      O 4100   4.992   0.035   3.542 -0.5399  0.5819 -0.6993
  574WAT     H1 4101   4.917  -0.001   3.590  1.4745 -2.0511  0.7651
  574WAT     H2 4102   4.995   0.127   3.568 -0.8627 -0.2007  2.6354
  574WAT    EPW 4103   4.982   0.042   3.552 -0.3169  0.1314 -0.0663
  575WAT      O 4104   4.408   1.551   2.206 -0.1700  0.5395  0.5353
  575WAT     H1 4105   4.342   1.519   2.267  2.8110  1.2586  4.5714
  575WAT     H2 4106   4.362   1.615   2.152 -3.3218 -1.0671  1.0999
  575WAT    EPW 4107   4.393   1.555   2.207 -0.1926  0.4225  1.1420
  576WAT      O 4108   1.226   9.317   2.331 -0.3519  0.3485  0.1157
  576WAT     H1 4109   1.231   9.337   2.425  2.1380  0.5991 -0.0065
  576WAT     H2 4110   1.245   9.401   2.288  0.9667 -0.2610 -0.5449
  576WAT    EPW 4111   1.229   9.331   2.338  0.1504  0.3014  0.0125
  577WAT      O 4112   8.750   5.364   8.483  0.7868 -0.2104 -1.0029
  577WAT     H1 4113   8.803   5.284   8.491 -1.8933 -2.0179  0.4977
  577WAT     H2 4114   8.755   5.404   8.570 -0.6217 -0.7038 -0.6652
  577WAT    EPW 4115   8.757   5.358   8.496  0.2470 -0.5138 -0.7606
  578WAT      O 4116   1.862   9.645   2.109 -0.0984  0.5773  0.3980
  578WAT     H1 4117   1.881   9.605   2.024  0.9761  1.6013  0.1322
  578WAT     H2 4118   1.930   9.610   2.167 -0.4244  0.4079  0.6799
  578WAT    EPW 4119   1.874   9.635   2.105  0.0004  0.6905  0.4002
  579WAT      O 4120   3.132   8.914   0.873 -0.3725  0.0189 -0.1170
  579WAT     H1 4121   3.082   8.986   0.913 -0.9775  1.0539 -2.5717
  579WAT     H2 4122   3.204   8.957   0.827 -0.8858 -0.8670 -1.8446
  579WAT    EPW 4123   3.135   8.929   0.872 -0.5200  0.0386 -0.6686
  580WAT      O 4124   4.407   1.135   4.352 -0.6739 -0.3849  0.2314
  580WAT     H1 4125   4.323   1.166   4.384 -0.4462 -1.6037  2.1495
  580WAT     H2 4126   4.397   1.133   4.257 -1.9453  1.8256  0.2523
  580WAT    EPW 4127   4.395   1.139   4.344 -0.8118 -0.2541  0.4873
  581WAT      O 4128   4.161   0.424   3.162 -0.1335 -0.2086  0.0213
  581WAT     H1 4129   4.102   0.400   3.090 -1.7844  0.2067  1.1627
  581WAT     H2 4130   4.117   0.390   3.241  1.5429 -0.5176  0.8603
  581WAT    EPW 4131   4.147   0.416   3.163 -0.1302 -0.1946  0.2825
  582WAT      O 4132   8.175   3.851   8.635 -0.0208  0.2972 -0.6714
  582WAT     H1 4133   8.215   3.765   8.654 -0.5706 -0.0956 -1.2709
  582WAT     H2 4134   8.197   3.868   8.543  2.7241  2.2522  0.1945
  582WAT    EPW 4135   8.183   3.842   8.626  0.2689  0.5033 -0.6366
  583WAT      O 4136   3.245   0.250   3.329 -0.3207 -0.1125 -0.2062
  583WAT     H1 4137   3.244   0.197   3.409  0.4416 -0.0414 -0.1453
  583WAT     H2 4138   3.337   0.267   3.312 -0.5497  2.2642  0.5001
  583WAT    EPW 4139   3.257   0.245   3.338 -0.2505  0.2103 -0.1051
  584WAT      O 4140   7.295   4.665   8.960  0.2062  0.0369  0.6558
  584WAT     H1 4141   7.275   4.658   8.867  2.6434  0.8323  0.0095
  584WAT     H2 4142   7.304   4.759   8.976 -2.5537  0.1075  2.3081
  584WAT    EPW 4143   7.294   4.676   8.950  0.1636  0.1512  0.7887
  585WAT      O 4144   8.913   9.115   1.282  0.1386 -0.1205 -0.3207
  585WAT     H1 4145   8.914   9.032   1.234 -1.7409  0.8795 -2.2613
  585WAT     H2 4146   9.002   9.149   1.272  0.3186 -0.8632 -1.4745
  585WAT    EPW 4147   8.925   9.108   1.275 -0.0854 -0.0863 -0.7288
  586WAT      O 4148   2.496  10.090   0.533 -0.6771  0.2684 -0.2793
  586WAT     H1 4149   2.498  10.009   0.583 -0.9738  0.2681 -0.2655
  586WAT     H2 4150   2.481  10.061   0.442 -1.5708  0.3448 -0.1681
  586WAT    EPW 4151   2.494  10.076   0.527 -0.8341  0.2785 -0.2628
  587WAT      O 4152  10.994   6.891   8.910 -0.3519  0.3531  0.1620
  587WAT     H1 4153  10.937   6.946   8.857  2.7538  0.8557 -3.0179
  587WAT     H2 4154  11.051   6.952   8.956  0.3769 -0.1131 -0.0964
  587WAT    EPW 4155  10.994   6.906   8.909  0.1531  0.3586 -0.2913
  588WAT      O 4156   1.797   1.577   3.330 -0.2699  0.2743  0.2145
  588WAT     H1 4157   1.764   1.577   3.420  1.9556 -0.4589  1.1038
  588WAT     H2 4158   1.770   1.492   3.295  1.1083 -0.5821  1.1382
  588WAT    EPW 4159   1.789   1.566   3.337  0.2055  0.0646  0.4537
  589WAT      O 4160   2.013   8.460   2.589 -0.0009 -0.2753 -0.7840
  589WAT     H1 4161   2.011   8.542   2.637 -0.2801 -0.2278 -0.8737
  589WAT     H2 4162   1.921   8.436   2.579  0.0747 -0.5510 -0.8403
  589WAT    EPW 4163   2.001   8.468   2.594 -0.0278 -0.3052 -0.8032
  590WAT      O 4164   8.313   5.312   7.129 -0.1757 -0.9782 -0.0950
  590WAT     H1 4165   8.303   5.306   7.034 -1.0876 -2.4596  0.0521
  590WAT     H2 4166   8.276   5.397   7.152  0.2474 -0.5165 -1.0900
  590WAT    EPW 4167   8.307   5.322   7.120 -0.2403 -1.1129 -0.2067
  591WAT      O 4168  10.899   9.416   4.834 -0.3890  0.2698 -0.1045
  591WAT     H1 4169  10.840   9.351   4.871  2.0350 -1.8381  0.3623
  591WAT     H2 4170  10.918   9.475   4.906 -1.3400  0.5517 -0.0718
  591WAT    EPW 4171  10.894   9.415   4.848 -0.1945  0.0291 -0.0386
  592WAT      O 4172   0.427   8.919   0.161 -0.2362  0.0051  0.2070
  592WAT     H1 4173   0.410   8.895   0.070 -1.4305 -1.2547  0.7274
  592WAT     H2 4174   0.522   8.911   0.170  0.1887  2.2006 -1.4478
  592WAT    EPW 4175   0.437   8.915   0.150 -0.3377  0.1283  0.0574
  593WAT      O 4176   6.114   1.549   7.942  0.3795  0.5167 -0.1757
  593WAT     H1 4177   6.031   1.533   7.897 -1.2790  2.3008  2.0136
  593WAT     H2 4178   6.104   1.636   7.982  2.7923  0.2265  1.2964
  593WAT    EPW 4179   6.102   1.559   7.941  0.4790  0.7138  0.3076
  594WAT      O 4180   0.051  10.210   0.098 -0.1838  0.2159 -0.4711
  594WAT     H1 4181   0.133  10.238   0.058 -0.1550  3.1143  1.3378
  594WAT     H2 4182  -0.015  10.227   0.032  0.1569  2.4849 -0.3045
  594WAT    EPW 4183   0.053  10.216   0.084 -0.1350  0.8974 -0.2105
  595WAT      O 4184   3.641   7.958   3.514 -0.4061  0.8923 -0.3183
  595WAT     H1 4185   3.569   8.016   3.538 -3.5351 -2.8458  0.3897
  595WAT     H2 4186   3.602   7.895   3.454  2.6690 -0.6556 -0.9067
  595WAT    EPW 4187   3.627   7.957   3.509 -0.4132  0.1948 -0.3026
  596WAT      O 4188   7.034  10.079   1.934 -0.5287  0.4633 -0.5098
  596WAT     H1 4189   6.949  10.076   1.977 -0.0390  2.1178  0.6869
  596WAT     H2 4190   7.028  10.014   1.864 -2.9003  0.8365 -0.7356
  596WAT    EPW 4191   7.022  10.070   1.930 -0.7770  0.7305 -0.3818
  597WAT      O 4192   6.625   9.199   6.589  0.0331  0.2188 -0.2313
  597WAT     H1 4193   6.653   9.287   6.615 -1.0207  0.8973 -1.3036
  597WAT     H2 4194   6.687   9.173   6.521  0.4876  0.0379  0.2541
  597WAT    EPW 4195   6.637   9.207   6.583 -0.0458  0.2847 -0.3088
  598WAT      O 4196   8.345   9.507   0.564  0.0016  0.9516  0.3070
  598WAT     H1 4197   8.346   9.426   0.616  1.0212  0.5934 -0.2337
  598WAT     H2 4198   8.273   9.494   0.502  1.9547 -0.9255 -1.7876
  598WAT    EPW 4199   8.336   9.495   0.563  0.3943  0.6561 -0.0406
  599WAT      O 4200  10.568   8.039   8.518 -0.9227 -0.2122  0.9967
  599WAT     H1 4201  10.496   8.030   8.580  0.2572 -1.7121  2.2481
  599WAT     H2 4202  10.607   7.952   8.513  0.5298  0.4360  0.0140
  599WAT    EPW 4203  10.564   8.026   8.525 -0.5755 -0.3242  1.0324
  600WAT      O 4204   3.382   9.060   0.820  0.3225  0.2475 -0.1717
  600WAT     H1 4205   3.450   9.004   0.858  0.6427  0.4605 -0.4230
  600WAT     H2 4206   3.406   9.067   0.728  0.8994  1.6962  0.0709
  600WAT    EPW 4207   3.394   9.053   0.813  0.4408  0.4668 -0.1729
  601WAT      O 4208   4.414   0.891   2.127  0.3767  0.1485 -0.0972
  601WAT     H1 4209   4.492   0.901   2.072  0.9973  2.4014  1.0845
  601WAT     H2 4210   4.429   0.810   2.175  1.2890 -0.2129 -0.9433
  601WAT    EPW 4211   4.426   0.882   2.126  0.5791  0.3980 -0.0530
  602WAT      O 4212   3.781   7.731   0.103 -0.2966 -0.0728  0.2692
  602WAT     H1 4213   3.791   7.825   0.122 -1.1590  0.3956 -1.3808
  602WAT     H2 4214   3.791   7.688   0.188  1.8019  1.3607  0.8306
  602WAT    EPW 4215   3.784   7.738   0.117 -0.1336  0.1779  0.1256
  603WAT      O 4216  10.890   7.917   1.007 -0.4538  0.1457  0.1282
  603WAT     H1 4217  10.795   7.924   1.011 -0.3294  2.1237  0.5356
  603WAT     H2 4218  10.921   8.007   1.015  1.4010 -0.2315 -1.9877
  603WAT    EPW 4219  10.882   7.930   1.009 -0.1926  0.3567 -0.0972
  604WAT      O 4220   8.707   8.456   5.866  0.1931 -1.3548  0.6848
  604WAT     H1 4221   8.671   8.368   5.868 -1.4540 -0.7098  1.6759
  604WAT     H2 4222   8.730   8.475   5.957 -2.5377  0.3482  1.1508
  604WAT    EPW 4223   8.705   8.447   5.879 -0.3853 -1.0448  0.8769
  605WAT      O 4224   6.133   1.765   7.306  0.5556  0.0351  0.2407
  605WAT     H1 4225   6.104   1.740   7.218  5.2092 -1.1680 -1.2002
  605WAT     H2 4226   6.137   1.683   7.354 -2.9323  0.7842  2.1648
  605WAT    EPW 4227   6.130   1.751   7.300  0.7093 -0.0248  0.3042
  606WAT      O 4228  10.679   8.817   4.164 -0.4903 -0.8284 -0.0326
  606WAT     H1 4229  10.656   8.798   4.255 -1.3199  0.0052 -0.0543
  606WAT     H2 4230  10.771   8.840   4.166  0.1869 -3.2484  0.2179
  606WAT    EPW 4231  10.688   8.817   4.176 -0.5102 -1.0376 -0.0026
  607WAT      O 4232   1.234   7.553   2.663  0.2521  0.3101 -0.8837
  607WAT     H1 4233   1.245   7.537   2.569  0.1784 -0.2160 -0.8018
  607WAT     H2 4234   1.258   7.471   2.705 -2.1615 -0.2967 -0.5869
  607WAT    EPW 4235   1.239   7.540   2.656 -0.0759  0.1609 -0.8337
  608WAT      O 4236   9.487   8.296   4.384 -0.5003  0.0298 -0.6967
  608WAT     H1 4237   9.489   8.351   4.306 -1.3405 -1.2865 -1.6760
  608WAT     H2 4238   9.397   8.303   4.416 -0.2483  0.2973 -0.0222
  608WAT    EPW 4239   9.476   8.304   4.378 -0.5784 -0.1082 -0.7367
  609WAT      O 4240   8.374   4.044   2.083  0.4616 -0.0474 -0.4359
  609WAT     H1 4241   8.433   4.096   2.137  0.8135  0.2721 -1.1099
  609WAT     H2 4242   8.346   4.104   2.013  0.5920 -0.6490 -1.0205
  609WAT    EPW 4243   8.378   4.059   2.081  0.5255 -0.0846 -0.6018
  610WAT      O 4244  10.475   7.719   0.947 -0.1492  1.5638  0.4208
  610WAT     H1 4245  10.404   7.661   0.973 -0.7350  3.0405  2.4204
  610WAT     H2 4246  10.478   7.713   0.852 -0.4866 -1.3009  0.5137
  610WAT    EPW 4247  10.466   7.711   0.938 -0.2708  1.3807  0.6968
  611WAT      O 4248   9.268   4.974   8.619  0.3380 -0.0184  0.3154
  611WAT     H1 4249   9.207   4.956   8.691  0.3839 -0.7093  0.1864
  611WAT     H2 4250   9.270   4.893   8.568 -2.4449  1.5102 -2.5965
  611WAT    EPW 4251   9.260   4.961   8.622 -0.0229  0.0923 -0.0858
  612WAT      O 4252   4.558   7.392   3.296  0.4529 -0.4516 -0.4420
  612WAT     H1 4253   4.467   7.364   3.306  0.3053 -0.1925 -0.9992
  612WAT     H2 4254   4.556   7.453   3.222  0.6784  1.4797  1.0839
  612WAT    EPW 4255   4.546   7.396   3.287  0.4628 -0.1626 -0.3141
  613WAT      O 4256   8.167   9.783   2.306 -0.3585 -0.5653 -0.1516
  613WAT     H1 4257   8.184   9.690   2.324  1.8559 -0.0094  0.8526
  613WAT     H2 4258   8.142   9.820   2.390 -1.8274 -0.3338 -0.6631
  613WAT    EPW 4259   8.166   9.775   2.319 -0.2604 -0.4611 -0.0867
  614WAT      O 4260   1.700   8.064   0.949 -0.6356 -0.3510 -0.1419
  614WAT     H1 4261   1.675   8.056   0.857 -1.3449  1.1824 -0.1252
  614WAT     H2 4262   1.680   8.155   0.971 -0.7427 -0.7593  1.6112
  614WAT    EPW 4263   1.694   8.075   0.940 -0.7433 -0.2027  0.0915
  615WAT      O 4264   6.929   9.189   7.082 -0.2072  0.1782  0.4896
  615WAT     H1 4265   6.983   9.142   7.018 -0.4051  1.1863 -0.4500
  615WAT     H2 4266   6.857   9.129   7.100  0.4805 -0.6139  0.7026
  615WAT    EPW 4267   6.927   9.175   7.076 -0.1426  0.2065  0.3939
  616WAT      O 4268  10.176  10.212   2.172  0.2673  0.2903  0.4871
  616WAT     H1 4269  10.155  10.290   2.121  0.5638 -0.1349 -0.3282
  616WAT     H2 4270  10.271  10.215   2.182  0.3372 -0.1919  0.0419
  616WAT    EPW 4271  10.186  10.222   2.166  0.3152  0.1702  0.3208
  617WAT      O 4272   8.091   9.568   1.847 -0.2557 -0.4323 -0.8088
  617WAT     H1 4273   8.128   9.583   1.760  1.0189 -1.7496 -0.5135
  617WAT     H2 4274   8.011   9.519   1.830 -0.5224  0.1429 -1.2817
  617WAT    EPW 4275   8.085   9.564   1.833 -0.1230 -0.5298 -0.8322
  618WAT      O 4276   1.056   8.561   1.281  0.2247  0.5285  0.3843
  618WAT     H1 4277   1.150   8.565   1.267  0.2637  2.6310  0.9426
  618WAT     H2 4278   1.029   8.652   1.293 -2.0196  0.0704 -0.5539
  618WAT    EPW 4279   1.065   8.573   1.281 -0.0662  0.7453  0.3341
  619WAT      O 4280   3.442  10.071   2.627  0.3594  0.4175  0.4449
  619WAT     H1 4281   3.477  10.013   2.694 -0.5834 -0.8255 -0.1087
  619WAT     H2 4282   3.519  10.102   2.580  0.9658  0.6305  1.5456
  619WAT    EPW 4283   3.457  10.068   2.630  0.3151  0.2818  0.5169
  620WAT      O 4284   2.845  10.263   2.012 -0.2535  0.3886 -0.2529
  620WAT     H1 4285   2.887  10.250   1.927 -2.4314 -0.4743 -1.2592
  620WAT     H2 4286   2.866  10.353   2.036  2.2210 -0.0066 -0.5912
  620WAT    EPW 4287   2.854  10.273   2.004 -0.2143  0.2227 -0.4303
  621WAT      O 4288   9.859   4.125   6.871 -0.3158 -0.5640  0.7341
  621WAT     H1 4289   9.811   4.043   6.865 -2.0620  0.2287  2.5288
  621WAT     H2 4290   9.794   4.188   6.902  0.6934  1.7813 -1.5902
  621WAT    EPW 4291   9.844   4.123   6.875 -0.4129 -0.1502  0.6640
  622WAT      O 4292   0.689   9.184   3.922  0.3154  0.0118 -0.1524
  622WAT     H1 4293   0.753   9.113   3.926 -0.3624 -0.6006  0.1170
  622WAT     H2 4294   0.630   9.166   3.995  0.0614  0.7896 -0.1611
  622WAT    EPW 4295   0.690   9.172   3.932  0.1925  0.0329 -0.1181
  623WAT      O 4296   7.735   4.110   7.514  0.1700 -0.1536  0.0131
  623WAT     H1 4297   7.719   4.017   7.532 -2.3249  0.5044  1.6640
  623WAT     H2 4298   7.653   4.141   7.475  1.5597  1.0434 -2.1611
  623WAT    EPW 4299   7.722   4.102   7.511  0.0243  0.0908 -0.0560
  624WAT      O 4300   4.894   0.398   3.819  0.2307 -0.4627  0.6539
  624WAT     H1 4301   4.966   0.353   3.863 -0.9246 -1.6603  1.3988
  624WAT     H2 4302   4.910   0.490   3.835  1.0582 -0.7631  1.6744
  624WAT    EPW 4303   4.905   0.404   3.827  0.1876 -0.6603  0.8868
  625WAT      O 4304   7.192   4.312   7.446 -0.0612 -0.2202 -0.1041
  625WAT     H1 4305   7.165   4.402   7.428 -1.2212 -0.7709 -1.3271
  625WAT     H2 4306   7.122   4.277   7.502 -0.2659 -0.7031 -0.6454
  625WAT    EPW 4307   7.179   4.319   7.451 -0.2410 -0.3564 -0.3366
  626WAT      O 4308  10.059   6.142   7.253  0.2288  0.1671 -0.2296
  626WAT     H1 4309   9.993   6.107   7.313  0.1522 -0.7903 -0.8482
  626WAT     H2 4310  10.016   6.217   7.212 -0.1349  0.1255  0.0661
  626WAT    EPW 4311  10.045   6.147   7.256  0.1707  0.0353 -0.2720
  627WAT      O 4312   6.112   1.665   2.343 -0.5509  0.2997 -0.2942
  627WAT     H1 4313   6.131   1.588   2.396 -0.4019 -0.8580 -1.9264
  627WAT     H2 4314   6.018   1.659   2.325 -0.3800 -0.0217 -1.1453
  627WAT    EPW 4315   6.102   1.654   2.347 -0.5088  0.1047 -0.6219
  628WAT      O 4316   0.277   9.045   1.480 -0.0955 -0.0995 -0.1034
  628WAT     H1 4317   0.341   8.988   1.439 -0.6558  0.0840 -1.2653
  628WAT     H2 4318   0.325   9.126   1.498  0.2725 -0.3476  0.0526
  628WAT    EPW 4319   0.291   9.048   1.477 -0.1208 -0.1073 -0.2360
  629WAT      O 4320   7.998   8.624   4.281 -0.1627 -0.4723 -0.0699
  629WAT     H1 4321   7.909   8.634   4.313 -0.4704  0.3343 -1.1275
  629WAT     H2 4322   7.989   8.613   4.186  0.8500 -0.5215 -0.1752
  629WAT    EPW 4323   7.985   8.624   4.273 -0.0694 -0.3719 -0.2234
  630WAT      O 4324  10.507   8.397   0.816 -0.3299 -0.1046  0.1442
  630WAT     H1 4325  10.579   8.367   0.871  0.8191  0.1889 -1.1615
  630WAT     H2 4326  10.458   8.318   0.794  0.3066 -0.4655  0.0287
  630WAT    EPW 4327  10.510   8.383   0.821 -0.0944 -0.1140 -0.0432
  631WAT      O 4328  10.045   7.633   2.632 -0.2556 -0.3436 -0.7629
  631WAT     H1 4329  10.084   7.708   2.587  0.6755 -0.6651 -0.5090
  631WAT     H2 4330  10.118   7.590   2.676 -1.0869 -0.1702  0.8884
  631WAT    EPW 4331  10.059   7.637   2.632 -0.2422 -0.3633 -0.5115
  632WAT      O 4332   2.014  10.165   0.828 -0.2301  0.1885 -0.3820
  632WAT     H1 4333   2.069  10.140   0.903 -1.4133 -2.1360 -0.2197
  632WAT     H2 4334   1.938  10.207   0.867 -0.2105  0.2321 -0.3900
  632WAT    EPW 4335   2.011  10.168   0.843 -0.3837 -0.1121 -0.3616
  633WAT      O 4336   1.741   7.967   3.618  0.5549  0.0759  0.1776
  633WAT     H1 4337   1.823   7.974   3.668 -0.3989  0.2763  1.7759
  633WAT     H2 4338   1.708   7.879   3.639 -0.6861  0.7689  1.2866
  633WAT    EPW 4339   1.748   7.956   3.627  0.2654  0.1936  0.5347
  634WAT      O 4340  10.840   8.136   0.146 -0.5651 -0.3468 -0.8459
  634WAT     H1 4341  10.895   8.107   0.218 -0.1094 -2.3715 -1.9509
  634WAT     H2 4342  10.900   8.180   0.086 -1.3949  4.6360  1.3915
  634WAT    EPW 4343  10.855   8.138   0.147 -0.6142  0.0434 -0.6965
  635WAT      O 4344   4.783   0.922   0.171 -0.1714  0.4004  0.3513
  635WAT     H1 4345   4.758   0.849   0.227  1.1221  0.4902  1.0743
  635WAT     H2 4346   4.840   0.883   0.105  0.1412  0.6668  0.4595
  635WAT    EPW 4347   4.787   0.907   0.170  0.0403  0.4475  0.4609
  636WAT      O 4348   3.367   8.795   1.080  1.2136  0.1517  0.4460
  636WAT     H1 4349   3.306   8.838   1.020  2.3889  0.0308 -0.8956
  636WAT     H2 4350   3.325   8.712   1.101  0.1972  0.7506  0.8425
  636WAT    EPW 4351   3.353   8.790   1.075  1.2345  0.2151  0.3214
  637WAT      O 4352   8.025   0.386   2.297 -0.0850 -0.1869 -0.0417
  637WAT     H1 4353   7.977   0.453   2.346 -1.8321  0.7846 -2.8477
  637WAT     H2 4354   8.117   0.408   2.309 -0.4315  0.1029  2.5323
  637WAT    EPW 4355   8.031   0.398   2.305 -0.3610 -0.0206 -0.0724
  638WAT      O 4356   0.014   0.759   3.647 -0.4520  1.0209  0.6179
  638WAT     H1 4357  -0.066   0.724   3.607  0.0900  0.1471  0.2809
  638WAT     H2 4358  -0.013   0.787   3.734 -0.7348 -0.9447  1.1905
  638WAT    EPW 4359  -0.000   0.758   3.653 -0.4178  0.6464  0.6490
  639WAT      O 4360   7.459   3.811   7.765 -0.2754 -0.6327  0.0764
  639WAT     H1 4361   7.417   3.883   7.812  0.9023 -0.7918  1.4475
  639WAT     H2 4362   7.388   3.748   7.749 -0.9159 -0.0779  0.6758
  639WAT    EPW 4363   7.444   3.812   7.769 -0.2046 -0.5805  0.3364
  640WAT      O 4364   0.551   0.521   2.093  0.8484  0.1610  0.0171
  640WAT     H1 4365   0.554   0.613   2.120  1.8080  0.4518 -0.9707
  640WAT     H2 4366   0.643   0.498   2.078  0.4947 -0.4459 -1.3642
  640WAT    EPW 4367   0.563   0.530   2.094  0.9283  0.1193 -0.2953
  641WAT      O 4368   1.398   7.863   0.746 -0.2237  0.0242 -0.0918
  641WAT     H1 4369   1.469   7.802   0.729  0.0170  0.8902 -2.6128
  641WAT     H2 4370   1.331   7.840   0.682 -0.7536  1.4156 -0.0823
  641WAT    EPW 4371   1.398   7.852   0.736 -0.2618  0.3221 -0.4230
  642WAT      O 4372   2.548   5.954   2.231 -0.0968  0.2978  0.1481
  642WAT     H1 4373   2.500   5.879   2.197  1.2832  0.0241 -1.3470
  642WAT     H2 4374   2.557   6.012   2.155 -1.6222  2.2811  1.3883
  642WAT    EPW 4375   2.543   5.952   2.216 -0.1160  0.5236  0.1146
  643WAT      O 4376   0.591   6.584   0.377 -0.9175  0.4196 -0.4187
  643WAT     H1 4377   0.654   6.630   0.322 -0.5794 -0.4709 -0.8014
  643WAT     H2 4378   0.595   6.629   0.462  0.8865 -0.1574 -0.1570
  643WAT    EPW 4379   0.600   6.596   0.381 -0.6349  0.2260 -0.4347
  644WAT      O 4380   8.746   4.166   8.393 -0.2524 -0.3127  0.2634
  644WAT     H1 4381   8.806   4.119   8.335 -0.6144 -1.1238  0.5263
  644WAT     H2 4382   8.744   4.255   8.358  0.9495 -0.3197  0.1416
  644WAT    EPW 4383   8.754   4.172   8.381 -0.1411 -0.4206  0.2823
  645WAT      O 4384   2.888  10.168   3.255  0.7637  0.6868  1.1956
  645WAT     H1 4385   2.847  10.165   3.169 -0.4531  0.7508  1.7545
  645WAT     H2 4386   2.895  10.261   3.275  2.1255  0.7221  0.6965
  645WAT    EPW 4387   2.883  10.180   3.246  0.7827  0.6995  1.2035
  646WAT      O 4388   0.837   5.970   3.401  0.8780 -0.1280 -0.0781
  646WAT     H1 4389   0.902   6.028   3.361 -0.0572  0.5022 -0.7203
  646WAT     H2 4390   0.781   6.028   3.451  0.2204 -0.5423 -0.3247
  646WAT    EPW 4391   0.838   5.985   3.402  0.6679 -0.0994 -0.1953
  647WAT      O 4392   4.121   0.409   2.255 -0.1567 -0.1385  0.0338
  647WAT     H1 4393   4.120   0.322   2.214 -1.6942 -0.6711  1.0819
  647WAT     H2 4394   4.072   0.396   2.337  1.3138  1.2645  1.1792
  647WAT    EPW 4395   4.114   0.396   2.261 -0.1655 -0.0237  0.3229
  648WAT      O 4396   1.585   9.933   3.288 -0.1556  0.4667  0.0359
  648WAT     H1 4397   1.607  10.023   3.261 -0.8933  0.5042 -0.4508
  648WAT     H2 4398   1.606   9.931   3.382 -0.0712  1.1308  0.0401
  648WAT    EPW 4399   1.591   9.945   3.297 -0.2418  0.5593 -0.0278
  649WAT      O 4400   0.291   9.520   2.860  0.5397 -0.3906 -0.1103
  649WAT     H1 4401   0.285   9.457   2.788  1.4372 -1.9185  1.0838
  649WAT     H2 4402   0.226   9.489   2.923 -0.3025  0.9846 -0.2648
  649WAT    EPW 4403   0.281   9.507   2.859  0.5470 -0.4110  0.0268
  650WAT      O 4404   2.127   8.603   1.749  0.3046 -0.2470  0.6751
  650WAT     H1 4405   2.066   8.630   1.818  1.1724 -0.8505  1.7246
  650WAT     H2 4406   2.133   8.679   1.692  0.1348  0.5709  1.7019
  650WAT    EPW 4407   2.120   8.617   1.751  0.3967 -0.2189  0.9489
  651WAT      O 4408   6.403   0.016   1.797  0.2934 -0.1715 -0.4493
  651WAT     H1 4409   6.418  -0.030   1.880  1.2671 -0.8788 -0.9989
  651WAT     H2 4410   6.342   0.086   1.819  0.2692 -0.5662  0.7960
  651WAT    EPW 4411   6.397   0.019   1.811  0.4184 -0.3166 -0.3575
  652WAT      O 4412  10.631   9.199   0.040  0.4449  0.2412 -0.3652
  652WAT     H1 4413  10.727   9.208   0.036  0.4467  1.0803  1.0772
  652WAT     H2 4414  10.598   9.284   0.012  0.1069 -0.0868 -0.9765
  652WAT    EPW 4415  10.640   9.211   0.036  0.4005  0.3085 -0.2556
  653WAT      O 4416   4.777   0.233   1.821  0.1287  0.1621 -1.0820
  653WAT     H1 4417   4.841   0.275   1.764  0.7523 -1.2642 -1.4825
  653WAT     H2 4418   4.714   0.193   1.760 -0.0194 -0.1278 -0.7434
  653WAT    EPW 4419   4.777   0.233   1.805  0.1915 -0.0642 -1.0902
  654WAT      O 4420   6.843   4.979   8.119 -0.1395 -0.3910  0.1348
  654WAT     H1 4421   6.786   5.053   8.141  0.0696 -0.3478  0.5338
  654WAT     H2 4422   6.909   5.017   8.060 -0.4248 -0.4072 -0.1972
  654WAT    EPW 4423   6.844   4.994   8.114 -0.1495 -0.3877  0.1440
  655WAT      O 4424  10.164   8.494   3.404  0.4865 -0.1931 -0.0829
  655WAT     H1 4425  10.129   8.457   3.323 -0.5119 -0.5736  0.5084
  655WAT     H2 4426  10.207   8.421   3.448 -0.0927 -0.2886  0.3311
  655WAT    EPW 4427  10.165   8.480   3.399  0.2789 -0.2556  0.0496
  656WAT      O 4428   2.940   9.620   1.631 -0.2799 -0.1662  0.9941
  656WAT     H1 4429   2.972   9.701   1.672  1.1831  0.3612 -1.0379
  656WAT     H2 4430   3.008   9.556   1.651 -0.5259 -0.4187  1.0212
  656WAT    EPW 4431   2.953   9.622   1.639 -0.1193 -0.1302  0.7297
  657WAT      O 4432   3.348   9.113   3.401 -0.1111 -0.5788 -0.2177
  657WAT     H1 4433   3.314   9.035   3.357 -0.2212 -0.0260 -1.1334
  657WAT     H2 4434   3.376   9.171   3.330  0.5749 -0.0518  0.4663
  657WAT    EPW 4435   3.347   9.110   3.386 -0.0352 -0.4363 -0.2482
  658WAT      O 4436   9.702   7.208   0.386 -0.7532  0.4061 -0.4110
  658WAT     H1 4437   9.785   7.183   0.426 -0.2859 -0.4234 -1.8276
  658WAT     H2 4438   9.639   7.205   0.457 -0.5264 -3.7556 -0.1563
  658WAT    EPW 4439   9.705   7.205   0.400 -0.6623 -0.2522 -0.5643
  659WAT      O 4440   8.610   0.779   8.844  0.4207 -0.1377 -0.3510
  659WAT     H1 4441   8.704   0.795   8.834  0.2833  0.5938 -0.5133
  659WAT     H2 4442   8.596   0.777   8.938  0.6218 -0.4034 -0.3252
  659WAT    EPW 4443   8.621   0.781   8.855  0.4292 -0.0763 -0.3691
  660WAT      O 4444   1.476   0.492   3.860  0.1367  0.3673 -0.0104
  660WAT     H1 4445   1.512   0.498   3.772 -0.4913  0.7101 -0.2510
  660WAT     H2 4446   1.392   0.447   3.849 -1.3232  2.9303 -0.0237
  660WAT    EPW 4447   1.470   0.487   3.847 -0.1388  0.7505 -0.0440
  661WAT      O 4448   1.747   9.872   2.020 -0.1793  0.0473 -0.4253
  661WAT     H1 4449   1.652   9.868   2.022 -0.1477 -0.7744 -0.0414
  661WAT     H2 4450   1.775   9.801   2.078  0.6595  1.6446  1.2183
  661WAT    EPW 4451   1.738   9.862   2.028 -0.0645  0.1497 -0.1578
  662WAT      O 4452   0.423   5.420   7.050  0.3711 -0.0014 -0.2550
  662WAT     H1 4453   0.342   5.469   7.062  0.3118  0.1358 -1.1348
  662WAT     H2 4454   0.472   5.434   7.131  0.8101  2.3789 -0.8552
  662WAT    EPW 4455   0.419   5.428   7.062  0.4212  0.3309 -0.4501
  663WAT      O 4456   6.562   2.629   8.780 -0.2408  0.1765 -1.3440
  663WAT     H1 4457   6.649   2.661   8.757 -1.3074  2.1348 -2.8702
  663WAT     H2 4458   6.548   2.554   8.722  0.2246  0.1665 -1.4445
  663WAT    EPW 4459   6.572   2.623   8.769 -0.3202  0.4334 -1.5583
  664WAT      O 4460   1.736   0.690   2.163 -1.0552 -0.4697 -0.6810
  664WAT     H1 4461   1.764   0.686   2.255  4.0122 -1.5349 -1.9551
  664WAT     H2 4462   1.694   0.605   2.148 -3.2935  0.2603  0.8169
  664WAT    EPW 4463   1.734   0.678   2.173 -0.6821 -0.5139 -0.6516
  665WAT      O 4464   9.656   8.087   2.801  0.1020  0.0274  0.0721
  665WAT     H1 4465   9.622   7.999   2.820  0.4994  0.0689  1.0745
  665WAT     H2 4466   9.593   8.146   2.842  0.2358  0.1822  0.0543
  665WAT    EPW 4467   9.643   8.083   2.809  0.1721  0.0534  0.2019
  666WAT      O 4468   3.023   6.329   3.161 -0.0525  0.4010 -0.1203
  666WAT     H1 4469   3.087   6.319   3.232  2.0539 -1.0458 -2.0783
  666WAT     H2 4470   2.978   6.245   3.158 -0.9789  0.8773  0.2467
  666WAT    EPW 4471   3.026   6.316   3.170  0.1032  0.2728 -0.3301
  667WAT      O 4472   6.920   3.077   8.336  0.1725  0.1493  0.2951
  667WAT     H1 4473   6.908   3.144   8.403  0.7741  0.0926  0.4675
  667WAT     H2 4474   6.986   3.115   8.277  0.3291 -0.1825  0.2547
  667WAT    EPW 4475   6.927   3.091   8.337  0.2725  0.0980  0.3123
  668WAT      O 4476   0.885   5.709   8.080 -0.3359 -0.3295 -0.5083
  668WAT     H1 4477   0.837   5.784   8.046  1.5024  0.1847 -2.1720
  668WAT     H2 4478   0.859   5.636   8.024  0.0682 -0.2654 -0.7846
  668WAT    EPW 4479   0.875   5.709   8.068 -0.0401 -0.2532 -0.7644
  669WAT      O 4480   6.816   3.236   0.895  0.0620  0.3075  0.8233
  669WAT     H1 4481   6.728   3.260   0.865 -0.0534 -0.7329  0.2536
  669WAT     H2 4482   6.812   3.140   0.902 -0.2898  0.4475  5.3333
  669WAT    EPW 4483   6.804   3.226   0.892  0.0002  0.1888  1.3430
  670WAT      O 4484   3.899   9.077   1.482 -0.2527  0.1663 -0.4910
  670WAT     H1 4485   3.873   9.012   1.547  2.3058  0.3860  0.8804
  670WAT     H2 4486   3.835   9.066   1.411 -1.7543 -1.6788  1.0209
  670WAT    EPW 4487   3.887   9.067   1.481 -0.1132 -0.0486 -0.1107
  671WAT      O 4488   2.884  10.269   2.461 -0.3625 -0.2270  0.2267
  671WAT     H1 4489   2.835  10.342   2.423 -2.2137 -2.1880 -1.4562
  671WAT     H2 4490   2.948  10.246   2.394  0.3674 -0.0396  0.8454
  671WAT    EPW 4491   2.886  10.275   2.447 -0.5103 -0.4606  0.0864
  672WAT      O 4492   1.308   9.167   3.073  0.1681 -0.0034  0.9299
  672WAT     H1 4493   1.364   9.164   2.995 -1.8103 -1.6091 -0.5565
  672WAT     H2 4494   1.350   9.109   3.136 -0.1596 -1.8179 -0.4516
  672WAT    EPW 4495   1.321   9.159   3.071 -0.1361 -0.4544  0.5515
  673WAT      O 4496   3.192  10.239   4.085  0.1994 -0.6153 -0.0783
  673WAT     H1 4497   3.264  10.293   4.053 -2.1548  2.4510 -0.6681
  673WAT     H2 4498   3.151  10.292   4.154 -0.1612 -3.2834  1.9154
  673WAT    EPW 4499   3.196  10.253   4.090 -0.1588 -0.5631  0.1070
  674WAT      O 4500  10.516   7.859   4.000  1.0397  0.3606  0.5067
  674WAT     H1 4501  10.524   7.953   4.017  0.3237  0.3333  1.0267
  674WAT     H2 4502  10.580   7.818   4.058  1.9033  0.5688 -0.2815
  674WAT    EPW 4503  10.525   7.866   4.010  1.0595  0.3843  0.4714
  675WAT      O 4504   1.094   6.422   1.503  0.0796 -0.4020  0.5818
  675WAT     H1 4505   1.021   6.480   1.481  0.7253  0.4211  0.5166
  675WAT     H2 4506   1.055   6.350   1.551 -0.4037  1.6964  3.6129
  675WAT    EPW 4507   1.079   6.420   1.506  0.1010 -0.0169  0.9729
  676WAT      O 4508   9.264   4.321   8.518 -0.6829  0.0892 -0.1503
  676WAT     H1 4509   9.213   4.334   8.598 -1.9966 -3.2028 -0.3071
  676WAT     H2 4510   9.346   4.369   8.534 -1.8634  1.5446  2.1012
  676WAT    EPW 4511   9.268   4.329   8.530 -1.0123 -0.1531  0.1259
  677WAT      O 4512   0.693   6.870   1.632  0.3981  0.1932 -0.8516
  677WAT     H1 4513   0.683   6.818   1.552  0.0412 -0.4525 -0.4000
  677WAT     H2 4514   0.613   6.922   1.637  0.5978  0.5276 -1.1198
  677WAT    EPW 4515   0.681   6.870   1.623  0.3774  0.1519 -0.8274
  678WAT      O 4516   0.807   8.405   1.139  0.2692  0.1161  0.6594
  678WAT     H1 4517   0.863   8.470   1.182 -0.8839  2.0729 -0.6225
  678WAT     H2 4518   0.732   8.455   1.108 -0.6300 -1.8432 -0.5113
  678WAT    EPW 4519   0.805   8.420   1.140 -0.0015  0.1159  0.3359
  679WAT      O 4520   0.807   6.145   3.844  0.3820  0.5462 -0.7079
  679WAT     H1 4521   0.848   6.089   3.778 -0.1530  1.1156 -1.5361
  679WAT     H2 4522   0.724   6.173   3.804 -1.5299 -1.6083  1.3882
  679WAT    EPW 4523   0.801   6.141   3.830  0.0593  0.3369 -0.5407
  680WAT      O 4524   1.279   9.792   0.929 -0.5730  0.1620  0.9028
  680WAT     H1 4525   1.209   9.814   0.867  0.2989  0.8995  0.1637
  680WAT     H2 4526   1.239   9.728   0.988 -1.8353  0.4731  0.4152
  680WAT    EPW 4527   1.264   9.787   0.929 -0.6245  0.3004  0.7410
  681WAT      O 4528   0.540   7.101   2.512  0.7144  0.6321  0.9365
  681WAT     H1 4529   0.585   7.098   2.428  0.8387 -1.0874  1.0177
  681WAT     H2 4530   0.461   7.049   2.498  0.3720  0.9376  1.6858
  681WAT    EPW 4531   0.535   7.094   2.499  0.6857  0.4456  1.0459
  682WAT      O 4532   6.570   0.652   5.604  0.2108  0.0512  0.0805
  682WAT     H1 4533   6.640   0.711   5.576  0.8707 -0.4995  0.5262
  682WAT     H2 4534   6.504   0.710   5.643  0.0847  0.6447 -0.9665
  682WAT    EPW 4535   6.571   0.667   5.605  0.2813  0.0568  0.0012
  683WAT      O 4536   3.049  10.110   2.148 -0.3901  0.6951 -0.4203
  683WAT     H1 4537   2.999  10.163   2.086 -0.0791 -1.3062 -2.5250
  683WAT     H2 4538   3.099  10.173   2.199  0.7369  2.4671 -3.4304
  683WAT    EPW 4539   3.049  10.125   2.147 -0.2004  0.6652 -1.0948
  684WAT      O 4540  10.372   6.573   8.692  0.2482 -0.6926  0.2781
  684WAT     H1 4541  10.371   6.525   8.775  1.1835 -1.0935  0.0738
  684WAT     H2 4542  10.464   6.573   8.665 -0.1681 -1.4498 -1.2703
  684WAT    EPW 4543  10.384   6.567   8.699  0.3166 -0.8452  0.0467
  685WAT      O 4544   9.530   8.728   4.105 -0.1868  0.3038 -0.2922
  685WAT     H1 4545   9.456   8.787   4.122  0.0423  0.4905  0.0828
  685WAT     H2 4546   9.607   8.785   4.109  0.2324 -0.3223  2.0912
  685WAT    EPW 4547   9.530   8.743   4.108 -0.1016  0.2460  0.0720
  686WAT      O 4548   2.966   8.555   0.661 -0.7808 -0.4876  0.9006
  686WAT     H1 4549   3.016   8.493   0.608 -1.1593 -0.1920  0.1718
  686WAT     H2 4550   2.888   8.573   0.608 -0.1944  1.3926  0.5923
  686WAT    EPW 4551   2.962   8.549   0.647 -0.7535 -0.2003  0.7639
  687WAT      O 4552   1.020   9.680   3.903 -0.1457 -0.3688  0.6527
  687WAT     H1 4553   0.998   9.704   3.993 -2.8149 -0.9072  0.2245
  687WAT     H2 4554   1.002   9.758   3.851 -0.2101 -0.5537  0.3920
  687WAT    EPW 4555   1.015   9.693   3.908 -0.5062 -0.4640  0.5618
  688WAT      O 4556   7.899   6.405   6.628 -0.1669 -0.3451 -0.1458
  688WAT     H1 4557   7.843   6.483   6.637 -0.1878 -0.4531  0.8530
  688WAT     H2 4558   7.870   6.364   6.547 -0.2111  0.6470 -0.6513
  688WAT    EPW 4559   7.888   6.410   6.619 -0.1755 -0.2282 -0.0806
  689WAT      O 4560   2.448   2.108   3.834  0.0357  0.0243  0.2024
  689WAT     H1 4561   2.537   2.115   3.799 -0.4806  0.4476 -1.0886
  689WAT     H2 4562   2.393   2.100   3.757 -1.2422  1.8266  0.8697
  689WAT    EPW 4563   2.453   2.108   3.819 -0.2009  0.3179  0.1202
  690WAT      O 4564   8.502   3.501   8.221  0.5038 -0.0037  1.3077
  690WAT     H1 4565   8.503   3.498   8.316 -2.3618  1.8839  1.5352
  690WAT     H2 4566   8.448   3.578   8.200  0.8780 -0.4617 -1.8317
  690WAT    EPW 4567   8.495   3.511   8.231  0.1755  0.1849  0.9236
  691WAT      O 4568  10.301   5.011   8.780 -0.0232  0.0394  0.0184
  691WAT     H1 4569  10.298   4.923   8.742 -0.0143  0.2150 -0.3972
  691WAT     H2 4570  10.331   5.066   8.708  3.5244 -0.1368  1.1717
  691WAT    EPW 4571  10.305   5.007   8.765  0.4463  0.0389  0.1159
  692WAT      O 4572   0.612   9.412   5.732  0.6657  0.0816  0.0745
  692WAT     H1 4573   0.518   9.417   5.748  0.3963 -1.3980 -0.8552
  692WAT     H2 4574   0.641   9.503   5.733 -1.1252  0.7371 -1.5656
  692WAT    EPW 4575   0.603   9.425   5.734  0.3940 -0.0277 -0.2649
  693WAT      O 4576   4.009   9.643   3.434  0.2830  0.3122 -0.1766
  693WAT     H1 4577   3.973   9.558   3.458  1.2624 -0.0036  0.2071
  693WAT     H2 4578   4.004   9.645   3.338 -1.1557  0.4701 -0.1153
  693WAT    EPW 4579   4.004   9.632   3.424  0.2222  0.2913 -0.1179
  694WAT      O 4580   9.881   2.877   0.433  0.0817  0.0922  0.3340
  694WAT     H1 4581   9.853   2.862   0.523  0.3537  0.3304  0.4597
  694WAT     H2 4582   9.928   2.798   0.408 -0.8254 -0.3807  0.0672
  694WAT    EPW 4583   9.883   2.865   0.441 -0.0024  0.0613  0.3154
  695WAT      O 4584   5.384   1.571   0.366 -0.2031 -0.1048  0.3046
  695WAT     H1 4585   5.368   1.524   0.284 -1.8182  0.0053  0.5199
  695WAT     H2 4586   5.452   1.634   0.345 -0.8007  0.1262 -1.0516
  695WAT    EPW 4587   5.391   1.573   0.352 -0.4945 -0.0598  0.1541
  696WAT      O 4588   9.228   1.320   0.933 -0.7888  0.3104  0.1081
  696WAT     H1 4589   9.132   1.319   0.933 -0.8465 -2.5781 -0.6605
  696WAT     H2 4590   9.253   1.240   0.888  2.0001  0.0035  1.9433
  696WAT    EPW 4591   9.218   1.309   0.927 -0.4287 -0.1110  0.2488
  697WAT      O 4592  10.615   7.099   8.142 -0.1682 -0.6085 -0.1299
  697WAT     H1 4593  10.640   7.086   8.233  1.0240  2.0651  0.0325
  697WAT     H2 4594  10.663   7.032   8.093 -2.1272 -3.1958  1.2514
  697WAT    EPW 4595  10.624   7.089   8.147 -0.2689 -0.5970  0.0734
  698WAT      O 4596   3.918   1.392   1.898  0.5470  0.3385 -0.1575
  698WAT     H1 4597   3.909   1.338   1.820  0.7293 -0.5664  0.4311
  698WAT     H2 4598   3.986   1.349   1.950 -0.2185  0.3861  0.9311
  698WAT    EPW 4599   3.926   1.379   1.895  0.4700  0.2254  0.0637
  699WAT      O 4600   5.012   5.201   6.786 -0.6961  0.2245 -0.1266
  699WAT     H1 4601   5.005   5.269   6.853 -1.2531  0.2312 -0.1876
  699WAT     H2 4602   5.098   5.162   6.800 -0.3516  0.9760 -0.1185
  699WAT    EPW 4603   5.023   5.205   6.797 -0.7241  0.3242 -0.1330
  700WAT      O 4604   9.716   7.757   7.901  0.1650 -0.0316  0.6321
  700WAT     H1 4605   9.774   7.752   7.824 -0.8842  2.1516 -0.4013
  700WAT     H2 4606   9.727   7.847   7.932 -0.5536 -0.4458  2.1592
  700WAT    EPW 4607   9.725   7.768   7.895 -0.0682  0.2017  0.6974
  701WAT      O 4608   3.815  10.113   2.562 -0.0073 -0.5522  0.2970
  701WAT     H1 4609   3.809  10.104   2.467 -0.1390 -2.6120  0.4620
  701WAT     H2 4610   3.855  10.032   2.591 -1.5804 -0.7159  2.1628
  701WAT    EPW 4611   3.820  10.101   2.553 -0.2322 -0.8459  0.5651
  702WAT      O 4612   4.706   2.277   0.028 -0.7321 -0.3563  0.0369
  702WAT     H1 4613   4.781   2.327   0.060 -0.6283 -2.1091  2.8247
  702WAT     H2 4614   4.744   2.193   0.001 -1.8290 -2.5422  4.4889
  702WAT    EPW 4615   4.721   2.272   0.028 -0.8631 -0.8756  0.9918
  703WAT      O 4616   9.839   9.733   0.913  0.0032  0.7074  0.2660
  703WAT     H1 4617   9.925   9.695   0.929 -0.5168  0.0456  1.6212
  703WAT     H2 4618   9.786   9.659   0.884 -0.0221  1.1928 -0.9705
  703WAT    EPW 4619   9.843   9.718   0.911 -0.0687  0.6843  0.2816
  704WAT      O 4620  10.578   7.180   8.823 -0.3348 -0.0441 -0.1399
  704WAT     H1 4621  10.595   7.271   8.846  2.0433 -0.2594 -0.8120
  704WAT     H2 4622  10.523   7.185   8.745 -1.3364  0.7467  0.5711
  704WAT    EPW 4623  10.573   7.193   8.816 -0.1535  0.0317 -0.1349
  705WAT      O 4624   2.582  10.221   2.197 -0.1873  0.8414  0.1213
  705WAT     H1 4625   2.661  10.224   2.143 -1.1165 -2.6632 -1.7538
  705WAT     H2 4626   2.568  10.128   2.212 -2.8187  1.4727  2.1995
  705WAT    EPW 4627   2.591  10.209   2.192 -0.6570  0.4625  0.1481
  706WAT      O 4628   0.075   7.843   2.994  0.3589  0.0313  0.8740
  706WAT     H1 4629   0.169   7.836   3.011  0.3327 -0.8010  0.7261
  706WAT     H2 4630   0.054   7.762   2.948 -0.3732  0.3567  0.6386
  706WAT    EPW 4631   0.085   7.831   2.990  0.2589 -0.0355  0.8234
  707WAT      O 4632   5.975   1.566   1.923  0.0343  0.1555  0.2323
  707WAT     H1 4633   5.919   1.643   1.933 -1.7076 -1.1403  1.0000
  707WAT     H2 4634   6.004   1.569   1.832 -0.2063  1.5536  0.1752
  707WAT    EPW 4635   5.971   1.577   1.912 -0.2272  0.1689  0.3261
  708WAT      O 4636   0.223   8.025   0.747 -0.2258 -0.0473 -0.0297
  708WAT     H1 4637   0.272   8.102   0.718  0.0614 -0.1969  0.0520
  708WAT     H2 4638   0.133   8.041   0.718 -0.1612  0.3047 -0.0392
  708WAT    EPW 4639   0.218   8.038   0.739 -0.1794 -0.0210 -0.0202
  709WAT      O 4640   6.553   6.857   8.570  0.2851 -0.0849 -0.0424
  709WAT     H1 4641   6.559   6.833   8.478  0.4591 -1.6621  0.3549
  709WAT     H2 4642   6.467   6.824   8.599  0.7609 -0.7532  0.6572
  709WAT    EPW 4643   6.542   6.849   8.562  0.3710 -0.3812  0.1025
  710WAT      O 4644   0.509   5.315   6.802  0.1861  0.7263  0.1905
  710WAT     H1 4645   0.425   5.282   6.770  0.4580  0.0318  0.1727
  710WAT     H2 4646   0.499   5.320   6.897  0.2408  0.2909  0.2217
  710WAT    EPW 4647   0.497   5.311   6.810  0.2292  0.5772  0.1924
  711WAT      O 4648  10.377   7.596   1.728  0.0700  0.4555  0.3509
  711WAT     H1 4649  10.332   7.555   1.802  0.0384  1.5782  0.9815
  711WAT     H2 4650  10.321   7.670   1.705 -0.3018 -0.2902 -1.2914
  711WAT    EPW 4651  10.364   7.600   1.735  0.0167  0.5052  0.2174
  712WAT      O 4652   9.477   4.304   8.894 -0.4792  0.4565 -0.6307
  712WAT     H1 4653   9.438   4.389   8.916 -0.6974  0.7566 -2.0564
  712WAT     H2 4654   9.565   4.308   8.930  0.5629  2.4922 -3.0776
  712WAT    EPW 4655   9.484   4.316   8.901 -0.3705  0.7646 -1.1415
  713WAT      O 4656   7.101   0.944   2.879  0.4697 -0.4986  0.3343
  713WAT     H1 4657   7.190   0.912   2.893  0.8454  0.0695 -0.7189
  713WAT     H2 4658   7.047   0.884   2.931  1.2905 -1.9361 -0.4001
  713WAT    EPW 4659   7.106   0.932   2.888  0.6278 -0.6132  0.0985
  714WAT      O 4660   8.180   1.107   1.906  0.0669 -0.5171  0.4737
  714WAT     H1 4661   8.236   1.061   1.844 -1.0394 -4.7226  2.2357
  714WAT     H2 4662   8.101   1.128   1.856  0.3610 -1.1220 -0.2540
  714WAT    EPW 4663   8.177   1.104   1.891 -0.0405 -1.1516  0.6102
  715WAT      O 4664   1.218   5.812   8.720 -0.8937 -0.0064 -0.1685
  715WAT     H1 4665   1.227   5.850   8.808  0.4471 -1.5165  0.4094
  715WAT     H2 4666   1.273   5.868   8.665  0.4224 -0.5641  0.5152
  715WAT    EPW 4667   1.227   5.824   8.724 -0.5432 -0.2792 -0.0019
  716WAT      O 4668   3.498   9.844   4.769 -0.3520 -0.2320  0.5180
  716WAT     H1 4669   3.550   9.923   4.756  1.0389 -1.3755 -1.3275
  716WAT     H2 4670   3.548   9.775   4.727 -1.7157 -2.0570  1.7356
  716WAT    EPW 4671   3.511   9.845   4.762 -0.3483 -0.6237  0.4354
  717WAT      O 4672   4.379   0.511   2.750 -0.1551  0.6693  0.1753
  717WAT     H1 4673   4.295   0.483   2.787 -0.8374  0.6263 -1.3471
  717WAT     H2 4674   4.387   0.603   2.776 -0.8193  0.7605  0.0758
  717WAT    EPW 4675   4.369   0.519   2.759 -0.3324  0.6757 -0.0387
  718WAT      O 4676   7.615   8.264   8.783 -0.3656 -0.6427  0.1111
  718WAT     H1 4677   7.602   8.359   8.778 -2.1464 -0.9185 -2.4998
  718WAT     H2 4678   7.566   8.238   8.861 -2.0397  0.3375 -0.5479
  718WAT    EPW 4679   7.607   8.273   8.793 -0.8211 -0.5498 -0.3204
  719WAT      O 4680  10.512   8.255   3.334  0.1277  1.0724  0.1857
  719WAT     H1 4681  10.422   8.232   3.359  0.7596  0.8601  2.4998
  719WAT     H2 4682  10.517   8.349   3.350 -0.2208  1.4991 -1.9086
  719WAT    EPW 4683  10.500   8.265   3.339  0.1655  1.1010  0.2146
  720WAT      O 4684   7.531   4.265   8.388  0.1248  0.4152 -0.3195
  720WAT     H1 4685   7.525   4.183   8.438 -0.2361 -0.3892 -1.6416
  720WAT     H2 4686   7.550   4.332   8.454  1.5746 -0.8877  0.6614
  720WAT    EPW 4687   7.533   4.263   8.404  0.2685  0.1371 -0.3638
  721WAT      O 4688   1.380   9.914   0.064  0.5211 -0.3383 -0.0326
  721WAT     H1 4689   1.360   9.857   0.137 -0.9743  0.1415 -0.0327
  721WAT     H2 4690   1.363  10.003   0.097 -0.3989 -0.1296 -1.0014
  721WAT    EPW 4691   1.375   9.918   0.078  0.2025 -0.2475 -0.1604
  722WAT      O 4692   6.565   0.029   3.402  0.8169 -0.3623  0.6118
  722WAT     H1 4693   6.517  -0.004   3.477  0.9380 -0.6797  0.5491
  722WAT     H2 4694   6.656   0.003   3.417  0.5428 -2.2545 -0.6298
  722WAT    EPW 4695   6.570   0.022   3.414  0.7968 -0.6537  0.4398
  723WAT      O 4696   6.874   2.867   1.189 -0.8639 -0.3478 -0.8157
  723WAT     H1 4697   6.877   2.857   1.094  1.4179  0.6282 -0.9240
  723WAT     H2 4698   6.793   2.916   1.206  0.4832  2.8933 -2.7268
  723WAT    EPW 4699   6.864   2.872   1.179 -0.3853  0.2084 -1.0821
  724WAT      O 4700   9.182   2.354   4.378  0.6729  0.1619 -0.0226
  724WAT     H1 4701   9.266   2.393   4.356  1.0558 -0.9849 -0.6430
  724WAT     H2 4702   9.203   2.285   4.441  0.3798 -0.9866 -1.1405
  724WAT    EPW 4703   9.196   2.350   4.384  0.6847 -0.1408 -0.2518
  725WAT      O 4704  10.541   6.994   7.463  0.3546 -0.2509 -0.4090
  725WAT     H1 4705  10.452   7.014   7.436  1.0913  0.5585 -2.4578
  725WAT     H2 4706  10.542   6.900   7.477 -0.6545 -0.3846 -1.1250
  725WAT    EPW 4707  10.529   6.984   7.461  0.3185 -0.1619 -0.7737
  726WAT      O 4708   0.858   5.302   8.297 -0.4265 -0.5542  0.0226
  726WAT     H1 4709   0.935   5.300   8.354 -0.8718 -0.2440  0.6319
  726WAT     H2 4710   0.793   5.353   8.344  0.0135  1.8787 -1.7972
  726WAT    EPW 4711   0.860   5.309   8.310 -0.4272 -0.1924 -0.1373
  727WAT      O 4712   5.268   2.765   3.467  0.2537 -0.0829  0.6169
  727WAT     H1 4713   5.330   2.718   3.523 -1.7268 -2.3103  1.0939
  727WAT     H2 4714   5.227   2.829   3.526  1.8007  1.2061  0.3630
  727WAT    EPW 4715   5.270   2.767   3.483  0.1967 -0.2066  0.6462
  728WAT      O 4716   2.094   9.942   1.055 -0.2537  0.2469 -1.0227
  728WAT     H1 4717   2.086  10.031   1.087 -0.6725 -0.2611  0.3156
  728WAT     H2 4718   2.170   9.906   1.101 -0.8598 -0.4938 -0.5771
  728WAT    EPW 4719   2.103   9.949   1.065 -0.3887  0.0820 -0.7874
  729WAT      O 4720   5.963   0.094   2.606 -0.6856  0.3889  0.6026
  729WAT     H1 4721   5.992   0.169   2.658 -4.1902  1.7681  0.8936
  729WAT     H2 4722   5.912   0.041   2.668 -1.3973 -0.1959 -0.4646
  729WAT    EPW 4723   5.960   0.097   2.621 -1.2417  0.4937  0.5002
  730WAT      O 4724   1.463   0.450   2.629 -0.2482 -0.1286  0.4823
  730WAT     H1 4725   1.470   0.372   2.574  2.7178  1.0517 -1.0722
  730WAT     H2 4726   1.526   0.434   2.700  1.3465  1.2775 -0.5485
  730WAT    EPW 4727   1.473   0.437   2.631  0.3533  0.2126  0.1413
  731WAT      O 4728   6.357   2.786   0.308  0.3213 -0.0580  0.2547
  731WAT     H1 4729   6.390   2.818   0.224  0.0185  1.8665  0.8338
  731WAT     H2 4730   6.420   2.719   0.334  1.6358  0.8430 -0.4869
  731WAT    EPW 4731   6.369   2.781   0.300  0.4547  0.3146  0.2332
  732WAT      O 4732   1.979   0.578   2.323  0.3923  0.3327  0.3513
  732WAT     H1 4733   1.902   0.522   2.329  1.9482 -2.0527 -0.5243
  732WAT     H2 4734   2.039   0.542   2.388  1.5754  0.7082 -0.5044
  732WAT    EPW 4735   1.977   0.566   2.332  0.7535  0.0676  0.1229
  733WAT      O 4736   5.261   2.662   1.019  0.1407 -0.3107 -0.3553
  733WAT     H1 4737   5.230   2.626   0.937 -0.1044 -0.1542 -0.3308
  733WAT     H2 4738   5.218   2.747   1.027 -0.0619 -0.4503  0.0733
  733WAT    EPW 4739   5.251   2.668   1.009  0.0818 -0.3086 -0.2955
  734WAT      O 4740   4.346   9.096   0.355 -0.2413  0.3646  0.2519
  734WAT     H1 4741   4.314   9.174   0.400  0.3453  1.3554 -1.0003
  734WAT     H2 4742   4.438   9.115   0.339 -0.3415 -0.1388 -0.9843
  734WAT    EPW 4743   4.354   9.109   0.359 -0.1769  0.4292 -0.0763
  735WAT      O 4744   5.240   2.788   0.322 -0.2383  0.5886  0.0165
  735WAT     H1 4745   5.172   2.835   0.370 -0.5148 -0.1796  0.3901
  735WAT     H2 4746   5.204   2.775   0.235 -0.3274  0.7044  0.0361
  735WAT    EPW 4747   5.226   2.793   0.317 -0.2863  0.5025  0.0683
  736WAT      O 4748   4.663   0.275   0.475 -0.0393  0.3746 -0.2482
  736WAT     H1 4749   4.747   0.231   0.461  0.8537  2.1727 -0.8149
  736WAT     H2 4750   4.598   0.212   0.442  0.7673 -2.1757  2.5348
  736WAT    EPW 4751   4.665   0.261   0.469  0.1848  0.2754  0.0441
  737WAT      O 4752   5.612   0.326   2.924 -0.0300  0.0912 -0.8477
  737WAT     H1 4753   5.600   0.421   2.933 -0.0283 -0.0988  2.6732
  737WAT     H2 4754   5.706   0.315   2.914  0.5546  0.4682  2.7439
  737WAT    EPW 4755   5.623   0.337   2.924  0.0472  0.1159  0.0904
  738WAT      O 4756   6.945   5.747   8.752  0.3655 -0.5193  0.0423
  738WAT     H1 4757   7.028   5.718   8.789  0.0550 -0.1736  1.0544
  738WAT     H2 4758   6.941   5.707   8.666  1.9981  0.1862 -0.3916
  738WAT    EPW 4759   6.955   5.738   8.746  0.5398 -0.3805  0.1183
  739WAT      O 4760   1.300   7.257   2.687 -0.7036  0.3471  0.8796
  739WAT     H1 4761   1.295   7.271   2.781  0.0758 -0.4087  1.0462
  739WAT     H2 4762   1.375   7.198   2.675 -2.0211 -1.2449 -0.0146
  739WAT    EPW 4763   1.310   7.251   2.698 -0.7746  0.0377  0.7836
  740WAT      O 4764  10.114   4.730   7.857 -0.6894  0.4155  0.1857
  740WAT     H1 4765  10.150   4.680   7.931 -0.9798 -0.8430 -0.4948
  740WAT     H2 4766  10.191   4.767   7.814 -0.2945 -0.9011 -0.3038
  740WAT    EPW 4767  10.129   4.728   7.861 -0.6757  0.0756  0.0312
  741WAT      O 4768   2.164   8.905   0.771  0.5476  0.0294 -0.0149
  741WAT     H1 4769   2.116   8.878   0.849 -0.5224 -5.3513 -2.0908
  741WAT     H2 4770   2.099   8.954   0.719  0.2253  0.6972  0.9961
  741WAT    EPW 4771   2.149   8.908   0.774  0.3639 -0.5922 -0.1554
  742WAT      O 4772   9.305   2.759   8.278 -0.5963 -0.4131 -0.3359
  742WAT     H1 4773   9.232   2.798   8.230  0.2005  1.7338  0.0762
  742WAT     H2 4774   9.327   2.825   8.344 -0.2328 -2.3253  1.5320
  742WAT    EPW 4775   9.299   2.773   8.280 -0.4435 -0.3823 -0.0348
  743WAT      O 4776   3.728   2.543   2.963  0.0796  0.4178 -0.3613
  743WAT     H1 4777   3.778   2.614   2.921 -0.4754  1.5928  0.8829
  743WAT     H2 4778   3.675   2.507   2.892  0.9082  0.7537 -1.1830
  743WAT    EPW 4779   3.728   2.548   2.948  0.1156  0.6171 -0.3057
  744WAT      O 4780   9.850   4.912   8.478  0.8187  0.0697 -0.0558
  744WAT     H1 4781   9.756   4.930   8.477  1.0585  1.3976 -0.0485
  744WAT     H2 4782   9.858   4.824   8.441 -0.4424 -0.1579  0.1757
  744WAT    EPW 4783   9.839   4.903   8.473  0.6843  0.2148 -0.0243
  745WAT      O 4784   2.799   1.536   0.230  0.1518 -0.2734 -0.2292
  745WAT     H1 4785   2.876   1.593   0.224 -0.9806  1.3011 -0.5699
  745WAT     H2 4786   2.820   1.461   0.173  1.9962 -0.6279  0.8326
  745WAT    EPW 4787   2.812   1.534   0.221  0.2458 -0.1124 -0.1341
  746WAT      O 4788   7.114   2.226   4.632  0.0061 -0.4731  0.3742
  746WAT     H1 4789   7.171   2.290   4.587 -0.3126 -1.6710 -1.8801
  746WAT     H2 4790   7.175   2.167   4.677  0.6292 -1.5975 -1.8129
  746WAT    EPW 4791   7.130   2.227   4.632  0.0463 -0.7794 -0.2117
  747WAT      O 4792   5.553   0.428   4.517 -0.4227 -0.3461 -0.0735
  747WAT     H1 4793   5.466   0.400   4.489  0.1582 -1.9466 -0.4395
  747WAT     H2 4794   5.572   0.374   4.594 -1.2672  2.7306  2.5136
  747WAT    EPW 4795   5.544   0.417   4.523 -0.4573 -0.1514  0.2193
  748WAT      O 4796   9.880   4.629   8.467 -0.5481 -0.2648 -0.4173
  748WAT     H1 4797   9.830   4.620   8.548 -0.2370 -2.0456 -0.3644
  748WAT     H2 4798   9.820   4.600   8.398 -0.3448 -0.1978 -0.6249
  748WAT    EPW 4799   9.866   4.624   8.468 -0.4802 -0.4909 -0.4373
  749WAT      O 4800   8.497   2.949   2.177  0.1393  0.4227  0.5249
  749WAT     H1 4801   8.464   3.017   2.236  1.2002  1.1711  0.2862
  749WAT     H2 4802   8.438   2.952   2.102  0.4300  1.3842  0.3288
  749WAT    EPW 4803   8.484   2.958   2.175  0.3171  0.6483  0.4675
  750WAT      O 4804   4.938   2.908   2.545  0.5358  0.5436  0.0668
  750WAT     H1 4805   4.856   2.887   2.590 -0.2821 -0.2290 -1.6601
  750WAT     H2 4806   4.926   2.871   2.457  3.1426 -0.4596  0.0750
  750WAT    EPW 4807   4.925   2.900   2.539  0.7720  0.3095 -0.1597
  751WAT      O 4808   9.795   3.666   0.179  0.0191  0.4239 -0.0757
  751WAT     H1 4809   9.808   3.578   0.215 -0.0356 -0.2242 -1.5686
  751WAT     H2 4810   9.702   3.670   0.159  0.3466  0.0646 -1.8213
  751WAT    EPW 4811   9.785   3.655   0.181  0.0548  0.2911 -0.5028
  752WAT      O 4812   2.545   6.926   0.174 -0.6413  0.0488  0.1238
  752WAT     H1 4813   2.553   6.856   0.110 -1.6034 -0.4081  0.4852
  752WAT     H2 4814   2.504   6.885   0.249 -0.0722  0.7238  0.8157
  752WAT    EPW 4815   2.541   6.912   0.175 -0.6931  0.0777  0.2628
  753WAT      O 4816   3.033   0.807   2.253  0.0126 -0.5716  0.0690
  753WAT     H1 4817   2.941   0.833   2.259  0.1174  0.0281 -0.7333
  753WAT     H2 4818   3.041   0.768   2.166  0.2770 -1.6337  0.5595
  753WAT    EPW 4819   3.022   0.806   2.243  0.0613 -0.6326  0.0280
  754WAT      O 4820  10.697   5.005   8.541 -0.7095 -0.5991  0.3590
  754WAT     H1 4821  10.768   5.008   8.605 -0.9705  0.0105  0.6232
  754WAT     H2 4822  10.631   5.064   8.575 -0.1518  1.0944 -1.3086
  754WAT    EPW 4823  10.698   5.013   8.554 -0.6704 -0.2952  0.1745
  755WAT      O 4824   5.841   4.250   8.086  0.4174  0.2912  0.4680
  755WAT     H1 4825   5.750   4.226   8.067 -1.1943  4.4452  1.8055
  755WAT     H2 4826   5.855   4.219   8.176 -0.3105  1.1412  0.8818
  755WAT    EPW 4827   5.831   4.242   8.096  0.1092  0.9513  0.6990
  756WAT      O 4828   9.899   5.955   8.920 -0.4497  0.1918  0.1106
  756WAT     H1 4829   9.858   5.990   8.999 -0.4549  1.9905 -0.6439
  756WAT     H2 4830   9.962   5.891   8.952  0.3435  1.6727  1.6629
  756WAT    EPW 4831   9.902   5.951   8.935 -0.3457  0.6247  0.2155
  757WAT      O 4832   2.937   6.570   1.784 -0.1130  0.1147 -0.1491
  757WAT     H1 4833   2.996   6.599   1.715  1.4426  3.1092  2.1995
  757WAT     H2 4834   2.880   6.645   1.800 -1.9948 -1.3384  0.2885
  757WAT    EPW 4835   2.937   6.583   1.777 -0.1559  0.3181  0.2185
  758WAT      O 4836  10.257   7.494   6.907 -0.1934  0.4552 -0.4645
  758WAT     H1 4837  10.290   7.445   6.832  1.1115  1.6940 -0.7402
  758WAT     H2 4838  10.320   7.565   6.920 -0.5571  0.4743  1.6132
  758WAT    EPW 4839  10.270   7.497   6.899 -0.0696  0.6213 -0.2270
  759WAT      O 4840   7.786   2.099   0.889  0.3847 -0.0626 -0.2515
  759WAT     H1 4841   7.827   2.169   0.839 -0.4987  0.5216 -0.1827
  759WAT     H2 4842   7.823   2.106   0.977 -0.9284  1.4263  0.2315
  759WAT    EPW 4843   7.796   2.109   0.894  0.0954  0.2109 -0.1787
  760WAT      O 4844   1.686  10.155   1.922  0.0314 -0.3690 -0.5213
  760WAT     H1 4845   1.760  10.175   1.979 -0.3049 -0.1806 -0.1559
  760WAT     H2 4846   1.681  10.059   1.923  0.3329 -0.3890 -0.6318
  760WAT    EPW 4847   1.695  10.145   1.929  0.0268 -0.3471 -0.4877
  761WAT      O 4848   4.394   8.367   1.880  0.0295  0.4161  0.0306
  761WAT     H1 4849   4.425   8.308   1.811 -0.1312  0.0459  0.2685
  761WAT     H2 4850   4.467   8.426   1.896  0.1791  0.3063 -0.2386
  761WAT    EPW 4851   4.408   8.367   1.873  0.0281  0.3529  0.0263
  762WAT      O 4852   4.189  10.002   0.221 -0.2165 -0.7325 -0.4528
  762WAT     H1 4853   4.274  10.047   0.214 -1.1835  1.2857  0.1539
  762WAT     H2 4854   4.201   9.940   0.293  0.5281  0.0752  0.1361
  762WAT    EPW 4855   4.202  10.000   0.229 -0.2458 -0.3600 -0.2951
  763WAT      O 4856   1.361   9.268   1.495  0.0107 -0.4080  0.1079
  763WAT     H1 4857   1.381   9.325   1.421 -0.3061  0.9228  0.9989
  763WAT     H2 4858   1.416   9.191   1.482  0.0951 -0.1213 -1.3984
  763WAT    EPW 4859   1.371   9.266   1.484 -0.0200 -0.1950  0.0267
  764WAT      O 4860   8.440   3.961   3.020  0.1595  0.6791  0.0930
  764WAT     H1 4861   8.415   3.949   2.928  1.4156  0.9892 -0.2972
  764WAT     H2 4862   8.516   3.904   3.032  2.2303  3.2185 -0.0575
  764WAT    EPW 4863   8.446   3.952   3.009  0.5980  1.0549  0.0217
  765WAT      O 4864   6.015   2.393   6.794  0.0622 -0.5608  0.9411
  765WAT     H1 4865   6.089   2.446   6.824 -0.0293 -0.6013  1.2375
  765WAT     H2 4866   6.054   2.308   6.771  0.7607  0.5291 -2.5129
  765WAT    EPW 4867   6.030   2.389   6.795  0.1423 -0.4224  0.5245
  766WAT      O 4868   5.028   3.452   0.607  0.1265 -0.1277  0.6568
  766WAT     H1 4869   5.025   3.358   0.590  0.3616  0.0797 -0.6193
  766WAT     H2 4870   5.121   3.472   0.615  0.0690 -0.0241  1.1412
  766WAT    EPW 4871   5.040   3.443   0.606  0.1502 -0.0868  0.5524
  767WAT      O 4872   6.399   0.939   4.451 -0.4419  0.1959  0.1133
  767WAT     H1 4873   6.372   0.848   4.459 -1.0442  0.4145  0.6688
  767WAT     H2 4874   6.431   0.947   4.362  0.7413 -0.8556  0.4126
  767WAT    EPW 4875   6.400   0.928   4.440 -0.3653  0.0860  0.2258
  768WAT      O 4876   0.005   8.507   3.097 -0.0902 -0.6310 -0.0689
  768WAT     H1 4877  -0.057   8.446   3.137 -0.5393 -0.4168 -0.4178
  768WAT     H2 4878   0.005   8.484   3.004 -0.2938 -0.0869 -0.2108
  768WAT    EPW 4879  -0.003   8.496   3.090 -0.1763 -0.5307 -0.1336
  769WAT      O 4880   7.182   4.605   6.490 -0.4008 -0.1311 -0.3148
  769WAT     H1 4881   7.211   4.640   6.406 -0.5814  0.6491 -0.0584
  769WAT     H2 4882   7.090   4.631   6.496 -0.4549 -0.3927  0.0137
  769WAT    EPW 4883   7.174   4.613   6.480 -0.4320 -0.0627 -0.2377
  770WAT      O 4884   6.149   2.145   1.013  0.4988 -0.8435  0.0338
  770WAT     H1 4885   6.158   2.113   0.923 -0.9247 -2.1939  0.3362
  770WAT     H2 4886   6.200   2.084   1.066 -0.4016 -1.3358  0.3622
  770WAT    EPW 4887   6.157   2.133   1.008  0.1924 -1.0866  0.1169
  771WAT      O 4888   5.930   2.220   0.634  0.7370  0.7532 -0.1679
  771WAT     H1 4889   5.889   2.137   0.658 -0.2752  1.1729 -0.3859
  771WAT     H2 4890   5.932   2.270   0.716  2.4952  0.0845  0.2568
  771WAT    EPW 4891   5.925   2.215   0.648  0.8354  0.7203 -0.1406
  772WAT      O 4892   1.267   0.947   2.664 -0.1581 -0.2912  0.3911
  772WAT     H1 4893   1.336   0.942   2.598 -0.9954 -4.1384 -0.4148
  772WAT     H2 4894   1.304   0.902   2.740 -1.1063 -0.6610  0.6384
  772WAT    EPW 4895   1.281   0.941   2.665 -0.3936 -0.8474  0.3175
  773WAT      O 4896  10.972   5.643   8.468  0.0479  0.7211 -0.0912
  773WAT     H1 4897  10.893   5.655   8.521 -0.2005 -0.2490 -0.2303
  773WAT     H2 4898  10.952   5.684   8.384 -0.4493  0.1444 -0.2555
  773WAT    EPW 4899  10.959   5.650   8.464 -0.0504  0.5174 -0.1311
  774WAT      O 4900   2.166   8.197   0.403  0.3753  0.1707  0.2691
  774WAT     H1 4901   2.088   8.244   0.373  2.2366  3.7216  0.5034
  774WAT     H2 4902   2.230   8.212   0.334  1.9129  0.4479  1.7033
  774WAT    EPW 4903   2.164   8.205   0.390  0.8236  0.6757  0.4892
  775WAT      O 4904  10.960   3.418   7.647 -0.1910  0.3244 -0.3728
  775WAT     H1 4905  11.005   3.486   7.595  3.2384  0.8814  2.8444
  775WAT     H2 4906  10.901   3.467   7.704  0.8970  0.4905  0.6523
  775WAT    EPW 4907  10.958   3.434   7.648  0.4044  0.4197  0.1864
  776WAT      O 4908   5.959   9.848   8.044  0.2480  0.7078  0.0689
  776WAT     H1 4909   5.891   9.883   7.986 -0.6913 -2.1199 -0.7180
  776WAT     H2 4910   5.911   9.821   8.123  0.7041  0.1544  0.1636
  776WAT    EPW 4911   5.943   9.849   8.047  0.1843  0.2618 -0.0215
  777WAT      O 4912   1.632   5.259   1.323  0.1376 -0.6007  0.2840
  777WAT     H1 4913   1.721   5.286   1.298  0.9917 -0.1796  3.4434
  777WAT     H2 4914   1.623   5.171   1.286  0.3462  0.7094 -3.2894
  777WAT    EPW 4915   1.643   5.251   1.314  0.2777 -0.3724  0.2294
  778WAT      O 4916  10.936   8.967   0.256  0.4624  0.4043  0.8890
  778WAT     H1 4917  10.873   8.908   0.215  1.8096 -1.5154  1.4526
  778WAT     H2 4918  10.905   9.055   0.234 -2.5084 -0.4399  1.3269
  778WAT    EPW 4919  10.924   8.971   0.248  0.2484  0.0405  1.0211
  779WAT      O 4920   0.514   9.330   3.023 -0.3343  0.2878  0.5121
  779WAT     H1 4921   0.472   9.376   2.950 -0.5370 -1.4665 -0.5327
  779WAT     H2 4922   0.596   9.378   3.038 -0.6525  1.1344 -0.3368
  779WAT    EPW 4923   0.519   9.342   3.016 -0.4030  0.1683  0.2624
  780WAT      O 4924   2.828   2.812   0.841  0.2348 -0.3210 -0.3707
  780WAT     H1 4925   2.896   2.774   0.896  1.7626 -2.4265 -3.4574
  780WAT     H2 4926   2.835   2.907   0.857  4.0964 -0.4007 -0.6655
  780WAT    EPW 4927   2.838   2.820   0.850  0.9458 -0.6093 -0.8167
  781WAT      O 4928   5.412   1.997   0.710 -0.0424 -0.1670  0.3263
  781WAT     H1 4929   5.448   2.039   0.788  0.9689  1.6399 -1.0365
  781WAT     H2 4930   5.463   1.916   0.701  0.8479  0.3278  0.7386
  781WAT    EPW 4931   5.424   1.992   0.719  0.2084  0.1366  0.2010
  782WAT      O 4932   6.798   6.951   8.825  0.1923  0.6516 -0.3491
  782WAT     H1 4933   6.720   6.999   8.853 -0.2576  1.5193 -2.8631
  782WAT     H2 4934   6.871   7.008   8.850 -0.0283  0.4873  0.7391
  782WAT    EPW 4935   6.798   6.965   8.832  0.1040  0.7446 -0.5369
  783WAT      O 4936   9.509  10.166   4.736 -0.1459 -0.2060 -0.0053
  783WAT     H1 4937   9.601  10.193   4.737 -0.5889  1.3659  0.9775
  783WAT     H2 4938   9.512  10.071   4.746  1.3200  0.0010  2.1025
  783WAT    EPW 4939   9.521  10.157   4.737 -0.0114  0.0286  0.4025
  784WAT      O 4940  10.723   9.223   1.241 -0.1178  0.0172  1.0859
  784WAT     H1 4941  10.648   9.229   1.300 -1.9166  0.1574 -1.0871
  784WAT     H2 4942  10.744   9.313   1.219  0.7834 -0.0171  1.7820
  784WAT    EPW 4943  10.716   9.235   1.246 -0.2360  0.0305  0.8911
  785WAT      O 4944   7.638   0.249   3.374 -0.5169 -0.1095  0.0220
  785WAT     H1 4945   7.544   0.237   3.392  0.0081 -1.6950  2.0968
  785WAT     H2 4946   7.669   0.304   3.445  0.1160  0.6574 -0.8229
  785WAT    EPW 4947   7.629   0.254   3.386 -0.3641 -0.2175  0.1844
  786WAT      O 4948   8.857   2.893   8.826  0.2509  0.4156 -0.1464
  786WAT     H1 4949   8.885   2.984   8.821 -1.1170  0.8896  0.2112
  786WAT     H2 4950   8.935   2.845   8.854  0.6819  1.6543  0.8590
  786WAT    EPW 4951   8.871   2.898   8.829  0.1283  0.6416  0.0334
  787WAT      O 4952   1.976   9.297   3.697 -0.5293  0.8429 -0.1201
  787WAT     H1 4953   2.001   9.389   3.690 -0.9618  0.9340 -0.4540
  787WAT     H2 4954   1.912   9.295   3.769 -0.5756  0.8154 -0.1621
  787WAT    EPW 4955   1.971   9.309   3.706 -0.5924  0.8516 -0.1696
  788WAT      O 4956   6.320   2.468   2.391  0.2774 -0.6304 -0.4900
  788WAT     H1 4957   6.237   2.434   2.358 -0.2063  0.8997 -0.9528
  788WAT     H2 4958   6.304   2.562   2.404  1.9092 -0.3175 -0.4922
  788WAT    EPW 4959   6.307   2.476   2.388  0.4287 -0.3873 -0.5513
  789WAT      O 4960   7.663   1.883   1.690  0.0962  0.0813  0.0913
  789WAT     H1 4961   7.666   1.971   1.653 -2.2981 -0.2489 -1.0908
  789WAT     H2 4962   7.720   1.831   1.633  1.7720  0.8690  0.9811
  789WAT    EPW 4963   7.671   1.888   1.678  0.0014  0.1416  0.0527
  790WAT      O 4964   2.176   8.565   0.384  0.4851 -0.4709  0.7255
  790WAT     H1 4965   2.254   8.538   0.433  0.0450 -0.2121  1.5840
  790WAT     H2 4966   2.186   8.659   0.372  1.5167 -0.8039 -1.3723
  790WAT    EPW 4967   2.188   8.573   0.389  0.5631 -0.4802  0.5621
  791WAT      O 4968   0.753   8.374   4.985  0.1788  0.2644  0.2014
  791WAT     H1 4969   0.823   8.318   4.952  0.8679 -0.3444  2.4659
  791WAT     H2 4970   0.748   8.353   5.079 -3.1053  0.1869  0.1454
  791WAT    EPW 4971   0.762   8.363   4.993 -0.1635  0.1731  0.4928
  792WAT      O 4972   2.771   8.833   0.758  0.3325 -0.3851  0.6172
  792WAT     H1 4973   2.742   8.742   0.759 -0.9523 -0.0164 -0.3890
  792WAT     H2 4974   2.720   8.876   0.826  1.8356 -0.6370  1.9608
  792WAT    EPW 4975   2.761   8.827   0.767  0.3612 -0.3700  0.6617
  793WAT      O 4976   7.167   0.927   1.685 -0.5495 -1.0706  0.4759
  793WAT     H1 4977   7.215   0.846   1.701 -1.1349 -1.4648  0.2415
  793WAT     H2 4978   7.103   0.905   1.618  1.0032  0.2412 -1.5532
  793WAT    EPW 4979   7.165   0.913   1.678 -0.4218 -0.9497  0.1774
  794WAT      O 4980   2.907   7.775   1.987  0.2099 -1.0802  0.0751
  794WAT     H1 4981   2.923   7.847   1.926  1.6348  0.3691  2.0476
  794WAT     H2 4982   2.822   7.739   1.960  0.1903  0.3008 -1.9273
  794WAT    EPW 4983   2.898   7.779   1.975  0.3952 -0.7071  0.0711
  795WAT      O 4984   2.447   5.271   7.589 -0.4912  0.2491  0.4261
  795WAT     H1 4985   2.396   5.195   7.615 -0.4221  0.5078  1.3622
  795WAT     H2 4986   2.458   5.321   7.670  0.0087  0.9271 -0.0492
  795WAT    EPW 4987   2.442   5.268   7.604 -0.4163  0.3726  0.4871
  796WAT      O 4988   9.639   7.280   7.572  0.0499 -0.6735 -0.3560
  796WAT     H1 4989   9.691   7.242   7.501  0.5045  0.6271 -0.7408
  796WAT     H2 4990   9.557   7.305   7.530  0.0411 -0.5598 -0.2691
  796WAT    EPW 4991   9.635   7.278   7.557  0.1087 -0.4869 -0.3953
  797WAT      O 4992   7.950   3.652   0.794  0.0715 -0.2837  0.5776
  797WAT     H1 4993   7.898   3.571   0.792  0.1832 -0.5844 -4.6597
  797WAT     H2 4994   8.026   3.630   0.847 -2.3427 -1.6358  3.8472
  797WAT    EPW 4995   7.953   3.638   0.801 -0.2322 -0.5016  0.3180
  798WAT      O 4996   6.338   0.487   0.366  0.7070  0.0610  0.5750
  798WAT     H1 4997   6.323   0.463   0.274  1.0139  0.4539  0.4212
  798WAT     H2 4998   6.278   0.430   0.415 -0.0641  0.4204  0.0774
  798WAT    EPW 4999   6.328   0.476   0.360  0.6456  0.1602  0.4891
  799WAT      O 5000   9.184   4.490   6.859 -0.6925 -0.3873 -0.5882
  799WAT     H1 5001   9.164   4.512   6.768  0.0647  1.7019 -0.3080
  799WAT     H2 5002   9.249   4.420   6.853 -2.0806 -1.6427 -1.5906
  799WAT    EPW 5003   9.190   4.483   6.847 -0.7758 -0.2773 -0.6835
  800WAT      O 5004   8.923   3.267   2.257  0.6661  0.6173 -0.6998
  800WAT     H1 5005   8.924   3.252   2.352  0.4730 -0.6853 -0.8801
  800WAT     H2 5006   8.953   3.184   2.220  0.5096  1.0338 -1.7950
  800WAT    EPW 5007   8.927   3.254   2.265  0.6199  0.5006 -0.8682
  801WAT      O 5008   8.716   7.299   7.844 -0.5065 -0.4125 -0.2455
  801WAT     H1 5009   8.733   7.380   7.892  0.4180 -0.3880 -0.5923
  801WAT     H2 5010   8.791   7.290   7.785 -1.4588 -0.6291 -1.4461
  801WAT    EPW 5011   8.728   7.308   7.843 -0.5093 -0.4377 -0.4494
  802WAT      O 5012   0.291   6.588   7.688  0.4331 -0.4157  0.5895
  802WAT     H1 5013   0.207   6.554   7.657  0.5842 -0.0541 -0.2484
  802WAT     H2 5014   0.274   6.615   7.778 -0.4258 -0.0967  0.3406
  802WAT    EPW 5015   0.278   6.587   7.696  0.3398 -0.3259  0.4458
  803WAT      O 5016  10.513   6.506   0.378 -0.2080 -0.2189 -0.3052
  803WAT     H1 5017  10.496   6.584   0.431 -0.9635  0.0728 -0.9659
  803WAT     H2 5018  10.488   6.433   0.435  0.7715 -0.0103  0.4199
  803WAT    EPW 5019  10.508   6.507   0.393 -0.1783 -0.1533 -0.2967
  804WAT      O 5020   6.870   0.408   6.700  0.1143 -0.5426 -0.2020
  804WAT     H1 5021   6.963   0.434   6.703 -0.1756  0.4230  2.1998
  804WAT     H2 5022   6.822   0.491   6.698 -0.7293 -0.9918  0.7619
  804WAT    EPW 5023   6.876   0.423   6.700 -0.0350 -0.4745  0.2420
  805WAT      O 5024   7.386   4.559   1.000  0.5354  0.0210 -0.2192
  805WAT     H1 5025   7.374   4.530   1.091  0.4291 -3.5953 -1.2325
  805WAT     H2 5026   7.342   4.644   0.996  1.6073  0.9069  3.3543
  805WAT    EPW 5027   7.379   4.567   1.012  0.6626 -0.3393  0.1185
  806WAT      O 5028   2.267   9.462   6.314 -0.1210 -0.3094 -0.0839
  806WAT     H1 5029   2.249   9.375   6.350  1.0736 -1.4567 -2.0811
  806WAT     H2 5030   2.182   9.506   6.314 -0.8762 -1.7042  0.4079
  806WAT    EPW 5031   2.253   9.456   6.319 -0.0632 -0.6447 -0.2825
  807WAT      O 5032  10.202   4.093   7.339 -0.0569 -0.5692 -0.3428
  807WAT     H1 5033  10.140   4.023   7.357 -0.4570 -0.8169 -2.4627
  807WAT     H2 5034  10.147   4.170   7.323  0.2066 -0.5541 -1.2335
  807WAT    EPW 5035  10.187   4.094   7.339 -0.0744 -0.6001 -0.7398
  808WAT      O 5036   6.113   4.649   0.588 -0.2508  0.6729  0.4854
  808WAT     H1 5037   6.075   4.601   0.661  2.2831 -1.5701  0.4741
  808WAT     H2 5038   6.062   4.622   0.512 -0.9966  0.6666  0.9853
  808WAT    EPW 5039   6.101   4.639   0.587 -0.0150  0.3762  0.5498
  809WAT      O 5040   2.046   0.188   8.026  0.2679 -0.1296  0.6404
  809WAT     H1 5041   1.967   0.213   7.978  0.4270  1.0309  0.9438
  809WAT     H2 5042   2.016   0.122   8.089 -0.1815 -0.7143 -0.1619
  809WAT    EPW 5043   2.032   0.183   8.028  0.2297 -0.0537  0.5746
  810WAT      O 5044   9.035   9.920   0.172  0.6299 -0.3247 -0.3018
  810WAT     H1 5045   9.130   9.916   0.173  0.6091 -0.7964 -0.0860
  810WAT     H2 5046   9.007   9.857   0.238  0.2123  1.1284  0.9608
  810WAT    EPW 5047   9.044   9.911   0.181  0.5722 -0.1955 -0.1068
  811WAT      O 5048   9.314   4.756   1.480 -0.3656 -0.4360 -0.4515
  811WAT     H1 5049   9.318   4.739   1.574  0.3260 -1.1545 -0.6009
  811WAT     H2 5050   9.227   4.794   1.466  0.8022  3.2319  1.0511
  811WAT    EPW 5051   9.303   4.759   1.491 -0.1202 -0.0467 -0.2730
  812WAT      O 5052  10.196   8.854   7.224  0.5728 -1.2206  0.5723
  812WAT     H1 5053  10.216   8.853   7.131 -0.7955  1.1017  0.1746
  812WAT     H2 5054  10.282   8.853   7.267  1.2597 -1.0869 -0.7610
  812WAT    EPW 5055  10.210   8.854   7.217  0.4830 -0.8969  0.3438
  813WAT      O 5056   1.445   1.350   7.327 -0.5033  0.2708 -1.1354
  813WAT     H1 5057   1.387   1.321   7.397  1.3929 -1.7397 -0.2503
  813WAT     H2 5058   1.526   1.376   7.371 -0.6620  3.1876 -2.2994
  813WAT    EPW 5059   1.448   1.350   7.342 -0.2741  0.3904 -1.1721
  814WAT      O 5060   6.841   2.953   6.224 -0.0215 -0.1474  0.1106
  814WAT     H1 5061   6.806   3.019   6.285 -0.5674 -1.5631  1.3924
  814WAT     H2 5062   6.894   2.896   6.279  3.5625  1.2511 -1.5708
  814WAT    EPW 5063   6.843   2.954   6.240  0.3793 -0.1497  0.0577
  815WAT      O 5064   2.419   6.947   2.036  0.6137  0.6118 -0.1075
  815WAT     H1 5065   2.423   7.020   2.098  0.6443  1.6131 -1.2387
  815WAT     H2 5066   2.340   6.899   2.060  0.0874  1.5544  0.0966
  815WAT    EPW 5067   2.409   6.951   2.047  0.5484  0.8683 -0.2297
  816WAT      O 5068   7.849   4.352   7.940 -0.0765 -0.3886  0.1049
  816WAT     H1 5069   7.787   4.413   7.899  1.8108  0.6402 -1.3993
  816WAT     H2 5070   7.820   4.347   8.031 -1.0946  1.7414 -0.0229
  816WAT    EPW 5071   7.837   4.360   7.947  0.0381  0.0281 -0.1101
  817WAT      O 5072   8.720   2.938   3.465 -0.5152 -0.5670 -0.4865
  817WAT     H1 5073   8.757   3.025   3.449  1.1937 -0.9695  0.9548
  817WAT     H2 5074   8.673   2.917   3.384  1.6239  0.4436 -2.1055
  817WAT    EPW 5075   8.719   2.947   3.452 -0.0076 -0.4867 -0.5101
  818WAT      O 5076   0.226  10.359   7.923 -0.1100 -0.1754  0.7621
  818WAT     H1 5077   0.300  10.376   7.982  0.1493 -0.4501  0.5189
  818WAT     H2 5078   0.150  10.359   7.981 -0.0952  1.4720  0.8131
  818WAT    EPW 5079   0.226  10.361   7.939 -0.0738  0.0057  0.7367
  819WAT      O 5080   4.283   2.106   5.833  0.3862 -0.2354 -0.0667
  819WAT     H1 5081   4.207   2.162   5.814 -0.0712 -0.9698 -0.4382
  819WAT     H2 5082   4.327   2.097   5.748 -0.5662 -1.9211 -0.4224
  819WAT    EPW 5083   4.279   2.112   5.819  0.2003 -0.5547 -0.1626
  820WAT      O 5084  10.647   8.692   0.494 -0.3847  0.3517  0.3294
  820WAT     H1 5085  10.609   8.669   0.579 -0.3367  1.8021  0.7712
  820WAT     H2 5086  10.576   8.732   0.445 -0.5389 -0.8999 -0.5321
  820WAT    EPW 5087  10.633   8.694   0.499 -0.3991  0.3772  0.2740
  821WAT      O 5088   6.194   1.602   8.837  0.2607 -0.1699 -0.4172
  821WAT     H1 5089   6.287   1.584   8.820  0.5812  2.1059 -1.4112
  821WAT     H2 5090   6.185   1.696   8.822 -2.4210 -0.4953 -1.2617
  821WAT    EPW 5091   6.205   1.612   8.833 -0.0508  0.0873 -0.6599
  822WAT      O 5092   2.520   0.187   1.660 -0.2398 -0.2595 -0.2388
  822WAT     H1 5093   2.611   0.205   1.682  0.2975 -1.7957 -1.1021
  822WAT     H2 5094   2.508   0.095   1.682 -1.8860  0.1507  0.7831
  822WAT    EPW 5095   2.530   0.177   1.666 -0.3862 -0.4080 -0.2178
  823WAT      O 5096   5.885   2.569   6.199 -0.3499 -1.2311  0.1316
  823WAT     H1 5097   5.844   2.542   6.116 -0.9520 -1.3751  0.4714
  823WAT     H2 5098   5.817   2.619   6.244 -0.1242 -1.4015  0.6676
  823WAT    EPW 5099   5.870   2.572   6.194 -0.3996 -1.2724  0.2472
  824WAT      O 5100   7.293   0.382   7.933  0.0506 -0.2007 -0.0344
  824WAT     H1 5101   7.266   0.309   7.989  2.4226  0.4830  2.1886
  824WAT     H2 5102   7.378   0.409   7.968  0.3720  2.0979 -2.3015
  824WAT    EPW 5103   7.301   0.376   7.945  0.4055  0.1926 -0.0401
  825WAT      O 5104   6.744   1.223   7.718  0.0389  0.8807  0.0263
  825WAT     H1 5105   6.741   1.309   7.677  0.4814  0.1722 -1.5874
  825WAT     H2 5106   6.829   1.187   7.691 -0.2250 -0.1322  0.5069
  825WAT    EPW 5107   6.755   1.229   7.709  0.0625  0.6536 -0.1230
  826WAT      O 5108   7.331   2.567   8.417 -0.1803  0.1057 -0.3784
  826WAT     H1 5109   7.375   2.644   8.452  0.3348 -1.5167  2.9363
  826WAT     H2 5110   7.400   2.522   8.368 -0.5033  1.6777 -2.4022
  826WAT    EPW 5111   7.346   2.571   8.415 -0.1552  0.0991 -0.2079
  827WAT      O 5112   9.725   5.404   0.658  0.1030 -0.4921 -0.6320
  827WAT     H1 5113   9.674   5.380   0.736 -0.3106  2.3309  0.0570
  827WAT     H2 5114   9.794   5.338   0.653  0.4607 -0.4878  2.4571
  827WAT    EPW 5115   9.727   5.392   0.668  0.0958 -0.1190 -0.1337
  828WAT      O 5116   9.641   6.715   1.730 -0.5572 -0.2012  0.6179
  828WAT     H1 5117   9.721   6.667   1.712 -0.5716 -0.2397  0.6533
  828WAT     H2 5118   9.598   6.724   1.645  0.2382  1.1715  0.3327
  828WAT    EPW 5119   9.646   6.710   1.717 -0.4539 -0.0253  0.5850
  829WAT      O 5120   6.679   2.571   8.204  0.5957 -0.4124  0.0869
  829WAT     H1 5121   6.724   2.588   8.121 -2.2894  0.5081 -1.4308
  829WAT     H2 5122   6.724   2.627   8.268  0.1045  2.3882 -1.8503
  829WAT    EPW 5123   6.691   2.580   8.202  0.1504  0.0786 -0.3691
  830WAT      O 5124   5.872   1.258   8.040  0.0876 -0.5229 -0.1745
  830WAT     H1 5125   5.858   1.222   7.952 -1.8289  1.1020 -0.6121
  830WAT     H2 5126   5.788   1.246   8.084  1.0715 -1.4676  1.5506
  830WAT    EPW 5127   5.859   1.252   8.034 -0.0353 -0.4331 -0.0043
  831WAT      O 5128   6.608   2.698   7.394  0.1185 -0.0717  0.4981
  831WAT     H1 5129   6.633   2.685   7.302 -0.9869 -0.9578  0.3111
  831WAT     H2 5130   6.666   2.640   7.443  0.1169 -0.2475  0.2922
  831WAT    EPW 5131   6.619   2.689   7.388 -0.0277 -0.2117  0.4463
  832WAT      O 5132   6.212   1.189   7.057 -0.4730 -0.0079 -0.3298
  832WAT     H1 5133   6.142   1.127   7.034  0.1822 -0.6606 -0.6100
  832WAT     H2 5134   6.293   1.144   7.033  0.0930  0.4372  0.6646
  832WAT    EPW 5135   6.213   1.175   7.051 -0.3121 -0.0352 -0.2358
  833WAT      O 5136   8.495   0.059   7.374 -0.0389  0.0105  0.7019
  833WAT     H1 5137   8.489   0.035   7.281 -1.8963  0.8902  0.5390
  833WAT     H2 5138   8.412   0.104   7.392  0.4326  0.1598  2.7126
  833WAT    EPW 5139   8.483   0.062   7.364 -0.2217  0.1464  0.9453
  834WAT      O 5140   6.102   0.702   8.166 -0.0605 -0.2863  0.0863
  834WAT     H1 5141   6.160   0.702   8.090 -0.1677  2.3708 -0.0706
  834WAT     H2 5142   6.160   0.712   8.241 -0.0001 -2.3577  0.3678
  834WAT    EPW 5143   6.117   0.703   8.166 -0.0668 -0.2091  0.1025
  835WAT      O 5144   8.748   0.141   6.821  0.1566 -0.9964 -0.3663
  835WAT     H1 5145   8.701   0.059   6.808 -1.7915 -0.2782  1.4583
  835WAT     H2 5146   8.679   0.208   6.822  0.9834  0.0482  3.2716
  835WAT    EPW 5147   8.733   0.139   6.820  0.0091 -0.7639  0.3543
  836WAT      O 5148   9.106   5.861   2.083 -0.6333  0.2035  0.1006
  836WAT     H1 5149   9.048   5.853   2.007 -0.9867 -2.0821  0.5228
  836WAT     H2 5150   9.106   5.773   2.121 -0.6654  1.3273  2.8922
  836WAT    EPW 5151   9.098   5.848   2.078 -0.6838  0.0501  0.5245
  837WAT      O 5152   7.229   3.227   6.977 -0.3048  0.5640  1.1657
  837WAT     H1 5153   7.306   3.186   6.938 -0.2929 -0.1634  1.9316
  837WAT     H2 5154   7.156   3.193   6.927 -0.0962  1.7973 -0.0220
  837WAT    EPW 5155   7.230   3.217   6.966 -0.2759  0.6306  1.1101
  838WAT      O 5156   1.057   8.260   0.009 -0.5205  0.3197 -0.2119
  838WAT     H1 5157   1.144   8.223   0.024 -0.5097  0.9854  1.5528
  838WAT     H2 5158   1.073   8.354  -0.002 -1.1720  0.7960  2.3805
  838WAT    EPW 5159   1.071   8.268   0.009 -0.6046  0.4702  0.3629
  839WAT      O 5160   1.190   3.949   2.151  0.5643  0.1611 -0.2829
  839WAT     H1 5161   1.194   3.866   2.104 -0.8401  0.4160 -0.9046
  839WAT     H2 5162   1.135   4.005   2.097  0.6498  1.1769  0.6336
  839WAT    EPW 5163   1.184   3.946   2.138  0.3904  0.3285 -0.2440
  840WAT      O 5164  10.695   4.115   3.339  0.0413 -0.2431 -0.1906
  840WAT     H1 5165  10.775   4.073   3.309  0.4038  0.9752 -1.0142
  840WAT     H2 5166  10.642   4.125   3.260  0.5903  2.1320 -0.3339
  840WAT    EPW 5167  10.698   4.111   3.325  0.1616  0.2310 -0.3182
  841WAT      O 5168   0.593   5.860   1.281 -0.1746 -0.2036 -0.2186
  841WAT     H1 5169   0.554   5.924   1.340 -0.4755  0.2763 -0.9257
  841WAT     H2 5170   0.609   5.909   1.201 -0.3533 -1.0047 -0.7487
  841WAT    EPW 5171   0.590   5.875   1.278 -0.2379 -0.2463 -0.3817
  842WAT      O 5172   0.127   3.834   3.020  0.2668 -0.6817 -0.0735
  842WAT     H1 5173   0.169   3.748   3.025 -0.4467 -1.0298  0.0289
  842WAT     H2 5174   0.193   3.895   3.054  0.2606 -1.3590  1.1918
  842WAT    EPW 5175   0.141   3.831   3.025  0.1719 -0.8169  0.1068
  843WAT      O 5176   6.895   2.175   7.503 -0.7996  0.3270 -0.3364
  843WAT     H1 5177   6.934   2.093   7.473 -1.5194  0.3857 -1.4680
  843WAT     H2 5178   6.875   2.224   7.423  0.5367  2.0767  0.3087
  843WAT    EPW 5179   6.897   2.171   7.489 -0.7181  0.5656 -0.4005
  844WAT      O 5180   2.667   8.561   5.154  0.0915 -0.0137  0.2706
  844WAT     H1 5181   2.615   8.502   5.209 -2.7746  1.0551 -1.0915
  844WAT     H2 5182   2.635   8.546   5.066 -0.4235  3.1727 -0.1928
  844WAT    EPW 5183   2.656   8.551   5.150 -0.3544  0.5479  0.0300
  845WAT      O 5184   9.324   7.932   0.064  0.0847 -0.6341  0.2643
  845WAT     H1 5185   9.403   7.880   0.079 -0.9614 -2.8257 -1.2044
  845WAT     H2 5186   9.323   7.945  -0.031 -0.2361  1.2857  0.4909
  845WAT    EPW 5187   9.335   7.927   0.053 -0.0958 -0.6700  0.1005
  846WAT      O 5188   8.759   1.962   8.474 -0.0872 -0.3582 -0.2563
  846WAT     H1 5189   8.748   1.925   8.562 -1.3915 -0.6785 -0.5353
  846WAT     H2 5190   8.672   1.991   8.450 -0.0188 -1.4937 -1.9995
  846WAT    EPW 5191   8.746   1.961   8.483 -0.2503 -0.5502 -0.5231
  847WAT      O 5192   2.290   9.508   6.691 -0.1230 -0.7575 -0.1305
  847WAT     H1 5193   2.304   9.417   6.719 -0.6300 -1.1583 -1.1338
  847WAT     H2 5194   2.246   9.500   6.606  2.6568  0.3760 -1.7907
  847WAT    EPW 5195   2.286   9.495   6.683  0.1768 -0.6614 -0.4816
  848WAT      O 5196  10.323   6.318   4.683 -0.2828  0.6101  0.3566
  848WAT     H1 5197  10.288   6.381   4.619 -1.3045  1.2416  1.4878
  848WAT     H2 5198  10.248   6.262   4.704  0.7229 -1.3459 -0.9841
  848WAT    EPW 5199  10.308   6.319   4.677 -0.2851  0.4354  0.3293
  849WAT      O 5200   1.882  10.215   8.824 -0.3230 -0.1411 -1.1616
  849WAT     H1 5201   1.893  10.120   8.823 -1.0901 -0.2361 -1.4347
  849WAT     H2 5202   1.905  10.243   8.736 -1.1160 -0.2091 -1.4013
  849WAT    EPW 5203   1.886  10.206   8.812 -0.5288 -0.1626 -1.2288
  850WAT      O 5204   9.530   8.736   0.914 -0.6492 -0.1770  0.1272
  850WAT     H1 5205   9.444   8.709   0.946 -0.8607 -0.7231 -0.8610
  850WAT     H2 5206   9.589   8.665   0.940 -0.8354 -0.6579 -0.7351
  850WAT    EPW 5207   9.526   8.723   0.922 -0.7019 -0.3123 -0.1169
  851WAT      O 5208   3.742  10.336   6.863  0.4155 -0.6651  0.1974
  851WAT     H1 5209   3.802  10.410   6.866 -0.2691 -0.0967  0.3510
  851WAT     H2 5210   3.763  10.291   6.782 -1.0372  1.3712 -1.4195
  851WAT    EPW 5211   3.752  10.340   6.853  0.1336 -0.3214  0.0045
  852WAT      O 5212   2.647   9.929   8.592  0.1898 -0.4274 -0.4441
  852WAT     H1 5213   2.611  10.009   8.554  1.6882  0.6206  0.2433
  852WAT     H2 5214   2.738   9.928   8.562  1.2180  0.0287  2.3719
  852WAT    EPW 5215   2.654   9.940   8.583  0.5230 -0.2284  0.0181
  853WAT      O 5216   6.522   1.838   6.363 -0.5709 -0.0182 -0.1674
  853WAT     H1 5217   6.546   1.907   6.301 -1.7306 -0.2653 -0.9149
  853WAT     H2 5218   6.606   1.801   6.392 -0.0013  0.3121 -1.3445
  853WAT    EPW 5219   6.536   1.842   6.359 -0.6487 -0.0072 -0.4210
  854WAT      O 5220   6.936   4.169   0.558 -0.0479 -0.3930 -0.7850
  854WAT     H1 5221   7.022   4.129   0.572 -0.0218 -0.4181 -1.0257
  854WAT     H2 5222   6.875   4.111   0.605  0.1224 -0.1067 -0.1998
  854WAT    EPW 5223   6.939   4.156   0.566 -0.0222 -0.3586 -0.7396
  855WAT      O 5224   4.056  10.025   8.349  0.2001 -0.7669 -0.6301
  855WAT     H1 5225   4.127  10.010   8.286  0.5837 -2.9698  0.2345
  855WAT     H2 5226   4.091   9.994   8.433 -0.9298  0.4436  0.3317
  855WAT    EPW 5227   4.070  10.019   8.352  0.1016 -0.8979 -0.3891
  856WAT      O 5228   5.540   2.935   4.536  0.0969 -0.3213  0.1075
  856WAT     H1 5229   5.574   2.992   4.606 -3.8072  0.6871  1.4108
  856WAT     H2 5230   5.564   2.847   4.564 -0.0211  0.1873  1.9699
  856WAT    EPW 5231   5.548   2.931   4.549 -0.4337 -0.1211  0.5250
  857WAT      O 5232   9.143   7.193   0.828  0.1188  0.4338  0.2575
  857WAT     H1 5233   9.173   7.184   0.738 -0.0012  0.5032  0.2109
  857WAT     H2 5234   9.050   7.170   0.825  0.3379 -0.5390  0.5309
  857WAT    EPW 5235   9.135   7.188   0.816  0.1316  0.3150  0.2874
  858WAT      O 5236   8.629   1.926   7.881  0.0135  0.0698  0.0699
  858WAT     H1 5237   8.607   1.931   7.974  1.5733 -0.6389  0.5125
  858WAT     H2 5238   8.544   1.931   7.837 -0.9316 -1.2133  1.5954
  858WAT    EPW 5239   8.615   1.927   7.888  0.0944 -0.1928  0.3295
  859WAT      O 5240   6.083   1.827   8.025 -0.0384 -0.7909 -0.3486
  859WAT     H1 5241   6.034   1.899   7.985 -2.2745 -2.0474 -0.0270
  859WAT     H2 5242   6.067   1.836   8.119  3.3421  0.8059  0.2528
  859WAT    EPW 5243   6.074   1.837   8.032  0.1125 -0.7460 -0.2265
  860WAT      O 5244   8.270   1.152   7.472  0.4224  0.2172 -0.6096
  860WAT     H1 5245   8.298   1.219   7.411 -2.4896  1.8896 -0.3156
  860WAT     H2 5246   8.326   1.163   7.549  2.3869 -0.2050 -1.9091
  860WAT    EPW 5247   8.281   1.162   7.474  0.2971  0.3820 -0.7420
  861WAT      O 5248   7.542   0.504   8.875  0.3558  0.3519  0.1438
  861WAT     H1 5249   7.591   0.506   8.793  1.0460  0.4171  0.5495
  861WAT     H2 5250   7.457   0.466   8.851  0.5042  0.4784 -0.6178
  861WAT    EPW 5251   7.537   0.500   8.861  0.4661  0.3771  0.0978
  862WAT      O 5252   2.369   9.719   6.861 -0.1828 -0.2797  0.6345
  862WAT     H1 5253   2.404   9.672   6.937  1.1123 -2.4669 -1.1877
  862WAT     H2 5254   2.325   9.652   6.809 -0.8945  1.1140 -0.6419
  862WAT    EPW 5255   2.368   9.704   6.864 -0.1059 -0.3839  0.2258
  863WAT      O 5256   9.850   7.025   0.642 -0.2038 -0.1627 -0.1279
  863WAT     H1 5257   9.775   6.966   0.643 -0.4464  0.1419  0.0179
  863WAT     H2 5258   9.894   7.007   0.559 -0.7941  0.0955 -0.5021
  863WAT    EPW 5259   9.846   7.015   0.631 -0.3138 -0.0885 -0.1580
  864WAT      O 5260  10.522   0.959   6.812 -0.5628 -0.3889 -0.5701
  864WAT     H1 5261  10.576   0.963   6.891 -3.6802  0.0281  1.7120
  864WAT     H2 5262  10.510   0.865   6.796 -1.7745 -0.4994  0.8732
  864WAT    EPW 5263  10.528   0.947   6.820 -1.1334 -0.3484 -0.0784
  865WAT      O 5264   1.741   5.296   4.607 -0.1868  0.5614 -0.5030
  865WAT     H1 5265   1.696   5.336   4.681 -0.6913 -0.3018 -0.3299
  865WAT     H2 5266   1.727   5.202   4.618 -2.3558  0.4722 -2.9693
  865WAT    EPW 5267   1.733   5.289   4.618 -0.5394  0.4358 -0.8054
  866WAT      O 5268   9.237   6.190   0.592 -0.5160  0.1284 -0.1431
  866WAT     H1 5269   9.167   6.154   0.538 -1.4536  2.3247 -0.4841
  866WAT     H2 5270   9.318   6.161   0.550 -1.2259 -0.4813 -1.1155
  866WAT    EPW 5271   9.238   6.181   0.580 -0.7339  0.3378 -0.3164
  867WAT      O 5272   1.542   7.934   5.633 -0.1663 -0.2284 -0.9054
  867WAT     H1 5273   1.482   7.973   5.696 -2.6972 -1.0396 -2.6239
  867WAT     H2 5274   1.574   7.855   5.676 -0.4502  0.1417  0.0045
  867WAT    EPW 5275   1.538   7.928   5.647 -0.5376 -0.2866 -1.0121
  868WAT      O 5276   8.249   4.936   0.322  0.1195  0.9206  0.0944
  868WAT     H1 5277   8.298   4.861   0.290  1.6435  1.4344  1.1268
  868WAT     H2 5278   8.240   4.993   0.246 -0.4744  0.0246 -0.5324
  868WAT    EPW 5279   8.254   4.934   0.308  0.2418  0.8702  0.1479
  869WAT      O 5280   1.557   0.528   7.665  1.0076 -0.2703 -1.0093
  869WAT     H1 5281   1.468   0.562   7.672  2.1223  2.8986 -0.6284
  869WAT     H2 5282   1.561   0.458   7.730  0.0809  2.8037  2.7266
  869WAT    EPW 5283   1.546   0.523   7.675  1.0325  0.5531 -0.4663
  870WAT      O 5284   4.099   9.920   7.067  0.4707 -0.2169  0.4362
  870WAT     H1 5285   4.175   9.927   7.124  1.3797 -2.6973 -0.3450
  870WAT     H2 5286   4.126   9.861   6.997 -1.7329 -0.0453 -0.6719
  870WAT    EPW 5287   4.113   9.914   7.065  0.2999 -0.5217  0.1869
  871WAT      O 5288   0.695   3.701   0.268 -0.6026 -0.2006 -0.2071
  871WAT     H1 5289   0.735   3.644   0.334 -0.1644 -0.1589 -0.4323
  871WAT     H2 5290   0.602   3.678   0.269 -0.5390 -0.4527  0.1679
  871WAT    EPW 5291   0.688   3.691   0.277 -0.5364 -0.2283 -0.1874
  872WAT      O 5292   5.962   0.712   8.709 -0.3430  0.5633 -0.4425
  872WAT     H1 5293   6.043   0.759   8.691 -0.5167  1.1015  0.1306
  872WAT     H2 5294   5.894   0.765   8.667 -0.7109  1.6385  1.3826
  872WAT    EPW 5295   5.963   0.725   8.701 -0.4144  0.7762 -0.1259
  873WAT      O 5296   4.689   1.894   6.946 -0.6768  0.2675 -0.3833
  873WAT     H1 5297   4.654   1.968   6.897 -2.2909 -0.2964 -0.1433
  873WAT     H2 5298   4.760   1.860   6.892 -1.1599  0.8440 -1.3978
  873WAT    EPW 5299   4.693   1.899   6.933 -0.9534  0.2691 -0.4854
  874WAT      O 5300   3.252   9.679   8.217  0.6477  0.1506  1.2227
  874WAT     H1 5301   3.180   9.616   8.204  2.4827 -2.0868  1.1787
  874WAT     H2 5302   3.259   9.723   8.132 -0.1496 -0.1675  0.9715
  874WAT    EPW 5303   3.243   9.676   8.204  0.7845 -0.1860  1.1835
  875WAT      O 5304   5.562   1.402   7.464  0.2166  0.0374  0.1260
  875WAT     H1 5305   5.654   1.403   7.491  0.1711 -0.1827  0.2923
  875WAT     H2 5306   5.515   1.374   7.543 -0.1600  1.7600  0.5585
  875WAT    EPW 5307   5.568   1.399   7.478  0.1612  0.2356  0.2053
  876WAT      O 5308   9.408  10.204   7.909  0.3313  0.2993  0.0088
  876WAT     H1 5309   9.479  10.248   7.956 -0.6162  1.7708  0.1363
  876WAT     H2 5310   9.381  10.267   7.843 -0.7001 -0.3401 -0.1937
  876WAT    EPW 5311   9.414  10.218   7.906  0.0706  0.4096 -0.0010
  877WAT      O 5312   2.581   8.383   2.280 -0.2192  0.7986 -0.3296
  877WAT     H1 5313   2.670   8.397   2.248  0.0041  0.0959 -0.0338
  877WAT     H2 5314   2.591   8.361   2.372 -0.5995 -0.4720 -0.5765
  877WAT    EPW 5315   2.594   8.382   2.288 -0.2400  0.5383 -0.3231
  878WAT      O 5316   7.820   9.585   7.208  0.4078  1.1506  0.0041
  878WAT     H1 5317   7.750   9.576   7.273  0.6424 -1.5802  0.0189
  878WAT     H2 5318   7.876   9.654   7.243 -0.0590  0.5202  2.1595
  878WAT    EPW 5319   7.818   9.593   7.222  0.3772  0.7067  0.2902
  879WAT      O 5320   6.788   7.105   0.023  0.2455  0.2509  0.1371
  879WAT     H1 5321   6.809   7.187   0.067 -0.7053 -0.1672  1.4400
  879WAT     H2 5322   6.720   7.128  -0.040  1.3631  0.7907 -0.9161
  879WAT    EPW 5323   6.782   7.119   0.020  0.2673  0.2670  0.1701
  880WAT      O 5324   8.440   2.355   8.916  0.9508 -0.1090  0.1746
  880WAT     H1 5325   8.411   2.373   9.006 -1.3427  1.9593 -0.8596
  880WAT     H2 5326   8.446   2.441   8.875 -0.2647 -1.0905 -2.2454
  880WAT    EPW 5327   8.437   2.369   8.923  0.4883  0.0343 -0.2804
  881WAT      O 5328   1.214   8.934   0.817 -0.6177 -0.3075  0.3023
  881WAT     H1 5329   1.269   8.865   0.780 -0.8615 -1.4748  1.9760
  881WAT     H2 5330   1.143   8.945   0.754 -0.9643 -2.1363  0.3046
  881WAT    EPW 5331   1.212   8.926   0.804 -0.6955 -0.7029  0.5233
  882WAT      O 5332   6.256   2.164   8.877 -0.3285  0.8921  0.0621
  882WAT     H1 5333   6.291   2.212   8.952  0.8101  1.1537 -0.6159
  882WAT     H2 5334   6.221   2.231   8.820  0.3350  0.8501 -0.4103
  882WAT    EPW 5335   6.256   2.179   8.880 -0.0908  0.9211 -0.0892
  883WAT      O 5336   0.487   9.805   6.656  0.4835  0.0946 -0.0571
  883WAT     H1 5337   0.565   9.859   6.669  1.0857 -0.1871 -2.1194
  883WAT     H2 5338   0.453   9.833   6.571 -1.7449  0.2584  0.8121
  883WAT    EPW 5339   0.493   9.816   6.646  0.2690  0.0796 -0.2146
  884WAT      O 5340   5.785   3.032   7.797 -0.4703 -0.3380 -0.6532
  884WAT     H1 5341   5.867   3.012   7.753  1.6871  0.1961  2.7727
  884WAT     H2 5342   5.794   2.994   7.884 -2.2772  2.7921  1.1149
  884WAT    EPW 5343   5.797   3.025   7.803 -0.4241  0.1453  0.0317
  885WAT      O 5344   9.671   5.019   0.488 -0.2157 -0.2381  0.2806
  885WAT     H1 5345   9.709   4.934   0.464 -0.7638 -0.0302 -1.4101
  885WAT     H2 5346   9.719   5.045   0.566  0.1851 -1.9569  0.6586
  885WAT    EPW 5347   9.682   5.011   0.495 -0.2351 -0.4373  0.1075
  886WAT      O 5348   9.926   5.855   0.456 -0.2445 -0.2620 -0.3933
  886WAT     H1 5349   9.848   5.807   0.427  2.0383 -3.7476 -1.4361
  886WAT     H2 5350   9.960   5.896   0.376 -0.4043  0.3148 -0.1669
  886WAT    EPW 5351   9.920   5.854   0.442  0.0358 -0.6454 -0.5010
  887WAT      O 5352   1.892   8.302   1.147  0.7609  0.0171  0.3228
  887WAT     H1 5353   1.803   8.338   1.150  0.3267 -1.0255  0.4036
  887WAT     H2 5354   1.933   8.347   1.073 -0.2851 -0.4656 -0.5805
  887WAT    EPW 5355   1.886   8.313   1.137  0.5657 -0.1836  0.2143
  888WAT      O 5356   0.408   8.634   2.350  1.1135  0.4538 -0.0405
  888WAT     H1 5357   0.403   8.728   2.365  0.5765  0.5080 -0.5379
  888WAT     H2 5358   0.321   8.610   2.318  1.2188 -0.2256  0.1650
  888WAT    EPW 5359   0.396   8.643   2.348  1.0566  0.3715 -0.0789
  889WAT      O 5360   9.691   4.072   0.569  0.4283 -0.8173  0.6367
  889WAT     H1 5361   9.625   4.075   0.638 -0.6549 -1.2227 -0.3504
  889WAT     H2 5362   9.722   4.162   0.561 -0.9172 -0.3695  0.2756
  889WAT    EPW 5363   9.686   4.084   0.577  0.1078 -0.8118  0.4589
  890WAT      O 5364  10.620   3.207   6.842  0.7280  0.2793 -0.2355
  890WAT     H1 5365  10.634   3.160   6.760 -0.7048 -0.5161 -0.0591
  890WAT     H2 5366  10.669   3.289   6.831  1.2851 -0.1904 -1.5184
  890WAT    EPW 5367  10.628   3.212   6.830  0.6123  0.1125 -0.3815
  891WAT      O 5368   1.500   6.838   1.081 -0.1973 -0.4759 -0.3604
  891WAT     H1 5369   1.548   6.857   1.161  1.2632 -0.2440 -1.2713
  891WAT     H2 5370   1.490   6.743   1.081  0.8174 -0.5915 -0.4600
  891WAT    EPW 5371   1.505   6.828   1.092  0.1292 -0.4606 -0.4936
  892WAT      O 5372   5.814   2.108   5.648 -0.4571  0.4950 -0.4243
  892WAT     H1 5373   5.755   2.160   5.593  0.2498  0.8109 -0.8934
  892WAT     H2 5374   5.899   2.114   5.605 -0.3284 -0.9752 -0.4332
  892WAT    EPW 5375   5.817   2.116   5.635 -0.3469  0.3428 -0.4876
  893WAT      O 5376   8.123   2.712   7.211 -0.1656  0.0227  0.0683
  893WAT     H1 5377   8.036   2.746   7.234  0.4733  1.9468 -0.1792
  893WAT     H2 5378   8.176   2.791   7.199  1.5152 -1.1194 -0.1862
  893WAT    EPW 5379   8.118   2.727   7.213  0.1402  0.1258  0.0021
  894WAT      O 5380   3.554   0.132   3.672  0.4555  0.9042 -0.2760
  894WAT     H1 5381   3.586   0.123   3.582 -3.2326  0.8509 -1.7479
  894WAT     H2 5382   3.605   0.069   3.722  2.2245  0.5204 -2.4233
  894WAT    EPW 5383   3.565   0.123   3.667  0.2023  0.8466 -0.7535
  895WAT      O 5384   9.522   9.108   0.509 -0.9321  0.6960  0.3119
  895WAT     H1 5385   9.474   9.027   0.527  2.0746 -1.0339  1.1954
  895WAT     H2 5386   9.529   9.111   0.414 -0.9601 -0.1679  0.2716
  895WAT    EPW 5387   9.517   9.098   0.499 -0.5388  0.3538  0.4231
  896WAT      O 5388   9.974   1.977   8.754  0.3247  0.1059 -0.1903
  896WAT     H1 5389   9.920   1.898   8.756 -2.7469  2.0715  0.6303
  896WAT     H2 5390   9.988   1.995   8.661  0.4496 -0.9375 -0.3940
  896WAT    EPW 5391   9.969   1.969   8.742 -0.0644  0.2276 -0.1087
  897WAT      O 5392  10.532   5.681   5.133  0.1295  0.5650 -0.5322
  897WAT     H1 5393  10.538   5.637   5.218  1.3676 -1.0435 -1.4172
  897WAT     H2 5394  10.438   5.687   5.117 -0.1013 -1.4643 -0.1999
  897WAT    EPW 5395  10.520   5.676   5.142  0.2618  0.0851 -0.6049
  898WAT      O 5396   9.710   9.267   6.058  0.4753 -0.1464  0.7792
  898WAT     H1 5397   9.793   9.224   6.077  0.4031 -1.1376 -0.8973
  898WAT     H2 5398   9.647   9.195   6.049 -0.4408  0.5540  1.4082
  898WAT    EPW 5399   9.712   9.252   6.059  0.3452 -0.1845  0.6409
  899WAT      O 5400   1.267   3.422   8.582  0.1864 -0.4952  0.0607
  899WAT     H1 5401   1.212   3.456   8.652  1.8507  0.2095  1.1027
  899WAT     H2 5402   1.339   3.379   8.627  1.2586 -0.0927 -1.1986
  899WAT    EPW 5403   1.269   3.421   8.597  0.5472 -0.3493  0.0319
  900WAT      O 5404   6.573   1.148   8.643  0.2040  0.3344  0.3016
  900WAT     H1 5405   6.649   1.204   8.626  1.5326 -1.0145  1.4600
  900WAT     H2 5406   6.609   1.073   8.690 -1.5464 -1.3760 -0.9487
  900WAT    EPW 5407   6.588   1.146   8.647  0.1483 -0.0691  0.2894
  901WAT      O 5408   3.555   9.292   7.838 -0.3513  0.2925  0.0270
  901WAT     H1 5409   3.544   9.364   7.901 -2.9627  0.6989 -0.7917
  901WAT     H2 5410   3.572   9.336   7.755 -2.0387  0.0133 -0.4940
  901WAT    EPW 5411   3.556   9.308   7.835 -0.9181  0.3090 -0.1497
  902WAT      O 5412   5.553   1.429   6.725  0.0103  0.6339  0.2745
  902WAT     H1 5413   5.618   1.416   6.793  2.6226  0.5668 -2.0392
  902WAT     H2 5414   5.518   1.517   6.741 -2.4904 -0.8099  3.9119
  902WAT    EPW 5415   5.557   1.439   6.736  0.0248  0.4345  0.4489
  903WAT      O 5416   1.859   4.931   2.611 -0.7059 -0.0693  0.0967
  903WAT     H1 5417   1.790   4.874   2.646  0.6169 -0.9600  1.3809
  903WAT     H2 5418   1.841   5.017   2.649 -1.3712 -0.1612  0.0128
  903WAT    EPW 5419   1.847   4.935   2.620 -0.6192 -0.1991  0.2549
  904WAT      O 5420   1.209   7.119   1.741 -0.4258 -0.5666  0.1891
  904WAT     H1 5421   1.150   7.194   1.727 -0.8190 -0.6885  1.1573
  904WAT     H2 5422   1.296   7.159   1.751 -0.7394 -0.1510  1.4894
  904WAT    EPW 5423   1.213   7.134   1.740 -0.5192 -0.5276  0.4883
  905WAT      O 5424   7.405   4.893   1.503  0.0142  0.1859 -0.7359
  905WAT     H1 5425   7.475   4.898   1.567 -1.0683  0.6681  0.4513
  905WAT     H2 5426   7.444   4.926   1.422  0.5835  2.5694  0.4232
  905WAT    EPW 5427   7.420   4.898   1.500 -0.0534  0.5639 -0.4264
  906WAT      O 5428   5.244   0.209   8.907 -0.6017 -0.7675  0.9242
  906WAT     H1 5429   5.206   0.283   8.955  0.2526 -0.2433  0.8218
  906WAT     H2 5430   5.228   0.134   8.964  1.1529 -0.0394  2.5251
  906WAT    EPW 5431   5.237   0.209   8.921 -0.2575 -0.6023  1.1215
  907WAT      O 5432   9.065   4.484   7.572 -1.0726  0.2397  0.0122
  907WAT     H1 5433   9.012   4.509   7.497 -0.4748  0.4553 -0.3493
  907WAT     H2 5434   9.150   4.460   7.534 -1.7232 -2.8261  0.2804
  907WAT    EPW 5435   9.069   4.484   7.557 -1.0786 -0.1364  0.0000
  908WAT      O 5436   1.117   8.247   2.509 -0.5353 -0.0806 -0.0291
  908WAT     H1 5437   1.199   8.227   2.464 -0.3040 -2.8086  1.3687
  908WAT     H2 5438   1.049   8.222   2.447 -0.2707 -0.7157 -0.0679
  908WAT    EPW 5439   1.119   8.241   2.495 -0.4699 -0.5245  0.1501
  909WAT      O 5440   9.150   6.464   7.702 -0.0922  0.8492 -0.1307
  909WAT     H1 5441   9.201   6.524   7.648 -1.8360  3.6024  1.1033
  909WAT     H2 5442   9.187   6.474   7.790  1.1718 -1.8139 -0.2564
  909WAT    EPW 5443   9.162   6.473   7.706 -0.1554  0.8609  0.0153
  910WAT      O 5444   9.242   2.403   6.061 -0.1871 -0.3766  0.0925
  910WAT     H1 5445   9.157   2.392   6.104  0.3713  1.1590  1.7165
  910WAT     H2 5446   9.253   2.498   6.053  1.4423 -0.5342  0.1240
  910WAT    EPW 5447   9.233   2.414   6.066  0.1006 -0.1949  0.3107
  911WAT      O 5448   4.654   1.898   7.377  0.1557 -0.3731 -0.0916
  911WAT     H1 5449   4.739   1.863   7.349 -0.4452 -0.6887 -1.5881
  911WAT     H2 5450   4.600   1.896   7.298 -1.8495 -1.9083  1.2439
  911WAT    EPW 5451   4.658   1.893   7.363 -0.1884 -0.6171 -0.1130
  912WAT      O 5452  10.917   6.222   4.254 -0.0694  0.0159  0.8406
  912WAT     H1 5453  10.949   6.279   4.184 -1.5777  1.5731  1.3504
  912WAT     H2 5454  10.940   6.134   4.225 -0.6169  0.6107 -1.6171
  912WAT    EPW 5455  10.924   6.218   4.241 -0.3405  0.2999  0.5834
  913WAT      O 5456   7.756   0.916   0.543  0.2293  0.4011 -0.4073
  913WAT     H1 5457   7.800   0.902   0.627 -1.7139 -0.0798  0.6000
  913WAT     H2 5458   7.720   0.830   0.520 -1.3252  1.0317 -0.4572
  913WAT    EPW 5459   7.757   0.903   0.551 -0.2320  0.4208 -0.2810
  914WAT      O 5460   7.000   1.124   8.315 -0.3727 -0.4403 -0.9526
  914WAT     H1 5461   6.952   1.167   8.245 -1.5909  0.8391  0.5977
  914WAT     H2 5462   7.068   1.187   8.340 -0.9177 -0.2109  0.0152
  914WAT    EPW 5463   7.003   1.138   8.309 -0.6051 -0.2413 -0.6208
  915WAT      O 5464   2.762   8.973   0.160  0.4863  0.3599  0.0525
  915WAT     H1 5465   2.826   9.044   0.169 -0.2282  1.3105 -1.7643
  915WAT     H2 5466   2.814   8.895   0.141  1.1488  0.9404 -0.5284
  915WAT    EPW 5467   2.777   8.972   0.159  0.4796  0.5622 -0.2638
  916WAT      O 5468   7.308   0.502   7.663  0.0428  0.5353 -0.5154
  916WAT     H1 5469   7.301   0.453   7.745 -1.6541 -2.3986 -2.2517
  916WAT     H2 5470   7.353   0.583   7.688 -0.6132 -0.0756  3.3220
  916WAT    EPW 5471   7.313   0.506   7.677 -0.2677  0.0678 -0.2382
  917WAT      O 5472   0.679   4.935   0.626 -0.0740  0.7941 -0.5954
  917WAT     H1 5473   0.652   4.887   0.548 -2.0909  2.8522 -1.2828
  917WAT     H2 5474   0.597   4.959   0.669  0.8628  2.4444  0.3943
  917WAT    EPW 5475   0.665   4.932   0.621 -0.2165  1.2832 -0.5556
  918WAT      O 5476   6.067   3.482   7.935 -0.0592  0.5096 -0.2546
  918WAT     H1 5477   6.150   3.466   7.889  0.6871  0.6599  0.9955
  918WAT     H2 5478   6.008   3.414   7.903  1.7827 -2.2934  1.9064
  918WAT    EPW 5479   6.071   3.471   7.924  0.2823  0.1597  0.1953
  919WAT      O 5480   3.325   2.018   6.879 -0.0006  0.7384 -0.1433
  919WAT     H1 5481   3.382   2.025   6.803 -0.2071  0.1971 -0.3520
  919WAT     H2 5482   3.341   1.930   6.914  1.5729  1.6385  1.6417
  919WAT    EPW 5483   3.335   2.007   6.874  0.1796  0.7858  0.0651
  920WAT      O 5484  10.631   1.187   5.573  0.1678  0.6503 -0.4178
  920WAT     H1 5485  10.703   1.244   5.601  0.0733  0.5578  0.0194
  920WAT     H2 5486  10.570   1.245   5.529 -0.4334  1.0981  0.9355
  920WAT    EPW 5487  10.633   1.202   5.571  0.0758  0.6972 -0.1814
  921WAT      O 5488  10.093   8.716   2.081  0.5517 -0.3797 -0.1764
  921WAT     H1 5489  10.005   8.698   2.048 -0.3431 -1.7190  2.6524
  921WAT     H2 5490  10.096   8.811   2.092 -1.6712 -0.4811  2.2756
  921WAT    EPW 5491  10.082   8.726   2.078  0.1407 -0.5693  0.5200
  922WAT      O 5492  10.500   2.096   7.585 -0.5774  1.0150 -0.0587
  922WAT     H1 5493  10.522   2.025   7.525  2.0723  1.1491  0.6082
  922WAT     H2 5494  10.423   2.065   7.632  0.4672 -1.4356  0.1981
  922WAT    EPW 5495  10.493   2.083   7.583 -0.0906  0.7095  0.0629
  923WAT      O 5496   2.990   7.237   0.006 -0.4408  1.2619 -0.0470
  923WAT     H1 5497   2.961   7.147  -0.010 -0.2256  1.1963 -0.0754
  923WAT     H2 5498   3.053   7.254  -0.065 -1.2677  1.8031 -0.6666
  923WAT    EPW 5499   2.995   7.227  -0.006 -0.5214  1.3249 -0.1325
  924WAT      O 5500   7.418   5.012   0.738 -0.3304 -0.1525 -0.0756
  924WAT     H1 5501   7.404   5.103   0.713  0.6320  0.1166  0.3097
  924WAT     H2 5502   7.443   5.016   0.831  1.5552 -0.6069 -0.5209
  924WAT    EPW 5503   7.419   5.024   0.747  0.0453 -0.1769 -0.0835
  925WAT      O 5504   8.160   3.825   7.951 -0.2733 -0.2939 -0.5206
  925WAT     H1 5505   8.151   3.911   7.993 -0.6098  0.0134 -1.2068
  925WAT     H2 5506   8.233   3.784   7.997 -0.5451  0.0823  0.2758
  925WAT    EPW 5507   8.168   3.831   7.963 -0.3533 -0.2037 -0.5062
  926WAT      O 5508   7.885   3.551   7.058 -0.3279  0.0251 -0.3923
  926WAT     H1 5509   7.791   3.561   7.070 -0.1636  0.3140  0.7776
  926WAT     H2 5510   7.916   3.513   7.140  0.6715  0.5757 -0.4911
  926WAT    EPW 5511   7.877   3.547   7.070 -0.1745  0.1357 -0.2508
  927WAT      O 5512   0.390   8.452   0.478  0.0061  0.3070 -0.1072
  927WAT     H1 5513   0.355   8.535   0.446  0.0717 -1.5101 -6.0058
  927WAT     H2 5514   0.484   8.458   0.464  0.1056 -0.5028  0.1494
  927WAT    EPW 5515   0.397   8.464   0.472  0.0279 -0.0396 -0.8513
  928WAT      O 5516   7.198   2.888   6.086  0.4367 -0.2635  0.3168
  928WAT     H1 5517   7.263   2.881   6.016  0.9003 -3.2334  0.8856
  928WAT     H2 5518   7.248   2.922   6.161  1.6916 -3.1591  0.9539
  928WAT    EPW 5519   7.213   2.891   6.087  0.6633 -1.0371  0.4759
  929WAT      O 5520   8.861   3.597   6.826 -0.8795 -0.4631  0.0835
  929WAT     H1 5521   8.893   3.651   6.754  0.3414 -2.5288 -1.0418
  929WAT     H2 5522   8.921   3.615   6.898 -0.2275 -0.5890 -0.4120
  929WAT    EPW 5523   8.873   3.606   6.826 -0.6328 -0.7521 -0.1302
  930WAT      O 5524   4.422   1.946   8.853  0.2956 -0.1070 -0.0012
  930WAT     H1 5525   4.457   1.971   8.768  0.1789  0.7575  0.1963
  930WAT     H2 5526   4.357   1.879   8.834  0.8277 -0.4837 -0.5189
  930WAT    EPW 5527   4.418   1.940   8.839  0.3502 -0.0426 -0.0429
  931WAT      O 5528   0.250   4.730   0.732 -0.7808  0.0565 -0.9395
  931WAT     H1 5529   0.241   4.763   0.822 -2.9746  0.5722 -1.3161
  931WAT     H2 5530   0.342   4.702   0.727 -0.9087 -1.2328  1.8779
  931WAT    EPW 5531   0.261   4.730   0.743 -1.0870 -0.0455 -0.6176
  932WAT      O 5532   3.488   1.013   8.071  0.3101  0.0204  0.3623
  932WAT     H1 5533   3.398   0.986   8.089  0.3686  0.4165  1.3168
  932WAT     H2 5534   3.483   1.069   7.994  0.0330 -1.7340 -0.9546
  932WAT    EPW 5535   3.476   1.017   8.064  0.2812 -0.1588  0.3147
  933WAT      O 5536  10.393   1.010   7.369  0.5947 -0.4182 -0.2443
  933WAT     H1 5537  10.475   1.037   7.410 -0.0204  1.5692 -0.2087
  933WAT     H2 5538  10.371   0.927   7.411  1.6118 -0.0305  1.1205
  933WAT    EPW 5539  10.401   1.003   7.380  0.6480 -0.1050 -0.0596
  934WAT      O 5540   4.070   8.544   3.995 -0.1057  0.3808 -0.4087
  934WAT     H1 5541   4.049   8.471   4.053 -0.3237  0.0347 -0.9111
  934WAT     H2 5542   4.030   8.620   4.037 -0.4356  0.1021 -0.2085
  934WAT    EPW 5543   4.062   8.544   4.008 -0.1779  0.2990 -0.4487
  935WAT      O 5544   9.189   4.742   8.968  0.1074  0.4521  0.0423
  935WAT     H1 5545   9.150   4.706   9.048  2.0680 -0.1244  0.8139
  935WAT     H2 5546   9.125   4.724   8.900 -1.2460  0.1800  1.3299
  935WAT    EPW 5547   9.175   4.735   8.970  0.1879  0.3402  0.3138
  936WAT      O 5548  10.912   7.441   1.398 -0.1695  0.3950 -0.8855
  936WAT     H1 5549  10.926   7.363   1.451 -2.5985 -1.3944 -2.6797
  936WAT     H2 5550  10.966   7.428   1.321 -1.2967 -0.0297 -1.6265
  936WAT    EPW 5551  10.921   7.429   1.395 -0.6380  0.1030 -1.2198
  937WAT      O 5552   8.893   5.405   6.500  0.5997 -0.3918 -0.1554
  937WAT     H1 5553   8.984   5.397   6.528  0.2294 -1.0054  0.9456
  937WAT     H2 5554   8.894   5.476   6.436  1.8475 -0.3906 -0.1645
  937WAT    EPW 5555   8.905   5.413   6.495  0.7153 -0.4725 -0.0114
  938WAT      O 5556   5.376   2.227   6.126 -0.8959  0.4136  0.1225
  938WAT     H1 5557   5.399   2.246   6.035  0.2256 -1.7288 -0.1172
  938WAT     H2 5558   5.314   2.154   6.121 -0.1592 -0.3118  1.0731
  938WAT    EPW 5559   5.371   2.220   6.113 -0.6506  0.0353  0.2160
  939WAT      O 5560   4.930   2.100   7.640 -0.6204 -0.1832  0.9046
  939WAT     H1 5561   4.922   2.133   7.551 -1.3566  2.5563  1.8896
  939WAT     H2 5562   4.859   2.036   7.649 -1.7109  0.8749  0.0643
  939WAT    EPW 5563   4.920   2.096   7.630 -0.8612  0.3178  0.9236
  940WAT      O 5564   6.504   1.780   8.430  1.1984 -0.1335 -0.0234
  940WAT     H1 5565   6.500   1.686   8.447 -2.2239  0.1101  1.4041
  940WAT     H2 5566   6.513   1.787   8.334  1.3831 -1.8877 -0.1540
  940WAT    EPW 5567   6.505   1.769   8.419  0.7713 -0.3328  0.1478
  941WAT      O 5568   6.051   2.610   7.087  0.2847 -0.0809 -1.4114
  941WAT     H1 5569   6.059   2.662   7.167  0.4357  1.3635 -2.3220
  941WAT     H2 5570   6.070   2.520   7.115  1.4528  0.5501 -0.0514
  941WAT    EPW 5571   6.054   2.605   7.101  0.4585  0.1928 -1.3523
  942WAT      O 5572   9.916   4.935   1.987  0.7009  0.2429  0.1279
  942WAT     H1 5573   9.856   4.989   1.936 -0.8213  0.3159  1.8915
  942WAT     H2 5574   9.937   4.987   2.064 -2.3632 -2.1512  2.9043
  942WAT    EPW 5575   9.910   4.949   1.990  0.0958 -0.0632  0.7268
  943WAT      O 5576   6.681   2.279   8.521 -0.0941 -0.5269  0.4999
  943WAT     H1 5577   6.705   2.192   8.553 -0.4681 -1.6537 -2.0494
  943WAT     H2 5578   6.714   2.281   8.431 -0.7016  1.7216  0.2804
  943WAT    EPW 5579   6.689   2.268   8.513 -0.2236 -0.3790  0.1354
  944WAT      O 5580   9.762   6.769   1.164  0.6686  0.2942 -0.1598
  944WAT     H1 5581   9.683   6.802   1.121 -1.4496 -3.8476  0.0648
  944WAT     H2 5582   9.807   6.718   1.097  0.7380 -1.0236  0.8520
  944WAT    EPW 5583   9.757   6.767   1.149  0.3986 -0.4261  0.0033
  945WAT      O 5584   0.564   6.528   0.893 -0.4413 -0.1815  0.4276
  945WAT     H1 5585   0.538   6.608   0.939  0.9244  0.4314  0.1742
  945WAT     H2 5586   0.578   6.555   0.803 -0.8909 -0.9080  0.1351
  945WAT    EPW 5587   0.563   6.542   0.887 -0.3205 -0.1965  0.3556
  946WAT      O 5588   0.368   4.554   0.009 -0.0324 -0.2307 -0.3691
  946WAT     H1 5589   0.310   4.483   0.038  0.5631 -0.3158  0.6817
  946WAT     H2 5590   0.352   4.624   0.073  0.9317 -0.2141 -0.1342
  946WAT    EPW 5591   0.358   4.554   0.021  0.1733 -0.2398 -0.1995
  947WAT      O 5592   4.874   2.583   5.875  0.7216 -0.0442  0.0044
  947WAT     H1 5593   4.779   2.579   5.861  0.5975 -1.8197  1.0065
  947WAT     H2 5594   4.896   2.676   5.869 -0.9478  0.3235 -1.0085
  947WAT    EPW 5595   4.864   2.595   5.872  0.4849 -0.2300  0.0029
  948WAT      O 5596   1.529   7.785   0.347  0.0115 -0.5261 -0.5193
  948WAT     H1 5597   1.621   7.807   0.363 -0.3760  3.3378 -2.4257
  948WAT     H2 5598   1.526   7.762   0.254 -1.1271  0.9543 -0.8774
  948WAT    EPW 5599   1.541   7.785   0.336 -0.1898  0.1791 -0.8180
  949WAT      O 5600  10.232   6.007   0.610  0.2917 -0.1316 -0.2202
  949WAT     H1 5601  10.171   5.947   0.653  0.6992 -1.5278 -1.5064
  949WAT     H2 5602  10.265   6.062   0.681  0.6737 -2.0901  1.2184
  949WAT    EPW 5603  10.228   6.007   0.625  0.3963 -0.5739 -0.2001
  950WAT      O 5604   8.483   5.027   7.378 -0.1740 -0.2824 -0.1777
  950WAT     H1 5605   8.508   5.119   7.364  0.4915 -0.1396  1.7574
  950WAT     H2 5606   8.392   5.023   7.350  0.0040  0.7693 -0.9986
  950WAT    EPW 5607   8.475   5.039   7.372 -0.0629 -0.1249 -0.0310
  951WAT      O 5608  10.629   4.904   6.259 -0.0447 -0.0180 -0.4618
  951WAT     H1 5609  10.624   4.946   6.345 -0.4210  1.6185 -1.2481
  951WAT     H2 5610  10.664   4.817   6.277  0.6038  0.5626  1.2594
  951WAT    EPW 5611  10.633   4.898   6.272 -0.0091  0.2742 -0.3386
  952WAT      O 5612   1.020   7.492   3.393  0.4392  0.5826  0.0179
  952WAT     H1 5613   1.088   7.424   3.391 -0.8854 -0.7869 -2.2168
  952WAT     H2 5614   0.949   7.453   3.445  0.2009  0.8106 -0.1369
  952WAT    EPW 5615   1.020   7.478   3.400  0.2331  0.4323 -0.2972
  953WAT      O 5616   9.269   8.337   1.335 -0.1333 -0.2414 -0.0142
  953WAT     H1 5617   9.214   8.393   1.390 -0.9615 -1.4584  0.4571
  953WAT     H2 5618   9.206   8.289   1.281  0.6325  0.3505 -1.4614
  953WAT    EPW 5619   9.253   8.338   1.335 -0.1411 -0.3242 -0.1429
  954WAT      O 5620   0.312   8.177   0.283 -0.4339 -0.1456  0.0628
  954WAT     H1 5621   0.265   8.098   0.310 -1.5297  0.5471  0.2323
  954WAT     H2 5622   0.276   8.247   0.337  1.5291  0.2637  0.9341
  954WAT    EPW 5623   0.301   8.176   0.294 -0.3195  0.0005  0.2001
  955WAT      O 5624   2.288   7.118   1.051  0.1317 -0.0541  0.4381
  955WAT     H1 5625   2.277   7.024   1.060  0.8331 -0.2132 -0.2600
  955WAT     H2 5626   2.259   7.138   0.962 -0.7820  0.5261  0.8452
  955WAT    EPW 5627   2.283   7.109   1.041  0.1038  0.0017  0.3996
  956WAT      O 5628   8.375   2.337   6.482  1.0536  0.1868 -0.0053
  956WAT     H1 5629   8.322   2.272   6.436  0.1243  0.6117  0.4334
  956WAT     H2 5630   8.380   2.411   6.420  1.2083  0.1065 -0.0868
  956WAT    EPW 5631   8.368   2.338   6.468  0.9513  0.2322  0.0415
  957WAT      O 5632   4.288   7.686   2.198  0.2060 -0.9162  0.6151
  957WAT     H1 5633   4.238   7.767   2.189  2.6306  0.7829  1.2402
  957WAT     H2 5634   4.277   7.660   2.289 -1.3281 -1.8965  0.1910
  957WAT    EPW 5635   4.280   7.693   2.209  0.3235 -0.8214  0.6416
  958WAT      O 5636  10.384   5.090   0.331  0.2851 -0.0038  0.1308
  958WAT     H1 5637  10.340   5.168   0.298  2.1780  0.7099 -0.8499
  958WAT     H2 5638  10.434   5.057   0.256 -0.0197 -1.8339  0.6834
  958WAT    EPW 5639  10.385   5.096   0.317  0.4945 -0.1512  0.0743
  959WAT      O 5640   6.389   0.436   8.893 -0.7294  0.0917  0.0312
  959WAT     H1 5641   6.410   0.411   8.803 -0.8423 -0.3691  0.1320
  959WAT     H2 5642   6.434   0.371   8.947 -0.3422  0.5928  0.3259
  959WAT    EPW 5643   6.398   0.424   8.889 -0.6931  0.0971  0.0830
  960WAT      O 5644   9.845   7.157   0.067 -0.3205  0.8935 -0.4088
  960WAT     H1 5645   9.870   7.212  -0.007  1.8604 -0.9455 -1.1542
  960WAT     H2 5646   9.885   7.199   0.143  4.0991 -1.0514 -1.3549
  960WAT    EPW 5647   9.853   7.170   0.067  0.5503  0.3946 -0.6319
  961WAT      O 5648   6.522  10.301   6.845  0.0932 -0.0739  0.5791
  961WAT     H1 5649   6.552  10.384   6.809  1.1822 -1.4094 -1.7776
  961WAT     H2 5650   6.429  10.297   6.822  0.2381  0.1246 -0.0512
  961WAT    EPW 5651   6.513  10.311   6.837  0.2558 -0.2236  0.1850
  962WAT      O 5652   8.135   1.093   8.229 -0.5013  0.5665  0.2033
  962WAT     H1 5653   8.223   1.056   8.233 -1.0604 -0.6820  2.0266
  962WAT     H2 5654   8.146   1.174   8.179  1.2611 -0.6179 -1.4752
  962WAT    EPW 5655   8.148   1.099   8.223 -0.3428  0.2456  0.2222
  963WAT      O 5656  10.110   1.396   6.630 -0.1924 -0.1060  0.4231
  963WAT     H1 5657  10.042   1.352   6.578  1.5664 -0.5951 -1.5931
  963WAT     H2 5658  10.076   1.484   6.643 -2.4907 -1.1210  2.0192
  963WAT    EPW 5659  10.097   1.402   6.625 -0.2637 -0.3043  0.3676
  964WAT      O 5660   6.395   0.538   8.170  0.4247 -0.3535  0.4647
  964WAT     H1 5661   6.428   0.602   8.107  2.0922 -2.6357 -1.1898
  964WAT     H2 5662   6.471   0.513   8.221 -0.0455 -1.3753  0.6926
  964WAT    EPW 5663   6.409   0.543   8.168  0.5825 -0.7893  0.2770
  965WAT      O 5664   4.920   1.163   8.860  0.3123  0.5899  0.9201
  965WAT     H1 5665   4.906   1.258   8.858 -0.9318  0.4437 -1.4055
  965WAT     H2 5666   4.867   1.133   8.934 -0.2412  1.5965  0.9590
  965WAT    EPW 5667   4.911   1.172   8.870  0.0751  0.7034  0.6185
  966WAT      O 5668   9.544   5.955   8.433  0.2699 -0.2354  1.2486
  966WAT     H1 5669   9.511   6.040   8.461 -1.7295 -0.7009  0.4514
  966WAT     H2 5670   9.467   5.900   8.425  1.3659 -1.7489  0.4234
  966WAT    EPW 5671   9.530   5.959   8.435  0.1507 -0.4964  1.0343
  967WAT      O 5672   6.014   1.385   8.783  0.1906  0.2149 -1.0039
  967WAT     H1 5673   5.986   1.376   8.874  2.9884 -1.6107 -0.2000
  967WAT     H2 5674   6.080   1.455   8.784  4.5241 -3.4051 -0.2363
  967WAT    EPW 5675   6.019   1.393   8.795  1.1313 -0.5034 -0.7973
  968WAT      O 5676   4.234   2.973   6.400  0.4128  0.5175  0.2320
  968WAT     H1 5677   4.179   3.001   6.473  1.6510 -0.0888  1.4433
  968WAT     H2 5678   4.190   2.894   6.367  0.5133  0.0696  1.1474
  968WAT    EPW 5679   4.221   2.966   6.405  0.5896  0.3785  0.5126
  969WAT      O 5680   1.858   4.104   2.237  0.5811 -0.7809 -0.8856
  969WAT     H1 5681   1.811   4.131   2.315  0.4689 -2.8337 -0.1664
  969WAT     H2 5682   1.935   4.160   2.234 -0.0940  0.2133 -0.0515
  969WAT    EPW 5683   1.862   4.115   2.247  0.4772 -0.9208 -0.6807
  970WAT      O 5684  10.773   6.744   2.038 -0.0378 -0.5214 -0.1915
  970WAT     H1 5685  10.829   6.725   1.962  1.2895  1.5663  0.1871
  970WAT     H2 5686  10.771   6.840   2.043 -0.9911 -0.6016  1.7837
  970WAT    EPW 5687  10.780   6.754   2.029  0.0114 -0.2565  0.1190
  971WAT      O 5688   9.253   8.892   1.817  0.0502  0.4339 -0.8671
  971WAT     H1 5689   9.173   8.845   1.840  0.1236 -0.4185 -2.2470
  971WAT     H2 5690   9.323   8.837   1.850  0.0857  1.7228  1.3271
  971WAT    EPW 5691   9.251   8.879   1.824  0.0644  0.4911 -0.7597
  972WAT      O 5692   5.300   0.811   7.858 -0.3150  0.4479  0.5568
  972WAT     H1 5693   5.249   0.835   7.780  0.7078  1.0145  0.0171
  972WAT     H2 5694   5.246   0.838   7.932  0.2080  3.4197 -0.0122
  972WAT    EPW 5695   5.286   0.818   7.857 -0.1113  0.9146  0.4106
  973WAT      O 5696   8.639   6.647   6.614  0.0986 -0.7557  0.3913
  973WAT     H1 5697   8.659   6.590   6.540  1.1188  0.9545 -0.7296
  973WAT     H2 5698   8.674   6.601   6.690  2.2551 -0.9995 -0.6778
  973WAT    EPW 5699   8.646   6.633   6.614  0.5174 -0.5624  0.1025
  974WAT      O 5700   2.288   8.265   1.260 -0.5631  0.1427 -0.2068
  974WAT     H1 5701   2.215   8.217   1.299  1.5335 -2.5023  0.7406
  974WAT     H2 5702   2.285   8.241   1.167 -0.7571 -0.1689 -0.1218
  974WAT    EPW 5703   2.278   8.255   1.253 -0.3121 -0.2470 -0.0706
  975WAT      O 5704   8.265   2.594   5.063  0.4574  1.1301  0.1797
  975WAT     H1 5705   8.330   2.616   4.996  0.3555 -0.9819 -0.7046
  975WAT     H2 5706   8.294   2.509   5.096 -0.5614  1.2672  1.4768
  975WAT    EPW 5707   8.277   2.586   5.058  0.3099  0.8696  0.2341
  976WAT      O 5708   1.513   6.161   0.781  0.4215 -0.5932  0.2818
  976WAT     H1 5709   1.472   6.230   0.728  1.0776 -1.2532 -1.1555
  976WAT     H2 5710   1.522   6.199   0.868 -0.0375  0.8067 -0.2540
  976WAT    EPW 5711   1.509   6.175   0.785  0.4475 -0.4954  0.0216
  977WAT      O 5712  10.614   2.168   8.010  0.8816  0.1236 -0.0113
  977WAT     H1 5713  10.603   2.147   8.103  1.4402  1.9695  0.5214
  977WAT     H2 5714  10.530   2.147   7.970  1.0608 -1.9672  0.6282
  977WAT    EPW 5715  10.602   2.163   8.017  0.9789  0.0914  0.1431
  978WAT      O 5716  10.952   7.708   1.158 -0.6226  0.0620 -0.2984
  978WAT     H1 5717  10.934   7.780   1.098 -0.5356 -0.3303 -0.8057
  978WAT     H2 5718  10.880   7.646   1.143 -0.1350 -0.4306 -0.6270
  978WAT    EPW 5719  10.940   7.709   1.148 -0.5469 -0.0548 -0.4088
  979WAT      O 5720   7.619   4.815   8.931  0.8826  0.9798 -0.5409
  979WAT     H1 5721   7.558   4.754   8.973  0.8740 -0.1751 -2.1454
  979WAT     H2 5722   7.706   4.782   8.955  0.8912  1.5895  0.3014
  979WAT    EPW 5723   7.622   4.802   8.940  0.8826  0.9077 -0.6418
  980WAT      O 5724   5.087  10.306   8.824 -0.4805 -0.5704 -0.0489
  980WAT     H1 5725   5.073  10.397   8.850  0.0655 -1.0489  2.1328
  980WAT     H2 5726   5.159  10.310   8.760 -2.8526  0.7941 -2.8444
  980WAT    EPW 5727   5.095  10.318   8.819 -0.7212 -0.4530 -0.1302
  981WAT      O 5728   0.329   6.823   3.048  0.3368  0.0083 -0.2496
  981WAT     H1 5729   0.406   6.786   3.092  0.0093  0.9645  1.1753
  981WAT     H2 5730   0.358   6.909   3.018  1.1776 -1.3411 -3.7840
  981WAT    EPW 5731   0.343   6.829   3.050  0.4045 -0.0439 -0.5276
  982WAT      O 5732  10.489   2.085   8.764 -0.1518 -0.1372  0.2028
  982WAT     H1 5733  10.414   2.143   8.749 -0.7334 -1.2606 -1.4835
  982WAT     H2 5734  10.565   2.144   8.764 -0.9968  1.0313  2.0756
  982WAT    EPW 5735  10.489   2.101   8.762 -0.3400 -0.1312  0.2279
  983WAT      O 5736   7.362   6.265   7.179  0.0167  0.8033 -0.7553
  983WAT     H1 5737   7.389   6.342   7.128  2.6413  0.7326  0.3814
  983WAT     H2 5738   7.410   6.192   7.140 -0.1347  0.2603  0.0501
  983WAT    EPW 5739   7.372   6.266   7.167  0.3428  0.7224 -0.4990
  984WAT      O 5740   1.179   4.026   0.062 -0.3901 -0.1325  0.5277
  984WAT     H1 5741   1.147   3.938   0.081 -0.7935  0.3348  2.1992
  984WAT     H2 5742   1.236   4.047   0.135  0.6828  0.5455 -0.4802
  984WAT    EPW 5743   1.182   4.017   0.074 -0.3018  0.0188  0.6152
  985WAT      O 5744  10.677   8.881   0.186  0.3679 -0.3463  0.1935
  985WAT     H1 5745  10.659   8.787   0.182  1.1223 -0.7847  3.8414
  985WAT     H2 5746  10.624   8.913   0.260  0.2311  2.0995 -0.8594
  985WAT    EPW 5747  10.667   8.873   0.195  0.4497 -0.0811  0.5357
  986WAT      O 5748   9.995   8.003   2.256  0.7749  0.0753 -0.5486
  986WAT     H1 5749  10.085   8.022   2.283  1.3985 -1.1265 -1.6655
  986WAT     H2 5750   9.959   7.951   2.328  1.2812 -0.2090 -0.4919
  986WAT    EPW 5751  10.002   7.999   2.269  0.9236 -0.1204 -0.6884
  987WAT      O 5752  10.995   8.941   1.795  0.0254  0.1875 -0.3143
  987WAT     H1 5753  10.999   8.979   1.707 -2.3340 -0.1762 -0.6486
  987WAT     H2 5754  11.085   8.916   1.815  0.8539  1.5697 -2.0297
  987WAT    EPW 5755  11.007   8.943   1.786 -0.1764  0.3219 -0.5846
  988WAT      O 5756   7.211   5.083   6.416 -0.2220  0.7056  0.1773
  988WAT     H1 5757   7.226   5.139   6.339 -0.5129  0.4686 -0.0570
  988WAT     H2 5758   7.217   4.994   6.382 -1.5478  0.5944  0.1692
  988WAT    EPW 5759   7.214   5.079   6.401 -0.4354  0.6599  0.1450
  989WAT      O 5760   5.802   2.089   6.611 -0.3387  0.1785  0.2426
  989WAT     H1 5761   5.891   2.103   6.641 -0.5070 -0.1073  0.8837
  989WAT     H2 5762   5.775   2.006   6.652 -0.9855  0.3905  0.2609
  989WAT    EPW 5763   5.810   2.080   6.620 -0.4458  0.1688  0.3295
  990WAT      O 5764   8.187   2.441   7.287  0.6025 -0.1209 -0.1140
  990WAT     H1 5765   8.188   2.536   7.276 -0.3570  0.0790  1.2391
  990WAT     H2 5766   8.177   2.407   7.198 -1.6760  1.1450 -0.4373
  990WAT    EPW 5767   8.185   2.449   7.274  0.1760  0.0724  0.0219
  991WAT      O 5768   7.599   2.783   7.864 -0.4161 -0.2492  0.0962
  991WAT     H1 5769   7.552   2.856   7.823 -0.1675 -1.1575 -1.9209
  991WAT     H2 5770   7.532   2.736   7.913 -0.5710  1.3048  1.4811
  991WAT    EPW 5771   7.584   2.786   7.865 -0.4036 -0.1640  0.0129
  992WAT      O 5772   0.623   8.905   0.864 -0.0055  0.8721 -0.1785
  992WAT     H1 5773   0.581   8.984   0.899 -2.1586 -0.7042  1.0359
  992WAT     H2 5774   0.698   8.890   0.921  0.3659  1.9455 -0.3611
  992WAT    EPW 5775   0.628   8.914   0.876 -0.2405  0.8059 -0.0424
  993WAT      O 5776   1.292   6.757   2.106 -0.2999  0.2317 -0.0514
  993WAT     H1 5777   1.341   6.838   2.116  1.1104 -0.4238 -1.1584
  993WAT     H2 5778   1.231   6.774   2.034  0.2375  0.2224 -0.5177
  993WAT    EPW 5779   1.290   6.770   2.097 -0.0430  0.1440 -0.2589
  994WAT      O 5780   3.325   8.585   2.728 -0.5079  0.8525  0.2480
  994WAT     H1 5781   3.291   8.500   2.699  2.0256  0.4751 -2.0466
  994WAT     H2 5782   3.345   8.573   2.820  2.0266 -1.9462 -0.5367
  994WAT    EPW 5783   3.323   8.572   2.736  0.1607  0.4339 -0.1581
  995WAT      O 5784   7.126   0.086   0.481 -0.2366  0.6293  0.6789
  995WAT     H1 5785   7.053   0.131   0.526 -0.3252  2.0130 -0.7700
  995WAT     H2 5786   7.172   0.155   0.434  0.6648 -0.5679 -0.2775
  995WAT    EPW 5787   7.122   0.101   0.481 -0.1295  0.6539  0.3617
  996WAT      O 5788   6.692   9.472   2.333  0.3338 -0.1991 -0.4739
  996WAT     H1 5789   6.671   9.547   2.278 -0.0654  0.3267  0.3674
  996WAT     H2 5790   6.726   9.510   2.414  1.8637 -0.9780 -0.7124
  996WAT    EPW 5791   6.694   9.487   2.337  0.4826 -0.2322 -0.3943
  997WAT      O 5792   4.041   8.901   1.272 -0.4674 -0.4957  0.3017
  997WAT     H1 5793   4.070   8.810   1.272 -0.5060 -0.6667 -3.7964
  997WAT     H2 5794   3.945   8.895   1.272 -0.5011 -0.3257  1.5169
  997WAT    EPW 5795   4.032   8.888   1.272 -0.4768 -0.4954 -0.0786
  998WAT      O 5796   8.996   1.193   6.511  0.9736 -0.0694  0.3616
  998WAT     H1 5797   8.994   1.288   6.510  3.1749  0.0396 -1.4093
  998WAT     H2 5798   9.035   1.170   6.595 -0.2530  0.4954  1.1240
  998WAT    EPW 5799   9.001   1.202   6.522  1.1020  0.0196  0.2286
  999WAT      O 5800   1.754   7.497   0.999  0.4663  0.4957 -0.3311
  999WAT     H1 5801   1.843   7.519   0.970  1.1446 -1.5569 -0.0065
  999WAT     H2 5802   1.740   7.552   1.076  0.4070  2.7068 -1.8434
  999WAT    EPW 5803   1.764   7.507   1.005  0.5479  0.5167 -0.4877
 1000WAT      O 5804   0.634   6.406   3.062 -0.2306  1.6454  0.0227
 1000WAT     H1 5805   0.727   6.384   3.062 -0.6538 -0.3028 -0.7821
 1000WAT     H2 5806   0.589   6.322   3.066 -1.9738  2.5445  0.2529
 1000WAT    EPW 5807   0.641   6.392   3.063 -0.5164  1.5073 -0.0532
 1001WAT      O 5808   1.140   8.655   1.750 -0.2736  0.2769 -0.4628
 1001WAT     H1 5809   1.150   8.573   1.702  0.2851  0.8609 -1.3677
 1001WAT     H2 5810   1.139   8.723   1.683 -0.5470  1.0371  0.2832
 1001WAT    EPW 5811   1.141   8.653   1.735 -0.2359  0.4539 -0.4836
 1002WAT      O 5812   2.047  10.039   6.808  0.1486  0.1784 -0.1485
 1002WAT     H1 5813   2.037   9.955   6.763 -2.3540 -0.5271  1.5175
 1002WAT     H2 5814   2.035  10.104   6.739 -1.4254 -0.8631 -0.9201
 1002WAT    EPW 5815   2.044  10.036   6.793 -0.3891 -0.0520 -0.0305
 1003WAT      O 5816   7.647   1.680   8.265  0.2600 -0.1086  0.0613
 1003WAT     H1 5817   7.718   1.661   8.205  0.7926  3.0757 -0.4701
 1003WAT     H2 5818   7.690   1.696   8.349  0.0967  0.7496 -0.0087
 1003WAT    EPW 5819   7.662   1.680   8.269  0.3085  0.4246 -0.0176
 1004WAT      O 5820   3.662   8.069   4.229  0.1125 -0.9227  0.3150
 1004WAT     H1 5821   3.728   8.058   4.160  0.9794 -0.9235  1.1191
 1004WAT     H2 5822   3.711   8.104   4.303 -1.2070  1.1742  0.2600
 1004WAT    EPW 5823   3.677   8.072   4.230  0.0527 -0.6461  0.4139
 1005WAT      O 5824   3.763   1.873   2.016  0.1355 -0.2992 -0.3329
 1005WAT     H1 5825   3.686   1.824   2.047 -0.0914  0.3212  0.1133
 1005WAT     H2 5826   3.835   1.810   2.021 -0.3607 -0.9145 -0.8455
 1005WAT    EPW 5827   3.762   1.858   2.021  0.0401 -0.2985 -0.3417
 1006WAT      O 5828   1.366   8.583   1.218 -0.4306 -0.7850 -0.5443
 1006WAT     H1 5829   1.457   8.593   1.245 -0.8163  1.3730  0.1331
 1006WAT     H2 5830   1.336   8.672   1.198 -2.6771 -1.2934  0.1815
 1006WAT    EPW 5831   1.374   8.596   1.219 -0.7778 -0.5670 -0.3592
 1007WAT      O 5832   0.868   4.042   4.105  0.0318  0.0842 -0.1469
 1007WAT     H1 5833   0.856   4.000   4.190 -3.3926  0.3820 -0.3617
 1007WAT     H2 5834   0.796   4.009   4.052  0.8713  1.5213 -2.2904
 1007WAT    EPW 5835   0.857   4.032   4.109 -0.3091  0.3130 -0.4578
 1008WAT      O 5836   3.228   9.680   6.767 -0.1025 -0.0669 -0.3181
 1008WAT     H1 5837   3.244   9.588   6.746 -1.8364 -0.1978 -1.2833
 1008WAT     H2 5838   3.148   9.679   6.820  0.1877  0.8359  0.1559
 1008WAT    EPW 5839   3.219   9.668   6.771 -0.2930  0.0348 -0.3831
 1009WAT      O 5840   7.913   0.840   8.446 -0.4282  0.0193  0.0277
 1009WAT     H1 5841   7.944   0.854   8.357 -0.8661 -0.2582 -0.1736
 1009WAT     H2 5842   7.882   0.749   8.446 -2.6735  0.7106 -0.2402
 1009WAT    EPW 5843   7.913   0.830   8.434 -0.7820  0.0739 -0.0343
 1010WAT      O 5844   6.279   0.649   6.338 -0.2490 -0.2794  0.8510
 1010WAT     H1 5845   6.371   0.627   6.352  0.4906  1.2381 -1.1633
 1010WAT     H2 5846   6.259   0.713   6.406  0.9867  1.2563 -0.1432
 1010WAT    EPW 5847   6.289   0.655   6.349  0.0117  0.1233  0.4544
 1011WAT      O 5848   9.038   2.435   6.377  0.0710 -0.5067  0.0503
 1011WAT     H1 5849   8.980   2.368   6.340 -0.8984 -0.5602  1.5817
 1011WAT     H2 5850   9.104   2.386   6.425  1.7864 -0.4685 -2.1023
 1011WAT    EPW 5851   9.039   2.420   6.378  0.1688 -0.5085 -0.0315
 1012WAT      O 5852   6.285   2.295   7.342  0.4233 -0.1702 -0.4420
 1012WAT     H1 5853   6.239   2.221   7.381 -1.1038  2.2708  2.7583
 1012WAT     H2 5854   6.376   2.286   7.372  1.0855 -2.3240 -2.7371
 1012WAT    EPW 5855   6.291   2.284   7.351  0.3095 -0.1323 -0.3226
 1013WAT      O 5856   6.588   3.710   7.432 -0.2844 -0.0949  0.2566
 1013WAT     H1 5857   6.633   3.697   7.348  1.9695 -2.6049  1.6742
 1013WAT     H2 5858   6.527   3.781   7.416 -0.3308 -0.7894 -3.6490
 1013WAT    EPW 5859   6.586   3.717   7.418  0.0067 -0.5177 -0.0713
 1014WAT      O 5860   8.411   4.412   6.838  0.3401  0.3066 -0.0572
 1014WAT     H1 5861   8.504   4.431   6.848  0.2154  0.5801  0.6834
 1014WAT     H2 5862   8.408   4.335   6.783  1.1030 -0.9423  1.5586
 1014WAT    EPW 5863   8.423   4.405   6.832  0.4244  0.1781  0.2537
 1015WAT      O 5864   5.399   9.058   7.814  1.0851  0.7177 -0.6360
 1015WAT     H1 5865   5.445   8.995   7.870  1.6086  0.0884 -1.7339
 1015WAT     H2 5866   5.322   9.083   7.865  0.7280 -1.0094 -0.2437
 1015WAT    EPW 5867   5.395   9.053   7.828  1.1070  0.4067 -0.7291
 1016WAT      O 5868   8.924   5.824   0.196 -0.6422  0.0717 -0.2010
 1016WAT     H1 5869   8.970   5.860   0.120 -0.0810  3.0687  1.4222
 1016WAT     H2 5870   8.987   5.763   0.235 -0.0878  0.1730 -0.9302
 1016WAT    EPW 5871   8.939   5.820   0.191 -0.4950  0.4804 -0.0831
 1017WAT      O 5872   6.588   3.176   8.735 -0.8005 -0.0374 -0.0967
 1017WAT     H1 5873   6.677   3.151   8.760 -0.1331  2.9115  0.8944
 1017WAT     H2 5874   6.562   3.111   8.670  1.4833 -1.8451  0.6625
 1017WAT    EPW 5875   6.596   3.164   8.730 -0.4110  0.1130  0.1345
 1018WAT      O 5876   8.343   4.355   7.926  0.0200  0.5130 -0.5296
 1018WAT     H1 5877   8.248   4.367   7.927 -0.1228 -0.5065 -0.0467
 1018WAT     H2 5878   8.359   4.297   7.852 -0.1097 -1.7820  1.1341
 1018WAT    EPW 5879   8.333   4.349   7.917 -0.0162  0.0758 -0.2465
 1019WAT      O 5880   9.704   5.669   4.531  0.5353 -0.3015 -0.4326
 1019WAT     H1 5881   9.681   5.634   4.444  0.1650 -0.0384 -0.4425
 1019WAT     H2 5882   9.672   5.759   4.529  0.8943 -0.1677 -0.1662
 1019WAT    EPW 5883   9.697   5.676   4.519  0.5341 -0.2494 -0.3986
 1020WAT      O 5884  10.382   3.943   3.509 -0.0392  0.5615 -0.1676
 1020WAT     H1 5885  10.332   3.988   3.577 -2.3249 -0.7670 -0.8629
 1020WAT     H2 5886  10.402   4.012   3.445 -2.2859  0.9289 -0.5527
 1020WAT    EPW 5887  10.378   3.958   3.509 -0.6371  0.4346 -0.3101
 1021WAT      O 5888   3.542  10.122   0.206  0.2352 -0.2664 -0.5422
 1021WAT     H1 5889   3.462  10.175   0.207  0.7976  0.6724  1.7183
 1021WAT     H2 5890   3.610  10.182   0.237  1.1336 -1.9596  0.9242
 1021WAT    EPW 5891   3.540  10.137   0.210  0.4280 -0.3662 -0.0506
 1022WAT      O 5892  10.044   5.252   8.069 -0.0945 -1.0914  0.1951
 1022WAT     H1 5893  10.022   5.321   8.132 -0.7188  0.0010 -1.1693
 1022WAT     H2 5894  10.132   5.277   8.038 -2.1626  2.2067 -4.0554
 1022WAT    EPW 5895  10.053   5.265   8.073 -0.4497 -0.5124 -0.5455
 1023WAT      O 5896   8.957   2.520   6.809  0.5304  0.1153  0.0920
 1023WAT     H1 5897   8.922   2.512   6.897  0.9504 -0.4796  0.2104
 1023WAT     H2 5898   9.041   2.566   6.821  1.3534 -1.3603  0.2036
 1023WAT    EPW 5899   8.964   2.525   6.822  0.6943 -0.1578  0.1221
 1024WAT      O 5900   9.100   2.548   8.113 -0.1387  0.0058  0.7334
 1024WAT     H1 5901   9.038   2.620   8.120 -2.7502 -2.1791  1.7234
 1024WAT     H2 5902   9.143   2.544   8.199  0.2808  0.5812  0.5533
 1024WAT    EPW 5903   9.097   2.557   8.125 -0.4282 -0.2065  0.8407
 1025WAT      O 5904   0.664   6.594   3.467  0.2711  0.3985  0.2292
 1025WAT     H1 5905   0.599   6.524   3.459  1.3757 -0.4942 -1.7350
 1025WAT     H2 5906   0.659   6.621   3.559  0.4899 -3.0058  1.3853
 1025WAT    EPW 5907   0.655   6.588   3.478  0.4457 -0.1678  0.1225
 1026WAT      O 5908   9.743   3.903   8.818 -0.0808 -0.0684 -0.0271
 1026WAT     H1 5909   9.724   3.822   8.770 -0.5543 -0.6128  1.0516
 1026WAT     H2 5910   9.754   3.876   8.909  0.7037  0.9622  0.2141
 1026WAT    EPW 5911   9.742   3.889   8.824 -0.0401 -0.0043  0.1469
 1027WAT      O 5912   2.213   5.842   4.031  0.3581  0.2278 -0.7788
 1027WAT     H1 5913   2.162   5.903   3.978  1.1273  0.3013 -1.4383
 1027WAT     H2 5914   2.149   5.778   4.061 -0.2585  0.7393 -0.9821
 1027WAT    EPW 5915   2.198   5.842   4.028  0.3783  0.3052 -0.8926
 1028WAT      O 5916   3.324   8.038   1.107 -0.1685  0.5377  0.2261
 1028WAT     H1 5917   3.333   8.113   1.166  1.0020  0.5018  0.1225
 1028WAT     H2 5918   3.395   7.980   1.132  0.2037  0.4076 -1.0569
 1028WAT    EPW 5919   3.335   8.040   1.118  0.0349  0.5159  0.0432
 1029WAT      O 5920   8.476   1.771   7.469 -0.8706  0.9469  0.0782
 1029WAT     H1 5921   8.487   1.855   7.426  1.9812  0.3545 -0.5888
 1029WAT     H2 5922   8.551   1.764   7.528 -0.6616 -1.3527 -0.3484
 1029WAT    EPW 5923   8.487   1.781   7.471 -0.4668  0.5655 -0.0663
 1030WAT      O 5924   9.375   5.492   4.427  0.0885 -0.1671  0.0013
 1030WAT     H1 5925   9.440   5.533   4.370  2.3323 -3.4556 -0.0282
 1030WAT     H2 5926   9.388   5.534   4.512  1.4701  0.0077 -0.2789
 1030WAT    EPW 5927   9.385   5.503   4.430  0.5665 -0.5779 -0.0393
 1031WAT      O 5928   0.782   9.641   0.923  0.0272  0.4030  0.3365
 1031WAT     H1 5929   0.813   9.586   0.851  0.9522 -1.0764  1.8125
 1031WAT     H2 5930   0.709   9.592   0.961  1.1470 -0.0751  1.9498
 1031WAT    EPW 5931   0.777   9.628   0.919  0.2969  0.1454  0.7439
 1032WAT      O 5932   1.206   7.801   2.347 -0.5543  0.2668 -0.5879
 1032WAT     H1 5933   1.152   7.730   2.381 -0.3200  0.1558 -0.4469
 1032WAT     H2 5934   1.238   7.846   2.425  0.6993 -0.5182 -0.6241
 1032WAT    EPW 5935   1.203   7.798   2.362 -0.3580  0.1488 -0.5741
 1033WAT      O 5936   5.808   3.418   5.701  0.5551  0.3736 -0.2443
 1033WAT     H1 5937   5.894   3.382   5.682  0.2333 -0.4392 -0.2159
 1033WAT     H2 5938   5.813   3.509   5.673  0.9826 -0.0326 -1.5466
 1033WAT    EPW 5939   5.820   3.425   5.695  0.5693  0.2127 -0.4125
 1034WAT      O 5940   0.860   4.144   1.269 -0.4666  0.0616  0.4618
 1034WAT     H1 5941   0.771   4.178   1.265 -1.3529 -2.1702 -3.8862
 1034WAT     H2 5942   0.888   4.138   1.178  2.2121 -4.0162  1.2763
 1034WAT    EPW 5943   0.852   4.148   1.257 -0.2302 -0.7708 -0.0042
 1035WAT      O 5944   1.944   5.518   2.171  0.2094 -1.0009  0.2121
 1035WAT     H1 5945   1.967   5.565   2.091  0.5209  1.6998  1.7556
 1035WAT     H2 5946   1.993   5.436   2.166 -1.5429 -2.0159 -3.3390
 1035WAT    EPW 5947   1.954   5.513   2.160  0.0194 -0.7784 -0.0526
 1036WAT      O 5948   1.226   8.911   2.184  0.3404 -0.0159 -0.4284
 1036WAT     H1 5949   1.297   8.975   2.189 -0.6972  1.2599 -1.4424
 1036WAT     H2 5950   1.261   8.841   2.129  2.0438 -1.1753  1.9072
 1036WAT    EPW 5951   1.240   8.910   2.178  0.4282 -0.0010 -0.2542
 1037WAT      O 5952  10.780   5.640   0.535 -0.5402 -0.4767 -0.1377
 1037WAT     H1 5953  10.708   5.620   0.475 -0.6797 -0.2294 -0.0539
 1037WAT     H2 5954  10.740   5.696   0.602 -0.1321  0.1500 -0.4118
 1037WAT    EPW 5955  10.765   5.645   0.536 -0.5050 -0.3614 -0.1628
 1038WAT      O 5956   3.251   9.473   8.653 -0.6729  0.3207  0.3603
 1038WAT     H1 5957   3.171   9.474   8.706 -0.0406 -0.2199  1.3468
 1038WAT     H2 5958   3.307   9.408   8.694 -0.3659 -0.5227 -1.3125
 1038WAT    EPW 5959   3.248   9.465   8.665 -0.5490  0.1388  0.2704
 1039WAT      O 5960   1.591   7.678   2.933  0.1862  0.2529  0.7146
 1039WAT     H1 5961   1.538   7.757   2.927  1.2225  0.9198  0.1209
 1039WAT     H2 5962   1.608   7.654   2.842  0.8569  0.0098  0.9035
 1039WAT    EPW 5963   1.586   7.685   2.920  0.4113  0.3090  0.6613
 1040WAT      O 5964   6.642   1.989   7.552 -0.1061 -0.1152  0.3006
 1040WAT     H1 5965   6.625   1.921   7.487 -1.4935 -0.7097  1.2428
 1040WAT     H2 5966   6.604   2.068   7.515 -2.8791 -0.8949  1.2554
 1040WAT    EPW 5967   6.635   1.990   7.539 -0.6549 -0.2965  0.5507
 1041WAT      O 5968   3.530   0.106   8.469 -0.3928  0.2616 -0.6287
 1041WAT     H1 5969   3.584   0.184   8.468  0.5887 -0.4006 -1.2130
 1041WAT     H2 5970   3.451   0.130   8.421 -0.7737  1.3178  0.4690
 1041WAT    EPW 5971   3.527   0.119   8.463 -0.3136  0.3136 -0.5603
 1042WAT      O 5972  10.472   5.020   2.347  0.5267  0.2201 -0.7458
 1042WAT     H1 5973  10.394   4.973   2.318 -0.3994  1.7222 -0.8256
 1042WAT     H2 5974  10.542   4.989   2.289 -0.0159 -1.0756 -0.7450
 1042WAT    EPW 5975  10.471   5.010   2.336  0.3328  0.2472 -0.7563
 1043WAT      O 5976  10.604   8.227   0.246 -0.1138 -0.7734 -0.0286
 1043WAT     H1 5977  10.681   8.196   0.199  0.2259  0.5923 -0.4312
 1043WAT     H2 5978  10.635   8.303   0.295 -0.8277 -1.2260  1.1711
 1043WAT    EPW 5979  10.618   8.233   0.246 -0.1636 -0.6528  0.0765
 1044WAT      O 5980   8.498   4.792   8.609 -0.3022  0.8231  0.4470
 1044WAT     H1 5981   8.508   4.846   8.688 -0.0034  0.0674  0.9366
 1044WAT     H2 5982   8.447   4.717   8.639 -3.0036  2.0194 -0.7949
 1044WAT    EPW 5983   8.492   4.789   8.624 -0.6194  0.8812  0.3471
 1045WAT      O 5984   8.176   2.327   8.647 -0.2222  0.0306  0.3846
 1045WAT     H1 5985   8.191   2.384   8.722  0.4396 -0.4244  0.6074
 1045WAT     H2 5986   8.175   2.386   8.572  1.1873  0.2573  0.5295
 1045WAT    EPW 5987   8.178   2.342   8.647  0.0505  0.0006  0.4325
 1046WAT      O 5988   9.440   9.299   1.642 -0.0205 -0.1170 -0.5260
 1046WAT     H1 5989   9.393   9.354   1.704 -1.9222 -0.3785 -1.6533
 1046WAT     H2 5990   9.439   9.348   1.560 -0.4410 -1.1720 -1.1694
 1046WAT    EPW 5991   9.434   9.313   1.639 -0.3271 -0.2909 -0.7595
 1047WAT      O 5992   1.916   5.856   0.933 -0.2259  0.2193  0.7207
 1047WAT     H1 5993   1.840   5.811   0.970  1.1103 -0.3840  2.9761
 1047WAT     H2 5994   1.950   5.907   1.006  2.7138 -1.1608  0.4546
 1047WAT    EPW 5995   1.910   5.857   0.948  0.3380 -0.0422  0.9831
 1048WAT      O 5996   9.382   9.633   2.082  0.6923 -0.2565 -0.0942
 1048WAT     H1 5997   9.366   9.539   2.081  3.2474 -0.7551  0.0007
 1048WAT     H2 5998   9.295   9.672   2.079 -0.5109 -2.6017  1.6203
 1048WAT    EPW 5999   9.368   9.626   2.081  0.8702 -0.6318  0.1445
 1049WAT      O 6000   6.716   4.552   1.349  0.4602 -0.4463 -0.1243
 1049WAT     H1 6001   6.634   4.591   1.380  0.7753  0.8910 -0.8775
 1049WAT     H2 6002   6.784   4.601   1.394  0.8702 -1.7767  0.7524
 1049WAT    EPW 6003   6.714   4.563   1.359  0.5558 -0.4456 -0.1079
 1050WAT      O 6004   1.066   6.545   2.152  0.2852 -0.8036 -0.2207
 1050WAT     H1 6005   1.111   6.623   2.182 -0.0505  0.7389 -3.3612
 1050WAT     H2 6006   0.974   6.571   2.146  0.2857 -1.1174 -2.0976
 1050WAT    EPW 6007   1.060   6.558   2.155  0.2410 -0.6416 -0.8824
 1051WAT      O 6008   0.466   6.343   0.496  0.8799 -0.0575  0.2974
 1051WAT     H1 6009   0.493   6.418   0.442  0.7168 -0.5737 -0.5271
 1051WAT     H2 6010   0.444   6.275   0.432  0.6619 -0.6836  1.0278
 1051WAT    EPW 6011   0.467   6.344   0.480  0.8297 -0.2081  0.2850
 1052WAT      O 6012   2.821   9.387   8.910  0.4815  0.5073  0.4652
 1052WAT     H1 6013   2.726   9.390   8.906  0.5014  2.0171  0.7122
 1052WAT     H2 6014   2.849   9.477   8.895  1.8990  0.0142 -0.0662
 1052WAT    EPW 6015   2.812   9.399   8.907  0.6710  0.6409  0.4277
 1053WAT      O 6016   7.356   3.928   8.330  0.3009  0.5669 -0.5167
 1053WAT     H1 6017   7.269   3.965   8.335 -0.2426 -0.6968 -0.0975
 1053WAT     H2 6018   7.375   3.898   8.419  0.5638 -0.4455 -0.8967
 1053WAT    EPW 6019   7.347   3.929   8.343  0.2637  0.2667 -0.5112
 1054WAT      O 6020   4.935   0.979   6.210 -0.2974  0.3087 -0.1273
 1054WAT     H1 6021   5.001   0.965   6.279 -1.2117 -1.0828  0.5071
 1054WAT     H2 6022   4.903   1.067   6.226 -0.5525 -0.0083  1.3176
 1054WAT    EPW 6023   4.940   0.989   6.221 -0.4518  0.0833  0.1469
 1055WAT      O 6024   0.410   7.606   1.632  0.1196 -0.1687  0.3516
 1055WAT     H1 6025   0.454   7.655   1.562  1.8702 -1.7396  0.2616
 1055WAT     H2 6026   0.362   7.672   1.682  0.0191  1.1845 -1.4667
 1055WAT    EPW 6027   0.410   7.621   1.630  0.3373 -0.1974  0.0999
 1056WAT      O 6028   7.220   2.435   8.692 -0.0759 -0.2831 -0.2800
 1056WAT     H1 6029   7.227   2.473   8.604 -0.1014 -0.0825 -0.1962
 1056WAT     H2 6030   7.128   2.412   8.701  0.1482 -1.4511 -0.7782
 1056WAT    EPW 6031   7.209   2.437   8.681 -0.0498 -0.4107 -0.3347
 1057WAT      O 6032   2.103  10.117   5.858 -0.6658  0.2638  0.3768
 1057WAT     H1 6033   2.115  10.037   5.807  0.6814 -0.1440  1.2846
 1057WAT     H2 6034   2.186  10.163   5.849 -0.5867  0.4248  1.7646
 1057WAT    EPW 6035   2.115  10.112   5.850 -0.4777  0.2313  0.6795
 1058WAT      O 6036   3.649   9.645   7.304 -0.2107 -0.4805 -0.4639
 1058WAT     H1 6037   3.677   9.562   7.344 -0.3914 -0.8100 -1.0154
 1058WAT     H2 6038   3.572   9.670   7.355  0.9167  0.3246  0.9261
 1058WAT    EPW 6039   3.642   9.637   7.316 -0.0858 -0.4177 -0.3531
 1059WAT      O 6040  10.462   4.850   1.102 -0.7906  0.1920  0.4445
 1059WAT     H1 6041  10.433   4.768   1.142  0.7202  0.4413  2.1935
 1059WAT     H2 6042  10.402   4.916   1.136  0.8171  0.4901  2.9140
 1059WAT    EPW 6043  10.450   4.848   1.112 -0.3791  0.2642  1.0009
 1060WAT      O 6044   0.691   7.952   1.297  0.5919 -0.5125  0.1988
 1060WAT     H1 6045   0.779   7.988   1.308 -0.2247  1.4374  0.7885
 1060WAT     H2 6046   0.635   8.029   1.285 -0.7218 -1.7616 -2.8392
 1060WAT    EPW 6047   0.695   7.967   1.297  0.3109 -0.4203 -0.1241
 1061WAT      O 6048  10.432   3.269   0.842 -0.1351 -0.3923 -1.1179
 1061WAT     H1 6049  10.408   3.189   0.888  0.1963  0.0676 -0.1230
 1061WAT     H2 6050  10.520   3.251   0.807 -0.6822 -1.0067 -2.2337
 1061WAT    EPW 6051  10.441   3.256   0.843 -0.1631 -0.4127 -1.1338
 1062WAT      O 6052   0.318   7.810   2.760  0.5078 -0.1157  1.2577
 1062WAT     H1 6053   0.262   7.882   2.729 -0.0228 -0.0176  2.3806
 1062WAT     H2 6054   0.397   7.817   2.707 -0.9322 -0.9501 -1.1764
 1062WAT    EPW 6055   0.321   7.821   2.749  0.2479 -0.2127  1.0848
 1063WAT      O 6056   1.940   8.976   0.592 -0.2033 -0.2203  0.4990
 1063WAT     H1 6057   1.989   9.034   0.533  2.6261 -1.9031  1.0496
 1063WAT     H2 6058   1.914   9.033   0.665 -1.9057  1.4045 -1.2311
 1063WAT    EPW 6059   1.943   8.991   0.594 -0.0547 -0.2275  0.3434
 1064WAT      O 6060   5.502   1.564   8.699  0.6649  0.0106 -0.2424
 1064WAT     H1 6061   5.581   1.572   8.753  1.1093 -1.2765 -0.6625
 1064WAT     H2 6062   5.501   1.472   8.671 -1.4013 -0.2147  0.3758
 1064WAT    EPW 6063   5.512   1.553   8.702  0.4508 -0.1889 -0.2160
 1065WAT      O 6064   9.906   8.153   0.045 -0.7751  0.3646  0.0493
 1065WAT     H1 6065   9.991   8.177   0.009 -1.6464  2.6879 -0.6787
 1065WAT     H2 6066   9.871   8.090  -0.019 -0.2595  0.6544 -0.5364
 1065WAT    EPW 6067   9.912   8.148   0.032 -0.8218  0.7092 -0.1235
 1066WAT      O 6068   8.938   0.637   6.936 -0.2972  0.5912  0.0165
 1066WAT     H1 6069   9.011   0.602   6.988 -1.1706 -0.1968  0.7511
 1066WAT     H2 6070   8.957   0.731   6.929  1.3535  0.2472 -0.7708
 1066WAT    EPW 6071   8.950   0.645   6.942 -0.1950  0.4419  0.0095
 1067WAT      O 6072   9.034   3.486   7.347 -0.5092 -0.6096 -0.2136
 1067WAT     H1 6073   9.118   3.463   7.309 -0.2833  1.9605 -1.4335
 1067WAT     H2 6074   9.044   3.467   7.441  1.0520 -1.2560 -0.4818
 1067WAT    EPW 6075   9.046   3.480   7.354 -0.2737 -0.3558 -0.4101
 1068WAT      O 6076  10.582   2.347   8.274  0.4372 -0.4497  0.2199
 1068WAT     H1 6077  10.634   2.292   8.333  0.3334  0.6781  1.3942
 1068WAT     H2 6078  10.574   2.431   8.319 -1.6714 -0.3006 -0.3179
 1068WAT    EPW 6079  10.588   2.351   8.288  0.1450 -0.2812  0.3037
 1069WAT      O 6080  10.284   0.680   7.860  0.1450 -0.1526 -0.4087
 1069WAT     H1 6081  10.270   0.610   7.796  0.6201 -1.4734  0.8824
 1069WAT     H2 6082  10.319   0.753   7.808 -0.6390 -0.7427 -1.8331
 1069WAT    EPW 6083  10.287   0.680   7.845  0.1044 -0.4047 -0.4263
 1070WAT      O 6084   0.582   9.250   1.744  0.8332  0.2222 -0.4635
 1070WAT     H1 6085   0.532   9.321   1.785  1.2772  0.2229  0.0954
 1070WAT     H2 6086   0.522   9.176   1.744  1.4942 -0.4533  2.2898
 1070WAT    EPW 6087   0.568   9.250   1.750  0.9789  0.1330 -0.0266
 1071WAT      O 6088   7.691   1.254   8.667  0.7072 -0.3558 -0.0047
 1071WAT     H1 6089   7.637   1.316   8.716 -0.0844 -1.8012  1.0380
 1071WAT     H2 6090   7.765   1.306   8.635 -0.8948  1.5250 -0.8392
 1071WAT    EPW 6091   7.694   1.269   8.669  0.3915 -0.2984  0.0229
 1072WAT      O 6092   9.461   1.454   7.765  0.0444  0.3385 -0.2517
 1072WAT     H1 6093   9.526   1.524   7.766 -1.4926  1.8320 -0.3977
 1072WAT     H2 6094   9.481   1.403   7.686 -1.1322  2.9721 -2.3866
 1072WAT    EPW 6095   9.472   1.456   7.755 -0.3142  0.8829 -0.5527
 1073WAT      O 6096   7.149   3.329   6.089  0.2059 -0.6431 -0.0820
 1073WAT     H1 6097   7.242   3.315   6.069 -0.0247 -2.1527 -0.2610
 1073WAT     H2 6098   7.137   3.289   6.175 -0.1895 -0.0740  0.1268
 1073WAT    EPW 6099   7.160   3.322   6.097  0.1235 -0.7674 -0.0782
 1074WAT      O 6100   0.501   8.764   2.829  0.0031  0.2132  0.2560
 1074WAT     H1 6101   0.530   8.808   2.749  2.2078  1.1561  1.4757
 1074WAT     H2 6102   0.552   8.683   2.831 -0.6995 -0.2307  0.2725
 1074WAT    EPW 6103   0.511   8.759   2.819  0.2012  0.2794  0.4191
 1075WAT      O 6104   9.593   3.201   6.758  0.5922  0.3679  0.3140
 1075WAT     H1 6105   9.580   3.223   6.851 -0.3163  1.1129  0.0254
 1075WAT     H2 6106   9.505   3.201   6.721  0.8703 -0.7561 -0.3848
 1075WAT    EPW 6107   9.579   3.204   6.766  0.5093  0.3178  0.1836
 1076WAT      O 6108   9.677   4.724   6.164  0.0108 -0.0303 -0.5353
 1076WAT     H1 6109   9.763   4.738   6.204  0.7884 -0.8667 -1.8235
 1076WAT     H2 6110   9.669   4.628   6.159 -0.1739  0.0482 -2.0862
 1076WAT    EPW 6111   9.688   4.713   6.169  0.0887 -0.1302 -0.9098
 1077WAT      O 6112   5.312   8.319   5.225 -0.1236 -0.2787  0.0102
 1077WAT     H1 6113   5.303   8.406   5.186  0.6806 -0.5559 -0.8400
 1077WAT     H2 6114   5.324   8.261   5.150  1.3632 -0.8415  0.6475
 1077WAT    EPW 6115   5.312   8.323   5.210  0.1786 -0.3896 -0.0179
 1078WAT      O 6116   8.036   1.545   5.050 -0.1734 -0.2995 -0.0039
 1078WAT     H1 6117   7.998   1.462   5.023 -0.5124 -0.1215 -0.0821
 1078WAT     H2 6118   7.963   1.593   5.089 -0.3400  0.5571 -1.3111
 1078WAT    EPW 6119   8.021   1.541   5.052 -0.2403 -0.1630 -0.1867
 1079WAT      O 6120   9.285   4.259   7.503  0.0753 -0.8718 -0.4496
 1079WAT     H1 6121   9.277   4.228   7.593  2.2471 -2.9425 -0.8987
 1079WAT     H2 6122   9.196   4.255   7.469 -0.6770 -0.6839  1.3634
 1079WAT    EPW 6123   9.272   4.255   7.511  0.2623 -1.1203 -0.2699
 1080WAT      O 6124   8.431   9.812   2.207 -0.1295 -0.4388 -0.9116
 1080WAT     H1 6125   8.429   9.802   2.111 -1.7945 -0.8570 -0.8644
 1080WAT     H2 6126   8.339   9.823   2.231  0.3389  0.4897  0.5739
 1080WAT    EPW 6127   8.419   9.812   2.197 -0.2871 -0.3715 -0.7094
 1081WAT      O 6128   2.400   4.583   8.629 -0.1682 -0.4658 -0.4982
 1081WAT     H1 6129   2.326   4.643   8.630  0.1388 -0.0188 -1.8085
 1081WAT     H2 6130   2.362   4.497   8.646 -1.1951 -0.3998 -2.1745
 1081WAT    EPW 6131   2.385   4.579   8.631 -0.2632 -0.3984 -0.8922
 1082WAT      O 6132   2.564   6.041   1.080 -0.0039  0.3509 -0.1648
 1082WAT     H1 6133   2.472   6.016   1.073 -0.1621  0.8317  0.1158
 1082WAT     H2 6134   2.611   5.958   1.088 -0.4378  0.1121 -0.0715
 1082WAT    EPW 6135   2.558   6.026   1.080 -0.0820  0.3829 -0.1155
 1083WAT      O 6136   4.226   0.258   3.845 -0.3132 -0.0922  0.1458
 1083WAT     H1 6137   4.204   0.214   3.927  1.7068  0.9274  1.3271
 1083WAT     H2 6138   4.321   0.262   3.845 -0.3140  1.0121 -1.6835
 1083WAT    EPW 6139   4.236   0.253   3.856 -0.0472  0.1879  0.0603
 1084WAT      O 6140   7.972   3.052   8.945  0.3677 -0.4363  0.4187
 1084WAT     H1 6141   7.967   2.987   9.015  1.4308 -0.2630  0.6679
 1084WAT     H2 6142   7.981   3.136   8.990  0.5335 -0.2704  0.0789
 1084WAT    EPW 6143   7.973   3.055   8.960  0.5298 -0.3915  0.4068
 1085WAT      O 6144   2.811   9.387   7.965 -0.0939 -0.2015 -0.5262
 1085WAT     H1 6145   2.885   9.328   7.949  0.8218  1.1174 -1.3161
 1085WAT     H2 6146   2.739   9.348   7.915  0.0768 -1.4376  0.1592
 1085WAT    EPW 6147   2.811   9.374   7.956  0.0494 -0.1903 -0.5398
 1086WAT      O 6148   2.751   6.720   0.312 -0.9372 -0.9626 -0.2735
 1086WAT     H1 6149   2.724   6.715   0.404  2.9224  3.2134  1.4362
 1086WAT     H2 6150   2.703   6.795   0.278  0.2076 -0.3165 -0.5107
 1086WAT    EPW 6151   2.741   6.729   0.320 -0.2770 -0.3264 -0.0793
 1087WAT      O 6152   7.000   1.909   7.473 -0.2148  0.9251  0.4685
 1087WAT     H1 6153   7.083   1.926   7.429 -0.3888  1.0228  0.1735
 1087WAT     H2 6154   6.944   1.873   7.405 -0.1195 -0.0319  0.8855
 1087WAT    EPW 6155   7.004   1.907   7.459 -0.2253  0.8118  0.4847
 1088WAT      O 6156   4.912   0.109   0.095 -0.3550 -0.0637 -0.4374
 1088WAT     H1 6157   4.829   0.064   0.109 -2.6399  3.6385 -0.7349
 1088WAT     H2 6158   4.952   0.114   0.182 -1.6082  0.0395  0.1602
 1088WAT    EPW 6159   4.906   0.104   0.108 -0.8214  0.4382 -0.3978
 1089WAT      O 6160   7.365   5.974   8.259 -0.1364  0.1374  0.0776
 1089WAT     H1 6161   7.378   5.945   8.349 -0.4015 -1.8782 -0.4841
 1089WAT     H2 6162   7.322   6.058   8.267  0.5355  0.3588  1.8285
 1089WAT    EPW 6163   7.361   5.981   8.272 -0.0827 -0.0992  0.2351
 1090WAT      O 6164   5.663   1.504   0.896  0.0422 -0.4454  0.2202
 1090WAT     H1 6165   5.655   1.415   0.862 -2.9103 -0.3705  0.4393
 1090WAT     H2 6166   5.668   1.559   0.818  0.8848 -0.7199  0.0716
 1090WAT    EPW 6167   5.663   1.500   0.881 -0.2363 -0.4717  0.2295
 1091WAT      O 6168   7.220   2.130   6.053 -0.0505  0.4578  0.3559
 1091WAT     H1 6169   7.233   2.191   5.980  2.4502 -2.5281 -1.9413
 1091WAT     H2 6170   7.169   2.058   6.016 -0.2615 -0.3401  2.0788
 1091WAT    EPW 6171   7.215   2.129   6.039  0.2515 -0.0411  0.2801
 1092WAT      O 6172   7.280   2.702   8.866  0.4421  0.5098  0.4691
 1092WAT     H1 6173   7.298   2.618   8.825 -2.1150 -0.5639  1.3464
 1092WAT     H2 6174   7.337   2.703   8.943  1.2076  0.0606 -0.0727
 1092WAT    EPW 6175   7.290   2.691   8.871  0.2058  0.3090  0.5131
 1093WAT      O 6176   4.417   1.036   4.085  0.3037  0.9313  0.7367
 1093WAT     H1 6177   4.367   1.062   4.007 -0.0249 -3.4707 -0.8111
 1093WAT     H2 6178   4.508   1.036   4.055  0.4621  1.6416  1.1938
 1093WAT    EPW 6179   4.423   1.040   4.071  0.2811  0.4444  0.5929
 1094WAT      O 6180   0.691   8.677   1.269 -0.5537  0.7333  0.6006
 1094WAT     H1 6181   0.605   8.715   1.253  0.2882  2.2111 -0.6304
 1094WAT     H2 6182   0.741   8.745   1.313  0.3069  0.2828  0.3600
 1094WAT    EPW 6183   0.687   8.691   1.272 -0.3291  0.8688  0.4065
 1095WAT      O 6184  10.396   7.634   0.098  0.3533 -0.0018 -0.0027
 1095WAT     H1 6185  10.456   7.596   0.163  1.6482  1.4431 -0.2963
 1095WAT     H2 6186  10.323   7.668   0.150 -0.3642 -1.8991  0.3502
 1095WAT    EPW 6187  10.394   7.633   0.114  0.4296 -0.0615  0.0051
 1096WAT      O 6188   9.119   8.416   0.473  0.1258  0.1533 -0.3664
 1096WAT     H1 6189   9.200   8.367   0.463 -0.8413 -1.5504 -0.1569
 1096WAT     H2 6190   9.068   8.395   0.394 -0.5560  0.3569  0.0074
 1096WAT    EPW 6191   9.123   8.407   0.461 -0.0911 -0.0443 -0.2894
 1097WAT      O 6192   9.636   2.057   8.847 -0.3339 -0.2510  0.0277
 1097WAT     H1 6193   9.717   2.068   8.897  0.5434 -1.2698 -1.1107
 1097WAT     H2 6194   9.629   2.136   8.794 -0.1983 -0.0748  0.2676
 1097WAT    EPW 6195   9.646   2.069   8.847 -0.2003 -0.3622 -0.0911
 1098WAT      O 6196   0.399   0.560   6.511  0.6461 -1.0357  0.2209
 1098WAT     H1 6197   0.393   0.541   6.604  0.0411  0.9726  0.6357
 1098WAT     H2 6198   0.390   0.655   6.505  2.0791 -0.9630 -1.7747
 1098WAT    EPW 6199   0.397   0.570   6.522  0.7553 -0.7612  0.0124
 1099WAT      O 6200   5.403   8.639   2.272  0.0239 -0.1037 -0.1238
 1099WAT     H1 6201   5.314   8.625   2.242 -0.4920  0.0941  1.2183
 1099WAT     H2 6202   5.444   8.692   2.204 -1.1182  0.4347 -0.4136
 1099WAT    EPW 6203   5.397   8.644   2.259 -0.1948 -0.0062  0.0149
 1100WAT      O 6204   7.954   5.443   6.973 -0.2639 -0.6981 -0.5404
 1100WAT     H1 6205   7.984   5.381   6.906 -0.4407 -0.1300 -1.1582
 1100WAT     H2 6206   7.902   5.507   6.925 -1.3291 -0.8886  0.3070
 1100WAT    EPW 6207   7.951   5.443   6.958 -0.4280 -0.6485 -0.5105
 1101WAT      O 6208   5.885   7.008   8.627  0.7396 -0.5351 -0.7659
 1101WAT     H1 6209   5.819   7.064   8.668 -1.5349 -0.8363 -3.6362
 1101WAT     H2 6210   5.962   7.016   8.682 -1.5983  0.0155  2.7124
 1101WAT    EPW 6211   5.887   7.016   8.639  0.1314 -0.5021 -0.6857
 1102WAT      O 6212   6.698   1.010   8.892  0.0429  0.3801  0.2325
 1102WAT     H1 6213   6.694   0.966   8.977 -3.1787 -2.4116 -1.1764
 1102WAT     H2 6214   6.714   0.940   8.829  2.1295  2.3444 -1.6279
 1102WAT    EPW 6215   6.700   0.995   8.895 -0.1068  0.2709 -0.1988
 1103WAT      O 6216   1.107   8.181   0.918 -0.3296  0.3144 -0.1470
 1103WAT     H1 6217   1.162   8.130   0.859 -1.0114  1.1085 -1.5067
 1103WAT     H2 6218   1.165   8.202   0.992  1.3195  1.3879 -1.6747
 1103WAT    EPW 6219   1.122   8.177   0.920 -0.2021  0.5608 -0.5278
 1104WAT      O 6220   3.138   9.357   1.286  0.2363  0.1972  0.0422
 1104WAT     H1 6221   3.045   9.376   1.274 -0.3044 -0.3758  2.7060
 1104WAT     H2 6222   3.146   9.263   1.269 -0.1624 -0.2175  1.9075
 1104WAT    EPW 6223   3.127   9.347   1.282  0.1125  0.0668  0.6394
 1105WAT      O 6224   9.858   4.800   6.648 -0.3946  0.7528 -0.2663
 1105WAT     H1 6225   9.790   4.800   6.581  1.3648 -0.1349 -2.1256
 1105WAT     H2 6226   9.940   4.796   6.600  0.9248 -1.3845  1.9469
 1105WAT    EPW 6227   9.860   4.800   6.633  0.0110  0.3536 -0.2198
 1106WAT      O 6228   5.138   2.161   8.442  0.1368  0.6632  0.3004
 1106WAT     H1 6229   5.147   2.067   8.459 -0.1951  0.3764 -1.0406
 1106WAT     H2 6230   5.110   2.166   8.351  0.2218  2.0746  0.3414
 1106WAT    EPW 6231   5.136   2.149   8.432  0.1047  0.8116  0.1287
 1107WAT      O 6232   1.686   9.377   2.925  0.1476 -0.3792  0.0971
 1107WAT     H1 6233   1.778   9.389   2.946  0.5920 -1.8368 -0.9147
 1107WAT     H2 6234   1.641   9.386   3.010  1.1424  0.7673  0.5318
 1107WAT    EPW 6235   1.692   9.380   2.939  0.3374 -0.4206  0.0210
 1108WAT      O 6236   1.923   4.288   8.290  0.5742  0.3192  0.2955
 1108WAT     H1 6237   1.966   4.246   8.216 -1.8930 -2.9783  0.4768
 1108WAT     H2 6238   1.957   4.242   8.367  0.3141  1.0361  0.8495
 1108WAT    EPW 6239   1.933   4.276   8.290  0.2146 -0.0215  0.3924
 1109WAT      O 6240   0.324   7.238   0.628  0.6128 -0.1057  0.1058
 1109WAT     H1 6241   0.283   7.151   0.638 -1.2248  0.7313  0.3175
 1109WAT     H2 6242   0.417   7.223   0.647  0.5656 -2.2393 -1.0427
 1109WAT    EPW 6243   0.331   7.224   0.632  0.3643 -0.2768 -0.0177
 1110WAT      O 6244   1.473   8.315   1.250 -0.5225 -0.5454 -1.4482
 1110WAT     H1 6245   1.492   8.221   1.247  0.7246 -0.4511  0.9492
 1110WAT     H2 6246   1.555   8.357   1.226 -0.5751 -0.0723 -0.8171
 1110WAT    EPW 6247   1.486   8.308   1.246 -0.3649 -0.4702 -1.0487
 1111WAT      O 6248  10.282   5.734   0.308 -0.4492  0.9454  0.9515
 1111WAT     H1 6249  10.219   5.806   0.309  1.6786  2.9371  1.0709
 1111WAT     H2 6250  10.335   5.747   0.387  0.3680 -0.4085  0.6745
 1111WAT    EPW 6251  10.281   5.745   0.319 -0.0606  1.0297  0.9307
 1112WAT      O 6252   5.247   1.453   7.661 -0.1301  0.3022 -0.6806
 1112WAT     H1 6253   5.255   1.358   7.655  1.5172  0.3265  0.4728
 1112WAT     H2 6254   5.329   1.482   7.701 -0.4041  2.2656 -1.4198
 1112WAT    EPW 6255   5.259   1.444   7.666  0.0508  0.5643 -0.6258
 1113WAT      O 6256   9.601   5.221   7.904 -0.4318 -0.6289 -0.3515
 1113WAT     H1 6257   9.552   5.193   7.981  0.4225 -1.9387 -0.2415
 1113WAT     H2 6258   9.686   5.250   7.939 -1.8961  4.3924 -0.1892
 1113WAT    EPW 6259   9.606   5.221   7.919 -0.5126 -0.1392 -0.3157
 1114WAT      O 6260   3.483   8.837   0.368 -0.0175  0.2639 -0.5312
 1114WAT     H1 6261   3.459   8.908   0.308  0.9640 -0.2766 -1.5775
 1114WAT     H2 6262   3.452   8.868   0.453 -0.9446  1.2876 -1.2042
 1114WAT    EPW 6263   3.476   8.850   0.371 -0.0103  0.3281 -0.7579
 1115WAT      O 6264   9.429   7.087   8.400  0.1177 -0.7128 -0.0035
 1115WAT     H1 6265   9.487   7.016   8.427 -0.7627 -1.3655  0.2427
 1115WAT     H2 6266   9.343   7.045   8.390 -0.3238  0.2281 -0.3184
 1115WAT    EPW 6267   9.425   7.072   8.402 -0.0572 -0.6747 -0.0129
 1116WAT      O 6268   3.440   8.412   0.128 -0.2336  0.0774  0.5133
 1116WAT     H1 6269   3.407   8.390   0.041 -0.9902  0.4609  0.6973
 1116WAT     H2 6270   3.455   8.506   0.126  0.6976 -0.0652  0.4889
 1116WAT    EPW 6271   3.438   8.421   0.117 -0.2106  0.1097  0.5343
 1117WAT      O 6272   0.014   5.592   3.215 -0.4349  0.1367 -0.1580
 1117WAT     H1 6273   0.088   5.647   3.242 -0.9421  0.4331  0.6645
 1117WAT     H2 6274  -0.051   5.655   3.184 -1.1554  0.0546  1.1161
 1117WAT    EPW 6275   0.015   5.608   3.215 -0.5969  0.1650  0.1186
 1118WAT      O 6276   4.421   7.306   2.929 -0.2155 -0.2885 -0.3242
 1118WAT     H1 6277   4.475   7.384   2.935  2.2810 -1.9880  1.4846
 1118WAT     H2 6278   4.389   7.305   2.839 -1.5461  3.4608 -0.0418
 1118WAT    EPW 6279   4.423   7.316   2.918 -0.0618 -0.0179 -0.0483
 1119WAT      O 6280   9.487   7.851   0.706 -0.4883 -0.3315 -0.6748
 1119WAT     H1 6281   9.455   7.851   0.796  1.6080  0.1200  0.1206
 1119WAT     H2 6282   9.441   7.778   0.664 -1.1336 -0.8587  0.8921
 1119WAT    EPW 6283   9.476   7.841   0.712 -0.2971 -0.3414 -0.3632
 1120WAT      O 6284   1.274   8.342   0.574 -0.7452  0.0081 -0.1905
 1120WAT     H1 6285   1.250   8.337   0.481  0.3067 -1.7553 -0.4187
 1120WAT     H2 6286   1.190   8.343   0.620 -1.2965  1.8627 -1.1623
 1120WAT    EPW 6287   1.260   8.341   0.568 -0.6792  0.0200 -0.3488
 1121WAT      O 6288   2.363   8.240   4.784 -0.1418  0.3832  1.1075
 1121WAT     H1 6289   2.310   8.170   4.746  1.5964 -0.3870 -0.0130
 1121WAT     H2 6290   2.387   8.295   4.709  2.4657 -0.5650  1.1555
 1121WAT    EPW 6291   2.359   8.238   4.769  0.4314  0.1564  0.9658
 1122WAT      O 6292   4.459   5.486   3.833 -0.3230  0.2745 -0.0050
 1122WAT     H1 6293   4.517   5.520   3.901 -3.0844  0.9933  2.1630
 1122WAT     H2 6294   4.435   5.399   3.863 -1.5741  0.5974 -0.0280
 1122WAT    EPW 6295   4.463   5.479   3.846 -0.8521  0.4120  0.2778
 1123WAT      O 6296   9.490   9.728   1.287 -0.0146 -0.2100 -0.4851
 1123WAT     H1 6297   9.510   9.727   1.194 -0.2083  0.4827 -0.5420
 1123WAT     H2 6298   9.552   9.791   1.324  0.4722 -0.9318 -0.0393
 1123WAT    EPW 6299   9.501   9.736   1.280  0.0234 -0.2141 -0.4339
 1124WAT      O 6300   3.249   8.258   0.272 -0.9046  0.5699  0.2299
 1124WAT     H1 6301   3.258   8.245   0.366 -0.8262  2.5442  0.5422
 1124WAT     H2 6302   3.319   8.319   0.249 -0.4325 -0.4685 -1.2813
 1124WAT    EPW 6303   3.259   8.264   0.281 -0.8320  0.6928  0.0718
 1125WAT      O 6304   6.061   1.213   1.042 -0.5077  0.3155  0.4507
 1125WAT     H1 6305   6.127   1.264   1.089 -0.6233 -0.6577  1.7062
 1125WAT     H2 6306   6.110   1.173   0.969  0.4228 -0.7104  1.5909
 1125WAT    EPW 6307   6.076   1.214   1.038 -0.4003  0.0517  0.7667
 1126WAT      O 6308   8.539   3.038   8.336  0.1525 -0.0584  0.0298
 1126WAT     H1 6309   8.552   2.944   8.325 -0.6429 -0.0499 -1.1868
 1126WAT     H2 6310   8.625   3.077   8.319  0.2283 -0.4898 -0.5922
 1126WAT    EPW 6311   8.552   3.031   8.333  0.0572 -0.1142 -0.2127
 1127WAT      O 6312   2.635   7.410   0.663 -0.3087 -0.2309  0.0248
 1127WAT     H1 6313   2.677   7.331   0.695 -1.4520 -0.3004  1.4721
 1127WAT     H2 6314   2.640   7.471   0.737 -2.8342 -0.3030  0.3450
 1127WAT    EPW 6315   2.641   7.408   0.677 -0.7926 -0.2496  0.2579
 1128WAT      O 6316   3.921   9.479   7.900  0.7038  0.1097  0.0523
 1128WAT     H1 6317   3.928   9.468   7.995  3.2731 -3.2307 -0.3658
 1128WAT     H2 6318   3.994   9.536   7.877  1.6803 -1.1657 -0.1125
 1128WAT    EPW 6319   3.932   9.485   7.910  1.1716 -0.4988 -0.0246
 1129WAT      O 6320  10.435   5.405   8.745  0.2519  0.5394  0.7181
 1129WAT     H1 6321  10.345   5.374   8.750 -0.7527  3.2475  1.2961
 1129WAT     H2 6322  10.471   5.390   8.833  1.1837 -2.4817 -0.0594
 1129WAT    EPW 6323  10.428   5.399   8.757  0.2422  0.4983  0.6919
 1130WAT      O 6324   8.523   5.165   6.729 -0.4303 -0.2113 -0.7642
 1130WAT     H1 6325   8.524   5.098   6.798 -0.0660 -1.4400 -1.9356
 1130WAT     H2 6326   8.559   5.243   6.772 -2.9466 -0.0308  1.2957
 1130WAT    EPW 6327   8.528   5.167   6.744 -0.7143 -0.3495 -0.6471
 1131WAT      O 6328   1.597   7.069   1.835  0.1666  0.0226  0.5437
 1131WAT     H1 6329   1.585   7.125   1.911 -1.7857  0.5629 -0.1146
 1131WAT     H2 6330   1.544   6.992   1.852  0.2742 -0.1684  0.0392
 1131WAT    EPW 6331   1.589   7.066   1.847 -0.0767  0.0684  0.3904
 1132WAT      O 6332   1.493  10.258   0.310  0.1777  0.7954  0.1598
 1132WAT     H1 6333   1.527  10.198   0.377 -0.1475  0.5015  0.0598
 1132WAT     H2 6334   1.405  10.279   0.339  1.1660  3.3714  1.6573
 1132WAT    EPW 6335   1.486  10.253   0.323  0.2651  1.0962  0.3441
 1133WAT      O 6336   8.222   6.483   8.757 -0.4986 -0.5268  0.1059
 1133WAT     H1 6337   8.271   6.562   8.779  2.4073 -1.4446 -2.3329
 1133WAT     H2 6338   8.244   6.421   8.826 -2.4107  0.5331  1.7698
 1133WAT    EPW 6339   8.232   6.485   8.769 -0.3676 -0.5081  0.0038
 1134WAT      O 6340   5.155   7.341   1.899 -0.0225  0.6929 -0.2988
 1134WAT     H1 6341   5.192   7.426   1.873 -2.0632  1.4990 -0.7937
 1134WAT     H2 6342   5.199   7.321   1.982 -0.0586  2.6494  0.2519
 1134WAT    EPW 6343   5.166   7.350   1.907 -0.2964  1.0571 -0.2915
 1135WAT      O 6344   9.619   5.833   6.526  0.5882 -0.1153 -0.1676
 1135WAT     H1 6345   9.693   5.872   6.571 -0.5741  3.5502 -1.0824
 1135WAT     H2 6346   9.543   5.859   6.578 -0.3753  0.1333 -1.6395
 1135WAT    EPW 6347   9.618   5.841   6.538  0.3076  0.4008 -0.4823
 1136WAT      O 6348  10.667   6.564   8.612  0.2723 -0.2458  0.6231
 1136WAT     H1 6349  10.714   6.636   8.654  0.8478  0.6199 -1.3567
 1136WAT     H2 6350  10.711   6.485   8.642 -0.3561  0.1840  2.8301
 1136WAT    EPW 6351  10.679   6.563   8.621  0.2656 -0.0749  0.6533
 1137WAT      O 6352   3.450   7.897   0.389 -0.4983  0.0074  0.2934
 1137WAT     H1 6353   3.365   7.854   0.388  0.4362 -1.9293 -0.8115
 1137WAT     H2 6354   3.495   7.863   0.312  0.4817  2.7377 -0.4592
 1137WAT    EPW 6355   3.445   7.887   0.379 -0.2457  0.1123  0.0484
 1138WAT      O 6356   0.508   7.853   0.940  0.5196 -1.0164 -0.1459
 1138WAT     H1 6357   0.462   7.805   0.870  1.7354  0.0157 -1.7424
 1138WAT     H2 6358   0.553   7.785   0.990  0.3840 -1.7328 -0.9704
 1138WAT    EPW 6359   0.508   7.838   0.937  0.6621 -0.9747 -0.4652
 1139WAT      O 6360   8.334   1.210   7.966  0.5940  0.1390  0.3868
 1139WAT     H1 6361   8.304   1.299   7.949  0.3286 -0.2697 -1.4615
 1139WAT     H2 6362   8.263   1.154   7.935  0.9731 -0.7482  1.0591
 1139WAT    EPW 6363   8.321   1.215   7.960  0.6089 -0.0318  0.2317
 1140WAT      O 6364   8.164   1.211   0.935 -0.7804  0.4176 -0.3261
 1140WAT     H1 6365   8.128   1.228   0.848  1.7671 -0.4553 -1.6761
 1140WAT     H2 6366   8.102   1.150   0.975 -1.4071 -0.1234 -2.0179
 1140WAT    EPW 6367   8.151   1.205   0.929 -0.5269  0.2311 -0.7273
 1141WAT      O 6368   8.519   1.798   4.694  0.2166  0.3685 -0.2903
 1141WAT     H1 6369   8.530   1.723   4.635  1.4612 -1.5178  2.0991
 1141WAT     H2 6370   8.426   1.820   4.688 -0.2602 -1.5619 -0.9083
 1141WAT    EPW 6371   8.508   1.791   4.685  0.3181 -0.1349 -0.0567
 1142WAT      O 6372   9.230   3.439   8.835  0.1312  0.3373 -0.9519
 1142WAT     H1 6373   9.286   3.382   8.888  0.8437 -0.1204 -2.1546
 1142WAT     H2 6374   9.168   3.476   8.897  1.4533  0.4629  0.3384
 1142WAT    EPW 6375   9.229   3.436   8.850  0.4001  0.2936 -0.9398
 1143WAT      O 6376   6.054   0.222   0.024  0.1046  0.0373  0.3148
 1143WAT     H1 6377   6.093   0.229  -0.062 -0.5042 -0.4556 -0.0129
 1143WAT     H2 6378   6.075   0.133   0.053  0.4502  0.2555  0.7493
 1143WAT    EPW 6379   6.062   0.211   0.017  0.0699  0.0011  0.3289
 1144WAT      O 6380   3.628   1.234   0.871 -0.1596 -0.7041 -0.0140
 1144WAT     H1 6381   3.595   1.255   0.958  2.3178 -1.4287  1.2204
 1144WAT     H2 6382   3.584   1.152   0.847 -1.8113  0.1624 -0.0586
 1144WAT    EPW 6383   3.618   1.226   0.879 -0.0507 -0.6854  0.1429
 1145WAT      O 6384   2.242   4.171   2.854 -0.7646  0.1612 -0.4041
 1145WAT     H1 6385   2.274   4.181   2.943  1.0461  1.0075 -1.1103
 1145WAT     H2 6386   2.151   4.143   2.865 -0.0088 -1.7914  1.6890
 1145WAT    EPW 6387   2.234   4.169   2.867 -0.4262  0.0153 -0.2213
 1146WAT      O 6388   8.334   7.301   0.477  0.2375  0.0394 -0.0289
 1146WAT     H1 6389   8.249   7.258   0.484  0.8508 -1.6875 -2.2076
 1146WAT     H2 6390   8.396   7.230   0.460  2.3401  1.1231  2.3440
 1146WAT    EPW 6391   8.331   7.286   0.476  0.5946 -0.0453 -0.0033
 1147WAT      O 6392   4.222   9.262   2.880  0.1067 -0.5923  0.2531
 1147WAT     H1 6393   4.227   9.307   2.796  0.5154 -0.5793  0.2828
 1147WAT     H2 6394   4.135   9.283   2.913  0.3443  0.2840  0.3297
 1147WAT    EPW 6395   4.211   9.271   2.873  0.1917 -0.4749  0.2670
 1148WAT      O 6396   7.340   4.146   7.664  0.0561  0.3372  0.1035
 1148WAT     H1 6397   7.289   4.169   7.587  0.6821  2.7390  0.3169
 1148WAT     H2 6398   7.300   4.195   7.736  1.8375  1.3267  0.4966
 1148WAT    EPW 6399   7.328   4.156   7.664  0.3738  0.7844  0.1836
 1149WAT      O 6400   4.705   0.411   1.164 -0.0427 -0.6817 -0.1706
 1149WAT     H1 6401   4.665   0.386   1.247 -0.8654  0.8845 -0.0553
 1149WAT     H2 6402   4.743   0.497   1.181  1.6981 -1.2769 -0.8345
 1149WAT    EPW 6403   4.705   0.419   1.177  0.0784 -0.5536 -0.2429
 1150WAT      O 6404  10.783   9.301   1.798  0.1486 -0.2710 -0.4488
 1150WAT     H1 6405  10.743   9.231   1.850 -1.4138  0.6422 -0.3696
 1150WAT     H2 6406  10.877   9.281   1.800 -0.2450 -2.4641 -0.5805
 1150WAT    EPW 6407  10.790   9.289   1.805 -0.1092 -0.4396 -0.4557
 1151WAT      O 6408   2.609   6.708   0.562  0.4012 -0.2190 -0.9646
 1151WAT     H1 6409   2.520   6.673   0.561 -0.0636  0.9281 -1.9167
 1151WAT     H2 6410   2.645   6.678   0.645 -1.0259 -0.3470 -0.3569
 1151WAT    EPW 6411   2.602   6.700   0.573  0.1518 -0.0844 -1.0101
 1152WAT      O 6412   0.293   6.757   6.384 -0.1766 -0.3936  0.3508
 1152WAT     H1 6413   0.328   6.692   6.324  0.3700  0.5660 -0.4097
 1152WAT     H2 6414   0.227   6.710   6.436 -1.6054 -0.9828 -1.8556
 1152WAT    EPW 6415   0.289   6.743   6.383 -0.2929 -0.3448 -0.0403
 1153WAT      O 6416   0.509   6.391   6.497  0.4868  0.2040  0.4978
 1153WAT     H1 6417   0.451   6.349   6.560 -0.4509 -0.2842 -0.6634
 1153WAT     H2 6418   0.594   6.349   6.512  0.5346  0.7801  2.0679
 1153WAT    EPW 6419   0.513   6.380   6.508  0.3695  0.2155  0.5519
 1154WAT      O 6420   3.418   6.051   1.436  0.1594 -0.3104 -0.0648
 1154WAT     H1 6421   3.398   6.056   1.343 -0.7474 -2.1770 -0.0143
 1154WAT     H2 6422   3.334   6.060   1.480  0.3848 -0.8591  0.4971
 1154WAT    EPW 6423   3.405   6.053   1.430  0.0697 -0.6292  0.0159
 1155WAT      O 6424   6.866   1.220   3.155  0.6726 -0.0599  0.5248
 1155WAT     H1 6425   6.839   1.270   3.078  1.4079  1.2906  1.1005
 1155WAT     H2 6426   6.931   1.158   3.122  2.2544  1.6496  0.2757
 1155WAT    EPW 6427   6.871   1.218   3.141  0.9785  0.3437  0.5679
 1156WAT      O 6428   2.491   6.194   1.995 -0.3015  0.2805 -0.4978
 1156WAT     H1 6429   2.410   6.162   1.956 -1.6061  4.1381 -1.3815
 1156WAT     H2 6430   2.472   6.200   2.089 -1.7456  2.6018 -0.8577
 1156WAT    EPW 6431   2.478   6.191   2.002 -0.6641  1.0953 -0.6618
 1157WAT      O 6432   3.448   9.792   0.101  0.5133 -0.2169 -0.4413
 1157WAT     H1 6433   3.384   9.847   0.146  0.0013 -0.6517 -0.6374
 1157WAT     H2 6434   3.510   9.765   0.170 -1.0601 -2.0637  0.3258
 1157WAT    EPW 6435   3.448   9.796   0.116  0.2383 -0.5178 -0.3660
 1158WAT      O 6436   8.501   3.083   4.101 -0.0348 -0.6494 -0.1515
 1158WAT     H1 6437   8.488   3.071   4.007  3.2151  1.0789 -0.9810
 1158WAT     H2 6438   8.468   3.003   4.141 -1.0514 -1.6406 -2.7878
 1158WAT    EPW 6439   8.495   3.071   4.094  0.2599 -0.5522 -0.6084
 1159WAT      O 6440   9.857   4.749   1.646 -0.6733  0.1074  0.1869
 1159WAT     H1 6441   9.846   4.835   1.604  0.2288  0.8085  1.3208
 1159WAT     H2 6442   9.951   4.735   1.648 -0.7424 -0.3160  1.1589
 1159WAT    EPW 6443   9.868   4.759   1.640 -0.5636  0.1438  0.4646
 1160WAT      O 6444   7.062   2.851   0.727 -0.1676  0.1422  0.6950
 1160WAT     H1 6445   7.030   2.859   0.637  0.8557 -0.2823  0.2780
 1160WAT     H2 6446   7.083   2.940   0.753 -2.3108  0.5519  1.2505
 1160WAT    EPW 6447   7.060   2.864   0.718 -0.3152  0.1402  0.7133
 1161WAT      O 6448   3.117   0.490   2.348 -0.5567 -0.0288 -0.8053
 1161WAT     H1 6449   3.094   0.583   2.339 -1.2295 -0.1558 -0.5119
 1161WAT     H2 6450   3.206   0.491   2.383  0.7906  0.4850 -3.9265
 1161WAT    EPW 6451   3.126   0.503   2.351 -0.4678  0.0222 -1.1783
 1162WAT      O 6452   3.249  10.207   0.620  0.6828  0.5109  1.1833
 1162WAT     H1 6453   3.198  10.243   0.692  0.8224  1.7374  0.6853
 1162WAT     H2 6454   3.337  10.242   0.632  0.4725  1.5903 -0.1444
 1162WAT    EPW 6455   3.254  10.216   0.631  0.6735  0.8154  0.9424
 1163WAT      O 6456   7.063   0.309   2.537  0.2508  0.4001 -0.2810
 1163WAT     H1 6457   7.066   0.220   2.572 -0.6474  1.1828  1.9122
 1163WAT     H2 6458   6.981   0.313   2.489 -0.0019  0.2200  0.1295
 1163WAT    EPW 6459   7.053   0.298   2.535  0.0989  0.4796  0.0625
 1164WAT      O 6460   6.493   4.903   8.650  0.0163 -0.2501 -0.3358
 1164WAT     H1 6461   6.449   4.854   8.720 -0.6244  0.9742  0.1439
 1164WAT     H2 6462   6.530   4.835   8.594 -0.3978 -1.2799  0.5916
 1164WAT    EPW 6463   6.492   4.887   8.652 -0.1230 -0.2244 -0.1502
 1165WAT      O 6464   9.585   4.746   3.758 -0.5065 -0.3497  0.2313
 1165WAT     H1 6465   9.571   4.716   3.848  0.9773  2.3101  1.4545
 1165WAT     H2 6466   9.668   4.795   3.761 -0.0683 -0.7030 -2.7456
 1165WAT    EPW 6467   9.594   4.748   3.770 -0.2522 -0.0453  0.0000
 1166WAT      O 6468   8.032   3.805   7.675  0.8881  0.3403  0.2543
 1166WAT     H1 6469   8.067   3.808   7.763 -3.6638  0.1514  2.3458
 1166WAT     H2 6470   7.993   3.891   7.661 -2.4196 -0.9531  0.4982
 1166WAT    EPW 6471   8.031   3.817   7.684 -0.1483  0.1448  0.5622
 1167WAT      O 6472  10.731   8.674   4.928 -0.8241 -0.5239  0.3290
 1167WAT     H1 6473  10.735   8.580   4.910  1.8972 -0.3833 -0.1749
 1167WAT     H2 6474  10.806   8.711   4.882 -0.1315  1.4845  2.8055
 1167WAT    EPW 6475  10.741   8.667   4.920 -0.3738 -0.2403  0.5894
 1168WAT      O 6476  10.005   1.555   7.205  0.1962 -0.0752 -0.3578
 1168WAT     H1 6477  10.035   1.485   7.148  1.4276  0.2544 -0.1430
 1168WAT     H2 6478   9.910   1.557   7.193 -0.4400 -4.1671  2.3508
 1168WAT    EPW 6479   9.996   1.546   7.196  0.2751 -0.5714  0.0277
 1169WAT      O 6480   9.256   5.843   8.753 -0.1605  0.4198  0.0508
 1169WAT     H1 6481   9.226   5.906   8.687 -0.7055  1.6377  1.3895
 1169WAT     H2 6482   9.321   5.892   8.804 -1.7821  0.5182  2.1603
 1169WAT    EPW 6483   9.261   5.858   8.751 -0.4463  0.5934  0.5059
 1170WAT      O 6484   2.761   9.151   2.773  0.4291  0.8285 -0.0215
 1170WAT     H1 6485   2.839   9.155   2.829 -1.2127  1.3102  2.4257
 1170WAT     H2 6486   2.764   9.233   2.723  2.4943 -0.0967 -1.5608
 1170WAT    EPW 6487   2.772   9.163   2.774  0.4849  0.7696  0.0982
 1171WAT      O 6488  10.026   0.344   0.426 -0.2123  0.0385 -0.4680
 1171WAT     H1 6489   9.964   0.281   0.461  0.9463 -0.0673  1.5410
 1171WAT     H2 6490  10.040   0.407   0.497  0.4489  1.2126 -1.5880
 1171WAT    EPW 6491  10.020   0.344   0.440  0.0281  0.1794 -0.3507
 1172WAT      O 6492   9.347   8.178   0.190 -0.1194  0.2468 -0.0821
 1172WAT     H1 6493   9.261   8.184   0.148 -0.2230  3.3299  0.3480
 1172WAT     H2 6494   9.380   8.092   0.164 -1.5464  0.6226 -3.7906
 1172WAT    EPW 6495   9.340   8.167   0.181 -0.3214  0.7033 -0.5145
 1173WAT      O 6496   3.783  10.109   1.374 -0.0774  0.4762 -0.1472
 1173WAT     H1 6497   3.807  10.129   1.283 -0.2471  2.2551  0.1730
 1173WAT     H2 6498   3.864  10.122   1.423 -0.7405  2.9895  0.4193
 1173WAT    EPW 6499   3.797  10.113   1.368 -0.1873  1.0428 -0.0303
 1174WAT      O 6500   8.540   5.945   8.018  0.2950 -0.3300 -0.1862
 1174WAT     H1 6501   8.575   5.921   8.104 -1.5332 -0.1034  0.6759
 1174WAT     H2 6502   8.563   6.038   8.008  0.4360 -0.3314  0.1007
 1174WAT    EPW 6503   8.548   5.954   8.028  0.0720 -0.3002 -0.0348
 1175WAT      O 6504   8.301   4.192   6.470  0.1440  0.0556  0.7364
 1175WAT     H1 6505   8.351   4.174   6.549  0.9671  1.6536  0.6105
 1175WAT     H2 6506   8.243   4.264   6.493 -0.3291 -0.1194  0.1513
 1175WAT    EPW 6507   8.300   4.199   6.483  0.1907  0.2432  0.6425
 1176WAT      O 6508   8.190   0.173   1.370  0.5202  0.2057 -0.5525
 1176WAT     H1 6509   8.226   0.206   1.288  0.1845 -1.9278 -1.6270
 1176WAT     H2 6510   8.149   0.090   1.347  0.1710 -0.3391  1.7388
 1176WAT    EPW 6511   8.189   0.167   1.357  0.4296 -0.1476 -0.3920
 1177WAT      O 6512   1.676   9.173   0.346 -0.2947  0.2460  0.3227
 1177WAT     H1 6513   1.630   9.119   0.281 -1.1699  1.5427 -0.1636
 1177WAT     H2 6514   1.625   9.162   0.426 -1.1575  1.2482 -0.0751
 1177WAT    EPW 6515   1.663   9.164   0.348 -0.5239  0.5493  0.2061
 1178WAT      O 6516   4.400   1.414   2.612  0.3477 -0.6716  0.3705
 1178WAT     H1 6517   4.364   1.416   2.523  0.7055 -1.5531  0.1888
 1178WAT     H2 6518   4.362   1.490   2.655  0.3758 -0.0777 -0.6197
 1178WAT    EPW 6519   4.390   1.424   2.606  0.3984 -0.7096  0.2159
 1179WAT      O 6520   5.475   2.708   0.674 -0.1920  0.2393 -0.6144
 1179WAT     H1 6521   5.529   2.690   0.751 -1.3763  1.0128  0.4400
 1179WAT     H2 6522   5.494   2.636   0.615 -0.3493 -1.1951  1.0082
 1179WAT    EPW 6523   5.485   2.696   0.677 -0.3688  0.1521 -0.2613
 1180WAT      O 6524   6.793   9.222   2.029 -0.2408  0.1949 -0.0322
 1180WAT     H1 6525   6.835   9.245   2.112 -1.2213  1.7842  0.0555
 1180WAT     H2 6526   6.858   9.167   1.985  0.9819  0.6801  1.0765
 1180WAT    EPW 6527   6.807   9.218   2.034 -0.2089  0.4678  0.1258
 1181WAT      O 6528   4.986   2.785   8.602  0.1547  0.5780  0.6410
 1181WAT     H1 6529   4.892   2.789   8.617  0.1578  0.3189  0.7345
 1181WAT     H2 6530   5.008   2.692   8.613  0.2067  0.4198 -0.6580
 1181WAT    EPW 6531   4.977   2.773   8.605  0.1621  0.5230  0.4811
 1182WAT      O 6532  10.096   3.862   8.069  0.2436  0.1163 -0.0195
 1182WAT     H1 6533  10.028   3.882   8.004  0.1166 -0.4971 -0.0783
 1182WAT     H2 6534  10.074   3.774   8.101  0.5763  0.2194  0.5133
 1182WAT    EPW 6535  10.084   3.853   8.065  0.2708  0.0490  0.0434
 1183WAT      O 6536   1.597   6.938   0.577 -0.1467  0.3288  0.5223
 1183WAT     H1 6537   1.586   6.961   0.669 -0.0420 -1.6841  1.0877
 1183WAT     H2 6538   1.531   6.871   0.561 -0.0859  0.5618 -0.8548
 1183WAT    EPW 6539   1.587   6.932   0.587 -0.1249  0.0942  0.4152
 1184WAT      O 6540   0.861  10.240   1.977  0.0674 -0.0752  0.6033
 1184WAT     H1 6541   0.925  10.169   1.969 -0.3260 -0.3604 -0.1146
 1184WAT     H2 6542   0.912  10.315   2.007  1.2833  0.4126 -2.3110
 1184WAT    EPW 6543   0.876  10.240   1.980  0.1759 -0.0482  0.1242
 1185WAT      O 6544   1.140   6.250   7.866 -0.7961 -0.2590  0.1091
 1185WAT     H1 6545   1.135   6.278   7.775  2.1928 -0.1983 -0.1257
 1185WAT     H2 6546   1.231   6.264   7.891 -1.7215  0.7070  3.4704
 1185WAT    EPW 6547   1.151   6.256   7.857 -0.5239 -0.1237  0.5217
 1186WAT      O 6548   7.742   6.137   8.591  0.2135 -0.1766  0.3859
 1186WAT     H1 6549   7.709   6.111   8.677 -0.8850 -1.4481 -0.3869
 1186WAT     H2 6550   7.803   6.209   8.610 -0.3350 -0.1292  2.1746
 1186WAT    EPW 6551   7.746   6.143   8.605 -0.0038 -0.3381  0.5202
 1187WAT      O 6552   5.559   8.891   7.404  0.1619 -0.0196 -0.5626
 1187WAT     H1 6553   5.514   8.953   7.346 -1.1741 -0.0863  0.3507
 1187WAT     H2 6554   5.500   8.883   7.479  2.3084  0.8618  1.3096
 1187WAT    EPW 6555   5.545   8.898   7.406  0.2687  0.0877 -0.1953
 1188WAT      O 6556  10.576   2.389   6.586  0.4140 -0.1205 -0.0189
 1188WAT     H1 6557  10.509   2.349   6.531  1.9005  0.2150 -2.1946
 1188WAT     H2 6558  10.592   2.475   6.547  1.1716  0.3598  1.2658
 1188WAT    EPW 6559  10.569   2.395   6.574  0.7100 -0.0129 -0.1364
 1189WAT      O 6560   3.347   9.814   1.379  0.4053 -0.1918  0.5496
 1189WAT     H1 6561   3.313   9.732   1.343  1.6422  0.0761 -1.3777
 1189WAT     H2 6562   3.293   9.831   1.456 -1.2576 -1.7120 -0.2180
 1189WAT    EPW 6563   3.335   9.806   1.384  0.3492 -0.3572  0.1941
 1190WAT      O 6564   8.549   3.993   8.149 -0.2973 -0.0329 -0.7133
 1190WAT     H1 6565   8.538   4.088   8.146  1.3090  0.1529 -1.7001
 1190WAT     H2 6566   8.643   3.979   8.146 -0.5251 -1.6893 -1.5454
 1190WAT    EPW 6567   8.560   4.004   8.148 -0.1159 -0.2270 -0.9537
 1191WAT      O 6568   6.304   5.230   5.864 -0.3972 -0.4101  0.2986
 1191WAT     H1 6569   6.365   5.211   5.936  1.0051  2.2788 -0.0717
 1191WAT     H2 6570   6.235   5.282   5.905 -0.5927 -0.4584  0.0323
 1191WAT    EPW 6571   6.303   5.234   5.879 -0.2382 -0.0618  0.2146
 1192WAT      O 6572   2.709   7.907   2.766 -0.7215  0.0671 -0.6594
 1192WAT     H1 6573   2.615   7.889   2.773 -0.3351 -2.2414 -0.6693
 1192WAT     H2 6574   2.730   7.952   2.848 -1.3511 -1.9564  0.7024
 1192WAT    EPW 6575   2.699   7.911   2.778 -0.7535 -0.5045 -0.4811
 1193WAT      O 6576   8.957   6.645   7.039 -0.3271 -0.2609  0.1084
 1193WAT     H1 6577   8.899   6.672   7.110  0.2053 -2.0428  1.2817
 1193WAT     H2 6578   8.900   6.604   6.974 -0.6110 -0.1052  0.2580
 1193WAT    EPW 6579   8.942   6.643   7.040 -0.2942 -0.4754  0.2830
 1194WAT      O 6580   2.603   5.471   1.558  0.3031 -0.3552  0.2836
 1194WAT     H1 6581   2.633   5.555   1.595 -1.4109  0.9211 -1.0488
 1194WAT     H2 6582   2.607   5.410   1.631 -2.9195  2.0334  2.7808
 1194WAT    EPW 6583   2.607   5.474   1.573 -0.3480  0.1283  0.4373
 1195WAT      O 6584   9.193   3.346   8.572 -0.2397 -0.0927 -0.3080
 1195WAT     H1 6585   9.223   3.398   8.647 -0.4157 -0.7188  0.2083
 1195WAT     H2 6586   9.259   3.359   8.505  2.5849 -3.2543  1.5343
 1195WAT    EPW 6587   9.206   3.355   8.573  0.1101 -0.5922  0.0029
 1196WAT      O 6588   2.437   7.394   2.041  0.4443 -0.3668 -0.4416
 1196WAT     H1 6589   2.526   7.424   2.058  0.2127 -0.3537  0.8332
 1196WAT     H2 6590   2.439   7.365   1.949  1.8652 -0.7549 -0.3158
 1196WAT    EPW 6591   2.449   7.394   2.031  0.6012 -0.4163 -0.2569
 1197WAT      O 6592   0.769   1.702   8.056 -0.6291 -0.2215 -0.1365
 1197WAT     H1 6593   0.851   1.748   8.038  1.0895 -3.2864 -0.8830
 1197WAT     H2 6594   0.706   1.771   8.075  1.6726  2.3796 -1.3050
 1197WAT    EPW 6595   0.771   1.717   8.056 -0.0988 -0.2827 -0.3891
 1198WAT      O 6596   9.795   7.116   5.611  0.4627 -0.4665  0.4356
 1198WAT     H1 6597   9.821   7.094   5.701 -0.0836  2.3663  1.3844
 1198WAT     H2 6598   9.809   7.210   5.605 -1.0196 -0.3318 -1.9654
 1198WAT    EPW 6599   9.800   7.125   5.622  0.1950 -0.0751  0.2441
 1199WAT      O 6600   8.062   0.696   3.267  0.4012 -0.1147  0.3791
 1199WAT     H1 6601   8.099   0.648   3.193  0.3176 -0.4324  0.5408
 1199WAT     H2 6602   7.985   0.740   3.231  1.0189  0.6930 -0.0024
 1199WAT    EPW 6603   8.057   0.696   3.252  0.4716 -0.0501  0.3502
 1200WAT      O 6604   2.523   4.504   7.950  0.5896 -0.1725 -0.9473
 1200WAT     H1 6605   2.490   4.420   7.981  0.3941  0.2014 -0.1139
 1200WAT     H2 6606   2.610   4.485   7.916  1.4897 -0.3585  1.2760
 1200WAT    EPW 6607   2.530   4.490   7.949  0.6825 -0.1476 -0.5441
 1201WAT      O 6608   8.051   5.066   8.332  0.6185  0.4932  0.3020
 1201WAT     H1 6609   7.986   5.126   8.296 -0.2039  0.3976  1.5756
 1201WAT     H2 6610   8.105   5.042   8.257 -0.4650  1.0150 -0.6773
 1201WAT    EPW 6611   8.049   5.071   8.317  0.3667  0.5493  0.3405
 1202WAT      O 6612   8.502   2.654   8.591 -0.0143  0.9338  0.0925
 1202WAT     H1 6613   8.481   2.685   8.502 -1.1448  0.6513  0.2400
 1202WAT     H2 6614   8.520   2.733   8.640  2.3141  1.0060 -0.7741
 1202WAT    EPW 6615   8.501   2.668   8.585  0.1440  0.9060 -0.0024
 1203WAT      O 6616   2.074   2.093   7.225 -0.2489  0.9457  0.5651
 1203WAT     H1 6617   2.118   2.174   7.249 -2.0745  1.6481  1.6748
 1203WAT     H2 6618   2.086   2.086   7.130 -0.0938  2.5164  0.4566
 1203WAT    EPW 6619   2.082   2.103   7.215 -0.4691  1.2455  0.6974
 1204WAT      O 6620  10.227   2.934   7.298 -1.1708  0.2951  0.0762
 1204WAT     H1 6621  10.232   3.016   7.249 -2.8682 -0.4380 -1.4161
 1204WAT     H2 6622  10.225   2.866   7.231 -0.7283 -0.9290  1.2632
 1204WAT    EPW 6623  10.228   2.936   7.283 -1.3366  0.0371  0.0360
 1205WAT      O 6624   9.047   8.638   2.178  0.6965 -0.1983 -0.1649
 1205WAT     H1 6625   9.071   8.550   2.149  2.0896 -0.8361  2.5610
 1205WAT     H2 6626   9.033   8.629   2.272  2.4516  2.7721  0.5111
 1205WAT    EPW 6627   9.048   8.625   2.186  1.1115  0.1092  0.2838
 1206WAT      O 6628  10.334   3.221   7.971 -0.6062  0.2070 -0.0028
 1206WAT     H1 6629  10.249   3.265   7.979 -0.8990 -0.2103 -0.6365
 1206WAT     H2 6630  10.377   3.265   7.898  0.6001  1.7619  1.5810
 1206WAT    EPW 6631  10.328   3.233   7.962 -0.4859  0.3570  0.1225
 1207WAT      O 6632   2.833   4.723   1.597  0.0253 -0.5458 -0.0187
 1207WAT     H1 6633   2.764   4.710   1.662 -0.4664 -0.1369 -0.4535
 1207WAT     H2 6634   2.907   4.757   1.648 -1.4067  3.1189 -0.0790
 1207WAT    EPW 6635   2.834   4.725   1.613 -0.2284 -0.0086 -0.0840
 1208WAT      O 6636  10.723   7.768   0.362 -0.4787 -0.2519  0.1985
 1208WAT     H1 6637  10.705   7.695   0.420 -0.2173 -0.2773  0.2468
 1208WAT     H2 6638  10.752   7.728   0.280  2.1991 -0.1904  1.0305
 1208WAT    EPW 6639  10.725   7.753   0.359 -0.0911 -0.2472  0.3146
 1209WAT      O 6640   9.539   1.821   8.680  0.4780  0.3634 -0.2627
 1209WAT     H1 6641   9.499   1.745   8.723 -0.8544 -0.3490 -2.5520
 1209WAT     H2 6642   9.561   1.881   8.752 -0.0629 -1.4145  1.4808
 1209WAT    EPW 6643   9.536   1.819   8.695  0.2308  0.0349 -0.3347
 1210WAT      O 6644   9.919   4.501   0.097 -0.6924  0.6519  0.0452
 1210WAT     H1 6645   9.834   4.481   0.057 -0.2558  3.1644 -2.4768
 1210WAT     H2 6646   9.935   4.428   0.157 -3.8898 -0.6993 -0.5270
 1210WAT    EPW 6647   9.910   4.489   0.100 -1.0562  0.8051 -0.3629
 1211WAT      O 6648   8.570   6.813   8.311  0.8941 -0.0711  0.4372
 1211WAT     H1 6649   8.629   6.796   8.384 -0.8640 -1.2493  1.6695
 1211WAT     H2 6650   8.494   6.757   8.328 -0.4216  1.0923 -1.2609
 1211WAT    EPW 6651   8.567   6.804   8.323  0.4888 -0.0732  0.3762
 1212WAT      O 6652   6.281   1.492   6.465  0.1471  0.1466  0.3101
 1212WAT     H1 6653   6.322   1.549   6.401 -1.4244  1.6126  0.5209
 1212WAT     H2 6654   6.246   1.419   6.414  2.7399 -1.0816  0.1182
 1212WAT    EPW 6655   6.282   1.490   6.450  0.2818  0.1780  0.3123
 1213WAT      O 6656   1.575   7.658   0.776  0.1746 -0.0655 -0.4748
 1213WAT     H1 6657   1.565   7.588   0.711 -0.4189  0.2570 -0.7386
 1213WAT     H2 6658   1.634   7.621   0.842  0.0741 -0.7185 -0.7420
 1213WAT    EPW 6659   1.582   7.644   0.776  0.0830 -0.1090 -0.5449
 1214WAT      O 6660   9.971   5.452   8.223 -0.5574  0.0039  0.1585
 1214WAT     H1 6661  10.053   5.501   8.227 -0.0543 -0.8019 -0.0610
 1214WAT     H2 6662   9.958   5.419   8.312 -0.2640 -0.4726  0.0257
 1214WAT    EPW 6663   9.980   5.454   8.235 -0.4525 -0.1652  0.1116
 1215WAT      O 6664   8.486   4.085   8.443 -0.8437  0.2639 -0.0277
 1215WAT     H1 6665   8.573   4.094   8.404 -0.5658 -2.5048 -0.2317
 1215WAT     H2 6666   8.503   4.053   8.531 -1.6167  2.9420  1.1949
 1215WAT    EPW 6667   8.500   4.082   8.449 -0.9084  0.2520  0.1068
 1216WAT      O 6668   1.876   4.797   3.173 -0.1750  0.3107 -0.1456
 1216WAT     H1 6669   1.840   4.885   3.180  3.3505  1.8420  0.6136
 1216WAT     H2 6670   1.915   4.794   3.085  0.8637 -0.0045  0.3185
 1216WAT    EPW 6671   1.876   4.808   3.162  0.4270  0.4711  0.0159
 1217WAT      O 6672   6.312   3.852   7.662  0.4225  0.2663  0.6446
 1217WAT     H1 6673   6.378   3.800   7.708  0.3265  0.3327  0.8571
 1217WAT     H2 6674   6.247   3.872   7.728 -1.8492 -3.0511 -0.3457
 1217WAT    EPW 6675   6.312   3.848   7.677  0.1104 -0.1624  0.5422
 1218WAT      O 6676   8.055   0.223   0.254  0.4704  0.4393 -0.5647
 1218WAT     H1 6677   8.082   0.304   0.297 -1.4009 -1.2180  4.4955
 1218WAT     H2 6678   8.127   0.162   0.271  0.7984  0.3274 -2.1841
 1218WAT    EPW 6679   8.068   0.226   0.262  0.2670  0.2059 -0.1109
 1219WAT      O 6680   7.631   1.950   7.195 -0.5060 -0.0160  0.2740
 1219WAT     H1 6681   7.665   2.039   7.205  0.2678 -0.1463 -0.9145
 1219WAT     H2 6682   7.573   1.937   7.270  0.7611  0.8471  1.4371
 1219WAT    EPW 6683   7.628   1.960   7.206 -0.2370  0.0806  0.2704
 1220WAT      O 6684   2.536   9.102   0.089  0.1593  0.1445 -0.1939
 1220WAT     H1 6685   2.618   9.062   0.117  2.5822  4.3707 -0.3941
 1220WAT     H2 6686   2.511   9.158   0.163 -0.7940  1.2898 -1.3495
 1220WAT    EPW 6687   2.544   9.104   0.103  0.3531  0.8531 -0.3727
 1221WAT      O 6688   2.751   9.005   1.693  0.0083 -0.5210 -0.3306
 1221WAT     H1 6689   2.730   9.023   1.785 -1.5692  3.5224 -1.3094
 1221WAT     H2 6690   2.796   8.920   1.696 -0.4827 -0.8761  4.0599
 1221WAT    EPW 6691   2.754   8.996   1.706 -0.2646 -0.0348  0.1194
 1222WAT      O 6692   0.124   8.494   3.466 -0.4626  0.7963  0.2195
 1222WAT     H1 6693   0.041   8.537   3.445 -0.3889  0.1131 -1.6838
 1222WAT     H2 6694   0.187   8.533   3.406 -0.3121 -1.6203 -1.3066
 1222WAT    EPW 6695   0.121   8.505   3.456 -0.4330  0.3877 -0.2327
 1223WAT      O 6696   7.982   2.772   8.289 -0.0681  0.5022  0.8569
 1223WAT     H1 6697   8.034   2.744   8.365  0.7443  0.7990  0.4217
 1223WAT     H2 6698   7.892   2.759   8.316  0.2364 -0.3273  1.5161
 1223WAT    EPW 6699   7.977   2.767   8.303  0.0796  0.4320  0.8860
 1224WAT      O 6700   7.762   3.799   6.293 -0.2643 -0.4935  0.4752
 1224WAT     H1 6701   7.686   3.800   6.234  0.4163  0.1636 -0.4053
 1224WAT     H2 6702   7.748   3.722   6.348 -2.0486  0.1071  0.9572
 1224WAT    EPW 6703   7.750   3.789   6.293 -0.4098 -0.3276  0.4227
 1225WAT      O 6704   0.167   7.894   1.206 -0.0928  0.6534  0.4775
 1225WAT     H1 6705   0.200   7.836   1.275 -1.1027 -0.1217  0.3314
 1225WAT     H2 6706   0.091   7.937   1.245 -0.0028  1.0589  0.2137
 1225WAT    EPW 6707   0.162   7.892   1.221 -0.2141  0.6046  0.4235
 1226WAT      O 6708   0.363   7.876   0.049  0.3038 -0.1155  0.0402
 1226WAT     H1 6709   0.339   7.797  -0.001 -4.5727  2.5847 -2.6441
 1226WAT     H2 6710   0.428   7.920  -0.005 -0.0175 -0.3525 -0.5467
 1226WAT    EPW 6711   0.368   7.871   0.035 -0.3817  0.2093 -0.3913
 1227WAT      O 6712   6.523   2.809   8.390 -0.2259  0.3476  0.5384
 1227WAT     H1 6713   6.465   2.779   8.460 -0.9448  2.9236  1.1531
 1227WAT     H2 6714   6.500   2.901   8.377  1.0016  0.3947 -2.0025
 1227WAT    EPW 6715   6.513   2.817   8.397 -0.1585  0.6937  0.2847
 1228WAT      O 6716   4.103   7.400   2.377 -0.5666 -0.2285 -0.3435
 1228WAT     H1 6717   4.195   7.380   2.363 -0.2269  0.3553  0.9322
 1228WAT     H2 6718   4.101   7.449   2.459 -1.8182  1.3471 -1.2638
 1228WAT    EPW 6719   4.115   7.403   2.386 -0.6866  0.0563 -0.2967
 1229WAT      O 6720   8.092   3.695   4.396  0.1806 -0.4193  0.0866
 1229WAT     H1 6721   7.997   3.700   4.390  0.1956 -0.0541  0.0919
 1229WAT     H2 6722   8.121   3.786   4.388  0.5780 -0.6167 -0.8760
 1229WAT    EPW 6723   8.083   3.708   4.394  0.2351 -0.3971 -0.0398
 1230WAT      O 6724   9.711   4.743   8.680 -0.8204  0.6704 -0.9452
 1230WAT     H1 6725   9.620   4.751   8.653 -0.6714 -0.2771 -1.8012
 1230WAT     H2 6726   9.760   4.792   8.613 -0.7171  1.6203 -0.2041
 1230WAT    EPW 6727   9.705   4.751   8.668 -0.7873  0.6704 -0.9603
 1231WAT      O 6728   6.472   0.248   7.612 -0.3079  0.2052  0.3369
 1231WAT     H1 6729   6.395   0.196   7.636 -0.0463 -0.8682 -1.0275
 1231WAT     H2 6730   6.457   0.271   7.520  1.3646 -0.7619 -0.2245
 1231WAT    EPW 6731   6.460   0.244   7.603 -0.0527 -0.0639  0.0830
 1232WAT      O 6732   4.634  10.059   7.965  0.1261 -0.1317 -0.3290
 1232WAT     H1 6733   4.566  10.103   8.015  1.6360  1.1671  0.6767
 1232WAT     H2 6734   4.629  10.097   7.878  0.2582  0.7841  0.0472
 1232WAT    EPW 6735   4.625  10.070   7.960  0.3428  0.1597 -0.1466
 1233WAT      O 6736   3.290   5.495   1.112  0.5770  0.3812  0.2373
 1233WAT     H1 6737   3.224   5.426   1.104 -2.9943  3.5745 -0.2251
 1233WAT     H2 6738   3.339   5.491   1.029 -0.5136 -0.6737 -0.3809
 1233WAT    EPW 6739   3.288   5.485   1.100 -0.0380  0.6635  0.0948
 1234WAT      O 6740   6.083   4.848   7.446 -0.3522  0.3725 -0.3928
 1234WAT     H1 6741   6.008   4.862   7.388 -0.5156  0.7922 -0.0828
 1234WAT     H2 6742   6.078   4.755   7.468  0.3740 -0.0854 -1.9490
 1234WAT    EPW 6743   6.072   4.837   7.441 -0.2780  0.3672 -0.5569
 1235WAT      O 6744   5.913   4.606   6.621 -0.7534  0.9015 -0.7104
 1235WAT     H1 6745   5.987   4.626   6.564 -1.1974  2.6267 -0.7426
 1235WAT     H2 6746   5.844   4.577   6.561 -0.3779  0.0442 -0.7518
 1235WAT    EPW 6747   5.914   4.605   6.606 -0.7622  1.0161 -0.7203
 1236WAT      O 6748   9.007   3.183   6.809  0.4163 -1.0462  0.4512
 1236WAT     H1 6749   8.996   3.108   6.750 -0.6687 -0.7127  0.1981
 1236WAT     H2 6750   9.038   3.254   6.752 -2.3713 -0.1965 -0.1793
 1236WAT    EPW 6751   9.010   3.182   6.793 -0.0944 -0.8901  0.3350
 1237WAT      O 6752   7.942   3.666   7.962 -0.3512 -0.0429 -0.3246
 1237WAT     H1 6753   7.935   3.602   8.033 -3.2072  1.1735  0.6471
 1237WAT     H2 6754   8.022   3.715   7.983 -0.3890 -0.6039  1.3064
 1237WAT    EPW 6755   7.952   3.664   7.974 -0.7329  0.0434  0.0188
 1238WAT      O 6756   2.742   7.287   0.926  0.7740 -0.0505 -0.3009
 1238WAT     H1 6757   2.662   7.339   0.921  0.3600 -0.7980 -2.4960
 1238WAT     H2 6758   2.713   7.201   0.956  0.3225 -0.9558 -3.0516
 1238WAT    EPW 6759   2.728   7.283   0.929  0.6599 -0.2685 -0.9532
 1239WAT      O 6760  10.566   1.670   7.906  0.0347  0.6616 -0.0088
 1239WAT     H1 6761  10.499   1.738   7.912  2.7039  3.7696 -1.8183
 1239WAT     H2 6762  10.565   1.627   7.991 -2.4889  2.2929  0.8890
 1239WAT    EPW 6763  10.557   1.674   7.918  0.0544  1.2866 -0.1292
 1240WAT      O 6764   4.350   3.178   6.874  0.5478  0.0349  0.5689
 1240WAT     H1 6765   4.391   3.250   6.828  0.5319  0.4880  1.2480
 1240WAT     H2 6766   4.421   3.138   6.924  0.3470  0.2477  1.0283
 1240WAT    EPW 6767   4.365   3.182   6.875  0.5193  0.1228  0.7191
 1241WAT      O 6768   9.215   3.037   7.385  0.1262  0.3857  0.3739
 1241WAT     H1 6769   9.125   3.068   7.395 -0.2427 -0.4770 -0.1195
 1241WAT     H2 6770   9.241   3.012   7.474  0.1955  1.4243  0.6616
 1241WAT    EPW 6771   9.206   3.038   7.398  0.0868  0.4088  0.3467
 1242WAT      O 6772   8.842   5.152   7.200  0.1565  0.0806  0.3265
 1242WAT     H1 6773   8.806   5.068   7.231  1.4741  0.1291  2.1825
 1242WAT     H2 6774   8.811   5.216   7.263 -0.2729  0.8929 -0.6948
 1242WAT    EPW 6775   8.833   5.149   7.212  0.2732  0.1938  0.4363
 1243WAT      O 6776   6.342   4.486   8.633 -0.1702 -0.1647  0.0633
 1243WAT     H1 6777   6.324   4.557   8.571  0.0131 -0.1687  0.0081
 1243WAT     H2 6778   6.312   4.521   8.717  1.8696  0.8252  0.4490
 1243WAT    EPW 6779   6.336   4.500   8.636  0.1233 -0.0348  0.1073
 1244WAT      O 6780   2.664   6.744   2.153  0.4996 -0.5987  0.9369
 1244WAT     H1 6781   2.590   6.789   2.194 -0.2872  2.1591 -2.8823
 1244WAT     H2 6782   2.735   6.809   2.155  1.3222 -1.4696  0.5601
 1244WAT    EPW 6783   2.664   6.759   2.159  0.5044 -0.3500  0.3835
 1245WAT      O 6784   6.481   4.492   8.007 -0.0214  0.2225 -0.0408
 1245WAT     H1 6785   6.499   4.412   8.056  3.2691  0.0932 -1.1986
 1245WAT     H2 6786   6.465   4.462   7.917  1.4905  0.8007 -0.5406
 1245WAT    EPW 6787   6.481   4.478   8.002  0.6120  0.2818 -0.2599
 1246WAT      O 6788   0.031   3.842   3.281  0.5289  0.6032  0.4503
 1246WAT     H1 6789  -0.011   3.927   3.270  0.0445  0.0704 -2.7531
 1246WAT     H2 6790   0.082   3.829   3.201 -0.2001 -2.5022  0.3409
 1246WAT    EPW 6791   0.032   3.851   3.269  0.3686  0.1235  0.0135
 1247WAT      O 6792   4.341   1.004   1.423 -0.6773  0.0005  0.7011
 1247WAT     H1 6793   4.368   1.088   1.385 -0.7510 -0.4469 -0.3555
 1247WAT     H2 6794   4.388   1.000   1.506 -0.5286  1.0031  0.6831
 1247WAT    EPW 6795   4.351   1.015   1.429 -0.6671  0.0737  0.5593
 1248WAT      O 6796  10.821   2.009   7.919  0.3894 -0.4247 -0.3249
 1248WAT     H1 6797  10.907   2.040   7.948  0.9911  0.1163 -2.4721
 1248WAT     H2 6798  10.759   2.068   7.960  1.1361  0.0038  0.2235
 1248WAT    EPW 6799  10.824   2.021   7.928  0.5670 -0.2967 -0.5355
 1249WAT      O 6800   5.706   2.249   2.878  0.1929 -0.3359  0.3872
 1249WAT     H1 6801   5.738   2.338   2.862  1.8025 -0.8936  0.3785
 1249WAT     H2 6802   5.772   2.192   2.840 -0.5962 -1.5651  0.7793
 1249WAT    EPW 6803   5.719   2.253   2.871  0.3011 -0.5716  0.4380
 1250WAT      O 6804   4.561   8.619   0.805  0.2555  0.6096 -0.1303
 1250WAT     H1 6805   4.543   8.605   0.712 -0.4526 -0.5101  0.1618
 1250WAT     H2 6806   4.616   8.698   0.807 -1.4961  1.9581 -1.3485
 1250WAT    EPW 6807   4.566   8.628   0.793 -0.0689  0.6399 -0.2524
 1251WAT      O 6808   6.909   5.562   6.163 -0.1572  0.4774  0.0818
 1251WAT     H1 6809   6.820   5.564   6.128  0.3433  3.3802 -1.3279
 1251WAT     H2 6810   6.944   5.649   6.144  2.8794 -0.4465  0.9086
 1251WAT    EPW 6811   6.902   5.574   6.156  0.3092  0.7381  0.0048
 1252WAT      O 6812   1.727  10.337   0.523  0.3527  0.6451 -0.2090
 1252WAT     H1 6813   1.765  10.315   0.437  0.2617 -1.6623  0.2612
 1252WAT     H2 6814   1.685  10.256   0.551  1.1815  1.0422  2.4520
 1252WAT    EPW 6815   1.726  10.323   0.515  0.4500  0.3934  0.2040
 1253WAT      O 6816  10.879   2.571   7.100  0.6600  0.7867 -0.0219
 1253WAT     H1 6817  10.921   2.503   7.046 -2.7965 -0.9552 -0.7777
 1253WAT     H2 6818  10.869   2.529   7.186  0.1354  1.0296  0.0363
 1253WAT    EPW 6819  10.883   2.556   7.104  0.1349  0.5890 -0.1140
 1254WAT      O 6820   0.568   4.547   5.746 -0.1480  0.4474 -0.6044
 1254WAT     H1 6821   0.627   4.599   5.800  2.0558 -0.0412 -2.3981
 1254WAT     H2 6822   0.625   4.484   5.702 -1.9448  0.1916 -2.7398
 1254WAT    EPW 6823   0.583   4.545   5.747 -0.0944  0.3493 -1.1225
 1255WAT      O 6824   5.911   2.168   2.144  0.2785  0.4534 -0.4903
 1255WAT     H1 6825   5.944   2.080   2.159  0.4709  0.8249  1.6380
 1255WAT     H2 6826   5.897   2.173   2.049  1.9026 -1.2597 -0.8835
 1255WAT    EPW 6827   5.914   2.157   2.133  0.5181  0.2764 -0.2614
 1256WAT      O 6828  10.562   1.021   6.515  0.5843 -0.1412  0.1087
 1256WAT     H1 6829  10.501   1.025   6.588  3.1847  2.8996  2.3639
 1256WAT     H2 6830  10.515   1.064   6.443 -0.8123 -0.1647  0.9579
 1256WAT    EPW 6831  10.548   1.027   6.515  0.7429  0.2568  0.5181
 1257WAT      O 6832  10.484   5.464   7.115 -1.2350 -0.0130  0.1443
 1257WAT     H1 6833  10.509   5.385   7.162  1.5610  0.1244 -0.8993
 1257WAT     H2 6834  10.389   5.459   7.108 -1.2145 -2.9474  0.6754
 1257WAT    EPW 6835  10.475   5.453   7.120 -0.8636 -0.3817  0.0768
 1258WAT      O 6836   6.133   1.727   0.533  0.0001 -0.0729  0.2621
 1258WAT     H1 6837   6.142   1.804   0.589  0.0465 -0.5556  0.9365
 1258WAT     H2 6838   6.215   1.679   0.544  0.7137  0.6386 -1.5228
 1258WAT    EPW 6839   6.145   1.730   0.542  0.1006 -0.0428  0.1156
 1259WAT      O 6840   3.061   9.132   1.053  0.1019 -0.1414  0.1578
 1259WAT     H1 6841   3.132   9.098   1.107  0.4100 -1.4931 -1.0196
 1259WAT     H2 6842   3.094   9.215   1.019  1.2785 -0.9090 -0.6410
 1259WAT    EPW 6843   3.075   9.138   1.056  0.2978 -0.4206 -0.1028
 1260WAT      O 6844   1.840   9.170   0.783 -0.3384  0.3355 -0.3938
 1260WAT     H1 6845   1.854   9.193   0.875 -3.7457  3.5923 -0.4729
 1260WAT     H2 6846   1.746   9.158   0.774  0.0597 -2.1546 -3.1392
 1260WAT    EPW 6847   1.830   9.171   0.794 -0.7352  0.4358 -0.7663
 1261WAT      O 6848  10.605   3.695   8.393 -0.7825 -0.7224  0.6861
 1261WAT     H1 6849  10.637   3.785   8.403 -0.3737 -0.8296  0.3700
 1261WAT     H2 6850  10.671   3.652   8.338 -1.7776 -0.7740 -0.5169
 1261WAT    EPW 6851  10.618   3.701   8.387 -0.8597 -0.7433  0.4849
 1262WAT      O 6852   8.603   4.394   8.936 -0.2056 -0.1735  0.2121
 1262WAT     H1 6853   8.618   4.412   8.843 -0.5867 -1.1831 -0.0587
 1262WAT     H2 6854   8.534   4.328   8.937 -2.1033  1.7036  1.2966
 1262WAT    EPW 6855   8.596   4.388   8.924 -0.5064 -0.0591  0.3200
 1263WAT      O 6856  10.567   3.478   6.696  0.0173 -0.6929 -0.2156
 1263WAT     H1 6857  10.579   3.570   6.674 -0.4568 -0.2643  1.1746
 1263WAT     H2 6858  10.653   3.438   6.683 -0.2640 -0.5987 -3.0314
 1263WAT    EPW 6859  10.580   3.485   6.691 -0.0820 -0.6239 -0.4036
 1264WAT      O 6860   4.045   0.380   0.909  0.3195  0.1317  0.0947
 1264WAT     H1 6861   4.117   0.405   0.967  0.0306  0.8510  0.1601
 1264WAT     H2 6862   3.967   0.413   0.954 -0.0784 -0.8651  0.1553
 1264WAT    EPW 6863   4.044   0.388   0.923  0.2289  0.0951  0.1113
 1265WAT      O 6864   1.340   6.765   7.384  0.0198  0.3103  0.9739
 1265WAT     H1 6865   1.340   6.861   7.378 -2.5005  0.3046 -0.1958
 1265WAT     H2 6866   1.343   6.747   7.478 -0.4932  1.5761  1.2499
 1265WAT    EPW 6867   1.341   6.775   7.396 -0.3802  0.4764  0.8559
 1266WAT      O 6868   6.071   7.561   1.672  0.7895  0.9282  0.2931
 1266WAT     H1 6869   6.147   7.560   1.614  1.3047 -0.2129  0.9587
 1266WAT     H2 6870   6.102   7.603   1.752  0.5268  1.0632  0.3241
 1266WAT    EPW 6871   6.085   7.567   1.675  0.8228  0.7956  0.3849
 1267WAT      O 6872   1.557   2.534   8.679  0.5329 -0.0135 -0.2736
 1267WAT     H1 6873   1.535   2.623   8.705  2.3296  1.1962 -2.4778
 1267WAT     H2 6874   1.496   2.515   8.607 -0.6636 -1.1019  0.9825
 1267WAT    EPW 6875   1.546   2.543   8.673  0.6120  0.0025 -0.3986
 1268WAT      O 6876   0.645   7.350   6.626  0.2075 -0.3184  0.8589
 1268WAT     H1 6877   0.567   7.405   6.638 -0.4233 -1.1050  0.5323
 1268WAT     H2 6878   0.611   7.260   6.629  0.6738 -0.6941 -1.7910
 1268WAT    EPW 6879   0.630   7.345   6.628  0.1858 -0.4718  0.4663
 1269WAT      O 6880  10.130   6.043   6.734  0.2423  0.3122 -0.2621
 1269WAT     H1 6881  10.170   5.957   6.721  2.9386  1.1385  1.7346
 1269WAT     H2 6882  10.204   6.103   6.738 -1.3944  2.3583  1.0058
 1269WAT    EPW 6883  10.145   6.039   6.733  0.3819  0.6907  0.1688
 1270WAT      O 6884  10.376   3.882   7.186 -0.1293  0.6884  0.1681
 1270WAT     H1 6885  10.349   3.791   7.193 -0.3543  0.7394  0.0000
 1270WAT     H2 6886  10.302   3.932   7.220 -0.2443  0.8307 -0.2755
 1270WAT    EPW 6887  10.363   3.877   7.191 -0.1740  0.7139  0.0875
 1271WAT      O 6888   8.610   4.873   8.063  1.3490 -0.6103  0.3249
 1271WAT     H1 6889   8.571   4.868   8.150  1.5591  0.4848  0.5001
 1271WAT     H2 6890   8.700   4.841   8.075  1.4889 -0.1310  0.5940
 1271WAT    EPW 6891   8.617   4.868   8.076  1.3952 -0.4029  0.3834
 1272WAT      O 6892   5.863   0.555   0.622  0.0423  0.0092 -0.1707
 1272WAT     H1 6893   5.830   0.479   0.669  1.6718 -1.2368 -0.9558
 1272WAT     H2 6894   5.850   0.628   0.683 -2.0973 -0.7407  0.3705
 1272WAT    EPW 6895   5.857   0.555   0.636 -0.0250 -0.2540 -0.2028
 1273WAT      O 6896   9.271   6.103   5.408 -0.0275 -0.5878  0.6910
 1273WAT     H1 6897   9.213   6.087   5.334  0.9961  1.0510 -0.5150
 1273WAT     H2 6898   9.358   6.116   5.369  0.9045 -1.4793  2.3285
 1273WAT    EPW 6899   9.275   6.102   5.393  0.2303 -0.4895  0.7479
 1274WAT      O 6900   5.834   1.221   0.314  0.4153  0.2782  0.5285
 1274WAT     H1 6901   5.790   1.147   0.355  0.7156 -0.2012 -0.0045
 1274WAT     H2 6902   5.841   1.197   0.221  1.5168  0.4672  0.5499
 1274WAT    EPW 6903   5.829   1.208   0.307  0.6001  0.2399  0.4610
 1275WAT      O 6904   4.235   3.352   2.644  0.0329  0.4459  0.0956
 1275WAT     H1 6905   4.287   3.351   2.564 -1.9152  4.3632 -1.4836
 1275WAT     H2 6906   4.180   3.274   2.639  1.8207 -0.8332 -0.9011
 1275WAT    EPW 6907   4.235   3.342   2.633  0.0119  0.7939 -0.2443
 1276WAT      O 6908   9.680   5.347   7.552 -0.1005 -0.1493 -0.4955
 1276WAT     H1 6909   9.671   5.442   7.537  1.0181  0.1136  0.3542
 1276WAT     H2 6910   9.753   5.340   7.613 -1.2629 -1.4576  0.8220
 1276WAT    EPW 6911   9.688   5.359   7.558 -0.1059 -0.2875 -0.2098
 1277WAT      O 6912   9.972   8.371   6.949  0.8241  0.1159  0.1919
 1277WAT     H1 6913   9.953   8.375   6.855  2.3762  2.8604 -0.1296
 1277WAT     H2 6914   9.907   8.429   6.989 -0.1664 -1.4487  0.9498
 1277WAT    EPW 6915   9.961   8.379   6.942  0.8979  0.2713  0.2494
 1278WAT      O 6916   6.850   3.495   1.524  0.3575 -0.1383  0.5902
 1278WAT     H1 6917   6.809   3.533   1.601  1.2293  0.9169  0.5644
 1278WAT     H2 6918   6.787   3.431   1.491 -0.5108  0.2318  1.5099
 1278WAT    EPW 6919   6.836   3.491   1.530  0.3579  0.0496  0.7081
 1279WAT      O 6920   9.776   5.589   6.549 -0.0491  0.2147  0.3516
 1279WAT     H1 6921   9.843   5.531   6.514  1.9267  2.3708  0.3016
 1279WAT     H2 6922   9.780   5.575   6.644 -0.7984 -0.9044  0.2378
 1279WAT    EPW 6923   9.785   5.580   6.557  0.1125  0.3517  0.3300
 1280WAT      O 6924   3.729   8.040   1.255  0.0635  0.1625  0.5971
 1280WAT     H1 6925   3.704   8.044   1.348 -1.3746 -0.3210  0.2569
 1280WAT     H2 6926   3.684   8.114   1.214 -2.5390 -1.7808 -0.3600
 1280WAT    EPW 6927   3.720   8.050   1.262 -0.4693 -0.1574  0.4260
 1281WAT      O 6928   7.790   6.527   7.403  0.3050  0.3066  0.1696
 1281WAT     H1 6929   7.774   6.590   7.474 -0.7160  0.6585 -0.3506
 1281WAT     H2 6930   7.758   6.571   7.324 -0.0335 -0.7029 -0.2705
 1281WAT    EPW 6931   7.784   6.541   7.402  0.1256  0.2201  0.0429
 1282WAT      O 6932   4.604   1.669   0.504  0.0187 -0.2948  0.5611
 1282WAT     H1 6933   4.652   1.705   0.579  1.8233 -3.4368  1.0980
 1282WAT     H2 6934   4.616   1.733   0.435  1.7193  0.8569  1.8401
 1282WAT    EPW 6935   4.612   1.682   0.505  0.4809 -0.5573  0.8006
 1283WAT      O 6936   4.076   8.185   0.696 -0.2450  0.3476  0.2678
 1283WAT     H1 6937   4.092   8.260   0.752  0.9272 -0.4305  1.0303
 1283WAT     H2 6938   4.027   8.220   0.621 -0.0285  1.7793  0.7753
 1283WAT    EPW 6939   4.072   8.200   0.693 -0.0618  0.4344  0.4353
 1284WAT      O 6940   5.570   0.351   0.282 -0.2609 -0.2617  0.2029
 1284WAT     H1 6941   5.625   0.279   0.251 -3.2076 -1.5607 -2.6232
 1284WAT     H2 6942   5.537   0.321   0.366 -1.8053 -2.6028 -1.1300
 1284WAT    EPW 6943   5.573   0.337   0.289 -0.8535 -0.7418 -0.3456
 1285WAT      O 6944   2.477  10.087   1.905  0.1509 -0.1190 -0.7046
 1285WAT     H1 6945   2.522  10.141   1.840 -0.7175 -0.0440 -1.2662
 1285WAT     H2 6946   2.442  10.150   1.968 -1.6353  0.1074 -1.8425
 1285WAT    EPW 6947   2.478  10.103   1.904 -0.1992 -0.0787 -0.9288
 1286WAT      O 6948   8.618   0.618   1.378 -0.5316  0.0093  0.2309
 1286WAT     H1 6949   8.680   0.641   1.309 -1.2770 -1.0892 -0.8581
 1286WAT     H2 6950   8.659   0.648   1.459 -0.0616  2.2082 -0.7561
 1286WAT    EPW 6951   8.631   0.625   1.380 -0.5679  0.1544 -0.0429
 1287WAT      O 6952   2.415   7.745   2.985  0.3841 -0.0920 -0.0809
 1287WAT     H1 6953   2.429   7.695   3.065  0.7168  1.0532  0.5969
 1287WAT     H2 6954   2.408   7.679   2.916  0.9289 -1.0580  0.7678
 1287WAT    EPW 6955   2.416   7.730   2.986  0.4997 -0.0679  0.1205
 1288WAT      O 6956   9.220   4.517   8.720 -0.2792 -0.6060 -0.1438
 1288WAT     H1 6957   9.210   4.435   8.768  0.8096 -0.1827  0.8312
 1288WAT     H2 6958   9.136   4.562   8.731 -1.0157 -1.7069 -0.9794
 1288WAT    EPW 6959   9.207   4.512   8.728 -0.2322 -0.6955 -0.1259
 1289WAT      O 6960   8.412   7.492   8.124 -1.0161 -0.1199  0.8172
 1289WAT     H1 6961   8.324   7.456   8.128  0.3711 -3.8956  1.9491
 1289WAT     H2 6962   8.462   7.439   8.186  3.0681 -1.5871 -3.1787
 1289WAT    EPW 6963   8.407   7.480   8.132 -0.2942 -0.8111  0.4392
 1290WAT      O 6964   7.591   1.140   2.697  0.5153 -0.1745  0.1187
 1290WAT     H1 6965   7.655   1.193   2.650  1.3961 -1.3170 -0.0153
 1290WAT     H2 6966   7.535   1.103   2.629 -1.0880  1.7553  0.3047
 1290WAT    EPW 6967   7.592   1.142   2.682  0.4199 -0.0706  0.1255
 1291WAT      O 6968   8.008   0.841   8.165  0.8602  0.1794  0.2139
 1291WAT     H1 6969   7.930   0.829   8.110  0.5896  1.4111  0.2969
 1291WAT     H2 6970   8.012   0.935   8.180  0.5674 -0.1523  2.8246
 1291WAT    EPW 6971   7.998   0.852   8.159  0.7858  0.2981  0.5689
 1292WAT      O 6972   9.925   3.233   7.632 -0.6401 -0.4710  0.2506
 1292WAT     H1 6973   9.977   3.208   7.556  0.0455 -0.5181  0.7260
 1292WAT     H2 6974   9.855   3.286   7.596 -1.0858 -1.5732 -0.5663
 1292WAT    EPW 6975   9.923   3.237   7.617 -0.6089 -0.6225  0.2055
 1293WAT      O 6976   8.665   1.611   1.744  0.1422  0.1500 -0.2623
 1293WAT     H1 6977   8.756   1.640   1.754  0.3937  0.1814 -2.2101
 1293WAT     H2 6978   8.669   1.545   1.675 -1.1336 -0.9454  0.6505
 1293WAT    EPW 6979   8.677   1.606   1.736  0.0072  0.0097 -0.3989
 1294WAT      O 6980   4.392   7.139   0.407 -0.2663 -0.4101  0.2433
 1294WAT     H1 6981   4.433   7.224   0.392 -1.2627  0.0105 -0.1905
 1294WAT     H2 6982   4.432   7.107   0.488  0.9176 -0.0341 -0.1780
 1294WAT    EPW 6983   4.402   7.146   0.416 -0.2418 -0.3049  0.1305
 1295WAT      O 6984   7.386   5.308   6.913  0.1152  0.7070 -0.0281
 1295WAT     H1 6985   7.406   5.352   6.830  0.3117  1.9646  0.6610
 1295WAT     H2 6986   7.355   5.221   6.887  0.2410  1.0516 -1.4139
 1295WAT    EPW 6987   7.384   5.302   6.899  0.1578  0.9184 -0.1197
 1296WAT      O 6988  10.914   6.792   7.180  0.3511 -0.0741  0.5119
 1296WAT     H1 6989  10.884   6.857   7.243 -0.0216 -0.9862  1.2986
 1296WAT     H2 6990  10.871   6.710   7.207  1.5999 -0.8714  0.1673
 1296WAT    EPW 6991  10.904   6.789   7.192  0.4668 -0.2997  0.5701
 1297WAT      O 6992  10.763   4.855   8.124  0.3163  0.4437 -0.0493
 1297WAT     H1 6993  10.667   4.862   8.122  0.2576  0.1578  1.0882
 1297WAT     H2 6994  10.787   4.831   8.034 -0.5342  2.0663 -0.7633
 1297WAT    EPW 6995  10.754   4.853   8.112  0.1965  0.6199  0.0067
 1298WAT      O 6996   1.533   9.599   1.092 -0.5173 -0.6114 -0.3036
 1298WAT     H1 6997   1.544   9.683   1.047 -0.5347 -1.3491 -1.7278
 1298WAT     H2 6998   1.550   9.619   1.184  0.9149  0.6687 -0.8029
 1298WAT    EPW 6999   1.537   9.613   1.098 -0.3307 -0.5393 -0.5573
 1299WAT      O 7000   9.654   8.033   8.030  0.0540 -0.2035 -0.9635
 1299WAT     H1 7001   9.698   8.117   8.017  0.9025 -0.8065 -2.1466
 1299WAT     H2 7002   9.583   8.052   8.091 -0.4767  1.6085 -2.0862
 1299WAT    EPW 7003   9.651   8.046   8.037  0.0958 -0.0439 -1.2679
 1300WAT      O 7004   7.487   1.150   0.675  0.4338  0.3300 -0.0404
 1300WAT     H1 7005   7.410   1.094   0.661  0.2542  0.4355  0.4837
 1300WAT     H2 7006   7.489   1.207   0.598 -0.5431  0.9227  0.3462
 1300WAT    EPW 7007   7.477   1.150   0.663  0.2813  0.4221  0.0797
 1301WAT      O 7008   2.427   9.480   1.411 -0.2507  0.3778 -0.3444
 1301WAT     H1 7009   2.519   9.467   1.435 -0.0321  0.6028 -1.0473
 1301WAT     H2 7010   2.381   9.479   1.495  0.3030 -0.4188 -0.0339
 1301WAT    EPW 7011   2.433   9.478   1.426 -0.1488  0.3023 -0.3961
 1302WAT      O 7012   5.825   5.144   1.384 -0.2289  0.9200 -0.6379
 1302WAT     H1 7013   5.804   5.138   1.291 -1.3111  0.8213 -0.3955
 1302WAT     H2 7014   5.913   5.106   1.391  0.3886  2.0326 -1.7925
 1302WAT    EPW 7015   5.834   5.138   1.373 -0.2899  1.0538 -0.7582
 1303WAT      O 7016   8.096   3.194   0.443  0.0024 -0.5921  0.0812
 1303WAT     H1 7017   8.125   3.105   0.425 -0.2569 -0.2287 -2.4144
 1303WAT     H2 7018   8.177   3.244   0.455  0.1844 -0.8677 -0.0123
 1303WAT    EPW 7019   8.111   3.189   0.442 -0.0081 -0.5805 -0.2603
 1304WAT      O 7020   8.334   5.036   7.640  0.0758  0.5178 -0.0779
 1304WAT     H1 7021   8.401   5.039   7.708  1.0770 -0.8390 -0.9450
 1304WAT     H2 7022   8.384   5.036   7.558 -1.0426  0.5651 -0.7807
 1304WAT    EPW 7023   8.350   5.037   7.638  0.0601  0.3450 -0.2849
 1305WAT      O 7024   8.084   0.811   1.921 -0.3591  0.0115 -0.5056
 1305WAT     H1 7025   8.004   0.794   1.971 -1.6136  3.2043 -1.1751
 1305WAT     H2 7026   8.130   0.879   1.972  0.5971  0.0874 -1.4369
 1305WAT    EPW 7027   8.080   0.818   1.935 -0.3986  0.4426 -0.7167
 1306WAT      O 7028   4.999   7.679   1.923 -0.4545  0.2261 -0.9318
 1306WAT     H1 7029   4.930   7.667   1.857 -1.6383  0.8945  0.1328
 1306WAT     H2 7030   4.951   7.693   2.005  0.9589 -2.4031  0.4669
 1306WAT    EPW 7031   4.983   7.680   1.925 -0.4241 -0.0324 -0.6069
 1307WAT      O 7032  10.185   6.039   3.883 -0.5622  0.0970  0.1487
 1307WAT     H1 7033  10.118   6.102   3.912 -0.0025  0.7445  0.0546
 1307WAT     H2 7034  10.214   5.996   3.963 -1.1976 -0.2944  0.1735
 1307WAT    EPW 7035  10.180   6.042   3.897 -0.5717  0.1307  0.1395
 1308WAT      O 7036   0.162   3.142   8.913  0.3671 -0.5157 -0.3374
 1308WAT     H1 7037   0.141   3.121   9.003  0.5313 -1.2844 -0.4652
 1308WAT     H2 7038   0.087   3.111   8.862  0.6687 -0.9174 -0.5458
 1308WAT    EPW 7039   0.150   3.135   8.918  0.4285 -0.6701 -0.3819
 1309WAT      O 7040   7.649   2.349   3.363 -0.0407  0.3505 -0.0624
 1309WAT     H1 7041   7.578   2.295   3.329 -0.3566  1.5442 -1.4097
 1309WAT     H2 7042   7.729   2.305   3.334 -0.2974  0.7221 -1.3724
 1309WAT    EPW 7043   7.650   2.336   3.355 -0.1163  0.5569 -0.4129
 1310WAT      O 7044   8.852   1.765   6.938  0.8869 -0.8467  0.0395
 1310WAT     H1 7045   8.922   1.744   7.000 -1.1535 -1.4481  2.3179
 1310WAT     H2 7046   8.830   1.681   6.898  1.0847 -0.7581 -0.2576
 1310WAT    EPW 7047   8.858   1.751   6.941  0.6437 -0.9144  0.3006
 1311WAT      O 7048   6.425   0.326   2.263 -0.6872  0.2103  0.2765
 1311WAT     H1 7049   6.440   0.400   2.323  1.5738  0.3983 -0.4101
 1311WAT     H2 7050   6.396   0.255   2.320 -0.7228  1.0040  1.2853
 1311WAT    EPW 7051   6.423   0.326   2.278 -0.3934  0.3398  0.3190
 1312WAT      O 7052   1.985   4.002   7.671 -0.5034 -0.5945  0.0837
 1312WAT     H1 7053   2.053   3.935   7.670  0.0436 -0.0532 -0.8217
 1312WAT     H2 7054   1.905   3.954   7.692  0.1702 -1.2063  1.3629
 1312WAT    EPW 7055   1.983   3.987   7.674 -0.3424 -0.6038  0.1328
 1313WAT      O 7056   4.819   9.866   0.659  0.1148 -0.6740  0.2497
 1313WAT     H1 7057   4.880   9.817   0.713 -1.1418 -0.3148  2.0985
 1313WAT     H2 7058   4.743   9.809   0.650  0.8139 -1.3168 -2.4335
 1313WAT    EPW 7059   4.817   9.852   0.665  0.0415 -0.7114  0.1396
 1314WAT      O 7060   2.557   6.551   1.939 -0.4835 -0.3876  0.0139
 1314WAT     H1 7061   2.593   6.620   1.995  1.4433 -0.7816 -0.6693
 1314WAT     H2 7062   2.631   6.492   1.923 -1.8743 -2.2155 -0.0507
 1314WAT    EPW 7063   2.571   6.552   1.944 -0.4127 -0.6807 -0.0848
 1315WAT      O 7064   7.938   2.743   7.896  0.1720 -0.1446  0.1510
 1315WAT     H1 7065   7.909   2.747   7.805 -0.3484  0.5309  0.3342
 1315WAT     H2 7066   7.886   2.811   7.940  1.3087  0.4000  0.6947
 1315WAT    EPW 7067   7.928   2.753   7.889  0.2530  0.0161  0.2465
 1316WAT      O 7068   7.085   4.384   6.290  0.1532 -0.3863 -0.7677
 1316WAT     H1 7069   7.112   4.474   6.276 -0.3684 -0.3659 -1.6612
 1316WAT     H2 7070   7.080   4.375   6.386  0.9481  0.2997 -0.6574
 1316WAT    EPW 7071   7.088   4.394   6.301  0.1891 -0.2935 -0.8709
 1317WAT      O 7072   3.648   0.683   1.065  0.2102  0.4106 -0.2426
 1317WAT     H1 7073   3.633   0.682   1.159  0.8558 -0.8512 -0.1236
 1317WAT     H2 7074   3.724   0.626   1.053 -2.3457 -2.9806 -1.9104
 1317WAT    EPW 7075   3.656   0.675   1.076 -0.0417 -0.2031 -0.4469
 1318WAT      O 7076   7.826   7.600   5.327  0.0323  0.0083  0.2797
 1318WAT     H1 7077   7.739   7.638   5.332 -0.7061 -1.4621 -0.7067
 1318WAT     H2 7078   7.877   7.648   5.393 -1.8030  0.1378  1.6798
 1318WAT    EPW 7079   7.821   7.611   5.336 -0.3071 -0.1686  0.3345
 1319WAT      O 7080   7.292   0.034   8.924 -0.2451  0.0787  0.5182
 1319WAT     H1 7081   7.318   0.058   9.013  1.2421  0.6814 -0.0533
 1319WAT     H2 7082   7.344  -0.043   8.903  1.3130  1.3877 -0.6921
 1319WAT    EPW 7083   7.302   0.027   8.933  0.1564  0.3308  0.2837
 1320WAT      O 7084  10.083   3.641   8.302  0.0960 -0.3458  0.1273
 1320WAT     H1 7085  10.126   3.575   8.249 -0.3350 -0.7608  0.2837
 1320WAT     H2 7086  10.126   3.636   8.387  1.6080  1.1351 -0.4825
 1320WAT    EPW 7087  10.094   3.632   8.306  0.2384 -0.2052  0.0677
 1321WAT      O 7088   2.278   9.099   2.040 -0.1928 -0.0276 -0.0900
 1321WAT     H1 7089   2.219   9.158   2.088 -0.3565  1.1035 -1.6018
 1321WAT     H2 7090   2.242   9.012   2.055 -0.9185  0.4127  0.8627
 1321WAT    EPW 7091   2.265   9.096   2.048 -0.3101  0.1798 -0.1638
 1322WAT      O 7092  10.967   6.126   8.266 -0.2338  0.0375 -0.3504
 1322WAT     H1 7093  10.960   6.098   8.174  1.4933 -0.4256 -0.3797
 1322WAT     H2 7094  11.014   6.054   8.309 -1.9138 -0.2266  1.1464
 1322WAT    EPW 7095  10.972   6.112   8.259 -0.2279 -0.0584 -0.1564
 1323WAT      O 7096   9.943   1.678   7.928  0.4090  0.8730 -0.0660
 1323WAT     H1 7097   9.888   1.605   7.899  1.0351 -0.5653  2.1071
 1323WAT     H2 7098   9.883   1.737   7.974  0.5782 -0.8637  2.6101
 1323WAT    EPW 7099   9.928   1.676   7.930  0.5145  0.4542  0.5739
 1324WAT      O 7100   1.971   1.644   1.120  0.3837 -0.7409 -0.7267
 1324WAT     H1 7101   1.955   1.559   1.160 -1.2475 -0.7631 -1.3717
 1324WAT     H2 7102   2.040   1.627   1.055  1.3743 -1.1699  0.3971
 1324WAT    EPW 7103   1.978   1.631   1.116  0.2992 -0.8004 -0.6635
 1325WAT      O 7104   5.110   1.659   0.351 -0.0978  0.4525  0.6589
 1325WAT     H1 7105   5.060   1.651   0.432 -0.0297 -3.1419  0.4987
 1325WAT     H2 7106   5.193   1.614   0.368  0.6218  1.0833 -0.9097
 1325WAT    EPW 7107   5.114   1.652   0.364  0.0060  0.0616  0.4309
 1326WAT      O 7108   6.694   1.597   2.643  0.1724  0.1696 -0.1511
 1326WAT     H1 7109   6.639   1.578   2.567  0.1645  0.0226 -0.1091
 1326WAT     H2 7110   6.735   1.681   2.623  0.5242 -0.0877 -0.5144
 1326WAT    EPW 7111   6.692   1.606   2.630  0.2177  0.1162 -0.1935
 1327WAT      O 7112  10.243   8.087   8.509 -0.0580  0.9180 -0.4074
 1327WAT     H1 7113  10.289   8.080   8.593  0.5965  0.7020 -0.7784
 1327WAT     H2 7114  10.154   8.054   8.527  0.8680 -1.8773 -0.4273
 1327WAT    EPW 7115  10.237   8.082   8.522  0.1502  0.5212 -0.4592
 1328WAT      O 7116   6.507   9.879   1.118  0.3331 -0.0421  0.4013
 1328WAT     H1 7117   6.458   9.954   1.152  0.6594 -0.8311  2.7807
 1328WAT     H2 7118   6.587   9.917   1.080 -0.1197  0.8936  0.3652
 1328WAT    EPW 7119   6.511   9.894   1.117  0.3164 -0.0229  0.7104
 1329WAT      O 7120   8.357   0.194   1.134 -0.3779 -0.2694  0.3226
 1329WAT     H1 7121   8.351   0.132   1.062 -2.9130  1.4598 -1.1039
 1329WAT     H2 7122   8.449   0.219   1.137 -0.2317 -0.0648 -2.6760
 1329WAT    EPW 7123   8.368   0.189   1.125 -0.6928 -0.0143 -0.2611
 1330WAT      O 7124   3.450   0.104   0.185  0.5651 -0.2230  0.8334
 1330WAT     H1 7125   3.486   0.057   0.260  0.6469  0.6478  1.3640
 1330WAT     H2 7126   3.526   0.125   0.131  0.5468 -0.5553  0.6763
 1330WAT    EPW 7127   3.464   0.101   0.188  0.5736 -0.1520  0.8826
 1331WAT      O 7128   7.627   4.622   7.515 -0.4468 -0.1896  0.1630
 1331WAT     H1 7129   7.546   4.645   7.560 -0.1237  0.4757  0.4287
 1331WAT     H2 7130   7.599   4.592   7.428 -1.0268 -0.8016  0.5609
 1331WAT    EPW 7131   7.613   4.621   7.509 -0.4804 -0.1826  0.2506
 1332WAT      O 7132   0.867   6.853   0.914  0.3111  0.4773 -0.5332
 1332WAT     H1 7133   0.913   6.788   0.860  2.3743  1.7372 -0.3998
 1332WAT     H2 7134   0.836   6.803   0.990 -1.8547 -1.1447 -2.3393
 1332WAT    EPW 7135   0.869   6.838   0.917  0.2975  0.4296 -0.7538
 1333WAT      O 7136   0.235   8.959   1.028 -0.1446 -0.0701  0.4968
 1333WAT     H1 7137   0.152   8.930   1.066  0.7860 -1.9036  1.2299
 1333WAT     H2 7138   0.227   8.939   0.935  0.2004 -2.1486  0.8756
 1333WAT    EPW 7139   0.223   8.953   1.021  0.0236 -0.5865  0.6434
 1334WAT      O 7140   0.316   2.013   7.929  0.8992  0.7823 -0.0098
 1334WAT     H1 7141   0.226   2.045   7.932  1.3228  2.0012  1.4631
 1334WAT     H2 7142   0.358   2.064   7.860  0.4525  0.1546 -0.7517
 1334WAT    EPW 7143   0.310   2.024   7.921  0.8962  0.8602  0.0865
 1335WAT      O 7144   0.341   5.226   6.515  0.0400 -0.1471 -0.2913
 1335WAT     H1 7145   0.260   5.272   6.535  0.3655  0.1622  0.3505
 1335WAT     H2 7146   0.356   5.171   6.592  0.7160  0.1972 -0.1735
 1335WAT    EPW 7147   0.332   5.225   6.528  0.1721 -0.0610 -0.1912
 1336WAT      O 7148   5.323   9.397   0.358 -0.4054  0.0519  0.3594
 1336WAT     H1 7149   5.302   9.308   0.329 -1.1982  0.9657 -2.1295
 1336WAT     H2 7150   5.238   9.442   0.360 -0.2845  0.3759  3.3594
 1336WAT    EPW 7151   5.309   9.391   0.355 -0.4938  0.2151  0.4268
 1337WAT      O 7152   4.939  10.158   8.655  0.1968 -0.1825 -0.4409
 1337WAT     H1 7153   4.851  10.194   8.663 -0.5475 -2.2888  2.2733
 1337WAT     H2 7154   4.994  10.214   8.710  0.3766  0.5054 -1.2993
 1337WAT    EPW 7155   4.935  10.170   8.663  0.1225 -0.3695 -0.1969
 1338WAT      O 7156   7.532   2.870   6.908 -0.5161  0.4090  0.4695
 1338WAT     H1 7157   7.577   2.794   6.873 -2.1869 -0.3002 -0.2418
 1338WAT     H2 7158   7.457   2.834   6.956 -1.3444  1.5700  0.1179
 1338WAT    EPW 7159   7.528   2.855   6.910 -0.8457  0.4686  0.3293
 1339WAT      O 7160   4.353   0.456   2.439  0.0828  0.0920 -0.0057
 1339WAT     H1 7161   4.329   0.371   2.402  3.0717 -0.7206 -0.3227
 1339WAT     H2 7162   4.382   0.436   2.528 -0.1273  0.9414  0.2628
 1339WAT    EPW 7163   4.354   0.442   2.446  0.4494  0.0968 -0.0122
 1340WAT      O 7164   9.956   9.195   2.481  0.4210  0.0045  0.8541
 1340WAT     H1 7165   9.903   9.163   2.555  0.2637  0.6808  1.0372
 1340WAT     H2 7166   9.995   9.116   2.444 -1.6738 -0.7000 -0.0396
 1340WAT    EPW 7167   9.954   9.180   2.486  0.1240  0.0010  0.7603
 1341WAT      O 7168   9.551   3.773   5.563 -0.5030 -0.1992 -0.4350
 1341WAT     H1 7169   9.502   3.829   5.503 -1.8951 -1.5457 -0.6259
 1341WAT     H2 7170   9.561   3.690   5.516  0.6366 -0.4463  0.2164
 1341WAT    EPW 7171   9.546   3.769   5.549 -0.5360 -0.4094 -0.3738
 1342WAT      O 7172   0.998   7.840   0.365 -0.1844  0.1024 -0.0443
 1342WAT     H1 7173   0.988   7.927   0.326  3.3175  1.3506  1.3895
 1342WAT     H2 7174   0.987   7.855   0.459 -0.7881 -1.2812  0.1279
 1342WAT    EPW 7175   0.995   7.854   0.372  0.1979  0.0844  0.1675
 1343WAT      O 7176  10.990   4.746   8.939 -0.7663  0.3635  0.2978
 1343WAT     H1 7177  10.930   4.819   8.920 -2.1444 -0.8495 -0.2455
 1343WAT     H2 7178  10.936   4.682   8.985  1.2262  0.9812  3.7706
 1343WAT    EPW 7179  10.975   4.747   8.942 -0.6847  0.2851  0.6838
 1344WAT      O 7180   7.867   0.188   0.458  0.1371 -0.9493 -0.4588
 1344WAT     H1 7181   7.919   0.220   0.532  1.3054 -1.5327 -1.0022
 1344WAT     H2 7182   7.929   0.183   0.386 -1.4469  1.7519 -2.1536
 1344WAT    EPW 7183   7.882   0.191   0.458  0.0823 -0.6700 -0.7540
 1345WAT      O 7184   8.479   4.857   4.406 -0.3016 -0.4922 -0.1435
 1345WAT     H1 7185   8.393   4.820   4.388 -1.2988  1.6512 -0.1069
 1345WAT     H2 7186   8.502   4.906   4.327 -0.9290  2.1007  1.1656
 1345WAT    EPW 7187   8.471   4.859   4.394 -0.5159  0.1326  0.0339
 1346WAT      O 7188   5.263   9.964   1.221 -1.5642  0.2094  0.9969
 1346WAT     H1 7189   5.346   9.930   1.188 -2.5723 -2.2608  0.8427
 1346WAT     H2 7190   5.288  10.022   1.293  0.3130  0.3783  0.2782
 1346WAT    EPW 7191   5.278   9.967   1.226 -1.4496 -0.0939  0.8817
 1347WAT      O 7192   1.027   6.823   8.975 -0.0555  0.4049  0.6766
 1347WAT     H1 7193   1.100   6.876   9.007 -1.4305  1.3933  2.2634
 1347WAT     H2 7194   1.070   6.755   8.922  1.9364  1.5095  0.7614
 1347WAT    EPW 7195   1.042   6.821   8.972  0.0259  0.6812  0.8969
 1348WAT      O 7196   4.256   8.731   1.708  0.2747 -0.4401  0.1380
 1348WAT     H1 7197   4.302   8.711   1.627  1.0269 -1.1706  0.7254
 1348WAT     H2 7198   4.234   8.824   1.701  1.4038 -0.1950 -0.3867
 1348WAT    EPW 7199   4.259   8.741   1.697  0.5229 -0.5040  0.1463
 1349WAT      O 7200   0.385   9.900   0.444 -0.2392 -0.7891 -0.7605
 1349WAT     H1 7201   0.386   9.863   0.532 -0.1371  1.7815  0.4057
 1349WAT     H2 7202   0.293   9.911   0.423 -0.3031  1.1411  0.2661
 1349WAT    EPW 7203   0.373   9.897   0.453 -0.2342 -0.1955 -0.4713
 1350WAT      O 7204   7.420   0.489   0.255 -0.8987 -0.1741  0.7264
 1350WAT     H1 7205   7.378   0.575   0.251  0.2365  0.5717  2.8997
 1350WAT     H2 7206   7.486   0.491   0.186 -0.2563  1.1114  1.3332
 1350WAT    EPW 7207   7.423   0.501   0.246 -0.6640  0.0938  1.0931
 1351WAT      O 7208   1.157   2.863   8.130 -0.1187 -0.7701  0.0246
 1351WAT     H1 7209   1.103   2.901   8.200  0.4263  0.4250 -0.1743
 1351WAT     H2 7210   1.235   2.918   8.128 -0.1319 -0.7731 -1.5440
 1351WAT    EPW 7211   1.160   2.875   8.139 -0.0486 -0.6130 -0.2084
 1352WAT      O 7212   2.752   9.627   0.795  0.3832  0.1007  0.1153
 1352WAT     H1 7213   2.834   9.583   0.815  0.6017  0.3829 -0.1431
 1352WAT     H2 7214   2.734   9.603   0.704  1.1853  1.5781 -0.4702
 1352WAT    EPW 7215   2.760   9.618   0.785  0.5177  0.3328  0.0041
 1353WAT      O 7216   3.312   6.112   2.360 -0.4949  0.1349  0.5323
 1353WAT     H1 7217   3.406   6.098   2.374 -0.1863  2.1404  0.6801
 1353WAT     H2 7218   3.271   6.074   2.437  0.0444 -1.9286 -0.1245
 1353WAT    EPW 7219   3.319   6.105   2.372 -0.3833  0.1273  0.4652
 1354WAT      O 7220  10.871   6.657   7.648 -0.2493 -0.0791  0.8358
 1354WAT     H1 7221  10.917   6.596   7.591 -2.2216  0.1117 -1.0897
 1354WAT     H2 7222  10.940   6.704   7.694  1.3900 -1.3184 -0.2730
 1354WAT    EPW 7223  10.886   6.655   7.646 -0.2928 -0.2174  0.4358
 1355WAT      O 7224  10.868   4.893   4.481  0.2131  0.3256 -0.0425
 1355WAT     H1 7225  10.886   4.940   4.563 -0.1631  3.1125 -1.4400
 1355WAT     H2 7226  10.809   4.951   4.433 -1.8966 -2.5184 -1.1684
 1355WAT    EPW 7227  10.862   4.907   4.486 -0.1149  0.3181 -0.3755
 1356WAT      O 7228   5.810   0.208   2.232 -0.8695  0.2381 -0.9311
 1356WAT     H1 7229   5.746   0.277   2.253 -0.7171  0.5868 -1.5811
 1356WAT     H2 7230   5.797   0.191   2.139 -0.8169 -0.5305 -0.7991
 1356WAT    EPW 7231   5.800   0.215   2.222 -0.8426  0.1827 -0.9995
 1357WAT      O 7232   0.996   4.878   8.050 -0.1241 -0.4749 -0.3302
 1357WAT     H1 7233   0.930   4.944   8.028  1.9762  1.0252 -2.7475
 1357WAT     H2 7234   1.070   4.928   8.085  0.2985 -1.9490  1.0272
 1357WAT    EPW 7235   0.997   4.893   8.051  0.2087 -0.4716 -0.4702
 1358WAT      O 7236   5.793   0.945   0.482 -0.4117  0.0994  0.3519
 1358WAT     H1 7237   5.840   0.870   0.446 -0.1606 -0.0276  0.9460
 1358WAT     H2 7238   5.832   0.960   0.568  0.7756  2.0013 -0.4370
 1358WAT    EPW 7239   5.804   0.937   0.488 -0.2220  0.3335  0.3262
 1359WAT      O 7240   2.113   5.903   6.248 -0.1153 -0.6317 -0.2156
 1359WAT     H1 7241   2.124   5.831   6.186 -0.9323 -0.7752 -0.2087
 1359WAT     H2 7242   2.035   5.879   6.299  1.3443 -1.2285  1.8604
 1359WAT    EPW 7243   2.104   5.891   6.247 -0.0305 -0.7293  0.0594
 1360WAT      O 7244   8.157   0.906   3.015 -0.0224 -0.0705 -0.6818
 1360WAT     H1 7245   8.214   0.955   2.956  0.2812  0.2016 -0.1783
 1360WAT     H2 7246   8.195   0.920   3.102 -1.3066  0.7967 -0.2218
 1360WAT    EPW 7247   8.170   0.914   3.019 -0.1516  0.0798 -0.5548
 1361WAT      O 7248   0.510   4.153   8.633 -0.3608 -0.1116  0.3712
 1361WAT     H1 7249   0.535   4.137   8.542 -2.3323 -1.2595 -0.0260
 1361WAT     H2 7250   0.535   4.244   8.648  2.1003 -0.5417 -0.5397
 1361WAT    EPW 7251   0.517   4.163   8.623 -0.2962 -0.3195  0.1993
 1362WAT      O 7252   1.333   7.330   8.946 -0.6279 -0.5792  0.3548
 1362WAT     H1 7253   1.364   7.268   9.013  0.7380 -0.0144  0.2826
 1362WAT     H2 7254   1.413   7.374   8.916 -1.6291  2.1112  1.2824
 1362WAT    EPW 7255   1.348   7.328   8.951 -0.5798 -0.1500  0.4683
 1363WAT      O 7256   3.253   9.153   2.113 -0.0362  0.2198 -0.3118
 1363WAT     H1 7257   3.239   9.099   2.191 -2.5554  0.8452 -0.2234
 1363WAT     H2 7258   3.348   9.161   2.105  0.3889 -2.6197  0.7469
 1363WAT    EPW 7259   3.263   9.147   2.122 -0.3124 -0.0720 -0.1605
 1364WAT      O 7260   1.275   7.045   0.447  0.5922  0.0722 -0.2388
 1364WAT     H1 7261   1.205   6.984   0.420  0.8090  1.0221 -3.2866
 1364WAT     H2 7262   1.325   6.996   0.512 -2.8279 -0.6643  2.1072
 1364WAT    EPW 7263   1.272   7.030   0.452  0.1698  0.1004 -0.3313
 1365WAT      O 7264   2.024   9.791   1.304 -0.1949 -0.2272 -0.2886
 1365WAT     H1 7265   2.014   9.784   1.209  0.2821 -1.1619 -0.2892
 1365WAT     H2 7266   2.013   9.701   1.335  1.4220 -0.2381  0.3501
 1365WAT    EPW 7267   2.021   9.778   1.296  0.0812 -0.3519 -0.2044
 1366WAT      O 7268   6.525   2.916   2.008 -0.4175 -0.0798  0.0440
 1366WAT     H1 7269   6.520   3.011   2.013 -0.5048 -0.0228 -0.8735
 1366WAT     H2 7270   6.453   2.892   1.950 -0.2102 -0.6770  0.0278
 1366WAT    EPW 7271   6.515   2.925   2.001 -0.4017 -0.1510 -0.0792
 1367WAT      O 7272   0.427   5.057   8.729 -0.0324  0.9808  0.5664
 1367WAT     H1 7273   0.499   5.079   8.669 -0.5122 -0.1636 -0.4684
 1367WAT     H2 7274   0.366   5.006   8.675 -1.0304  0.9029  1.7457
 1367WAT    EPW 7275   0.429   5.053   8.714 -0.2273  0.8197  0.5851
 1368WAT      O 7276   5.366   0.761   0.168 -0.5335 -0.4441  0.1068
 1368WAT     H1 7277   5.433   0.740   0.233 -0.2371  1.7667  0.5701
 1368WAT     H2 7278   5.398   0.839   0.124 -1.4867 -0.9919 -1.6558
 1368WAT    EPW 7279   5.379   0.768   0.171 -0.6199 -0.2248 -0.0646
 1369WAT      O 7280   1.879   4.309   8.733 -0.2617 -0.0184  0.0659
 1369WAT     H1 7281   1.921   4.224   8.727 -0.4096 -0.1937  1.2539
 1369WAT     H2 7282   1.935   4.360   8.791  0.2365  0.9726 -1.2325
 1369WAT    EPW 7283   1.892   4.305   8.740 -0.2155  0.0889  0.0510
 1370WAT      O 7284   7.546   6.586   8.842  0.1049 -0.5760  0.3992
 1370WAT     H1 7285   7.499   6.547   8.768 -1.9620 -1.0742  1.9149
 1370WAT     H2 7286   7.531   6.680   8.833  0.8595 -0.5163 -0.4295
 1370WAT    EPW 7287   7.538   6.593   8.831 -0.0679 -0.6340  0.4897
 1371WAT      O 7288   7.555   3.884   8.815  0.1470  0.1757  0.4884
 1371WAT     H1 7289   7.545   3.955   8.878 -1.8910  2.6836 -2.3847
 1371WAT     H2 7290   7.650   3.876   8.803  0.5048  0.8248  2.4958
 1371WAT    EPW 7291   7.566   3.892   8.822 -0.0744  0.5920  0.3748
 1372WAT      O 7292   4.659   8.544   1.293 -0.6291  0.1122 -0.5767
 1372WAT     H1 7293   4.574   8.566   1.257 -0.1279  1.7784 -0.8217
 1372WAT     H2 7294   4.640   8.508   1.380 -1.6140 -0.3727 -0.9831
 1372WAT    EPW 7295   4.646   8.542   1.300 -0.6926  0.2680 -0.6626
 1373WAT      O 7296   6.179   0.046   0.597 -0.0713  0.1442  0.5457
 1373WAT     H1 7297   6.236  -0.003   0.657  0.7663  0.4756  0.0419
 1373WAT     H2 7298   6.121  -0.020   0.560  2.6045 -1.0638 -1.9664
 1373WAT    EPW 7299   6.179   0.031   0.600  0.3920  0.0287  0.1479
 1374WAT      O 7300   9.818   5.061   6.972  0.4219  0.0098  0.5475
 1374WAT     H1 7301   9.901   5.052   6.926  0.9675  0.2887  1.4448
 1374WAT     H2 7302   9.821   5.149   7.009  1.7016 -1.3935  4.2592
 1374WAT    EPW 7303   9.829   5.071   6.971  0.6623 -0.1385  1.1554
 1375WAT      O 7304  10.176   2.594   8.344 -0.4651 -0.0859 -1.4409
 1375WAT     H1 7305  10.183   2.524   8.409 -1.8813 -0.5456 -1.7562
 1375WAT     H2 7306  10.149   2.549   8.263  0.1625  0.6279 -2.0625
 1375WAT    EPW 7307  10.174   2.579   8.342 -0.5698 -0.0526 -1.5650
 1376WAT      O 7308   4.330   7.646   1.851 -0.1814  0.3365  0.3532
 1376WAT     H1 7309   4.308   7.699   1.774 -1.5898 -0.5790  0.0879
 1376WAT     H2 7310   4.423   7.664   1.867 -0.2575  1.7287 -0.6149
 1376WAT    EPW 7311   4.340   7.656   1.843 -0.3772  0.3994  0.1904
 1377WAT      O 7312   0.561   5.924   8.659 -0.8560  0.2100 -0.2172
 1377WAT     H1 7313   0.549   5.829   8.665 -0.4275  0.0748 -1.1642
 1377WAT     H2 7314   0.552   5.956   8.749  0.8229 -0.9627  0.4323
 1377WAT    EPW 7315   0.558   5.916   8.672 -0.5780  0.0374 -0.2565
 1378WAT      O 7316   8.186   0.499   1.446 -0.3296  0.0124  0.1474
 1378WAT     H1 7317   8.110   0.446   1.469 -0.6240  0.6324  0.6298
 1378WAT     H2 7318   8.220   0.531   1.530  1.5295 -1.6647  0.1079
 1378WAT    EPW 7319   8.181   0.496   1.460 -0.1235 -0.1270  0.2058
 1379WAT      O 7320   7.168   3.965   6.350  0.4573  0.5143 -0.0020
 1379WAT     H1 7321   7.101   3.960   6.282  0.3452  2.2091 -0.0734
 1379WAT     H2 7322   7.120   3.992   6.428  0.4575 -2.1525  1.0168
 1379WAT    EPW 7323   7.153   3.968   6.351  0.4427  0.3860  0.1230
 1380WAT      O 7324   3.134   9.405   1.623 -0.4089  0.1842 -0.6177
 1380WAT     H1 7325   3.106   9.324   1.582 -0.8262  0.3584 -0.6747
 1380WAT     H2 7326   3.210   9.433   1.572  0.0049 -0.3960 -0.3310
 1380WAT    EPW 7327   3.141   9.398   1.611 -0.4094  0.1302 -0.5873
 1381WAT      O 7328   8.537   6.928   6.370 -0.2140 -0.8200 -0.5544
 1381WAT     H1 7329   8.588   6.847   6.358  0.7534 -0.1025 -1.5244
 1381WAT     H2 7330   8.549   6.949   6.463  1.2860 -0.6944 -0.7385
 1381WAT    EPW 7331   8.546   6.920   6.381  0.1111 -0.7086 -0.7067
 1382WAT      O 7332  10.095   6.458   7.640  0.0431 -0.2425 -0.3485
 1382WAT     H1 7333  10.006   6.493   7.640  0.4618  0.8570 -0.1277
 1382WAT     H2 7334  10.101   6.409   7.558  0.6178  3.3839 -2.7031
 1382WAT    EPW 7335  10.084   6.456   7.629  0.1736  0.3808 -0.6299
 1383WAT      O 7336   9.061   8.043   6.742 -0.7791  0.0855  0.3140
 1383WAT     H1 7337   9.020   8.124   6.771  0.0801  0.3232  0.8993
 1383WAT     H2 7338   9.088   7.999   6.823 -1.2974 -0.8254  0.0125
 1383WAT    EPW 7339   9.059   8.048   6.757 -0.7343 -0.0033  0.3514
 1384WAT      O 7340  10.409   6.394   7.637  0.3164 -0.3983 -0.4958
 1384WAT     H1 7341  10.337   6.389   7.699  1.2633  0.0195  0.6872
 1384WAT     H2 7342  10.485   6.362   7.686  1.0384 -0.3139 -1.5310
 1384WAT    EPW 7343  10.410   6.389   7.651  0.5364 -0.3319 -0.4761
 1385WAT      O 7344  10.559   5.304   0.756 -0.0119  0.6186 -0.4864
 1385WAT     H1 7345  10.505   5.293   0.678  0.7166  1.8551 -1.1968
 1385WAT     H2 7346  10.639   5.346   0.725  1.3997 -1.1350  0.5453
 1385WAT    EPW 7347  10.562   5.308   0.742  0.2699  0.5503 -0.4441
 1386WAT      O 7348  10.204   5.079   7.726  0.0457 -0.3361  0.2383
 1386WAT     H1 7349  10.272   5.029   7.682  1.0858 -0.8849  2.3481
 1386WAT     H2 7350  10.252   5.144   7.777 -0.7566 -2.0325  3.4153
 1386WAT    EPW 7351  10.220   5.081   7.727  0.0768 -0.6325  0.9353
 1387WAT      O 7352   1.833   5.688   7.394 -0.0005  0.6063 -0.6318
 1387WAT     H1 7353   1.818   5.758   7.331 -2.8924  0.6659 -0.0112
 1387WAT     H2 7354   1.808   5.725   7.479 -0.6393 -0.8522 -0.1435
 1387WAT    EPW 7355   1.828   5.702   7.397 -0.4662  0.4218 -0.4859
 1388WAT      O 7356  10.150   2.425   8.928 -0.0791 -0.4679  0.1199
 1388WAT     H1 7357  10.145   2.408   9.022  2.3792  0.9117  0.5743
 1388WAT     H2 7358  10.088   2.362   8.890 -0.8528 -1.3446  2.5961
 1388WAT    EPW 7359  10.141   2.414   8.935  0.1426 -0.4015  0.5069
 1389WAT      O 7360   9.114   6.809   6.109  0.1102 -0.1438  0.0295
 1389WAT     H1 7361   9.059   6.834   6.183  0.4533  2.6854 -0.5717
 1389WAT     H2 7362   9.203   6.833   6.137  0.0918  2.2946 -1.7038
 1389WAT    EPW 7363   9.118   6.815   6.123  0.1535  0.5510 -0.2785
 1390WAT      O 7364   6.554   9.897   3.135 -0.2150 -0.1297 -0.3226
 1390WAT     H1 7365   6.507   9.929   3.212  0.3931  0.9872 -0.3960
 1390WAT     H2 7366   6.485   9.884   3.069 -0.5538  0.4769 -0.0952
 1390WAT    EPW 7367   6.538   9.900   3.136 -0.1793  0.0973 -0.3023
 1391WAT      O 7368   2.962   9.658   5.263  0.1703 -0.0103  0.8252
 1391WAT     H1 7369   2.901   9.592   5.231  0.9307 -0.2842 -0.1120
 1391WAT     H2 7370   2.915   9.702   5.334 -2.7992  2.5070 -2.3434
 1391WAT    EPW 7371   2.948   9.655   5.268 -0.1209  0.2851  0.2837
 1392WAT      O 7372   1.154   7.558   8.904  0.3637  0.2435 -0.1404
 1392WAT     H1 7373   1.117   7.607   8.978  2.9674  4.1393 -1.1116
 1392WAT     H2 7374   1.225   7.506   8.942 -0.2963 -0.2541  0.4514
 1392WAT    EPW 7375   1.158   7.558   8.919  0.6201  0.6914 -0.1907
 1393WAT      O 7376   9.700   3.829   7.314  0.0049 -0.5654  0.0142
 1393WAT     H1 7377   9.731   3.919   7.309  0.6509 -0.7962 -0.3512
 1393WAT     H2 7378   9.611   3.832   7.278 -0.6780  0.2229  1.6876
 1393WAT    EPW 7379   9.693   3.841   7.308 -0.0005 -0.4919  0.1867
 1394WAT      O 7380   0.485   8.500   3.116  1.0374 -0.0858 -0.4488
 1394WAT     H1 7381   0.485   8.515   3.021 -2.1591  1.6874 -0.3179
 1394WAT     H2 7382   0.436   8.418   3.127  0.2406  0.3935 -0.3227
 1394WAT    EPW 7383   0.478   8.491   3.105  0.5107  0.2117 -0.4148
 1395WAT      O 7384   2.273  10.093   2.801 -0.2810 -0.5736 -0.0407
 1395WAT     H1 7385   2.235  10.073   2.715 -1.4735  2.7614 -0.4137
 1395WAT     H2 7386   2.345  10.030   2.810  0.5496 -0.4754 -3.9597
 1395WAT    EPW 7387   2.278  10.082   2.791 -0.3285 -0.1206 -0.6068
 1396WAT      O 7388   0.022   6.479   8.216 -0.0414 -0.0192 -0.3491
 1396WAT     H1 7389  -0.033   6.401   8.224 -1.1759  0.7971 -0.0102
 1396WAT     H2 7390  -0.039   6.552   8.209  0.9349  1.0666  1.3828
 1396WAT    EPW 7391   0.007   6.478   8.216 -0.0625  0.2315 -0.0758
 1397WAT      O 7392   9.584   5.760   8.166  0.2053 -0.7078 -1.4038
 1397WAT     H1 7393   9.609   5.708   8.243 -1.8327  2.8958  2.0877
 1397WAT     H2 7394   9.665   5.801   8.137  0.4788  1.8731  2.3583
 1397WAT    EPW 7395   9.598   5.759   8.173 -0.0277  0.1080 -0.4473
 1398WAT      O 7396  10.448   2.240   2.466  0.3867 -0.2192 -0.1981
 1398WAT     H1 7397  10.446   2.215   2.373  1.2434  0.8026 -0.5086
 1398WAT     H2 7398  10.464   2.334   2.464  2.5686 -0.5094  1.0222
 1398WAT    EPW 7399  10.450   2.249   2.453  0.7873 -0.1227 -0.0782
 1399WAT      O 7400   0.713   9.149   1.984 -0.0480  0.8448 -0.2303
 1399WAT     H1 7401   0.658   9.186   1.915  0.7540  0.0281 -1.3443
 1399WAT     H2 7402   0.730   9.059   1.955 -1.2420 -0.1843  1.9643
 1399WAT    EPW 7403   0.708   9.142   1.971 -0.0997  0.6018 -0.0878
 1400WAT      O 7404   1.754   7.466   7.375 -0.0932  0.5105 -0.0536
 1400WAT     H1 7405   1.833   7.464   7.321 -0.9188  0.4457 -1.2937
 1400WAT     H2 7406   1.787   7.461   7.465  1.4891  3.2226 -0.3627
 1400WAT    EPW 7407   1.769   7.465   7.380  0.0065  0.8600 -0.2580
 1401WAT      O 7408   6.783   0.088   4.237  0.1151 -0.0301  0.0026
 1401WAT     H1 7409   6.794   0.119   4.147  0.7797  0.7719  0.3476
 1401WAT     H2 7410   6.770   0.168   4.288 -2.6526 -0.5814  0.3287
 1401WAT    EPW 7411   6.782   0.103   4.232 -0.1621  0.0030  0.0908
 1402WAT      O 7412   1.589   4.931   6.844 -0.3376 -0.3573 -0.3824
 1402WAT     H1 7413   1.659   4.875   6.810  1.7140  0.7341  1.7144
 1402WAT     H2 7414   1.538   4.955   6.767  1.4665 -1.4059 -1.9917
 1402WAT    EPW 7415   1.592   4.927   6.829  0.1709 -0.3517 -0.3178
 1403WAT      O 7416  10.000   6.479   4.161  0.4510 -0.2113 -0.1668
 1403WAT     H1 7417  10.032   6.569   4.155  4.7715 -1.5402 -0.4846
 1403WAT     H2 7418  10.009   6.443   4.073  1.9580 -1.7526  0.5341
 1403WAT    EPW 7419  10.005   6.486   4.149  1.2197 -0.5901 -0.1163
 1404WAT      O 7420   2.180   4.604   7.450  0.2078 -0.2538  0.3480
 1404WAT     H1 7421   2.188   4.603   7.546 -0.4237  0.2013  0.4146
 1404WAT     H2 7422   2.195   4.514   7.423 -0.2267 -0.5062  0.9351
 1404WAT    EPW 7423   2.183   4.592   7.459  0.0671 -0.2267  0.4344
 1405WAT      O 7424   0.164   9.591   2.026  0.8790 -0.9587 -0.0767
 1405WAT     H1 7425   0.215   9.516   2.058  0.1994 -1.9245 -1.1765
 1405WAT     H2 7426   0.109   9.615   2.100  0.5682 -2.0506  0.0730
 1405WAT    EPW 7427   0.163   9.584   2.040  0.7484 -1.2302 -0.2019
 1406WAT      O 7428   6.161   1.292   0.643 -0.2727  1.1380  0.3555
 1406WAT     H1 7429   6.072   1.298   0.677  0.0981  1.4219  1.3159
 1406WAT     H2 7430   6.202   1.222   0.694  0.5869  2.2292  1.2436
 1406WAT    EPW 7431   6.155   1.284   0.655 -0.1104  1.3193  0.5993
 1407WAT      O 7432   1.077   9.025   0.546 -0.1982  0.7197 -0.5144
 1407WAT     H1 7433   1.017   8.953   0.570  0.2698  0.6385  0.4581
 1407WAT     H2 7434   1.151   8.981   0.505 -0.3318  0.7285 -0.7647
 1407WAT    EPW 7435   1.079   9.010   0.544 -0.1541  0.7100 -0.4192
 1408WAT      O 7436  10.159   6.442   8.035  0.1542 -0.4701 -0.6776
 1408WAT     H1 7437  10.077   6.395   8.048 -0.3156  0.4046 -0.3463
 1408WAT     H2 7438  10.133   6.535   8.036  1.3153 -0.1338  0.6980
 1408WAT    EPW 7439  10.145   6.448   8.037  0.2456 -0.3102 -0.4530
 1409WAT      O 7440   1.522   9.836   3.645  0.1586  0.3211  0.3840
 1409WAT     H1 7441   1.603   9.844   3.696  0.3170 -1.0738  0.3815
 1409WAT     H2 7442   1.457   9.803   3.707 -0.6476  2.1796  0.5848
 1409WAT    EPW 7443   1.524   9.833   3.660  0.0731  0.3824  0.4102
 1410WAT      O 7444   8.866   1.732   7.286  0.1503 -0.3988  0.2882
 1410WAT     H1 7445   8.883   1.826   7.297 -1.0196  0.3066 -2.7977
 1410WAT     H2 7446   8.771   1.727   7.274  0.4499 -1.5650 -2.2200
 1410WAT    EPW 7447   8.855   1.744   7.286  0.0358 -0.4597 -0.4497
 1411WAT      O 7448   9.820   6.794   7.786  0.1806  0.4623  0.4821
 1411WAT     H1 7449   9.908   6.785   7.749  1.1448  1.2312  2.4906
 1411WAT     H2 7450   9.762   6.771   7.713  2.0311 -2.7032 -0.2048
 1411WAT    EPW 7451   9.824   6.790   7.771  0.5517  0.1462  0.6564
 1412WAT      O 7452   4.802  10.342   2.963 -0.7670  0.4750  0.8639
 1412WAT     H1 7453   4.735  10.404   2.991 -0.6302  1.0943 -0.1014
 1412WAT     H2 7454   4.837  10.380   2.882 -0.7389 -0.9139  0.1947
 1412WAT    EPW 7455   4.798  10.356   2.956 -0.7451  0.3729  0.6484
 1413WAT      O 7456   9.959   7.143   6.185 -0.1695  0.6167  0.0100
 1413WAT     H1 7457   9.963   7.216   6.247 -0.0169  0.6890 -0.0832
 1413WAT     H2 7458   9.918   7.181   6.107 -2.3186  0.0173  0.7718
 1413WAT    EPW 7459   9.954   7.158   6.183 -0.4325  0.5474  0.0980
 1414WAT      O 7460   1.753   4.637   5.871  0.5935  0.3326 -1.0213
 1414WAT     H1 7461   1.772   4.543   5.868 -0.8417 -0.2256  2.6592
 1414WAT     H2 7462   1.706   4.654   5.789 -0.6523 -2.5835 -1.0375
 1414WAT    EPW 7463   1.749   4.627   5.860  0.2400 -0.1256 -0.5379
 1415WAT      O 7464  10.739   8.546   7.991 -0.3820 -0.0024  0.6572
 1415WAT     H1 7465  10.794   8.571   8.064 -0.0175  0.3572  0.2632
 1415WAT     H2 7466  10.731   8.450   7.998  0.7611 -0.1318  0.3918
 1415WAT    EPW 7467  10.745   8.536   8.001 -0.1836  0.0281  0.5703
 1416WAT      O 7468   7.264   7.825   7.269  0.0679  0.5178 -0.8242
 1416WAT     H1 7469   7.320   7.855   7.341 -0.1910 -0.4551 -0.1997
 1416WAT     H2 7470   7.324   7.814   7.195  0.0211  3.5752 -1.4368
 1416WAT    EPW 7471   7.279   7.827   7.269  0.0274  0.7927 -0.8228
 1417WAT      O 7472   4.367  10.260   0.427  0.0453  0.0460 -0.4973
 1417WAT     H1 7473   4.348  10.194   0.494  0.4355  1.7440  1.3960
 1417WAT     H2 7474   4.317  10.336   0.455  3.7105  2.3165  0.5731
 1417WAT    EPW 7475   4.358  10.261   0.440  0.5801  0.5693 -0.1064
 1418WAT      O 7476   9.335   7.228   6.906 -0.1837 -0.0981 -0.8236
 1418WAT     H1 7477   9.377   7.302   6.862  1.4842 -0.6370 -0.1744
 1418WAT     H2 7478   9.243   7.254   6.911  0.4986  2.3993  0.2490
 1418WAT    EPW 7479   9.328   7.241   6.901  0.1259  0.1605 -0.5965
 1419WAT      O 7480   6.867   1.501   0.387  0.3491  0.4122  0.0796
 1419WAT     H1 7481   6.946   1.472   0.342 -0.6788 -0.8003 -1.0457
 1419WAT     H2 7482   6.883   1.483   0.479  1.5350  0.6023 -0.0691
 1419WAT    EPW 7483   6.879   1.495   0.393  0.3700  0.2773 -0.0885
 1420WAT      O 7484   4.003   1.833   1.495  0.4733 -0.0853  0.5571
 1420WAT     H1 7485   4.097   1.813   1.491  0.4169 -0.2138 -0.2754
 1420WAT     H2 7486   3.962   1.767   1.440  0.3020  2.2544 -2.4410
 1420WAT    EPW 7487   4.010   1.822   1.487  0.4437  0.2062  0.0519
 1421WAT      O 7488   8.680   9.156   6.206 -0.1543  0.1530 -0.2529
 1421WAT     H1 7489   8.585   9.162   6.199 -0.1857  0.3309  0.2788
 1421WAT     H2 7490   8.704   9.083   6.148 -0.6655 -0.2382  0.0235
 1421WAT    EPW 7491   8.671   9.147   6.197 -0.2255  0.1249 -0.1462
 1422WAT      O 7492   9.805   6.536   6.045  0.9630 -0.6334 -0.0995
 1422WAT     H1 7493   9.835   6.620   6.079  0.5882 -0.7808  0.6037
 1422WAT     H2 7494   9.776   6.487   6.122  0.8849 -1.2888 -0.5357
 1422WAT    EPW 7495   9.805   6.540   6.060  0.9031 -0.7396 -0.0644
 1423WAT      O 7496   1.780   8.805   0.916 -0.6880  0.4574  0.4777
 1423WAT     H1 7497   1.751   8.717   0.891  1.2942 -0.4367  1.1033
 1423WAT     H2 7498   1.710   8.839   0.971 -1.4943 -0.7077  0.2034
 1423WAT    EPW 7499   1.767   8.798   0.920 -0.5329  0.1855  0.5240
 1424WAT      O 7500   8.738   3.461   7.356 -0.3244 -0.1353  0.2970
 1424WAT     H1 7501   8.693   3.543   7.334  1.4934  0.6214 -0.8446
 1424WAT     H2 7502   8.819   3.489   7.398  0.0118 -1.3868  0.5146
 1424WAT    EPW 7503   8.743   3.475   7.359 -0.0405 -0.2005  0.1752
 1425WAT      O 7504   0.129   9.979   0.363  0.4602  0.5221 -0.0708
 1425WAT     H1 7505   0.071   9.930   0.423 -3.9183  0.6526 -3.6782
 1425WAT     H2 7506   0.114  10.070   0.386 -1.5060  0.5919 -1.4153
 1425WAT    EPW 7507   0.119   9.984   0.374 -0.3766  0.5479 -0.7239
 1426WAT      O 7508   4.685   0.413   1.593 -0.1511  0.0996 -0.4585
 1426WAT     H1 7509   4.690   0.436   1.686  1.5396 -1.1151 -0.1864
 1426WAT     H2 7510   4.656   0.321   1.594 -0.0079  0.0458 -1.1047
 1426WAT    EPW 7511   4.682   0.404   1.606  0.0906 -0.0677 -0.5078
 1427WAT      O 7512   1.387   6.476   0.748  0.2275  0.3644 -0.0545
 1427WAT     H1 7513   1.319   6.540   0.770  1.4560  1.9482 -0.6001
 1427WAT     H2 7514   1.453   6.488   0.816 -0.4608 -1.9507  1.1292
 1427WAT    EPW 7515   1.387   6.486   0.760  0.2989  0.2680  0.0297
 1428WAT      O 7516   0.464   3.811   8.286  0.3069  0.3494 -0.0437
 1428WAT     H1 7517   0.419   3.856   8.215  2.4350  2.1844 -0.3430
 1428WAT     H2 7518   0.500   3.881   8.340  0.6016 -1.0168  1.6194
 1428WAT    EPW 7519   0.463   3.826   8.284  0.6265  0.4114  0.1369
 1429WAT      O 7520   2.701   5.218   7.869  0.4422 -0.0388  0.9294
 1429WAT     H1 7521   2.732   5.160   7.800 -1.3675  0.9340 -0.8055
 1429WAT     H2 7522   2.682   5.301   7.824 -1.5927  0.3902  2.4185
 1429WAT    EPW 7523   2.703   5.222   7.854 -0.0647  0.1462  0.8967
 1430WAT      O 7524   8.868   3.606   8.935 -0.1799  0.3372 -0.6714
 1430WAT     H1 7525   8.864   3.655   9.017 -0.8035  1.1377 -1.1558
 1430WAT     H2 7526   8.952   3.629   8.897  0.5658 -0.8478  0.2162
 1430WAT    EPW 7527   8.878   3.615   8.941 -0.1640  0.2865 -0.6180
 1431WAT      O 7528   0.029   9.143   2.963  0.0166 -0.6600  0.5375
 1431WAT     H1 7529   0.125   9.134   2.958  0.0166 -0.3944 -0.0431
 1431WAT     H2 7530  -0.000   9.063   3.006  0.4852 -0.8208  0.5656
 1431WAT    EPW 7531   0.038   9.132   2.968  0.0784 -0.6461  0.4646
 1432WAT      O 7532   1.319   3.382   7.899  0.5832 -0.1960 -0.4020
 1432WAT     H1 7533   1.295   3.439   7.826 -0.8780  0.0835  0.2622
 1432WAT     H2 7534   1.240   3.330   7.916  1.1427 -0.7752  0.5031
 1432WAT    EPW 7535   1.305   3.383   7.892  0.4643 -0.2354 -0.1953
 1433WAT      O 7536   2.042   9.837   0.779 -0.3337 -0.2571 -0.2244
 1433WAT     H1 7537   2.049   9.919   0.730 -4.0667  0.4601  0.1396
 1433WAT     H2 7538   2.095   9.851   0.857 -0.1212  1.4423 -0.6386
 1433WAT    EPW 7539   2.050   9.849   0.783 -0.7979  0.0620 -0.2310
 1434WAT      O 7540   9.713   8.361   8.252 -0.2466 -0.5061  0.0356
 1434WAT     H1 7541   9.638   8.302   8.260  0.1096 -1.0592 -0.6418
 1434WAT     H2 7542   9.674   8.448   8.244 -0.7821 -0.6625  0.7939
 1434WAT    EPW 7543   9.698   8.365   8.252 -0.2699 -0.5999  0.0463
 1435WAT      O 7544   6.400   1.902   3.547  0.5743  0.1670  0.2363
 1435WAT     H1 7545   6.370   1.957   3.620 -3.5761  1.1723 -1.9335
 1435WAT     H2 7546   6.455   1.960   3.494  2.7448 -0.2756  1.8251
 1435WAT    EPW 7547   6.404   1.917   3.550  0.3133  0.2412  0.1596
 1436WAT      O 7548   1.158   6.914   8.379 -0.7155 -0.1784  0.4590
 1436WAT     H1 7549   1.072   6.886   8.411 -0.1972 -2.4609  0.0379
 1436WAT     H2 7550   1.204   6.943   8.458 -1.6141  0.3776  0.7996
 1436WAT    EPW 7551   1.152   6.914   8.394 -0.7657 -0.4063  0.4482
 1437WAT      O 7552   8.395   5.787   4.361  0.6997 -0.3753  0.6566
 1437WAT     H1 7553   8.480   5.744   4.351  0.3384 -1.0478  0.3651
 1437WAT     H2 7554   8.354   5.742   4.435  0.2928 -0.5746  0.3129
 1437WAT    EPW 7555   8.401   5.775   4.369  0.5984 -0.4902  0.5729
 1438WAT      O 7556   7.535   8.236   5.363  0.4146  0.2701 -0.9384
 1438WAT     H1 7557   7.608   8.281   5.405  0.6654  1.0825 -2.2163
 1438WAT     H2 7558   7.527   8.154   5.412  1.9593  0.3150 -0.5682
 1438WAT    EPW 7559   7.544   8.231   5.375  0.6511  0.3824 -1.0583
 1439WAT      O 7560   9.910   7.161   8.176  0.1945 -0.2062 -0.2809
 1439WAT     H1 7561   9.928   7.093   8.240  1.5311 -0.3606 -0.8036
 1439WAT     H2 7562   9.953   7.239   8.210 -1.4375  0.4597  0.3787
 1439WAT    EPW 7563   9.918   7.162   8.189  0.1559 -0.1385 -0.2627
 1440WAT      O 7564   8.443   7.221   8.030  0.4019 -0.0740 -0.2428
 1440WAT     H1 7565   8.522   7.213   8.084  0.5758 -0.0059 -0.4888
 1440WAT     H2 7566   8.437   7.315   8.010  0.5303 -0.1491 -0.6333
 1440WAT    EPW 7567   8.453   7.233   8.035  0.4425 -0.0751 -0.3271
 1441WAT      O 7568   9.046   6.818   8.889  0.3089 -0.6829  0.7480
 1441WAT     H1 7569   9.088   6.889   8.939  0.4935 -1.9514  2.5111
 1441WAT     H2 7570   9.066   6.739   8.940  0.1756 -2.0230 -1.1910
 1441WAT    EPW 7571   9.054   6.817   8.902  0.3157 -1.0271  0.7248
 1442WAT      O 7572   9.416   8.354   8.247  0.1589  0.8479  0.4265
 1442WAT     H1 7573   9.339   8.401   8.281 -1.0276  0.0051 -0.9884
 1442WAT     H2 7574   9.394   8.262   8.257  0.1474  0.5647 -1.6756
 1442WAT    EPW 7575   9.403   8.348   8.253  0.0014  0.6995 -0.0372
 1443WAT      O 7576  10.461   7.702   8.522 -1.2460  0.2273 -0.4092
 1443WAT     H1 7577  10.493   7.620   8.483  0.5809  1.2102 -1.1141
 1443WAT     H2 7578  10.448   7.760   8.448  0.7672  1.6298  0.2306
 1443WAT    EPW 7579  10.464   7.699   8.507 -0.7401  0.5422 -0.4182
 1444WAT      O 7580   1.382   7.489   8.569  0.0406  0.5189  0.1591
 1444WAT     H1 7581   1.386   7.428   8.495  1.3141 -0.0118  0.6309
 1444WAT     H2 7582   1.395   7.575   8.529 -0.5460  0.3725 -0.3679
 1444WAT    EPW 7583   1.384   7.493   8.554  0.1311  0.4296  0.1521
 1445WAT      O 7584   5.865   1.941   0.365 -0.2819 -0.2748  0.2087
 1445WAT     H1 7585   5.865   1.967   0.273 -0.2779  1.9315  0.7715
 1445WAT     H2 7586   5.883   1.847   0.364 -1.1627 -0.4818 -2.0746
 1445WAT    EPW 7587   5.867   1.932   0.353 -0.3977 -0.0111 -0.0182
 1446WAT      O 7588  10.344   4.840   6.772  0.2746  0.4200  0.1293
 1446WAT     H1 7589  10.325   4.880   6.857  0.4100 -0.9862  0.8656
 1446WAT     H2 7590  10.300   4.755   6.776  0.4440  0.2522 -1.1420
 1446WAT    EPW 7591  10.336   4.834   6.784  0.3147  0.2122  0.0587
 1447WAT      O 7592  10.101   4.869   8.596 -0.3850  0.2540  0.1760
 1447WAT     H1 7593  10.024   4.861   8.541  0.5229 -2.2220 -0.8723
 1447WAT     H2 7594  10.135   4.779   8.603  1.4791  1.0179  1.9404
 1447WAT    EPW 7595  10.096   4.856   8.590 -0.0200  0.0284  0.2704
 1448WAT      O 7596   7.657   1.584   1.338 -0.1578  0.1932 -0.0668
 1448WAT     H1 7597   7.617   1.515   1.391  0.0468 -0.3329 -0.5837
 1448WAT     H2 7598   7.696   1.537   1.264 -1.8267  1.0226 -1.5749
 1448WAT    EPW 7599   7.657   1.569   1.335 -0.3510  0.2332 -0.3340
 1449WAT      O 7600  10.680   9.746   0.590 -0.1113  0.2907  0.1741
 1449WAT     H1 7601  10.711   9.763   0.679 -0.5318  1.2566  0.1469
 1449WAT     H2 7602  10.712   9.820   0.538  0.1501 -0.2774 -0.4853
 1449WAT    EPW 7603  10.688   9.758   0.595 -0.1326  0.3428  0.0835
 1450WAT      O 7604   9.492   3.486   6.612  0.2536 -0.5549  0.4509
 1450WAT     H1 7605   9.517   3.479   6.705 -1.4386 -3.0505  0.8235
 1450WAT     H2 7606   9.535   3.566   6.582  0.1898  0.8273  3.6002
 1450WAT    EPW 7607   9.501   3.496   6.621  0.0219 -0.7015  0.9153
 1451WAT      O 7608   0.224   5.105   7.002 -0.5189  0.6313  0.9667
 1451WAT     H1 7609   0.229   5.171   6.932  0.2903 -2.5078 -2.2342
 1451WAT     H2 7610   0.150   5.049   6.976  1.7970 -2.5216  0.6219
 1451WAT    EPW 7611   0.215   5.107   6.989 -0.1067 -0.1984  0.4990
 1452WAT      O 7612   5.203   1.446   0.712  0.0707  0.1781  0.5707
 1452WAT     H1 7613   5.140   1.450   0.641 -0.9598  2.2344  1.5114
 1452WAT     H2 7614   5.233   1.355   0.713 -3.2470 -1.0445  0.3769
 1452WAT    EPW 7615   5.198   1.434   0.703 -0.5026  0.2881  0.6692
 1453WAT      O 7616   1.974   5.329   6.003  0.0529  0.0727  0.2990
 1453WAT     H1 7617   2.059   5.325   6.046  0.0425 -2.5041  0.2700
 1453WAT     H2 7618   1.911   5.339   6.074  0.2864  0.1618  0.4931
 1453WAT    EPW 7619   1.977   5.330   6.018  0.0823 -0.2553  0.3207
 1454WAT      O 7620  10.795   4.539   7.247  0.8321  0.1472 -0.4041
 1454WAT     H1 7621  10.877   4.514   7.205  0.9533  0.7893 -0.5570
 1454WAT     H2 7622  10.755   4.456   7.274  0.5699 -0.3224 -2.1052
 1454WAT    EPW 7623  10.800   4.525   7.245  0.8135  0.1698 -0.6485
 1455WAT      O 7624   4.049   9.785   2.686  1.1234 -0.1102  0.4642
 1455WAT     H1 7625   4.139   9.815   2.694  1.5875 -1.5078  0.9078
 1455WAT     H2 7626   4.000   9.834   2.752  1.2179  1.7397 -0.7599
 1455WAT    EPW 7627   4.054   9.795   2.696  1.1973 -0.0501  0.3612
 1456WAT      O 7628   4.819   9.989   1.182 -0.1150  0.0998  0.1754
 1456WAT     H1 7629   4.814   9.979   1.087  0.4176 -0.1890  0.1788
 1456WAT     H2 7630   4.849   9.904   1.214 -1.3843 -0.1756  0.7060
 1456WAT    EPW 7631   4.822   9.977   1.174 -0.2120  0.0253  0.2459
 1457WAT      O 7632   4.841   9.510   0.572 -0.1992 -0.1558 -0.4739
 1457WAT     H1 7633   4.754   9.549   0.560 -0.7482 -2.0733 -4.5093
 1457WAT     H2 7634   4.876   9.503   0.483  3.5864 -0.7330  0.8788
 1457WAT    EPW 7635   4.834   9.515   0.558  0.2279 -0.4845 -0.8277
 1458WAT      O 7636   9.839   3.644   0.671 -1.0273  0.0987  0.0025
 1458WAT     H1 7637   9.822   3.724   0.621 -1.0925 -0.7708 -1.4235
 1458WAT     H2 7638   9.862   3.675   0.758 -0.4229  1.7044 -0.6895
 1458WAT    EPW 7639   9.840   3.658   0.676 -0.9561  0.1959 -0.2769
 1459WAT      O 7640   2.002   5.158   8.048  0.2755 -0.1473  0.4605
 1459WAT     H1 7641   2.006   5.237   8.102  1.1210 -0.8522  1.4771
 1459WAT     H2 7642   1.963   5.092   8.106  0.0893 -0.6193 -0.1905
 1459WAT    EPW 7643   1.997   5.160   8.063  0.3625 -0.3023  0.5093
 1460WAT      O 7644   8.727   5.551   7.350 -0.9560 -0.3873  0.1197
 1460WAT     H1 7645   8.793   5.481   7.353  1.2606  1.5950  0.3343
 1460WAT     H2 7646   8.695   5.557   7.441  1.2696  0.9888  0.8795
 1460WAT    EPW 7647   8.731   5.542   7.363 -0.3700  0.0558  0.2482
 1461WAT      O 7648   1.037   4.459   7.267  0.7238  0.1931 -0.0661
 1461WAT     H1 7649   1.046   4.530   7.203 -2.4883 -1.1187 -2.1988
 1461WAT     H2 7650   0.962   4.485   7.320 -0.3236 -1.4199 -0.7077
 1461WAT    EPW 7651   1.028   4.472   7.265  0.1619 -0.1926 -0.4320
 1462WAT      O 7652   9.208   2.542   1.640 -0.2409 -0.3477  0.2941
 1462WAT     H1 7653   9.206   2.454   1.602  0.9285 -0.2866  0.0529
 1462WAT     H2 7654   9.169   2.532   1.727  0.8138 -1.3117  0.6693
 1462WAT    EPW 7655   9.203   2.529   1.646  0.0525 -0.4668  0.3118
 1463WAT      O 7656   2.161   1.332   8.736 -0.2173  0.1659  0.4056
 1463WAT     H1 7657   2.221   1.382   8.791  1.4433 -2.8995  1.6367
 1463WAT     H2 7658   2.215   1.300   8.664 -1.5993  1.2919 -1.2285
 1463WAT    EPW 7659   2.176   1.334   8.734 -0.1806 -0.0899  0.3524
 1464WAT      O 7660  10.771   5.391   8.655 -0.3221 -0.2279 -0.2444
 1464WAT     H1 7661  10.751   5.343   8.736  0.6789 -0.1014  0.0873
 1464WAT     H2 7662  10.697   5.371   8.597 -0.9065 -0.5562  0.5934
 1464WAT    EPW 7663  10.758   5.382   8.658 -0.2675 -0.2546 -0.0901
 1465WAT      O 7664  10.127   8.121   8.830 -0.5637 -0.3395  0.3623
 1465WAT     H1 7665  10.128   8.121   8.925 -2.1464  0.2729  0.4155
 1465WAT     H2 7666  10.077   8.043   8.806  0.3860 -0.8527 -0.0051
 1465WAT    EPW 7667  10.121   8.111   8.839 -0.6475 -0.3266  0.3209
 1466WAT      O 7668   9.707   1.518   2.243  0.0263 -0.0946 -0.0480
 1466WAT     H1 7669   9.642   1.572   2.198  1.4571  2.8015  1.1173
 1466WAT     H2 7670   9.745   1.576   2.309  3.7834 -1.6381 -0.6118
 1466WAT    EPW 7671   9.703   1.533   2.246  0.7110  0.0837  0.0312
 1467WAT      O 7672   7.321   4.548   8.078 -0.0266  0.1491  0.3097
 1467WAT     H1 7673   7.355   4.486   8.014 -3.8166 -1.8867 -0.0140
 1467WAT     H2 7674   7.317   4.631   8.031 -0.7337 -0.8232 -1.4257
 1467WAT    EPW 7675   7.325   4.551   8.064 -0.6199 -0.2472  0.0381
 1468WAT      O 7676   9.619   4.810   5.800 -0.2028 -1.1705 -0.1341
 1468WAT     H1 7677   9.554   4.789   5.867  1.3909 -0.9599  1.5769
 1468WAT     H2 7678   9.638   4.903   5.814 -0.7189 -0.8006 -1.7262
 1468WAT    EPW 7679   9.613   4.819   5.811 -0.0610 -1.0939 -0.1185
 1469WAT      O 7680   8.356   2.090   1.529 -0.0725 -0.5619 -0.2098
 1469WAT     H1 7681   8.309   2.074   1.448  0.3672 -0.9740 -0.3843
 1469WAT     H2 7682   8.440   2.046   1.518 -0.3780 -1.4515  0.8430
 1469WAT    EPW 7683   8.361   2.082   1.517 -0.0548 -0.7336 -0.0939
 1470WAT      O 7684   7.142   5.417   6.109 -0.0977  0.1222  0.0898
 1470WAT     H1 7685   7.066   5.476   6.114 -0.1419  0.0015  0.9558
 1470WAT     H2 7686   7.115   5.349   6.048 -0.8501 -0.1424  0.7073
 1470WAT    EPW 7687   7.128   5.416   6.102 -0.2031  0.0713  0.2856
 1471WAT      O 7688   3.870   1.288   0.122 -0.2175  0.0704 -0.1299
 1471WAT     H1 7689   3.887   1.349   0.051 -0.6635  0.6387  0.2441
 1471WAT     H2 7690   3.890   1.337   0.202 -0.0347 -0.4553  0.1582
 1471WAT    EPW 7691   3.875   1.302   0.123 -0.2522  0.0759 -0.0426
 1472WAT      O 7692   8.950   9.735   8.567 -0.6749  0.4736 -0.8749
 1472WAT     H1 7693   8.951   9.642   8.545  0.0823  0.7651 -2.2105
 1472WAT     H2 7694   8.906   9.777   8.493  0.3217  1.3181 -1.0170
 1472WAT    EPW 7695   8.945   9.729   8.554 -0.4435  0.6232 -1.0700
 1473WAT      O 7696   2.616   3.017   8.663 -0.0310 -0.5223  0.3094
 1473WAT     H1 7697   2.661   3.102   8.669  0.0219 -0.4033 -1.2506
 1473WAT     H2 7698   2.530   3.039   8.626 -0.4619 -1.0320  0.9899
 1473WAT    EPW 7699   2.610   3.031   8.659 -0.0807 -0.5738  0.1931
 1474WAT      O 7700   5.308   9.298   2.218 -0.0384  0.7407 -0.2592
 1474WAT     H1 7701   5.257   9.238   2.273 -0.4441  1.1971 -0.1291
 1474WAT     H2 7702   5.388   9.314   2.268  0.3342 -0.1417 -0.5557
 1474WAT    EPW 7703   5.312   9.292   2.232 -0.0427  0.6847 -0.2811
 1475WAT      O 7704   9.440   0.945   0.156  0.4259  0.4413  0.5437
 1475WAT     H1 7705   9.391   0.867   0.132  1.9299 -0.8949  1.6448
 1475WAT     H2 7706   9.380   1.018   0.138  0.2729 -0.5370 -4.2701
 1475WAT    EPW 7707   9.426   0.945   0.150  0.6037  0.1360  0.0540
 1476WAT      O 7708   5.975   2.879   1.467  0.5551  0.9564  0.2341
 1476WAT     H1 7709   5.909   2.870   1.536 -3.0929  3.6573 -2.4817
 1476WAT     H2 7710   6.031   2.950   1.498 -0.2138  1.2526  1.0088
 1476WAT    EPW 7711   5.973   2.888   1.480 -0.0274  1.3517 -0.0219
 1477WAT      O 7712   0.918   9.368   8.780 -0.2276  0.8259  0.2769
 1477WAT     H1 7713   0.881   9.378   8.868 -0.4503 -0.3881  0.3350
 1477WAT     H2 7714   0.844   9.341   8.726  0.1913  0.1897  0.0104
 1477WAT    EPW 7715   0.904   9.366   8.785 -0.2017  0.5817  0.2494
 1478WAT      O 7716   9.896   7.297   5.945 -0.1110 -0.0431 -0.7928
 1478WAT     H1 7717   9.892   7.289   5.849 -1.2462 -0.3596 -0.7354
 1478WAT     H2 7718   9.882   7.390   5.962 -2.5899 -0.3410 -0.8586
 1478WAT    EPW 7719   9.894   7.308   5.935 -0.5879 -0.1240 -0.7937
 1479WAT      O 7720  10.628   5.887   7.130  0.0789 -0.0475  0.5048
 1479WAT     H1 7721  10.560   5.946   7.095 -0.5726  1.0594  3.3901
 1479WAT     H2 7722  10.601   5.870   7.220  0.6861 -4.2526  0.0734
 1479WAT    EPW 7723  10.615   5.893   7.137  0.0725 -0.4563  0.8287
 1480WAT      O 7724   1.072  10.242   0.058 -1.2096  0.1959 -0.1609
 1480WAT     H1 7725   1.160  10.232   0.094 -1.6051  1.4912  1.3130
 1480WAT     H2 7726   1.081  10.222  -0.035  0.6132  0.1587 -0.0085
 1480WAT    EPW 7727   1.084  10.238   0.050 -1.0213  0.3614  0.0536
 1481WAT      O 7728   9.985   7.997   8.519 -0.0345 -1.1119  0.4814
 1481WAT     H1 7729   9.973   7.903   8.532 -1.4595 -0.9057  0.7714
 1481WAT     H2 7730   9.935   8.038   8.589 -0.4306 -0.1211 -0.3449
 1481WAT    EPW 7731   9.977   7.990   8.530 -0.2742 -0.9542  0.4110
 1482WAT      O 7732  10.630   5.274   7.250  0.1401 -0.6080 -0.1845
 1482WAT     H1 7733  10.609   5.183   7.230 -0.4879 -0.8809  1.5028
 1482WAT     H2 7734  10.716   5.288   7.212  0.5945 -2.1656  0.1962
 1482WAT    EPW 7735  10.638   5.264   7.242  0.1173 -0.8495  0.0880
 1483WAT      O 7736   7.112   6.568   8.603  0.7616  0.3552  0.4693
 1483WAT     H1 7737   7.102   6.661   8.587 -0.2473  0.3571  0.9836
 1483WAT     H2 7738   7.064   6.526   8.530  0.6176  0.2608  0.6158
 1483WAT    EPW 7739   7.104   6.574   8.591  0.6094  0.3426  0.5569
 1484WAT      O 7740   8.208  10.295   7.495  0.5132  0.7447  0.3180
 1484WAT     H1 7741   8.131  10.264   7.448  1.3725 -0.2457 -0.4713
 1484WAT     H2 7742   8.226  10.381   7.457  0.8469  0.2080 -0.7766
 1484WAT    EPW 7743   8.201  10.302   7.484  0.6709  0.5431  0.0696
 1485WAT      O 7744   0.321   6.578   6.983 -0.9112 -0.0331  0.5209
 1485WAT     H1 7745   0.321   6.632   7.062  3.8419 -0.8668  1.3633
 1485WAT     H2 7746   0.335   6.489   7.015  2.9923 -0.1953 -1.1270
 1485WAT    EPW 7747   0.323   6.573   6.998  0.2305 -0.1643  0.4146
 1486WAT      O 7748   9.411   4.036   6.079  0.2041 -0.2188 -0.2158
 1486WAT     H1 7749   9.371   4.071   6.158  2.6014  1.0342  0.5473
 1486WAT     H2 7750   9.338   4.002   6.028 -1.9830  2.9452  0.5126
 1486WAT    EPW 7751   9.396   4.036   6.082  0.2317  0.3638 -0.0188
 1487WAT      O 7752   9.436   6.523   8.100 -0.0709  0.2453  0.7177
 1487WAT     H1 7753   9.434   6.605   8.149 -1.1309  1.0107 -0.5478
 1487WAT     H2 7754   9.410   6.457   8.164  0.0644  0.9930  1.5713
 1487WAT    EPW 7755   9.432   6.525   8.115 -0.1926  0.4449  0.6633
 1488WAT      O 7756   6.924   3.166   3.112 -0.0023 -0.6277 -0.2799
 1488WAT     H1 7757   6.842   3.117   3.111  0.5942 -1.7019  0.7172
 1488WAT     H2 7758   6.912   3.233   3.179 -0.0782 -0.7519 -0.1707
 1488WAT    EPW 7759   6.912   3.168   3.121  0.0663 -0.7857 -0.1340
 1489WAT      O 7760   1.637   4.536   4.818  0.2457 -0.1244  0.1899
 1489WAT     H1 7761   1.724   4.513   4.850 -0.4911 -0.2113  2.2842
 1489WAT     H2 7762   1.611   4.612   4.869 -2.6687 -2.7257  3.0676
 1489WAT    EPW 7763   1.645   4.543   4.829 -0.2359 -0.4790  0.8457
 1490WAT      O 7764   6.943   1.120   0.371 -1.0329 -0.2458 -0.4010
 1490WAT     H1 7765   6.935   1.034   0.331  0.1451 -0.4953 -0.1497
 1490WAT     H2 7766   6.931   1.182   0.299 -3.2575 -0.5454 -0.3554
 1490WAT    EPW 7767   6.941   1.117   0.356 -1.1711 -0.3182 -0.3618
 1491WAT      O 7768  10.129   8.613   6.744 -0.2235 -0.2135  0.0857
 1491WAT     H1 7769  10.142   8.531   6.698  0.1545  0.3058 -0.7569
 1491WAT     H2 7770  10.034   8.619   6.756 -0.6558  0.7685 -2.8493
 1491WAT    EPW 7771  10.118   8.603   6.739 -0.2308 -0.0153 -0.4125
 1492WAT      O 7772   9.035   5.624   7.502 -0.4724  0.0217 -0.4315
 1492WAT     H1 7773   9.089   5.603   7.578  1.8041  3.2578 -0.9412
 1492WAT     H2 7774   8.953   5.657   7.540  0.1787  0.5025  0.6112
 1492WAT    EPW 7775   9.031   5.626   7.517 -0.0863  0.5119 -0.3612
 1493WAT      O 7776   1.314   5.928   7.921 -0.2897  0.1684 -0.7946
 1493WAT     H1 7777   1.269   5.873   7.986  0.7152 -1.4086 -1.4007
 1493WAT     H2 7778   1.321   6.013   7.964 -1.0716 -0.3969  0.5302
 1493WAT    EPW 7779   1.309   5.932   7.936 -0.2603 -0.1142 -0.7002
 1494WAT      O 7780   4.352   0.686   1.535 -0.7502 -0.3746 -0.4606
 1494WAT     H1 7781   4.417   0.754   1.554 -1.8477  0.8616 -0.9764
 1494WAT     H2 7782   4.327   0.701   1.444 -1.6175 -0.9629 -0.3321
 1494WAT    EPW 7783   4.357   0.697   1.526 -1.0095 -0.2891 -0.5116
 1495WAT      O 7784   6.891   2.783   4.360 -0.1239  0.8318  0.0404
 1495WAT     H1 7785   6.798   2.791   4.338  0.2553 -0.6828 -2.5150
 1495WAT     H2 7786   6.934   2.846   4.301  0.5955  0.2244 -0.0905
 1495WAT    EPW 7787   6.884   2.793   4.349  0.0212  0.5521 -0.3140
 1496WAT      O 7788   2.515   6.123   6.431  0.5101 -0.4168 -0.3666
 1496WAT     H1 7789   2.594   6.090   6.473  0.9982  0.4913 -0.5490
 1496WAT     H2 7790   2.511   6.077   6.347  2.0177  1.0374 -1.3000
 1496WAT    EPW 7791   2.525   6.113   6.425  0.7733 -0.1051 -0.5136
 1497WAT      O 7792   6.485   7.418   1.460  0.2156 -0.0964  0.5163
 1497WAT     H1 7793   6.539   7.346   1.426 -0.0337  0.3317 -0.8654
 1497WAT     H2 7794   6.441   7.381   1.536  0.1197 -1.3965 -0.1438
 1497WAT    EPW 7795   6.487   7.404   1.465  0.1700 -0.2117  0.2470
 1498WAT      O 7796   3.919   8.454   2.565  0.2201  0.5102  0.1710
 1498WAT     H1 7797   3.863   8.380   2.590  0.9139 -0.6555 -1.4833
 1498WAT     H2 7798   3.858   8.518   2.528 -0.3864  0.7862  1.5710
 1498WAT    EPW 7799   3.903   8.453   2.563  0.2316  0.3934  0.1374
 1499WAT      O 7800  10.187   7.678   7.796  0.4148  0.0453  0.2199
 1499WAT     H1 7801  10.231   7.650   7.715  1.4269 -0.4489  0.9205
 1499WAT     H2 7802  10.094   7.676   7.774  0.6632 -0.2354 -0.8926
 1499WAT    EPW 7803  10.181   7.674   7.782  0.5813 -0.0567  0.1657
 1500WAT      O 7804   9.049   6.181   5.631  0.1916  0.5091  0.2731
 1500WAT     H1 7805   9.091   6.141   5.555  1.9026 -0.6892  1.7577
 1500WAT     H2 7806   9.119   6.188   5.696 -1.2929  1.0730  1.8927
 1500WAT    EPW 7807   9.064   6.176   5.629  0.2213  0.4253  0.6826
 1501WAT      O 7808   0.453   9.996   7.217 -0.1420  0.4533 -0.1582
 1501WAT     H1 7809   0.542  10.009   7.184  0.1946 -1.2601 -0.0406
 1501WAT     H2 7810   0.399  10.057   7.166  1.1005  1.6094 -0.1367
 1501WAT    EPW 7811   0.457  10.006   7.206  0.0662  0.3800 -0.1397
 1502WAT      O 7812   9.626   2.189   8.339 -0.4845 -0.2668 -0.3080
 1502WAT     H1 7813   9.703   2.198   8.396 -0.8799  0.4376  0.1284
 1502WAT     H2 7814   9.661   2.192   8.250 -0.0130  0.1170 -0.1136
 1502WAT    EPW 7815   9.641   2.191   8.335 -0.4749 -0.1231 -0.2251
 1503WAT      O 7816   5.567   3.336   0.476 -0.0904  0.1807 -0.4844
 1503WAT     H1 7817   5.491   3.345   0.534 -1.6319  1.3076 -2.5413
 1503WAT     H2 7818   5.573   3.242   0.460  1.6356 -0.4733  2.9203
 1503WAT    EPW 7819   5.558   3.324   0.482 -0.0663  0.2431 -0.3066
 1504WAT      O 7820  10.094   6.749   8.841  0.5881 -0.1905 -0.1860
 1504WAT     H1 7821  10.168   6.765   8.900  1.0715 -1.5842 -0.3710
 1504WAT     H2 7822  10.063   6.661   8.865 -0.9408  0.3147 -0.1920
 1504WAT    EPW 7823  10.100   6.739   8.852  0.4497 -0.3080 -0.2112
 1505WAT      O 7824   5.596   0.621   0.311  0.1515 -0.0021  0.3403
 1505WAT     H1 7825   5.686   0.655   0.307 -0.5221  1.7837 -1.1793
 1505WAT     H2 7826   5.607   0.526   0.316  2.1271  0.2140  0.9061
 1505WAT    EPW 7827   5.610   0.613   0.311  0.3233  0.2619  0.2145
 1506WAT      O 7828   6.716   1.134   0.912 -0.3308  0.2143  0.4808
 1506WAT     H1 7829   6.630   1.112   0.876 -0.8584  0.5653  1.5134
 1506WAT     H2 7830   6.762   1.050   0.913 -0.3416  0.1635 -0.8630
 1506WAT    EPW 7831   6.711   1.120   0.907 -0.4020  0.2539  0.4397
 1507WAT      O 7832   2.179  10.216   4.574  0.9502 -0.3606 -0.4610
 1507WAT     H1 7833   2.129  10.137   4.595  0.3855  0.1675  0.2888
 1507WAT     H2 7834   2.247  10.219   4.641 -1.1374  1.5785  1.8212
 1507WAT    EPW 7835   2.181  10.206   4.586  0.6003 -0.0353 -0.0613
 1508WAT      O 7836   4.327   9.946   7.219  0.0790 -0.4037  0.5764
 1508WAT     H1 7837   4.353   9.856   7.201 -1.3558 -1.3891  3.0033
 1508WAT     H2 7838   4.394   9.980   7.278  0.0105 -0.2624  0.5744
 1508WAT    EPW 7839   4.339   9.939   7.224 -0.1190 -0.5150  0.8962
 1509WAT      O 7840   8.286   7.747   6.234  0.7617  0.1034 -0.3192
 1509WAT     H1 7841   8.369   7.790   6.213  0.3641  0.6989 -0.7155
 1509WAT     H2 7842   8.310   7.677   6.295  1.3903  1.0486  0.5578
 1509WAT    EPW 7843   8.300   7.743   6.239  0.7920  0.3066 -0.2558
 1510WAT      O 7844   9.088   3.373   8.003  1.2010  0.5174  0.2137
 1510WAT     H1 7845   9.028   3.323   8.058 -0.6588  0.7009 -1.5087
 1510WAT     H2 7846   9.114   3.447   8.056 -0.0093  0.3463  1.0795
 1510WAT    EPW 7847   9.083   3.376   8.017  0.7958  0.5192  0.1011
 1511WAT      O 7848   3.127   0.924   4.883 -0.5053 -0.2799 -0.4641
 1511WAT     H1 7849   3.044   0.882   4.861 -1.3360  1.7385 -1.4415
 1511WAT     H2 7850   3.118   0.948   4.975  0.3974 -3.0424  0.4169
 1511WAT    EPW 7851   3.115   0.922   4.892 -0.4958 -0.3781 -0.4768
 1512WAT      O 7852   2.135   6.869   1.567  0.1789 -0.5281  0.1262
 1512WAT     H1 7853   2.224   6.898   1.584 -0.0379 -0.0941  0.5506
 1512WAT     H2 7854   2.091   6.946   1.530  0.6682 -1.4582 -2.6671
 1512WAT    EPW 7855   2.141   6.883   1.564  0.2149 -0.5937 -0.1863
 1513WAT      O 7856   6.706   2.269   8.227 -0.1333 -0.7656 -0.4640
 1513WAT     H1 7857   6.707   2.355   8.186  0.5540 -0.0592  0.9777
 1513WAT     H2 7858   6.613   2.250   8.239 -0.2789  0.0123 -0.3098
 1513WAT    EPW 7859   6.693   2.278   8.223 -0.0620 -0.5698 -0.2532
 1514WAT      O 7860   0.247   1.016   7.797 -0.5395 -0.1793  0.2409
 1514WAT     H1 7861   0.200   1.100   7.796 -0.2277  0.0250 -2.1422
 1514WAT     H2 7862   0.203   0.966   7.866 -2.9346  0.7554 -0.4958
 1514WAT    EPW 7863   0.235   1.020   7.806 -0.8143 -0.0291 -0.1705
 1515WAT      O 7864   2.064   7.383   2.007  0.1668 -0.0303  0.7425
 1515WAT     H1 7865   2.081   7.381   2.101  2.3548 -2.8452  0.3978
 1515WAT     H2 7866   2.124   7.450   1.974 -1.0095  1.3794  1.3372
 1515WAT    EPW 7867   2.074   7.392   2.015  0.3004 -0.2158  0.7755
 1516WAT      O 7868   6.111   9.300   8.867  0.3586 -0.9025  0.5514
 1516WAT     H1 7869   6.177   9.349   8.916 -1.9376  1.2712  1.7225
 1516WAT     H2 7870   6.147   9.292   8.779  2.1060  0.2886  1.1120
 1516WAT    EPW 7871   6.124   9.305   8.862  0.2863 -0.4592  0.7801
 1517WAT      O 7872   5.754   0.217   1.381 -0.4800  0.0010 -0.4318
 1517WAT     H1 7873   5.670   0.264   1.385 -0.3195  0.6978 -3.0741
 1517WAT     H2 7874   5.819   0.287   1.370  0.3472 -0.5996  0.5149
 1517WAT    EPW 7875   5.751   0.233   1.380 -0.3498  0.0137 -0.6555
 1518WAT      O 7876   7.403   1.094   8.594  0.5250  0.2544 -1.2004
 1518WAT     H1 7877   7.498   1.095   8.593  0.5440 -0.3328 -0.5176
 1518WAT     H2 7878   7.379   1.004   8.570  0.1846 -0.0228  0.0951
 1518WAT    EPW 7879   7.412   1.082   8.590  0.4823  0.1404 -0.9398
 1519WAT      O 7880   1.464   1.657   8.162  0.6851  0.2253 -0.1322
 1519WAT     H1 7881   1.522   1.609   8.102  1.0053  0.2496  0.1567
 1519WAT     H2 7882   1.388   1.600   8.172  0.6334  0.2140 -0.5507
 1519WAT    EPW 7883   1.462   1.643   8.155  0.7206  0.2270 -0.1497
 1520WAT      O 7884   9.780   0.485   6.985  0.2083 -0.7982  0.2548
 1520WAT     H1 7885   9.787   0.496   7.080 -1.2790  0.1107  0.2979
 1520WAT     H2 7886   9.838   0.551   6.948  0.6500 -1.0342  0.5193
 1520WAT    EPW 7887   9.789   0.495   6.993  0.0706 -0.7094  0.2956
 1521WAT      O 7888   8.391   9.624   6.594  0.0789  0.2412  0.0773
 1521WAT     H1 7889   8.297   9.642   6.603  0.6162  2.5658  2.0517
 1521WAT     H2 7890   8.414   9.661   6.509 -0.4307  1.6470  0.5228
 1521WAT    EPW 7891   8.382   9.631   6.584  0.0825  0.7334  0.3967
 1522WAT      O 7892   3.463   5.512   1.755 -0.4569  0.0406  0.0586
 1522WAT     H1 7893   3.408   5.498   1.833 -3.2495 -1.6669 -2.0377
 1522WAT     H2 7894   3.415   5.578   1.704 -0.2282 -0.9366 -1.4881
 1522WAT    EPW 7895   3.449   5.519   1.759 -0.7950 -0.3138 -0.4219
 1523WAT      O 7896   6.733   0.099   8.238 -0.2526  0.1473 -0.7463
 1523WAT     H1 7897   6.821   0.136   8.231  0.0857 -0.3162  0.7696
 1523WAT     H2 7898   6.675   0.176   8.239  0.3464  0.6223  0.9299
 1523WAT    EPW 7899   6.737   0.114   8.237 -0.1287  0.1488 -0.3252
 1524WAT      O 7900   6.932   1.652   7.088  0.1875 -0.0266 -0.4791
 1524WAT     H1 7901   6.889   1.737   7.094  1.4051  0.5204  1.8386
 1524WAT     H2 7902   7.025   1.672   7.100  0.4239 -1.7320  1.0121
 1524WAT    EPW 7903   6.939   1.666   7.091  0.3793 -0.1794  0.0231
 1525WAT      O 7904   5.534   1.528   6.080  0.1066  0.3648  0.3633
 1525WAT     H1 7905   5.594   1.465   6.042 -0.3036  0.8860 -1.2363
 1525WAT     H2 7906   5.552   1.525   6.174 -1.7368 -4.1147  0.8369
 1525WAT    EPW 7907   5.544   1.519   6.088 -0.1905 -0.1572  0.2148
 1526WAT      O 7908   6.559   8.179   8.585 -0.6355 -0.1776 -0.3575
 1526WAT     H1 7909   6.491   8.118   8.559  0.2084 -0.9416 -0.8305
 1526WAT     H2 7910   6.631   8.164   8.523  0.8083 -0.9403  1.3867
 1526WAT    EPW 7911   6.560   8.169   8.574 -0.3338 -0.3786 -0.1903
 1527WAT      O 7912  10.273   2.446   8.073  0.1798  0.1681 -0.0206
 1527WAT     H1 7913  10.299   2.378   8.136 -0.0743 -0.3839 -0.4936
 1527WAT     H2 7914  10.182   2.424   8.051 -0.1948  1.1690  0.4578
 1527WAT    EPW 7915  10.264   2.434   8.078  0.0968  0.2272 -0.0205
 1528WAT      O 7916   9.681   5.140   3.885 -0.1562 -0.2895  0.3362
 1528WAT     H1 7917   9.615   5.174   3.946  0.0780  1.7297 -0.4495
 1528WAT     H2 7918   9.630   5.096   3.817 -0.3743 -4.1483  2.6851
 1528WAT    EPW 7919   9.665   5.139   3.884 -0.1540 -0.5324  0.5425
 1529WAT      O 7920   6.644   9.767   6.433 -0.6322 -0.5985  0.2422
 1529WAT     H1 7921   6.615   9.819   6.509  1.0525 -0.5724  0.9002
 1529WAT     H2 7922   6.566   9.762   6.377 -1.4038  0.9441  1.1043
 1529WAT    EPW 7923   6.630   9.774   6.436 -0.5119 -0.3915  0.4427
 1530WAT      O 7924  10.215   2.527   5.975  0.1760 -0.0131 -0.1209
 1530WAT     H1 7925  10.297   2.512   6.022 -1.0424  0.0215  2.1013
 1530WAT     H2 7926  10.165   2.447   5.986 -0.5774  0.3975 -0.4707
 1530WAT    EPW 7927  10.219   2.515   5.982 -0.0844  0.0457  0.1261
 1531WAT      O 7928   1.537   3.857   8.147 -0.3688  0.5459 -0.4115
 1531WAT     H1 7929   1.559   3.769   8.178 -0.7391  0.9155  0.9442
 1531WAT     H2 7930   1.592   3.915   8.199 -1.0582  1.1935 -0.3945
 1531WAT    EPW 7931   1.547   3.853   8.158 -0.5085  0.6801 -0.2313
 1532WAT      O 7932   8.615   2.308   6.618  0.4862 -0.5622 -0.4358
 1532WAT     H1 7933   8.683   2.370   6.593 -0.1676 -0.3222 -1.7229
 1532WAT     H2 7934   8.541   2.329   6.561 -1.7990  1.1740  2.8282
 1532WAT    EPW 7935   8.614   2.319   6.607  0.0987 -0.3016 -0.1752
 1533WAT      O 7936  10.133   0.241   4.663 -0.0557 -0.0093  0.2085
 1533WAT     H1 7937  10.202   0.292   4.619  1.3321 -1.7437  0.2688
 1533WAT     H2 7938  10.179   0.194   4.733 -1.2693 -1.3252  0.1657
 1533WAT    EPW 7939  10.148   0.242   4.667 -0.0324 -0.4116  0.2108
 1534WAT      O 7940   5.353   9.889   6.999 -0.4820 -0.3591 -0.8604
 1534WAT     H1 7941   5.283   9.952   6.980 -0.6971 -0.9184 -1.9619
 1534WAT     H2 7942   5.413   9.896   6.925  0.4590 -0.1426 -0.0966
 1534WAT    EPW 7943   5.351   9.898   6.987 -0.3862 -0.4039 -0.9053
 1535WAT      O 7944   3.462   9.014   7.585  0.2449  0.0516  0.5100
 1535WAT     H1 7945   3.398   9.073   7.546  2.4639  0.7358 -2.5347
 1535WAT     H2 7946   3.459   8.936   7.529  1.8528  0.0336  0.4047
 1535WAT    EPW 7947   3.453   9.011   7.572  0.7497  0.1392  0.0947
 1536WAT      O 7948   2.073   5.648   0.447  0.3346 -0.1121 -0.2782
 1536WAT     H1 7949   2.168   5.637   0.458  0.9265  3.3867 -0.7547
 1536WAT     H2 7950   2.049   5.713   0.512 -1.1420  1.2132 -2.0391
 1536WAT    EPW 7951   2.082   5.655   0.457  0.2179  0.5240 -0.5733
 1537WAT      O 7952  10.651   3.966   7.255 -0.3361  0.4303  0.2896
 1537WAT     H1 7953  10.570   3.927   7.220 -1.1126  0.4381  1.9838
 1537WAT     H2 7954  10.635   3.973   7.349  0.7238  2.6648  0.3569
 1537WAT    EPW 7955  10.638   3.962   7.263 -0.2985  0.7260  0.5219
 1538WAT      O 7956   9.816   3.081   6.053 -0.1124  0.6390  0.0104
 1538WAT     H1 7957   9.762   3.015   6.096  0.7753  0.1154  0.3479
 1538WAT     H2 7958   9.906   3.055   6.072  0.2644  2.1005  0.3933
 1538WAT    EPW 7959   9.821   3.069   6.061  0.0539  0.7627  0.1051
 1539WAT      O 7960   6.744   0.340   7.279  0.0849  0.6137 -0.2489
 1539WAT     H1 7961   6.819   0.296   7.237  0.0449  0.8008 -0.5208
 1539WAT     H2 7962   6.679   0.347   7.209 -0.8923 -1.1294  0.4122
 1539WAT    EPW 7963   6.745   0.335   7.264 -0.0491  0.4084 -0.1979
 1540WAT      O 7964   4.554  10.211   5.654 -0.4105  0.0960 -0.4592
 1540WAT     H1 7965   4.475  10.192   5.705  0.1258 -1.1475 -0.0503
 1540WAT     H2 7966   4.622  10.158   5.695  0.4208  0.3807 -1.4322
 1540WAT    EPW 7967   4.553  10.202   5.666 -0.2301 -0.0305 -0.5336
 1541WAT      O 7968   2.320   9.380   8.692 -0.2321 -0.2082  0.4652
 1541WAT     H1 7969   2.260   9.361   8.764 -1.3177  0.6938 -0.1547
 1541WAT     H2 7970   2.287   9.327   8.619 -2.5504  2.7833 -0.9224
 1541WAT    EPW 7971   2.308   9.370   8.692 -0.6810  0.3057  0.2007
 1542WAT      O 7972   7.707   0.589   7.111 -0.0365 -0.0144 -0.1395
 1542WAT     H1 7973   7.688   0.662   7.169  1.5764  0.8350 -0.6218
 1542WAT     H2 7974   7.729   0.630   7.027  2.4894 -0.9024  0.0045
 1542WAT    EPW 7975   7.708   0.604   7.107  0.5095 -0.0195 -0.1841
 1543WAT      O 7976   8.076   3.501   7.745  0.4634  0.2107 -0.1005
 1543WAT     H1 7977   8.019   3.576   7.762  0.0302  0.2833 -1.7250
 1543WAT     H2 7978   8.040   3.431   7.800  1.1054  1.2626  1.7299
 1543WAT    EPW 7979   8.064   3.501   7.755  0.4902  0.3592 -0.0732
 1544WAT      O 7980   8.198   2.926   8.508  0.1211  0.2095  0.4825
 1544WAT     H1 7981   8.227   2.996   8.450 -2.3241  0.6757 -0.2930
 1544WAT     H2 7982   8.172   2.971   8.589  0.2295 -0.0044  0.6367
 1544WAT    EPW 7983   8.198   2.941   8.511 -0.1874  0.2428  0.4001
 1545WAT      O 7984   7.147   2.049   8.042  0.1674  0.3323 -0.3379
 1545WAT     H1 7985   7.184   2.081   7.960  2.2677 -0.1663  0.3655
 1545WAT     H2 7986   7.194   1.968   8.061  0.1266  0.7035  1.6234
 1545WAT    EPW 7987   7.158   2.042   8.034  0.4392  0.3154  0.0129
 1546WAT      O 7988   0.641   9.597   6.791  0.5823 -0.2585  0.4311
 1546WAT     H1 7989   0.701   9.618   6.863  1.2545  1.8981 -0.6515
 1546WAT     H2 7990   0.587   9.676   6.781  0.8505 -0.2758 -1.7117
 1546WAT    EPW 7991   0.642   9.610   6.799  0.7064  0.0234  0.0060
 1547WAT      O 7992   0.547   0.149   6.137 -0.0560 -0.3361  0.7609
 1547WAT     H1 7993   0.642   0.144   6.142  0.0422  0.5700  0.1518
 1547WAT     H2 7994   0.520   0.183   6.223  0.2912  0.6437  0.4951
 1547WAT    EPW 7995   0.556   0.153   6.149  0.0027 -0.0874  0.6454
 1548WAT      O 7996   5.204   9.736   6.665  0.3433  0.2805  0.1707
 1548WAT     H1 7997   5.159   9.744   6.748 -0.1008 -1.0971  0.0885
 1548WAT     H2 7998   5.285   9.689   6.686 -0.5616 -1.6351 -0.3852
 1548WAT    EPW 7999   5.209   9.730   6.678  0.1655 -0.1540  0.0868
 1549WAT      O 8000   4.012   6.599   1.638  0.4015 -0.0949  0.2049
 1549WAT     H1 8001   4.079   6.667   1.630  0.3019 -0.1200 -0.9757
 1549WAT     H2 8002   4.049   6.524   1.591 -0.9319  0.2841 -1.5578
 1549WAT    EPW 8003   4.026   6.598   1.631  0.2127 -0.0482 -0.1833
 1550WAT      O 8004   3.004  10.265   0.070 -0.2735  0.8566  0.0719
 1550WAT     H1 8005   2.993  10.244  -0.023  1.3738 -0.5008  0.1429
 1550WAT     H2 8006   3.005  10.180   0.114  0.9491  1.3551  1.0762
 1550WAT    EPW 8007   3.003  10.251   0.063  0.1054  0.7434  0.2131
 1551WAT      O 8008   9.922   6.144   0.008 -0.8936 -0.0855 -0.0276
 1551WAT     H1 8009   9.847   6.101   0.049 -1.1067 -0.4372 -0.7753
 1551WAT     H2 8010   9.883   6.203  -0.057 -0.5068 -1.5476 -1.6621
 1551WAT    EPW 8011   9.907   6.146   0.005 -0.8707 -0.3247 -0.3419
 1552WAT      O 8012   8.723   1.741   5.516  0.0395  0.0394  0.1105
 1552WAT     H1 8013   8.724   1.719   5.423 -1.6035 -3.6911  0.7688
 1552WAT     H2 8014   8.678   1.667   5.557 -1.2793  2.5627  3.6593
 1552WAT    EPW 8015   8.718   1.728   5.509 -0.3514 -0.1198  0.6654
 1553WAT      O 8016   1.706   8.539   0.866  0.7105  0.4202 -0.4155
 1553WAT     H1 8017   1.781   8.485   0.844  1.7074  1.3209  0.6294
 1553WAT     H2 8018   1.633   8.501   0.817  1.0331 -2.7443  1.3255
 1553WAT    EPW 8019   1.706   8.527   0.857  0.8846  0.1221 -0.0481
 1554WAT      O 8020   9.382   3.017   3.565  0.0259  0.0359  0.4745
 1554WAT     H1 8021   9.350   3.103   3.536  1.2481  1.3925  2.7766
 1554WAT     H2 8022   9.303   2.964   3.574 -0.6134  0.2527 -2.7031
 1554WAT    EPW 8023   9.367   3.022   3.563  0.1025  0.2434  0.3591
 1555WAT      O 8024   7.406   2.290   4.086  0.1533 -0.0482  0.1504
 1555WAT     H1 8025   7.419   2.317   4.177  0.9892 -0.7429  0.2508
 1555WAT     H2 8026   7.410   2.372   4.037 -4.0077  0.9245  0.9957
 1555WAT    EPW 8027   7.408   2.305   4.092 -0.2851 -0.0114  0.2751
 1556WAT      O 8028   5.520   2.356   7.621  0.4251 -0.1587 -0.0127
 1556WAT     H1 8029   5.498   2.294   7.690  0.1677 -0.4690 -0.3735
 1556WAT     H2 8030   5.563   2.428   7.667  0.0958 -0.2796  0.4940
 1556WAT    EPW 8031   5.523   2.357   7.636  0.3476 -0.2155  0.0067
 1557WAT      O 8032   4.604   9.919   0.059  0.2108  0.0637 -0.0103
 1557WAT     H1 8033   4.620   9.905   0.153  2.1841 -2.6827 -0.6105
 1557WAT     H2 8034   4.512   9.895   0.047  0.0865 -0.1114  1.1438
 1557WAT    EPW 8035   4.594   9.914   0.070  0.4546 -0.3219  0.0629
 1558WAT      O 8036   2.991   6.184   0.289  0.2457  0.5892 -0.4607
 1558WAT     H1 8037   2.958   6.099   0.317  2.1266 -0.5963 -1.5854
 1558WAT     H2 8038   2.927   6.247   0.321  0.1951 -0.9645  2.8853
 1558WAT    EPW 8039   2.978   6.181   0.297  0.4872  0.2277 -0.1678
 1559WAT      O 8040   1.339   6.604   0.020  0.1243  0.5314  0.2441
 1559WAT     H1 8041   1.345   6.510   0.004  0.7761  0.7481 -0.8545
 1559WAT     H2 8042   1.427   6.637   0.002 -0.5694  1.6329 -1.2779
 1559WAT    EPW 8043   1.351   6.596   0.016  0.1187  0.7053 -0.1016
 1560WAT      O 8044   9.451   3.588   7.540 -0.5537  0.2804 -0.0193
 1560WAT     H1 8045   9.518   3.617   7.602 -0.1849  3.2543 -1.6227
 1560WAT     H2 8046   9.369   3.598   7.588 -0.2692  2.4637  0.0995
 1560WAT    EPW 8047   9.449   3.593   7.555 -0.4678  0.9606 -0.2148
 1561WAT      O 8048   0.368   1.129   5.054  0.1654 -0.1861  0.0331
 1561WAT     H1 8049   0.455   1.168   5.046 -0.4634  1.0823 -0.9943
 1561WAT     H2 8050   0.332   1.169   5.133 -0.4015  1.2368 -0.9085
 1561WAT    EPW 8051   0.375   1.140   5.064  0.0077  0.1690 -0.2267
 1562WAT      O 8052   8.228   2.422   3.467  0.0615 -0.2780 -0.3088
 1562WAT     H1 8053   8.297   2.370   3.508  0.9999 -1.4974 -3.1234
 1562WAT     H2 8054   8.182   2.463   3.539  3.7137  0.6121  1.7396
 1562WAT    EPW 8055   8.231   2.420   3.482  0.6666 -0.3215 -0.4098
 1563WAT      O 8056   6.904   2.017   8.162 -0.2347 -0.2047  0.2495
 1563WAT     H1 8057   6.997   2.038   8.159 -0.1552 -0.4996  0.5107
 1563WAT     H2 8058   6.860   2.102   8.172 -0.0455  0.0022 -0.6215
 1563WAT    EPW 8059   6.910   2.031   8.163 -0.1996 -0.2162  0.1688
 1564WAT      O 8060   2.299  10.312   6.019 -0.5565 -0.0912 -0.1265
 1564WAT     H1 8061   2.290  10.385   5.957 -3.0539 -1.2252 -1.2550
 1564WAT     H2 8062   2.209  10.293   6.047  0.2026 -1.6067  1.5182
 1564WAT    EPW 8063   2.286  10.319   6.015 -0.7858 -0.4407 -0.0587
 1565WAT      O 8064   7.145   9.380   8.776  0.6144  0.4855 -0.5635
 1565WAT     H1 8065   7.183   9.295   8.800  0.6879  0.2690 -1.4100
 1565WAT     H2 8066   7.146   9.430   8.858  2.6275  0.4480 -0.5041
 1565WAT    EPW 8067   7.150   9.375   8.790  0.8895  0.4516 -0.6671
 1566WAT      O 8068   2.675   8.260   8.858 -0.3393 -0.6097 -0.4250
 1566WAT     H1 8069   2.752   8.266   8.915  0.7661 -2.5593 -1.6260
 1566WAT     H2 8070   2.627   8.342   8.874  0.6546 -0.4549  2.2054
 1566WAT    EPW 8071   2.679   8.272   8.868 -0.0623 -0.8459 -0.2365
 1567WAT      O 8072   4.538  10.320   7.728 -0.3339  0.2833  0.0912
 1567WAT     H1 8073   4.541  10.313   7.824  0.8357 -1.0739 -0.0052
 1567WAT     H2 8074   4.596  10.393   7.708 -0.2118  0.2796  0.4172
 1567WAT    EPW 8075   4.546  10.328   7.738 -0.1638  0.1035  0.1214
 1568WAT      O 8076  10.004   3.085   5.735 -0.8568 -0.3412 -0.2520
 1568WAT     H1 8077  10.070   3.069   5.667 -0.8586 -0.5791 -0.1966
 1568WAT     H2 8078   9.966   3.000   5.752  0.8395 -0.7587  1.8099
 1568WAT    EPW 8079  10.008   3.072   5.728 -0.6328 -0.4277  0.0274
 1569WAT      O 8080   1.932   5.052   0.435 -0.1295 -0.1541  0.2030
 1569WAT     H1 8081   1.959   5.130   0.387 -0.3152  0.5715  1.2316
 1569WAT     H2 8082   1.959   4.979   0.380 -0.9845  0.6318 -1.3504
 1569WAT    EPW 8083   1.939   5.053   0.422 -0.2668  0.0453  0.1338
 1570WAT      O 8084   8.985   2.530   2.505 -0.6475 -0.1788  0.9889
 1570WAT     H1 8085   9.044   2.581   2.561 -2.9649  1.9179  1.7351
 1570WAT     H2 8086   8.940   2.596   2.452 -0.9972 -1.8532 -0.9033
 1570WAT    EPW 8087   8.987   2.545   2.505 -0.9995 -0.1231  0.8377
 1571WAT      O 8088   8.125   5.143   0.668  0.1752  0.6012 -0.7214
 1571WAT     H1 8089   8.147   5.233   0.645 -0.6188  0.7880 -0.7782
 1571WAT     H2 8090   8.076   5.110   0.593  1.0610 -0.1149 -1.0033
 1571WAT    EPW 8091   8.121   5.150   0.655  0.1874  0.5317 -0.7661
 1572WAT      O 8092   8.890   5.190   5.074 -0.2019 -0.4779 -0.4721
 1572WAT     H1 8093   8.803   5.166   5.107  0.1767 -1.4369 -0.1450
 1572WAT     H2 8094   8.891   5.158   4.984 -0.2501 -0.2897 -0.5412
 1572WAT    EPW 8095   8.879   5.183   5.067 -0.1583 -0.5798 -0.4382
 1573WAT      O 8096   8.370   0.966   5.303 -0.7685  0.1365 -0.0552
 1573WAT     H1 8097   8.323   0.946   5.222  0.7274  2.2621 -1.5522
 1573WAT     H2 8098   8.311   1.022   5.352 -0.6181  1.1666 -1.0128
 1573WAT    EPW 8099   8.356   0.970   5.298 -0.5507  0.5527 -0.3791
 1574WAT      O 8100   0.950   2.244   7.905 -0.8756  0.4726  0.1864
 1574WAT     H1 8101   1.021   2.305   7.928  0.3132 -0.9237  0.3536
 1574WAT     H2 8102   0.923   2.271   7.817  0.2865  0.6551 -0.1321
 1574WAT    EPW 8103   0.956   2.256   7.897 -0.5656  0.3126  0.1667
 1575WAT      O 8104   7.312   8.201   6.014  0.1474 -0.3955  0.6114
 1575WAT     H1 8105   7.334   8.170   6.102  0.6302  2.7085  1.6905
 1575WAT     H2 8106   7.222   8.232   6.021  1.2207  3.0408  1.1141
 1575WAT    EPW 8107   7.303   8.201   6.027  0.3526  0.4663  0.8202
 1576WAT      O 8108   6.848   2.057   7.765  0.1625 -0.3872 -0.4028
 1576WAT     H1 8109   6.820   2.077   7.676 -1.9708 -2.4240 -0.2893
 1576WAT     H2 8110   6.941   2.032   7.756  0.1428  0.0227 -1.9400
 1576WAT    EPW 8111   6.857   2.056   7.752 -0.1216 -0.6018 -0.5908
 1577WAT      O 8112   0.563   2.947   8.333  0.2807 -0.2130 -0.3796
 1577WAT     H1 8113   0.572   2.916   8.423 -1.4092  1.6514  0.5240
 1577WAT     H2 8114   0.594   2.874   8.280 -2.6456 -3.2272  1.5621
 1577WAT    EPW 8115   0.568   2.933   8.338 -0.3282 -0.3647 -0.0043
 1578WAT      O 8116  10.491   2.726   7.547 -0.0502  0.2101  0.4338
 1578WAT     H1 8117  10.564   2.679   7.587 -0.3805 -1.3664 -0.7096
 1578WAT     H2 8118  10.533   2.789   7.488  0.4290 -0.4956 -0.0088
 1578WAT    EPW 8119  10.506   2.728   7.544 -0.0310 -0.0910  0.2244
 1579WAT      O 8120   7.867   4.118   7.759  0.1499  1.0557  0.7158
 1579WAT     H1 8121   7.841   4.196   7.808 -0.4729  0.5410  1.2130
 1579WAT     H2 8122   7.803   4.112   7.688  0.6288  1.3950  0.2414
 1579WAT    EPW 8123   7.855   4.128   7.756  0.1307  1.0326  0.7188
 1580WAT      O 8124   7.510   9.587   6.536 -0.4744  0.4508 -0.4866
 1580WAT     H1 8125   7.463   9.646   6.594 -0.2908  0.3762 -0.2630
 1580WAT     H2 8126   7.593   9.571   6.580 -0.5086  0.0500 -0.5626
 1580WAT    EPW 8127   7.515   9.593   6.549 -0.4549  0.3881 -0.4671
 1581WAT      O 8128   3.875   7.628   1.045  0.5876 -0.1446  0.3171
 1581WAT     H1 8129   3.843   7.706   1.000 -0.8371  0.2898  1.9634
 1581WAT     H2 8130   3.795   7.586   1.078  1.5271 -0.4184  2.4088
 1581WAT    EPW 8131   3.860   7.633   1.044  0.5234 -0.1235  0.8101
 1582WAT      O 8132   7.549   0.458   7.988  0.0571  0.6485  0.5479
 1582WAT     H1 8133   7.636   0.427   8.014 -0.4142  0.4034  1.8775
 1582WAT     H2 8134   7.564   0.548   7.958  1.1237 -0.1218 -1.4967
 1582WAT    EPW 8135   7.563   0.465   7.987  0.1357  0.5146  0.4537
 1583WAT      O 8136  10.324   2.317   8.753  0.4939 -0.7214  0.1953
 1583WAT     H1 8137  10.260   2.336   8.822  0.0835  1.6895 -0.7478
 1583WAT     H2 8138  10.390   2.385   8.764  0.7871 -0.7365 -1.3399
 1583WAT    EPW 8139  10.324   2.328   8.764  0.4783 -0.4055 -0.1311
 1584WAT      O 8140   2.769   7.820   0.469 -0.5805 -0.5541 -0.1800
 1584WAT     H1 8141   2.705   7.783   0.530 -2.0090  1.0465 -0.6387
 1584WAT     H2 8142   2.724   7.821   0.385 -0.0974  0.9025 -0.4528
 1584WAT    EPW 8143   2.755   7.815   0.466 -0.7051 -0.1509 -0.2765
 1585WAT      O 8144   8.948   0.437   8.442  0.4178  0.5212 -0.4631
 1585WAT     H1 8145   8.929   0.482   8.524  2.2613  0.4998  0.0382
 1585WAT     H2 8146   8.885   0.471   8.380  0.0770  1.8212  0.5565
 1585WAT    EPW 8147   8.937   0.447   8.445  0.6161  0.6899 -0.2623
 1586WAT      O 8148   5.984   0.425   7.952  0.2071 -0.2809 -0.7282
 1586WAT     H1 8149   5.942   0.511   7.948  1.4908  0.3715 -0.5465
 1586WAT     H2 8150   6.055   0.430   7.888  0.4272 -1.1480 -0.5609
 1586WAT    EPW 8151   5.988   0.437   7.943  0.4055 -0.3092 -0.6826
 1587WAT      O 8152   8.952   0.913   6.907  0.2031  0.5218  0.0449
 1587WAT     H1 8153   8.956   0.984   6.972 -0.1266  0.2159  0.4026
 1587WAT     H2 8154   9.032   0.923   6.856  0.5929  0.6176  0.6612
 1587WAT    EPW 8155   8.963   0.924   6.909  0.2112  0.4941  0.1733
 1588WAT      O 8156   5.608   1.375   8.332  0.2521  0.1042  0.3704
 1588WAT     H1 8157   5.570   1.298   8.375  2.2183 -1.6162 -0.7506
 1588WAT     H2 8158   5.700   1.374   8.357  0.5641  1.4415 -0.6036
 1588WAT    EPW 8159   5.615   1.364   8.341  0.5524  0.0537  0.0939
 1589WAT      O 8160   1.036   1.998   7.539  0.0115  0.0221  0.0648
 1589WAT     H1 8161   1.073   1.986   7.626 -1.2566 -0.5582  0.5584
 1589WAT     H2 8162   0.944   2.018   7.555  0.0851  1.4913 -1.1054
 1589WAT    EPW 8163   1.029   1.999   7.552 -0.1461  0.1394 -0.0246
 1590WAT      O 8164   1.170   3.134   8.413  0.1085 -0.4551 -0.1673
 1590WAT     H1 8165   1.224   3.118   8.490  2.3034 -1.5066 -1.7939
 1590WAT     H2 8166   1.207   3.214   8.374  1.6138 -1.9672 -2.0838
 1590WAT    EPW 8167   1.182   3.143   8.418  0.5966 -0.7932 -0.6347
 1591WAT      O 8168   6.891   3.405   7.420 -0.2760  0.0190 -0.0097
 1591WAT     H1 8169   6.947   3.432   7.493  0.1482 -0.5467 -0.1182
 1591WAT     H2 8170   6.843   3.484   7.397 -0.1476  0.3008  0.6448
 1591WAT    EPW 8171   6.892   3.419   7.427 -0.2029 -0.0185  0.0622
 1592WAT      O 8172   7.958   1.677   7.301 -0.2501 -0.4254 -0.6320
 1592WAT     H1 8173   7.866   1.680   7.275 -0.5553 -2.6334  0.0288
 1592WAT     H2 8174   7.957   1.650   7.393  1.0505 -0.1070 -0.4976
 1592WAT    EPW 8175   7.946   1.674   7.310 -0.1187 -0.6747 -0.5269
 1593WAT      O 8176   8.482   2.098   4.827 -0.3779 -0.0605 -0.3661
 1593WAT     H1 8177   8.540   2.173   4.839  0.0168 -0.3238 -0.6144
 1593WAT     H2 8178   8.419   2.126   4.761 -1.9275  1.0289  1.4664
 1593WAT    EPW 8179   8.481   2.111   4.820 -0.5302  0.0485 -0.1571
 1594WAT      O 8180   1.502   0.102   5.900 -0.0473 -0.4934  0.6789
 1594WAT     H1 8181   1.572   0.079   5.961  1.0203 -0.2254 -0.3876
 1594WAT     H2 8182   1.545   0.158   5.835 -0.5495 -2.5746 -1.6087
 1594WAT    EPW 8183   1.517   0.107   5.899  0.0274 -0.7326  0.2363
 1595WAT      O 8184   8.813   6.383   0.910 -0.4453  0.3731  0.0460
 1595WAT     H1 8185   8.800   6.288   0.910  0.9277  0.1638  0.5930
 1595WAT     H2 8186   8.753   6.415   0.842 -1.5920 -0.7662  0.4744
 1595WAT    EPW 8187   8.803   6.374   0.901 -0.4153  0.1950  0.1746
 1596WAT      O 8188   9.942   3.088   6.970  0.9578  0.3346 -0.0236
 1596WAT     H1 8189   9.934   3.126   7.057  3.0480 -2.4180  1.4883
 1596WAT     H2 8190  10.021   3.128   6.934  1.8727 -0.8034  0.6593
 1596WAT    EPW 8191   9.951   3.098   6.976  1.3542 -0.1786  0.2658
 1597WAT      O 8192   9.333   1.434   6.607 -0.1476 -0.7405 -0.2707
 1597WAT     H1 8193   9.308   1.453   6.516 -2.3412 -0.1597  0.3796
 1597WAT     H2 8194   9.315   1.341   6.617 -3.5815 -0.1486  0.4910
 1597WAT    EPW 8195   9.327   1.424   6.596 -0.8903 -0.5859 -0.0842
 1598WAT      O 8196   1.578   6.987   0.858  0.1339 -0.2058  0.5364
 1598WAT     H1 8197   1.498   7.038   0.844  0.0213 -0.2114  1.1090
 1598WAT     H2 8198   1.553   6.922   0.925  0.7504  0.1163  1.0871
 1598WAT    EPW 8199   1.564   6.985   0.865  0.2003 -0.1643  0.6846
 1599WAT      O 8200  10.684   2.332   7.800 -0.1104 -1.1216  0.1420
 1599WAT     H1 8201  10.678   2.301   7.890 -0.8959 -0.7207  0.2394
 1599WAT     H2 8202  10.719   2.258   7.750 -3.5250 -2.8449  0.0370
 1599WAT    EPW 8203  10.688   2.318   7.805 -0.6642 -1.2959  0.1409
 1600WAT      O 8204   8.146   1.214   6.779  0.3977  0.4326  0.0319
 1600WAT     H1 8205   8.173   1.300   6.811  1.1324 -1.2335  4.4930
 1600WAT     H2 8206   8.094   1.234   6.701  0.5978  4.8731  0.7462
 1600WAT    EPW 8207   8.143   1.228   6.773  0.5207  0.7986  0.7148
 1601WAT      O 8208   4.899   9.929   8.306 -0.3103 -0.2725 -0.0780
 1601WAT     H1 8209   4.952  10.001   8.339 -0.3966 -0.2121 -0.0692
 1601WAT     H2 8210   4.959   9.855   8.301 -0.0616 -0.0379 -0.6922
 1601WAT    EPW 8211   4.914   9.929   8.310 -0.2890 -0.2332 -0.1578
 1602WAT      O 8212   4.488   9.636   1.726 -0.4431 -0.4154  0.1173
 1602WAT     H1 8213   4.484   9.731   1.732  1.6619 -0.2436 -0.3919
 1602WAT     H2 8214   4.580   9.614   1.744 -0.5401 -2.2126 -1.2581
 1602WAT    EPW 8215   4.500   9.645   1.729 -0.1786 -0.6299 -0.1312
 1603WAT      O 8216   6.140   2.566   5.919 -0.3586  0.1836  0.2664
 1603WAT     H1 8217   6.063   2.559   5.863 -2.2071  3.9900  1.9907
 1603WAT     H2 8218   6.190   2.639   5.881  1.6559 -1.1863  0.1202
 1603WAT    EPW 8219   6.137   2.575   5.906 -0.3366  0.5050  0.4747
 1604WAT      O 8220   3.056   9.575   0.722  0.3987 -0.0007 -0.2568
 1604WAT     H1 8221   3.024   9.645   0.665 -1.4060  0.1258  0.8550
 1604WAT     H2 8222   3.057   9.497   0.666  1.1492  0.6207 -1.1352
 1604WAT    EPW 8223   3.052   9.574   0.707  0.2598  0.0982 -0.2260
 1605WAT      O 8224   2.475   7.454   0.977  0.1428 -0.9082 -0.2632
 1605WAT     H1 8225   2.417   7.470   0.903  0.1753  0.5286  0.0075
 1605WAT     H2 8226   2.423   7.474   1.054  1.2954  1.6140 -0.0451
 1605WAT    EPW 8227   2.461   7.458   0.977  0.2991 -0.3860 -0.1987
 1606WAT      O 8228   2.908   8.469   3.821  0.5568 -0.5135 -0.5048
 1606WAT     H1 8229   2.867   8.548   3.786  4.0321  1.1014 -1.4415
 1606WAT     H2 8230   2.921   8.413   3.745 -1.0221 -1.6226  0.0026
 1606WAT    EPW 8231   2.905   8.472   3.806  0.8069 -0.4468 -0.5614
 1607WAT      O 8232  10.632   1.965   7.366 -0.5339  0.3540 -0.4397
 1607WAT     H1 8233  10.707   1.960   7.307 -1.2679 -0.6219 -1.3231
 1607WAT     H2 8234  10.573   1.896   7.336 -1.1560  0.1630  1.1321
 1607WAT    EPW 8235  10.634   1.955   7.354 -0.7129  0.2001 -0.3490
 1608WAT      O 8236   1.084   5.862   0.401 -0.2360 -0.1737 -0.3903
 1608WAT     H1 8237   1.070   5.810   0.480 -0.7836  0.3917 -0.1081
 1608WAT     H2 8238   0.997   5.895   0.378  0.0799  0.5058 -0.6466
 1608WAT    EPW 8239   1.070   5.859   0.408 -0.2666 -0.0095 -0.3868
 1609WAT      O 8240   6.757   4.482   8.119  0.1855  0.0831  0.4500
 1609WAT     H1 8241   6.753   4.573   8.090 -1.6060  0.0480  0.4340
 1609WAT     H2 8242   6.742   4.430   8.039  0.2676 -0.1847  0.6056
 1609WAT    EPW 8243   6.754   4.487   8.105 -0.0398  0.0432  0.4683
 1610WAT      O 8244   1.247   6.456   1.947  0.2344 -0.0590 -0.0288
 1610WAT     H1 8245   1.266   6.510   1.871  1.7262  0.6767  0.8194
 1610WAT     H2 8246   1.203   6.515   2.008  1.8686  0.2702  0.9002
 1610WAT    EPW 8247   1.244   6.471   1.945  0.6467  0.0815  0.2056
 1611WAT      O 8248   3.743   8.778   0.486  0.1223 -0.1161  0.8508
 1611WAT     H1 8249   3.778   8.690   0.497  1.1207  0.2039  0.3446
 1611WAT     H2 8250   3.666   8.767   0.430 -0.4183 -0.7902  1.7076
 1611WAT    EPW 8251   3.738   8.765   0.480  0.1827 -0.1636  0.8970
 1612WAT      O 8252   1.525   7.164   1.404 -0.3966  0.2800  0.0656
 1612WAT     H1 8253   1.538   7.137   1.313 -0.0016  0.5569  0.0401
 1612WAT     H2 8254   1.516   7.081   1.452  0.3773  0.1031 -0.0795
 1612WAT    EPW 8255   1.525   7.149   1.398 -0.2425  0.2930  0.0431
 1613WAT      O 8256   5.262  10.362   7.050 -0.5587  0.0218 -0.1703
 1613WAT     H1 8257   5.286  10.445   7.010 -2.5458  2.4896  3.2192
 1613WAT     H2 8258   5.166  10.363   7.054 -0.5563 -1.1541  2.2944
 1613WAT    EPW 8259   5.252  10.373   7.046 -0.8211  0.1917  0.6018
 1614WAT      O 8260   0.784   3.752   4.540 -0.5690 -0.2960  0.2210
 1614WAT     H1 8261   0.693   3.723   4.539  0.0858 -2.7425 -2.9010
 1614WAT     H2 8262   0.785   3.830   4.485 -0.5120 -1.6716 -1.8366
 1614WAT    EPW 8263   0.772   3.758   4.533 -0.4751 -0.8001 -0.4623
 1615WAT      O 8264   9.863   3.169   8.823  0.6170 -0.6895  0.8382
 1615WAT     H1 8265   9.892   3.246   8.774  1.2643 -0.4844  1.5233
 1615WAT     H2 8266   9.823   3.113   8.757 -0.3360  0.4440  0.4065
 1615WAT    EPW 8267   9.862   3.172   8.808  0.5765 -0.5130  0.8717
 1616WAT      O 8268   5.757   1.855   6.761 -0.1744 -0.0642  0.0478
 1616WAT     H1 8269   5.711   1.805   6.828  0.3758 -1.6791 -0.7296
 1616WAT     H2 8270   5.849   1.852   6.787  0.0883 -1.0160 -0.9548
 1616WAT    EPW 8271   5.763   1.848   6.773 -0.0670 -0.4027 -0.1872
 1617WAT      O 8272  10.826   8.811   0.934  0.4613 -0.2527  0.6393
 1617WAT     H1 8273  10.901   8.797   0.992  0.8281 -0.4790  0.1231
 1617WAT     H2 8274  10.750   8.785   0.986  0.9307 -2.1189  0.4484
 1617WAT    EPW 8275  10.826   8.806   0.949  0.5717 -0.5293  0.5460
 1618WAT      O 8276   9.502   1.903   7.011  0.9679  0.8047 -0.1031
 1618WAT     H1 8277   9.583   1.928   7.055 -0.1204  2.3544  1.1667
 1618WAT     H2 8278   9.506   1.947   6.926  2.9239 -1.9187 -1.5755
 1618WAT    EPW 8279   9.513   1.912   7.006  1.0819  0.6499 -0.1295
 1619WAT      O 8280   8.126   3.059   7.811  0.4036  0.3110 -0.5818
 1619WAT     H1 8281   8.210   3.027   7.776 -0.6712 -1.5777 -1.6228
 1619WAT     H2 8282   8.128   3.034   7.904  0.9682  0.2069 -0.6160
 1619WAT    EPW 8283   8.138   3.051   7.819  0.3357  0.0482 -0.7234
 1620WAT      O 8284   8.701   2.017   7.122  0.3828 -0.2965  0.4557
 1620WAT     H1 8285   8.776   2.059   7.080 -0.5056  0.6874 -0.1872
 1620WAT     H2 8286   8.695   1.932   7.078 -0.1577  0.4710 -1.0241
 1620WAT    EPW 8287   8.710   2.011   7.110  0.1945 -0.0656  0.1757
 1621WAT      O 8288   6.604   2.875   6.020 -0.0402  0.3910  0.6184
 1621WAT     H1 8289   6.649   2.939   6.075 -1.8585  1.3721  1.0475
 1621WAT     H2 8290   6.516   2.869   6.057 -0.0915 -1.9717  0.2386
 1621WAT    EPW 8291   6.598   2.883   6.032 -0.2868  0.2089  0.6251
 1622WAT      O 8292   6.674   0.166   5.578  0.8830  0.1643  0.5210
 1622WAT     H1 8293   6.692   0.253   5.614 -0.2746  0.5098  0.3177
 1622WAT     H2 8294   6.750   0.146   5.524  0.0127  2.2824 -1.6873
 1622WAT    EPW 8295   6.686   0.175   5.576  0.6156  0.4893  0.2031
 1623WAT      O 8296   8.434   2.768   7.160 -0.1247  0.2815 -0.0850
 1623WAT     H1 8297   8.456   2.837   7.223  2.1822 -0.5135  0.0827
 1623WAT     H2 8298   8.453   2.686   7.206  1.2274 -0.3346 -1.6322
 1623WAT    EPW 8299   8.440   2.766   7.174  0.3576  0.0954 -0.2668
 1624WAT      O 8300   2.199   5.322   1.044  1.2429  0.4487 -0.4371
 1624WAT     H1 8301   2.158   5.377   0.977  0.7259  3.0130  1.7823
 1624WAT     H2 8302   2.248   5.256   0.995 -2.2658 -0.3656 -3.3019
 1624WAT    EPW 8303   2.200   5.321   1.029  0.7118  0.6800 -0.5223
 1625WAT      O 8304   9.929   3.396   6.334  0.1730  0.1122  0.4781
 1625WAT     H1 8305   9.919   3.384   6.428  1.0981  1.2187  0.7342
 1625WAT     H2 8306  10.002   3.458   6.325  0.1135  0.0035 -0.9613
 1625WAT    EPW 8307   9.937   3.403   6.345  0.2871  0.2437  0.3219
 1626WAT      O 8308   9.861   1.158   7.144  0.3052  0.0752  0.4990
 1626WAT     H1 8309   9.943   1.204   7.127  0.4029 -0.5812 -0.9431
 1626WAT     H2 8310   9.795   1.206   7.093 -0.4158  1.1249  2.3211
 1626WAT    EPW 8311   9.863   1.170   7.135  0.2232  0.1271  0.5491
 1627WAT      O 8312   3.857   5.599   0.088 -0.2728 -0.6338  0.0285
 1627WAT     H1 8313   3.782   5.648   0.123 -0.0239 -0.6356  0.5799
 1627WAT     H2 8314   3.867   5.526   0.148 -0.1326 -0.9067 -0.3300
 1627WAT    EPW 8315   3.848   5.596   0.100 -0.2216 -0.6700  0.0539
 1628WAT      O 8316   3.316   8.785   2.995 -0.1831 -0.6150 -0.0255
 1628WAT     H1 8317   3.363   8.703   3.009  1.6959 -0.4077 -3.8266
 1628WAT     H2 8318   3.378   8.840   2.947 -2.3148  2.0695  0.0522
 1628WAT    EPW 8319   3.331   8.782   2.991 -0.2164 -0.2332 -0.5165
 1629WAT      O 8320   8.488   4.288   7.436  0.1531 -0.9174  0.5902
 1629WAT     H1 8321   8.401   4.290   7.477 -0.2138  1.3144 -0.1697
 1629WAT     H2 8322   8.546   4.328   7.500 -0.1169  1.0268 -0.3028
 1629WAT    EPW 8323   8.484   4.293   7.450  0.0687 -0.3664  0.3722
 1630WAT      O 8324   6.954   1.690   8.135  0.0056  0.3164  0.0051
 1630WAT     H1 8325   6.921   1.600   8.139  0.7234  0.1002  2.4644
 1630WAT     H2 8326   6.902   1.732   8.067  0.4411 -2.2529 -2.0537
 1630WAT    EPW 8327   6.943   1.684   8.127  0.1578 -0.0510  0.0582
 1631WAT      O 8328   3.552   5.776   1.545  0.0047  0.3465  0.6257
 1631WAT     H1 8329   3.641   5.795   1.575  1.0085 -1.5114 -0.9901
 1631WAT     H2 8330   3.524   5.856   1.500  0.4032  1.3241  2.0520
 1631WAT    EPW 8331   3.560   5.789   1.543  0.1895  0.2306  0.6007
 1632WAT      O 8332  10.017   0.661   5.940 -0.0113 -0.3292  0.1279
 1632WAT     H1 8333  10.070   0.740   5.953  1.7878 -1.7615  2.2577
 1632WAT     H2 8334  10.063   0.593   5.989 -0.3404 -3.2608 -3.2274
 1632WAT    EPW 8335  10.030   0.663   5.948  0.1822 -0.9048 -0.0336
 1633WAT      O 8336   9.376   2.153   6.305 -0.0323  0.5561  0.3014
 1633WAT     H1 8337   9.464   2.154   6.267 -0.1651  1.8449 -0.0047
 1633WAT     H2 8338   9.358   2.244   6.328 -1.8309  0.5862 -0.9556
 1633WAT    EPW 8339   9.385   2.165   6.303 -0.2871  0.7300  0.0954
 1634WAT      O 8340   0.519   2.987   7.432  0.2704  0.4824  0.1099
 1634WAT     H1 8341   0.476   2.944   7.506 -0.9198  0.4723 -0.5671
 1634WAT     H2 8342   0.550   2.915   7.377 -0.1928  0.4856 -0.1583
 1634WAT    EPW 8343   0.517   2.972   7.435  0.0523  0.4815 -0.0148
 1635WAT      O 8344  10.257   3.773   7.838 -0.5824  0.1553  0.2666
 1635WAT     H1 8345  10.348   3.749   7.823 -0.1659  0.7971  1.6190
 1635WAT     H2 8346  10.238   3.740   7.926 -1.6203  0.1527  0.0560
 1635WAT    EPW 8347  10.266   3.765   7.848 -0.6642  0.2397  0.4172
 1636WAT      O 8348   6.896   3.552   5.298 -0.3492  0.3814 -0.0459
 1636WAT     H1 8349   6.942   3.556   5.382 -0.3639  0.6647 -0.0520
 1636WAT     H2 8350   6.806   3.576   5.319 -0.3975  0.2575 -0.1092
 1636WAT    EPW 8351   6.890   3.556   5.312 -0.3574  0.4025 -0.0551
 1637WAT      O 8352   8.472   1.253   8.614  0.2755 -0.0057 -0.3169
 1637WAT     H1 8353   8.464   1.159   8.596 -2.5932  0.2027 -0.6142
 1637WAT     H2 8354   8.500   1.291   8.530  2.0400 -0.6100 -0.0352
 1637WAT    EPW 8355   8.475   1.246   8.600  0.1297 -0.0579 -0.3185
 1638WAT      O 8356   1.017   2.081   5.479  0.8888 -0.1561 -0.1223
 1638WAT     H1 8357   0.935   2.127   5.465  0.2965 -1.5536 -1.5829
 1638WAT     H2 8358   0.993   2.001   5.525  1.5000 -0.3381 -0.1032
 1638WAT    EPW 8359   1.003   2.077   5.483  0.8913 -0.3644 -0.3123
 1639WAT      O 8360   1.908   5.388   7.172 -0.8947  0.0950  0.0589
 1639WAT     H1 8361   1.993   5.432   7.172 -0.6554 -0.2916 -1.7888
 1639WAT     H2 8362   1.864   5.422   7.251  0.7647  0.6553  0.7959
 1639WAT    EPW 8363   1.914   5.399   7.183 -0.6443  0.1180 -0.0873
 1640WAT      O 8364   1.068   2.229   8.818 -0.3424 -0.2208  0.0636
 1640WAT     H1 8365   1.065   2.321   8.792  3.1298  0.0138  0.0366
 1640WAT     H2 8366   1.037   2.229   8.909 -0.8982  0.8511 -0.1014
 1640WAT    EPW 8367   1.063   2.241   8.826  0.0423 -0.0485  0.0381
 1641WAT      O 8368   1.535   8.997   0.193 -0.0453 -0.2499 -0.2787
 1641WAT     H1 8369   1.557   9.047   0.115  1.0168 -0.9903 -0.4690
 1641WAT     H2 8370   1.446   9.025   0.214  0.1231  0.9150 -0.9908
 1641WAT    EPW 8371   1.526   9.007   0.186  0.1169 -0.1941 -0.3977
 1642WAT      O 8372  10.962   1.146   8.177  0.1623  0.3006 -0.1343
 1642WAT     H1 8373  10.915   1.211   8.126  0.3205 -0.4423 -1.2649
 1642WAT     H2 8374  10.894   1.088   8.211  0.0678  0.7061  0.3639
 1642WAT    EPW 8375  10.947   1.147   8.175  0.1707  0.2561 -0.2174
 1643WAT      O 8376  10.863   8.040   8.762 -0.1134  0.3529  0.1594
 1643WAT     H1 8377  10.826   7.986   8.692  1.0169 -0.9206  0.4989
 1643WAT     H2 8378  10.946   8.072   8.726  2.4035 -3.3567  2.0359
 1643WAT    EPW 8379  10.869   8.037   8.748  0.3676 -0.3047  0.4516
 1644WAT      O 8380   5.368   1.088   5.676  0.2150  0.1176  1.0180
 1644WAT     H1 8381   5.276   1.108   5.656  0.5260  1.1020  0.4940
 1644WAT     H2 8382   5.370   1.073   5.771 -0.4705  0.1498  1.0394
 1644WAT    EPW 8383   5.356   1.089   5.686  0.1657  0.2517  0.9518
 1645WAT      O 8384   2.392   8.229   1.000  0.7945 -0.4782  0.5450
 1645WAT     H1 8385   2.470   8.268   1.039  0.1875  0.4643  0.8572
 1645WAT     H2 8386   2.374   8.284   0.923  1.2462 -1.5511 -0.3482
 1645WAT    EPW 8387   2.400   8.242   0.995  0.7739 -0.4950  0.4684
 1646WAT      O 8388  10.700   6.051   5.865 -0.1644 -0.2412  0.6097
 1646WAT     H1 8389  10.620   6.101   5.850 -0.5959 -0.3324  2.4473
 1646WAT     H2 8390  10.670   5.964   5.890  0.5617 -0.8714 -0.5837
 1646WAT    EPW 8391  10.686   6.046   5.866 -0.1254 -0.3364  0.6948
 1647WAT      O 8392   5.925   2.046   7.881 -0.0628  0.8846 -0.1043
 1647WAT     H1 8393   5.903   2.134   7.909  1.3716  1.5006 -0.8046
 1647WAT     H2 8394   5.841   2.001   7.874 -0.7280  1.7655  1.5626
 1647WAT    EPW 8395   5.911   2.051   7.884  0.0386  1.0819  0.0234
 1648WAT      O 8396   9.619   2.530   8.246 -0.3297 -0.0013 -0.1743
 1648WAT     H1 8397   9.563   2.456   8.267 -0.5933  0.1434 -0.3652
 1648WAT     H2 8398   9.559   2.597   8.214 -0.2849  0.8872  1.5449
 1648WAT    EPW 8399   9.604   2.529   8.244 -0.3586  0.1349  0.0277
 1649WAT      O 8400   2.867   3.912   6.596 -0.2690 -0.1750 -0.0204
 1649WAT     H1 8401   2.831   3.931   6.509 -1.3311 -0.6311  0.3005
 1649WAT     H2 8402   2.911   3.828   6.586 -0.6224 -0.3576 -0.0624
 1649WAT    EPW 8403   2.868   3.904   6.583 -0.4556 -0.2593  0.0162
 1650WAT      O 8404   3.772   8.209   2.667  0.8193  0.1443  0.2294
 1650WAT     H1 8405   3.832   8.186   2.738  2.1410  0.8183 -0.6305
 1650WAT     H2 8406   3.802   8.157   2.592  0.7158  0.9538 -0.3829
 1650WAT    EPW 8407   3.784   8.199   2.667  0.9800  0.3400  0.0353
 1651WAT      O 8408   9.970   1.092   8.798 -0.0441  0.3629  0.8198
 1651WAT     H1 8409  10.064   1.112   8.795  0.6518 -2.5280 -0.0574
 1651WAT     H2 8410   9.943   1.092   8.706  0.1760 -2.7414  0.6291
 1651WAT    EPW 8411   9.979   1.094   8.785  0.0768 -0.4278  0.6795
 1652WAT      O 8412   7.009   3.857   7.803  0.0650  0.0675  0.6211
 1652WAT     H1 8413   7.038   3.824   7.888 -1.2994 -0.4151  0.9246
 1652WAT     H2 8414   6.924   3.898   7.820  0.2782  0.9503 -0.3265
 1652WAT    EPW 8415   7.002   3.858   7.816 -0.0868  0.1202  0.5362
 1653WAT      O 8416   4.847  10.338   0.936  0.1956 -0.6554 -0.2654
 1653WAT     H1 8417   4.881  10.346   0.847 -0.7236 -0.3006 -0.5889
 1653WAT     H2 8418   4.818  10.247   0.943  0.9504 -0.8906 -0.0714
 1653WAT    EPW 8419   4.848  10.327   0.925  0.1740 -0.6399 -0.2825
 1654WAT      O 8420   8.560   3.331   6.595  0.2459  0.3905 -0.3390
 1654WAT     H1 8421   8.579   3.256   6.538 -2.1681 -0.7905  0.2944
 1654WAT     H2 8422   8.586   3.302   6.682  0.7908  0.9062 -0.3294
 1654WAT    EPW 8423   8.566   3.317   6.599 -0.0005  0.3028 -0.2544
 1655WAT      O 8424  10.240   5.510   7.448  0.0373  0.3784  0.3637
 1655WAT     H1 8425  10.182   5.494   7.522  0.5742 -0.5755  0.6066
 1655WAT     H2 8426  10.310   5.564   7.484  0.0120  0.3732  0.4212
 1655WAT    EPW 8427  10.242   5.515   7.462  0.1049  0.2520  0.4032
 1656WAT      O 8428   7.386   0.730   0.762  0.4100 -0.5356 -0.4951
 1656WAT     H1 8429   7.413   0.781   0.838  0.1050 -1.7912  0.4951
 1656WAT     H2 8430   7.299   0.763   0.741 -0.6362 -1.8807  1.3673
 1656WAT    EPW 8431   7.378   0.741   0.770  0.2317 -0.8786 -0.1189
 1657WAT      O 8432   0.198   5.581   7.278 -0.3052  0.1534  0.6796
 1657WAT     H1 8433   0.189   5.490   7.252  0.2504  0.4335 -0.5465
 1657WAT     H2 8434   0.117   5.623   7.248 -0.2114  0.2188  0.5135
 1657WAT    EPW 8435   0.186   5.575   7.271 -0.2195  0.1991  0.4959
 1658WAT      O 8436   8.005   4.063   5.523 -0.1893  0.3962 -0.4795
 1658WAT     H1 8437   8.025   4.099   5.436 -1.6632  1.9893 -0.2106
 1658WAT     H2 8438   7.913   4.039   5.518 -0.1655  0.0714  0.5133
 1658WAT    EPW 8439   7.996   4.065   5.511 -0.3803  0.5634 -0.3128
 1659WAT      O 8440   8.882   0.905   7.662 -0.3683  0.0122 -0.2414
 1659WAT     H1 8441   8.833   0.852   7.600  0.2516 -2.5640  1.3196
 1659WAT     H2 8442   8.861   0.996   7.638 -2.1033 -0.9007 -2.5526
 1659WAT    EPW 8443   8.873   0.910   7.651 -0.5155 -0.4480 -0.3405
 1660WAT      O 8444   5.284   2.688   5.921 -0.7172  0.4177  0.0609
 1660WAT     H1 8445   5.265   2.651   6.007 -1.7844 -2.7665 -1.3819
 1660WAT     H2 8446   5.238   2.772   5.920 -0.1370  0.8511  2.7581
 1660WAT    EPW 8447   5.275   2.694   5.932 -0.7813  0.0550  0.2265
 1661WAT      O 8448   1.873   1.441   8.444 -0.1120 -0.2587 -0.0116
 1661WAT     H1 8449   1.875   1.525   8.398  0.7493 -1.2634 -1.9301
 1661WAT     H2 8450   1.894   1.376   8.377  1.4091 -1.8138  1.8386
 1661WAT    EPW 8451   1.876   1.444   8.429  0.2023 -0.5963 -0.0200
 1662WAT      O 8452   8.721   4.884   8.493  0.0096 -0.0321  0.1139
 1662WAT     H1 8453   8.647   4.849   8.541  0.0435 -0.0686  0.1401
 1662WAT     H2 8454   8.755   4.810   8.442 -1.0590  0.3997 -1.2842
 1662WAT    EPW 8455   8.716   4.870   8.493 -0.1273  0.0203 -0.0672
 1663WAT      O 8456   6.052   3.266   1.341  0.3940 -0.0865 -0.0780
 1663WAT     H1 8457   6.091   3.219   1.415 -1.6618  0.3367  1.3714
 1663WAT     H2 8458   5.962   3.283   1.368  0.0110  1.4989 -2.0597
 1663WAT    EPW 8459   6.045   3.262   1.354  0.0725  0.1783 -0.1481
 1664WAT      O 8460   1.203   2.537   7.760  0.3730  0.2201 -0.1260
 1664WAT     H1 8461   1.206   2.471   7.829  3.1725  0.7704  0.3999
 1664WAT     H2 8462   1.255   2.609   7.794  2.3034  0.3174 -2.9710
 1664WAT    EPW 8463   1.210   2.538   7.774  0.9968  0.3057 -0.4318
 1665WAT      O 8464   7.311   6.053   4.738  0.1431  0.0950 -0.1777
 1665WAT     H1 8465   7.334   6.089   4.652 -0.1953  1.3227  0.2364
 1665WAT     H2 8466   7.386   5.998   4.761 -0.5150 -1.7674 -2.0431
 1665WAT    EPW 8467   7.324   6.050   4.730  0.0114  0.0112 -0.3691
 1666WAT      O 8468   1.833   6.486   1.389  0.1439  0.0517 -0.0925
 1666WAT     H1 8469   1.859   6.428   1.318 -0.8007 -1.6674  0.8867
 1666WAT     H2 8470   1.744   6.514   1.365 -1.1428 -2.4048  1.4101
 1666WAT    EPW 8471   1.824   6.482   1.377 -0.1504 -0.4990  0.2348
 1667WAT      O 8472   2.091   3.416   5.770 -0.5581  0.1288  0.0359
 1667WAT     H1 8473   2.181   3.438   5.745  0.9111 -2.4682  2.4515
 1667WAT     H2 8474   2.068   3.342   5.713 -0.2333 -0.6632  0.8982
 1667WAT    EPW 8475   2.100   3.409   5.759 -0.3214 -0.3183  0.4683
 1668WAT      O 8476   2.969   9.386   0.529 -0.7933 -0.7841  0.0525
 1668WAT     H1 8477   2.874   9.398   0.522 -0.6639  1.3820  1.0974
 1668WAT     H2 8478   3.005   9.438   0.457 -0.3855 -0.6876  0.3235
 1668WAT    EPW 8479   2.961   9.395   0.519 -0.7223 -0.4854  0.2261
 1669WAT      O 8480   0.085   1.633   6.685  0.1931 -1.0861  0.8070
 1669WAT     H1 8481   0.046   1.717   6.659  1.5744 -1.0882 -1.6423
 1669WAT     H2 8482   0.024   1.597   6.749 -2.1450  0.3141 -0.4791
 1669WAT    EPW 8483   0.072   1.639   6.690  0.0669 -0.9017  0.3142
 1670WAT      O 8484   0.049   4.767   6.919 -0.1986 -0.7364 -0.1694
 1670WAT     H1 8485   0.122   4.764   6.981  0.4213  1.6710 -0.6489
 1670WAT     H2 8486   0.063   4.691   6.862  1.4525 -0.8110  0.2747
 1670WAT    EPW 8487   0.061   4.757   6.919  0.1010 -0.4287 -0.1740
 1671WAT      O 8488   2.977   6.746   4.943 -0.5665  0.2407  0.3601
 1671WAT     H1 8489   2.925   6.786   5.013 -0.4851 -0.4905  0.8472
 1671WAT     H2 8490   2.991   6.817   4.881 -0.6697  0.8944  1.0686
 1671WAT    EPW 8491   2.972   6.761   4.944 -0.5693  0.2306  0.5178
 1672WAT      O 8492   7.140   2.090   8.562 -0.1933 -0.0400  0.1589
 1672WAT     H1 8493   7.146   2.077   8.656 -0.7113  0.1435  0.2204
 1672WAT     H2 8494   7.123   2.183   8.551 -0.7430 -0.1645 -0.0869
 1672WAT    EPW 8495   7.138   2.100   8.573 -0.3340 -0.0323  0.1349
 1673WAT      O 8496   4.582   5.218   0.602  0.2272 -0.6386 -0.5850
 1673WAT     H1 8497   4.506   5.172   0.569 -0.6144  1.1152 -1.2161
 1673WAT     H2 8498   4.653   5.194   0.543 -0.0200 -1.6007 -0.5064
 1673WAT    EPW 8499   4.581   5.209   0.590  0.0834 -0.5338 -0.6579
 1674WAT      O 8500   9.938   4.237   7.564 -0.6903  0.6815  0.6869
 1674WAT     H1 8501   9.915   4.279   7.647  1.0291 -0.1000  1.6240
 1674WAT     H2 8502   9.969   4.150   7.589  1.7610  1.1195 -0.5047
 1674WAT    EPW 8503   9.939   4.231   7.578 -0.1407  0.6361  0.6530
 1675WAT      O 8504   9.872   2.390   7.181 -0.1330  0.1899  0.8601
 1675WAT     H1 8505   9.941   2.333   7.147 -0.8704 -0.5354  0.5305
 1675WAT     H2 8506   9.904   2.417   7.267  1.8715  2.2426 -0.4147
 1675WAT    EPW 8507   9.885   2.386   7.188  0.0339  0.3650  0.6485
 1676WAT      O 8508   3.867   7.739   1.331  0.0977  0.0392  0.2787
 1676WAT     H1 8509   3.871   7.699   1.244 -0.2349 -1.4354  0.9016
 1676WAT     H2 8510   3.948   7.789   1.338  0.3349 -0.1889 -0.7161
 1676WAT    EPW 8511   3.878   7.740   1.320  0.0851 -0.1855  0.2297
 1677WAT      O 8512   8.344   0.518   1.201  0.3230 -0.7972  0.2269
 1677WAT     H1 8513   8.396   0.443   1.228  1.9454  0.6380  1.2811
 1677WAT     H2 8514   8.294   0.542   1.279  0.4056 -0.3271  0.1389
 1677WAT    EPW 8515   8.344   0.511   1.214  0.5479 -0.5459  0.3543
 1678WAT      O 8516   9.926   3.329   5.940  0.9546  0.3920 -0.0716
 1678WAT     H1 8517  10.019   3.351   5.928  1.5842  0.0306  3.1467
 1678WAT     H2 8518   9.925   3.234   5.952  0.1353  0.3576 -0.3900
 1678WAT    EPW 8519   9.938   3.319   5.940  0.9298  0.3399  0.3111
 1679WAT      O 8520   7.815   1.817   0.399  0.2493 -0.1355  0.8715
 1679WAT     H1 8521   7.840   1.727   0.380  0.4842  0.3597 -1.4024
 1679WAT     H2 8522   7.780   1.850   0.316 -1.1913  1.4307  2.0468
 1679WAT    EPW 8523   7.813   1.809   0.386  0.0904  0.1365  0.7266
 1680WAT      O 8524   1.280   3.053   5.333  0.2503  0.0380 -0.1679
 1680WAT     H1 8525   1.225   2.988   5.289 -0.1265  0.4254 -0.2838
 1680WAT     H2 8526   1.276   3.030   5.425  0.3760 -0.2912 -0.2434
 1680WAT    EPW 8527   1.272   3.042   5.339  0.2171  0.0455 -0.1931
 1681WAT      O 8528  10.722   2.444   8.561  0.4092  0.5511  0.0691
 1681WAT     H1 8529  10.807   2.462   8.602  0.0014  2.2015  0.2674
 1681WAT     H2 8530  10.680   2.530   8.555 -1.1203 -0.1928 -0.3184
 1681WAT    EPW 8531  10.728   2.458   8.566  0.1540  0.6707  0.0439
 1682WAT      O 8532   3.235   4.501   7.936  0.0367  0.2833 -0.2344
 1682WAT     H1 8533   3.223   4.489   7.842 -0.4406 -2.6060  0.0794
 1682WAT     H2 8534   3.150   4.529   7.968  0.3783  1.9462 -0.6940
 1682WAT    EPW 8535   3.222   4.503   7.928  0.0188  0.1216 -0.2537
 1683WAT      O 8536   0.308   1.796   6.423 -0.1243  0.6118 -0.4975
 1683WAT     H1 8537   0.355   1.735   6.480  0.1035 -0.6507 -1.9695
 1683WAT     H2 8538   0.320   1.882   6.464 -1.2613 -0.4045  2.1712
 1683WAT    EPW 8539   0.316   1.799   6.436 -0.2443  0.3112 -0.3395
 1684WAT      O 8540   2.008   5.705   7.094  0.0679  0.2768 -0.4321
 1684WAT     H1 8541   1.928   5.754   7.110  0.0585  0.3901 -0.8033
 1684WAT     H2 8542   2.072   5.742   7.154  0.4825  1.7912 -1.7495
 1684WAT    EPW 8543   2.006   5.716   7.104  0.1215  0.4916 -0.6547
 1685WAT      O 8544   4.500   7.283   1.028  0.2471  0.3473  0.3925
 1685WAT     H1 8545   4.529   7.193   1.045 -0.3825 -0.0081 -0.3478
 1685WAT     H2 8546   4.406   7.281   1.043  0.4523  1.3243  2.0742
 1685WAT    EPW 8547   4.492   7.271   1.032  0.1910  0.4294  0.5167
 1686WAT      O 8548   8.593   1.184   5.253 -0.0724 -0.1244  0.7747
 1686WAT     H1 8549   8.525   1.119   5.271  0.6343 -1.1588 -0.1941
 1686WAT     H2 8550   8.671   1.149   5.296 -0.0016  0.8086  1.4509
 1686WAT    EPW 8551   8.594   1.171   5.261  0.0305 -0.1378  0.7360
 1687WAT      O 8552   8.836   3.679   5.903 -0.3745  1.0492 -0.5738
 1687WAT     H1 8553   8.890   3.735   5.958 -0.4867  0.0518  0.5655
 1687WAT     H2 8554   8.788   3.741   5.848  2.6960  1.9578 -2.4876
 1687WAT    EPW 8555   8.836   3.695   5.903  0.0153  1.0375 -0.6759
 1688WAT      O 8556   2.680   9.751   1.357  0.0451  0.1633 -0.7632
 1688WAT     H1 8557   2.680   9.690   1.431  1.1054  1.0262  0.0051
 1688WAT     H2 8558   2.723   9.830   1.392 -0.0136  0.8288 -2.1238
 1688WAT    EPW 8559   2.686   9.754   1.372  0.1771  0.3648 -0.8413
 1689WAT      O 8560   8.678   4.488   6.891  0.4699 -0.3663  0.0841
 1689WAT     H1 8561   8.677   4.582   6.878 -0.5189 -0.1217  1.5975
 1689WAT     H2 8562   8.764   4.469   6.929 -0.4636  0.4662  2.8265
 1689WAT    EPW 8563   8.689   4.498   6.894  0.2165 -0.2246  0.6452
 1690WAT      O 8564  10.303   2.326   5.133 -0.1870  0.2926  0.2758
 1690WAT     H1 8565  10.216   2.364   5.119 -0.2261  0.0341 -0.2238
 1690WAT     H2 8566  10.323   2.344   5.225  0.1681  2.3076 -0.1424
 1690WAT    EPW 8567  10.295   2.334   5.143 -0.1450  0.5243  0.1547
 1691WAT      O 8568   8.196   3.637   4.806  0.2834  0.3326  0.2999
 1691WAT     H1 8569   8.287   3.638   4.834 -0.3371  0.1021  2.5352
 1691WAT     H2 8570   8.173   3.544   4.802  0.6949  0.2784 -2.4216
 1691WAT    EPW 8571   8.205   3.625   4.809  0.2556  0.2952  0.2356
 1692WAT      O 8572   2.287   8.891   0.063 -0.3205  0.5734 -0.6068
 1692WAT     H1 8573   2.354   8.822   0.059  0.1221  1.0609 -3.0647
 1692WAT     H2 8574   2.209   8.851   0.024 -1.1833  0.3728  1.2270
 1692WAT    EPW 8575   2.286   8.877   0.058 -0.3757  0.6113 -0.6891
 1693WAT      O 8576   9.013   1.538   8.351  0.6663  0.1051 -0.3279
 1693WAT     H1 8577   9.001   1.460   8.297 -1.6728 -1.3592  2.0089
 1693WAT     H2 8578   9.010   1.611   8.289 -0.1735 -1.5088 -2.3164
 1693WAT    EPW 8579   9.011   1.537   8.336  0.2470 -0.3009 -0.2818
 1694WAT      O 8580  10.484   5.094   7.941 -0.1345  0.4575 -0.0763
 1694WAT     H1 8581  10.493   5.000   7.955 -3.7503  0.1581  1.4008
 1694WAT     H2 8582  10.527   5.134   8.016 -2.0459 -0.2971  1.5063
 1694WAT    EPW 8583  10.491   5.087   7.953 -0.8631  0.3183  0.3273
 1695WAT      O 8584  10.253   2.844   7.663 -0.0782  0.4840  0.0304
 1695WAT     H1 8585  10.334   2.802   7.636 -1.0405 -0.3987 -1.6158
 1695WAT     H2 8586  10.201   2.774   7.702 -0.8819  0.5598 -0.8722
 1695WAT    EPW 8587  10.257   2.829   7.664 -0.3114  0.3775 -0.3059
 1696WAT      O 8588   8.114   6.901   8.779  0.3730 -0.3176  0.8644
 1696WAT     H1 8589   8.042   6.915   8.718  1.4579  0.2231 -0.3245
 1696WAT     H2 8590   8.094   6.958   8.853 -1.1761 -1.2973  1.2604
 1696WAT    EPW 8591   8.102   6.910   8.781  0.3119 -0.3753  0.7596
 1697WAT      O 8592   9.381   2.437   8.484  0.3450 -0.1978  0.6297
 1697WAT     H1 8593   9.407   2.520   8.444 -0.2350 -0.1016  0.4348
 1697WAT     H2 8594   9.336   2.390   8.413  0.3873 -0.5395  0.8283
 1697WAT    EPW 8595   9.378   2.442   8.469  0.2742 -0.2302  0.6304
 1698WAT      O 8596   9.358   5.570   7.338  0.1548 -0.0611  0.3607
 1698WAT     H1 8597   9.424   5.549   7.404  0.0362  0.1685  0.5561
 1698WAT     H2 8598   9.329   5.485   7.304 -1.4879 -0.3469  2.2850
 1698WAT    EPW 8599   9.363   5.556   7.342 -0.0777 -0.0687  0.6402
 1699WAT      O 8600   3.591   2.327   7.923  0.4671  0.2338  0.1873
 1699WAT     H1 8601   3.578   2.243   7.879  3.1470 -0.4638  0.5101
 1699WAT     H2 8602   3.645   2.305   7.999  2.0468  2.3552 -0.2366
 1699WAT    EPW 8603   3.597   2.313   7.927  1.0289  0.4215  0.1740
 1700WAT      O 8604   1.417   3.658   0.551 -1.3121 -0.0726 -0.0078
 1700WAT     H1 8605   1.491   3.670   0.492 -2.4141  1.6248 -1.1346
 1700WAT     H2 8606   1.358   3.731   0.531 -3.2524 -1.3017  0.9130
 1700WAT    EPW 8607   1.419   3.669   0.541 -1.7133 -0.0108 -0.0350
 1701WAT      O 8608   0.660   3.567   7.971 -1.0251  0.0232  0.0506
 1701WAT     H1 8609   0.674   3.618   7.891  0.1350 -1.5933 -0.8375
 1701WAT     H2 8610   0.707   3.615   8.039  0.1059  0.1094 -0.7747
 1701WAT    EPW 8611   0.668   3.580   7.969 -0.7229 -0.1787 -0.1752
 1702WAT      O 8612   9.953   2.182   6.490  0.6113  0.3844 -0.1570
 1702WAT     H1 8613   9.916   2.250   6.433 -2.2696 -0.5334  0.4150
 1702WAT     H2 8614   9.926   2.100   6.448  1.8825 -0.3800  0.4627
 1702WAT    EPW 8615   9.944   2.180   6.477  0.3986  0.1625  0.0002
 1703WAT      O 8616   9.478   1.379   7.240 -0.3762  0.1434  0.1880
 1703WAT     H1 8617   9.439   1.303   7.196 -0.9860  0.2759  0.4878
 1703WAT     H2 8618   9.455   1.453   7.184  1.9595 -0.1033 -1.2116
 1703WAT    EPW 8619   9.470   1.378   7.227 -0.1478  0.1283  0.0429
 1704WAT      O 8620   8.303   5.230   5.939 -0.0126  0.6646 -0.1219
 1704WAT     H1 8621   8.264   5.210   5.854  0.6332  1.7425 -0.7058
 1704WAT     H2 8622   8.236   5.206   6.003 -1.2816  1.6143 -1.0360
 1704WAT    EPW 8623   8.289   5.224   5.936 -0.0954  0.9317 -0.3195
 1705WAT      O 8624   0.920   4.132   8.037  0.6617  0.9691  0.3646
 1705WAT     H1 8625   0.836   4.152   8.079 -0.2260  1.3630 -1.5317
 1705WAT     H2 8626   0.970   4.087   8.106 -0.6555  1.7176  1.8917
 1705WAT    EPW 8627   0.915   4.129   8.052  0.3709  1.1196  0.3157
 1706WAT      O 8628   0.368   1.339   7.664 -0.2953 -0.8180  0.4063
 1706WAT     H1 8629   0.336   1.319   7.752 -0.5988 -2.8549 -0.1229
 1706WAT     H2 8630   0.300   1.395   7.626 -0.4667 -0.4550  1.2271
 1706WAT    EPW 8631   0.355   1.344   7.671 -0.3579 -1.0388  0.4451
 1707WAT      O 8632   7.545   0.212   0.100  0.2589 -0.1152  0.3625
 1707WAT     H1 8633   7.465   0.166   0.127  0.2639 -1.5194 -1.7174
 1707WAT     H2 8634   7.516   0.269   0.029  0.4216  2.6248  2.3445
 1707WAT    EPW 8635   7.531   0.213   0.094  0.2809  0.0610  0.3496
 1708WAT      O 8636   6.553   2.256   7.476  0.1391  0.5038 -0.1360
 1708WAT     H1 8637   6.620   2.298   7.421  0.4682  0.7696  0.4568
 1708WAT     H2 8638   6.554   2.307   7.557 -0.8941  0.6062 -0.1742
 1708WAT    EPW 8639   6.562   2.269   7.479  0.0463  0.5524 -0.0629
 1709WAT      O 8640   0.174   2.267   6.103 -0.7974  0.1912  0.2302
 1709WAT     H1 8641   0.136   2.333   6.045 -2.3042 -0.2106  0.7067
 1709WAT     H2 8642   0.161   2.301   6.191  0.9643  0.5288  0.3961
 1709WAT    EPW 8643   0.167   2.280   6.107 -0.7638  0.1829  0.3150
 1710WAT      O 8644   7.425   3.841   1.051 -0.8805  0.7453 -0.0482
 1710WAT     H1 8645   7.446   3.831   0.958 -2.3609  0.5472 -0.3802
 1710WAT     H2 8646   7.401   3.753   1.079  1.1339  0.4606  0.9713
 1710WAT    EPW 8647   7.425   3.828   1.042 -0.8099  0.6816  0.0425
 1711WAT      O 8648   8.483   9.661   6.956  0.2342  0.9324  0.5552
 1711WAT     H1 8649   8.547   9.594   6.931  0.0884  0.3707  1.6056
 1711WAT     H2 8650   8.408   9.646   6.899  0.0393 -0.0804  1.0589
 1711WAT    EPW 8651   8.482   9.650   6.945  0.1888  0.7248  0.7601
 1712WAT      O 8652   1.586   4.739   4.206 -0.3253 -0.0532 -0.1564
 1712WAT     H1 8653   1.647   4.700   4.268  0.9760 -2.3867 -2.6647
 1712WAT     H2 8654   1.547   4.664   4.160 -1.2654  1.5183 -2.0945
 1712WAT    EPW 8655   1.589   4.724   4.208 -0.2777 -0.1535 -0.7429
 1713WAT      O 8656   3.816   9.917   0.706 -0.5822  0.4575 -0.0993
 1713WAT     H1 8657   3.766   9.991   0.741 -0.2072  1.6437 -1.9410
 1713WAT     H2 8658   3.846   9.947   0.620 -1.3775 -2.2540 -1.4094
 1713WAT    EPW 8659   3.813   9.931   0.700 -0.6377  0.2561 -0.5150
 1714WAT      O 8660   1.248   3.729   4.790  0.1807 -0.2209  0.2667
 1714WAT     H1 8661   1.256   3.792   4.861  1.6175 -0.8100  0.6685
 1714WAT     H2 8662   1.186   3.664   4.821  0.3385 -0.1478  0.7335
 1714WAT    EPW 8663   1.241   3.729   4.803  0.3909 -0.2890  0.3815
 1715WAT      O 8664   9.806   4.501   5.470 -0.1158 -0.1809  0.0260
 1715WAT     H1 8665   9.821   4.408   5.455 -1.2748  0.0174 -3.1330
 1715WAT     H2 8666   9.746   4.504   5.544  0.4170 -1.8710  0.5826
 1715WAT    EPW 8667   9.800   4.489   5.478 -0.1984 -0.3777 -0.3173
 1716WAT      O 8668   0.161   1.231   5.271 -0.2105 -0.2145 -0.4291
 1716WAT     H1 8669   0.080   1.191   5.303 -0.3606  0.0398 -0.4915
 1716WAT     H2 8670   0.230   1.181   5.314 -0.3527 -1.5640 -1.6844
 1716WAT    EPW 8671   0.159   1.219   5.281 -0.2491 -0.3589 -0.6027
 1717WAT      O 8672   4.232   8.593   2.788  0.6126  0.2894  0.4761
 1717WAT     H1 8673   4.324   8.592   2.816  0.2315  2.1308  2.0328
 1717WAT     H2 8674   4.198   8.677   2.821 -1.3177  0.2086 -1.1252
 1717WAT    EPW 8675   4.239   8.604   2.796  0.3076  0.5207  0.4703
 1718WAT      O 8676   0.101   0.363   5.311  0.6215  0.3785 -0.5276
 1718WAT     H1 8677   0.171   0.345   5.373 -1.1215  0.0670  1.4686
 1718WAT     H2 8678   0.133   0.328   5.228  2.9833  0.6777  0.1756
 1718WAT    EPW 8679   0.114   0.356   5.308  0.7031  0.3769 -0.1717
 1719WAT      O 8680   8.548   2.469   5.963  0.2144  0.6017  0.0962
 1719WAT     H1 8681   8.638   2.468   5.995  0.0467 -2.9468  0.7829
 1719WAT     H2 8682   8.557   2.474   5.868  1.3560 -2.1462 -0.0357
 1719WAT    EPW 8683   8.561   2.470   5.955  0.3433 -0.2286  0.1693
 1720WAT      O 8684   2.263  10.199   0.556  0.3524  0.4562 -0.0995
 1720WAT     H1 8685   2.267  10.240   0.642 -1.4548 -2.7403  1.6810
 1720WAT     H2 8686   2.340  10.142   0.553 -1.6514 -2.5827  1.3446
 1720WAT    EPW 8687   2.274  10.197   0.567 -0.1502 -0.3662  0.3258
 1721WAT      O 8688   9.213   3.702   5.072 -0.4412 -0.0421 -0.6573
 1721WAT     H1 8689   9.261   3.633   5.117 -1.6288 -0.3378  0.1934
 1721WAT     H2 8690   9.226   3.683   4.979  0.2472 -0.6978 -0.4347
 1721WAT    EPW 8691   9.221   3.690   5.065 -0.5069 -0.1675 -0.5155
 1722WAT      O 8692   3.931   2.538   8.972 -0.5523 -0.2921 -0.2147
 1722WAT     H1 8693   3.969   2.462   9.015 -0.6961  0.7158  1.7712
 1722WAT     H2 8694   3.883   2.584   9.041  2.0698  3.3127 -0.5116
 1722WAT    EPW 8695   3.929   2.534   8.987 -0.2254  0.3165  0.0086
 1723WAT      O 8696   5.915   1.662   0.362  0.0396  0.4372  0.3099
 1723WAT     H1 8697   5.948   1.637   0.275 -0.2298  1.8472 -0.2228
 1723WAT     H2 8698   5.993   1.686   0.411 -0.0171  2.7228 -0.6024
 1723WAT    EPW 8699   5.929   1.662   0.357 -0.0033  0.9245  0.1193
 1724WAT      O 8700   9.655   0.242   5.111  0.1385  0.6559 -0.0002
 1724WAT     H1 8701   9.742   0.253   5.147  0.3942 -1.1709  0.0236
 1724WAT     H2 8702   9.618   0.167   5.158 -0.5838 -0.0076 -1.5430
 1724WAT    EPW 8703   9.661   0.233   5.122  0.0772  0.3274 -0.2007
 1725WAT      O 8704   2.603   4.696   1.117 -0.1265 -0.2777 -0.3227
 1725WAT     H1 8705   2.644   4.701   1.203  1.6377  0.5575 -1.1648
 1725WAT     H2 8706   2.607   4.603   1.094  1.0358 -0.2571 -0.2470
 1725WAT    EPW 8707   2.609   4.684   1.125  0.2596 -0.1650 -0.4238
 1726WAT      O 8708   9.397   4.082   7.060 -0.0953 -0.0867  0.6043
 1726WAT     H1 8709   9.398   3.992   7.027 -1.2202 -0.1548  0.7018
 1726WAT     H2 8710   9.351   4.076   7.144  2.7514  0.0639  2.2896
 1726WAT    EPW 8711   9.391   4.069   7.067  0.1316 -0.0758  0.8395
 1727WAT      O 8712   8.204  10.324   7.908  0.2932 -0.3484 -0.7282
 1727WAT     H1 8713   8.134  10.355   7.966  2.2065  0.9322  1.0312
 1727WAT     H2 8714   8.203  10.386   7.835 -0.5935 -0.5279 -0.8789
 1727WAT    EPW 8715   8.195  10.337   7.906  0.4286 -0.2032 -0.5164
 1728WAT      O 8716   8.139   1.001   7.890 -0.1667 -0.6961  0.0938
 1728WAT     H1 8717   8.192   0.921   7.891 -0.2869 -0.8036 -1.0588
 1728WAT     H2 8718   8.106   1.007   7.800 -0.4690  0.4473  0.2668
 1728WAT    EPW 8719   8.142   0.991   7.878 -0.2217 -0.5595 -0.0355
 1729WAT      O 8720   0.228   5.629   6.865 -0.0754  0.1815 -0.7892
 1729WAT     H1 8721   0.257   5.717   6.889 -1.3101  1.4907 -3.6212
 1729WAT     H2 8722   0.226   5.630   6.770 -1.5882 -2.4379 -0.8801
 1729WAT    EPW 8723   0.231   5.641   6.856 -0.4378  0.0086 -1.1744
 1730WAT      O 8724   4.095  10.239   0.382  0.2177  0.1619 -0.4889
 1730WAT     H1 8725   4.092  10.288   0.299  0.8848 -0.2098 -0.7374
 1730WAT     H2 8726   4.188  10.228   0.400  0.0972  0.9789  0.7632
 1730WAT    EPW 8727   4.107  10.244   0.373  0.2897  0.2208 -0.3566
 1731WAT      O 8728   0.872   0.299   5.442  0.1909 -1.3941 -0.0778
 1731WAT     H1 8729   0.790   0.315   5.489  0.1109 -1.1804 -0.2854
 1731WAT     H2 8730   0.872   0.364   5.371  0.3838 -1.6067 -0.2769
 1731WAT    EPW 8731   0.861   0.309   5.439  0.2058 -1.3939 -0.1316
 1732WAT      O 8732   9.819   5.481   8.744 -0.1528  0.6993  0.2299
 1732WAT     H1 8733   9.796   5.462   8.653  0.6657  1.3822 -0.1355
 1732WAT     H2 8734   9.883   5.552   8.738 -0.2283  0.8795  1.3512
 1732WAT    EPW 8735   9.824   5.488   8.731 -0.0548  0.8135  0.3290
 1733WAT      O 8736   2.015   8.475   3.699 -0.3548  0.1828 -1.1582
 1733WAT     H1 8737   2.107   8.477   3.724  0.0900  0.3382 -2.6936
 1733WAT     H2 8738   1.980   8.558   3.731  0.8236  1.5578 -3.1561
 1733WAT    EPW 8739   2.023   8.486   3.706 -0.1407  0.3843 -1.6241
 1734WAT      O 8740   4.464   6.690   1.109  0.2426 -0.1538 -0.3949
 1734WAT     H1 8741   4.430   6.774   1.141 -1.7716 -0.8809 -0.4965
 1734WAT     H2 8742   4.559   6.703   1.106 -0.0605  2.4713 -1.4317
 1734WAT    EPW 8743   4.472   6.703   1.113 -0.0632  0.0963 -0.5450
 1735WAT      O 8744   0.099   0.866   7.509 -0.2515  0.4972 -0.0709
 1735WAT     H1 8745   0.009   0.874   7.540  0.0606 -0.0478  1.0342
 1735WAT     H2 8746   0.142   0.810   7.575  0.6298 -0.0898 -1.1126
 1735WAT    EPW 8747   0.093   0.860   7.522 -0.0941  0.3479 -0.0625
 1736WAT      O 8748   8.407   0.739   7.574  1.5909  0.1710 -0.2823
 1736WAT     H1 8749   8.339   0.750   7.641  0.4836  0.8821 -1.4926
 1736WAT     H2 8750   8.485   0.712   7.624  0.0441 -2.3225  0.9919
 1736WAT    EPW 8751   8.409   0.737   7.590  1.2407 -0.0641 -0.2737
 1737WAT      O 8752   9.621   2.037   7.247 -0.0093 -0.3130 -0.0049
 1737WAT     H1 8753   9.598   2.127   7.227 -0.3600 -0.0808  1.3175
 1737WAT     H2 8754   9.536   1.994   7.262 -0.1179 -1.7064 -3.6502
 1737WAT    EPW 8755   9.607   2.043   7.246 -0.0701 -0.4662 -0.3114
 1738WAT      O 8756   7.484   9.878   6.442 -0.3721 -0.0995  0.0513
 1738WAT     H1 8757   7.571   9.838   6.434 -0.3585  0.0326 -0.4853
 1738WAT     H2 8758   7.488   9.927   6.524  0.0101 -0.2168  0.1045
 1738WAT    EPW 8759   7.496   9.879   6.452 -0.3197 -0.0982 -0.0124
 1739WAT      O 8760   9.416   0.622   4.838  0.0437  0.2145  0.1032
 1739WAT     H1 8761   9.368   0.695   4.876 -0.5880 -0.1346 -0.0174
 1739WAT     H2 8762   9.432   0.563   4.911 -0.6659 -0.1832 -0.0592
 1739WAT    EPW 8763   9.412   0.624   4.852 -0.1335  0.1160  0.0660
 1740WAT      O 8764   9.369   0.976   7.434  0.6791  0.0791 -0.3652
 1740WAT     H1 8765   9.416   0.899   7.467  0.8073  0.5738  0.6562
 1740WAT     H2 8766   9.330   1.015   7.512 -0.7225  0.1762 -1.0711
 1740WAT    EPW 8767   9.370   0.971   7.449  0.5116  0.1571 -0.3233
 1741WAT      O 8768   9.359   0.891   4.336  0.1173  0.7087 -0.1016
 1741WAT     H1 8769   9.330   0.960   4.276  1.0922  0.6558 -0.6572
 1741WAT     H2 8770   9.285   0.878   4.395 -0.2434  1.9418 -0.2426
 1741WAT    EPW 8771   9.346   0.899   4.336  0.1979  0.8644 -0.1938
 1742WAT      O 8772   2.805   2.029   5.157  0.3591  0.8594 -0.1304
 1742WAT     H1 8773   2.716   2.039   5.124  0.3635  2.3370  0.2271
 1742WAT     H2 8774   2.861   2.057   5.084  0.7661 -2.8089 -1.4708
 1742WAT    EPW 8775   2.801   2.034   5.143  0.4135  0.5704 -0.2599
 1743WAT      O 8776   7.796   1.931   8.304 -0.1276 -0.0077  0.5757
 1743WAT     H1 8777   7.882   1.906   8.338 -0.5838  0.8017  2.4571
 1743WAT     H2 8778   7.767   1.855   8.254  0.6223 -1.2631  1.9842
 1743WAT    EPW 8779   7.804   1.918   8.301 -0.0889 -0.0665  1.0099
 1744WAT      O 8780   8.402   1.965   7.682  0.5858  0.2391 -0.7111
 1744WAT     H1 8781   8.421   1.879   7.718 -0.1786  1.8020  4.2556
 1744WAT     H2 8782   8.306   1.971   7.685  0.6214  1.1868 -1.1388
 1744WAT    EPW 8783   8.392   1.955   7.687  0.4897  0.5702 -0.1128
 1745WAT      O 8784   9.718   1.267   7.921  0.2820  0.0806  0.4223
 1745WAT     H1 8785   9.733   1.273   8.015 -0.2363  0.5164  0.4819
 1745WAT     H2 8786   9.642   1.209   7.912  0.9684 -0.8070  0.2119
 1745WAT    EPW 8787   9.710   1.260   7.932  0.3042  0.0209  0.4027
 1746WAT      O 8788  10.123   2.042   7.351  0.3703 -0.2140 -0.0669
 1746WAT     H1 8789  10.114   1.964   7.297  0.0561  1.2001 -2.1937
 1746WAT     H2 8790  10.033   2.072   7.366  0.5257  0.6521 -0.7494
 1746WAT    EPW 8791  10.110   2.036   7.346  0.3495  0.0869 -0.4377
 1747WAT      O 8792   0.198   4.624   8.224 -0.2477  0.1048 -0.5414
 1747WAT     H1 8793   0.167   4.676   8.298 -3.6051 -2.1611 -0.0938
 1747WAT     H2 8794   0.292   4.641   8.220  0.1324  0.5404  4.1576
 1747WAT    EPW 8795   0.206   4.633   8.233 -0.6404 -0.1366  0.1373
 1748WAT      O 8796   9.973   5.096   8.666 -0.0164  0.1807 -1.0206
 1748WAT     H1 8797   9.887   5.055   8.667 -0.1297  0.2084 -3.3091
 1748WAT     H2 8798  10.034   5.024   8.657  0.3282  0.0984  1.3235
 1748WAT    EPW 8799   9.970   5.081   8.665  0.0138  0.1738 -1.0128
 1749WAT      O 8800   1.017   1.897   6.388 -0.0003  0.4371  0.2025
 1749WAT     H1 8801   0.970   1.967   6.342 -0.2940  0.0680 -0.0623
 1749WAT     H2 8802   1.109   1.922   6.380 -0.1009  0.7925  0.1085
 1749WAT    EPW 8803   1.023   1.910   6.381 -0.0522  0.4353  0.1552
 1750WAT      O 8804   3.634   0.943   0.939  0.2612  0.2625  0.4898
 1750WAT     H1 8805   3.551   0.965   0.980 -0.3613 -0.6646 -0.2174
 1750WAT     H2 8806   3.664   0.865   0.986 -1.4380 -2.0370 -1.9415
 1750WAT    EPW 8807   3.627   0.935   0.950 -0.0451 -0.1631  0.0758
 1751WAT      O 8808  10.367   1.181   6.364  0.1468  0.2525 -0.1512
 1751WAT     H1 8809  10.397   1.244   6.429  1.2244 -1.4529  1.0914
 1751WAT     H2 8810  10.426   1.192   6.290  1.4944 -0.4714  0.7739
 1751WAT    EPW 8811  10.379   1.191   6.363  0.4668 -0.0678  0.1349
 1752WAT      O 8812   9.301   5.361   8.544  0.1392  0.1111  0.2399
 1752WAT     H1 8813   9.227   5.316   8.586  0.0669 -0.0910 -0.0988
 1752WAT     H2 8814   9.328   5.301   8.475 -0.0080  0.6313 -0.2721
 1752WAT    EPW 8815   9.295   5.347   8.541  0.1101  0.1533  0.1273
 1753WAT      O 8816   1.274   1.933   8.735 -0.3692  0.3616 -0.2449
 1753WAT     H1 8817   1.274   1.865   8.667 -0.1433 -0.9519  1.0051
 1753WAT     H2 8818   1.220   1.896   8.805 -0.6489  1.7011  0.2662
 1753WAT    EPW 8819   1.267   1.919   8.736 -0.3763  0.3651 -0.0124
 1754WAT      O 8820   8.856   0.926   8.929  0.3114  0.2348 -0.6883
 1754WAT     H1 8821   8.833   0.912   9.021 -1.1989 -2.9280 -1.4028
 1754WAT     H2 8822   8.951   0.914   8.926  0.6285  1.9703  0.6144
 1754WAT    EPW 8823   8.866   0.922   8.941  0.1540  0.0466 -0.6108
 1755WAT      O 8824  10.680   0.381   7.155  0.0598  0.7021 -0.4509
 1755WAT     H1 8825  10.651   0.294   7.128 -2.2832  1.0799  0.5782
 1755WAT     H2 8826  10.767   0.391   7.116 -0.1381 -1.5858 -1.6263
 1755WAT    EPW 8827  10.688   0.371   7.146 -0.2756  0.4502 -0.4702
 1756WAT      O 8828  10.437   0.742   7.098  0.4006 -0.0928  0.1063
 1756WAT     H1 8829  10.341   0.738   7.094  0.3859  0.7443 -1.2737
 1756WAT     H2 8830  10.464   0.736   7.007  1.6797 -0.3989  0.4933
 1756WAT    EPW 8831  10.428   0.741   7.085  0.5674 -0.0228 -0.0246
 1757WAT      O 8832   0.674   4.646   7.695 -0.1657 -0.1628 -0.0207
 1757WAT     H1 8833   0.766   4.663   7.674 -0.8151  0.1136 -2.9841
 1757WAT     H2 8834   0.677   4.609   7.783  2.7678 -0.1096  0.0076
 1757WAT    EPW 8835   0.687   4.643   7.704  0.1356 -0.1190 -0.4077
 1758WAT      O 8836  10.285   1.300   8.136 -0.0785  0.2482  0.3587
 1758WAT     H1 8837  10.224   1.368   8.107  0.5230  0.4786 -0.3925
 1758WAT     H2 8838  10.362   1.349   8.166  0.2644 -0.0916  0.0328
 1758WAT    EPW 8839  10.287   1.316   8.136  0.0467  0.2338  0.2165
 1759WAT      O 8840   2.122   0.184   6.313  0.2852  0.5736 -0.5373
 1759WAT     H1 8841   2.130   0.236   6.392  0.4937 -2.9030  1.9814
 1759WAT     H2 8842   2.028   0.181   6.295  0.1413  0.5924  0.1984
 1759WAT    EPW 8843   2.111   0.190   6.321  0.2937  0.1175 -0.1080
 1760WAT      O 8844   4.572  10.090   1.126 -0.6050 -0.3084  0.3465
 1760WAT     H1 8845   4.653  10.045   1.150  0.0314  0.0785 -0.9438
 1760WAT     H2 8846   4.545  10.136   1.205 -1.1582 -2.7161  1.6408
 1760WAT    EPW 8847   4.579  10.090   1.139 -0.5941 -0.5751  0.3470
 1761WAT      O 8848   3.049   7.653   0.572 -0.5229  0.3950  0.2666
 1761WAT     H1 8849   2.964   7.696   0.567 -0.7294 -0.0244  0.1931
 1761WAT     H2 8850   3.029   7.559   0.575 -0.0026  0.1960 -1.4420
 1761WAT    EPW 8851   3.035   7.646   0.572 -0.4815  0.3133  0.0316
 1762WAT      O 8852   0.969   3.411   7.916  0.2227 -0.8106  0.5590
 1762WAT     H1 8853   0.953   3.374   8.003 -1.0381  0.6368  0.9948
 1762WAT     H2 8854   1.018   3.492   7.933 -0.3269 -0.3433 -0.0327
 1762WAT    EPW 8855   0.973   3.417   7.930 -0.0161 -0.5580  0.5383
 1763WAT      O 8856   3.828   9.959   1.113  0.6755  0.2470  0.0266
 1763WAT     H1 8857   3.784  10.009   1.045  0.5368  1.4257  0.9419
 1763WAT     H2 8858   3.761   9.945   1.180  0.5164 -1.7983 -0.4828
 1763WAT    EPW 8859   3.814   9.964   1.113  0.6363  0.1326  0.0802
 1764WAT      O 8860   8.123   8.269   7.457  0.2130  0.2671 -0.1608
 1764WAT     H1 8861   8.110   8.317   7.539 -0.7628 -2.9789  1.7697
 1764WAT     H2 8862   8.079   8.322   7.391 -2.9999  0.8748  2.2484
 1764WAT    EPW 8863   8.116   8.283   7.459 -0.3395 -0.0806  0.4117
 1765WAT      O 8864   2.493   9.270   2.060 -0.4471  0.1267 -0.4402
 1765WAT     H1 8865   2.567   9.212   2.045 -0.8834 -0.3988 -0.6038
 1765WAT     H2 8866   2.416   9.213   2.058 -0.6151 -0.0435  3.7432
 1765WAT    EPW 8867   2.492   9.255   2.057 -0.5268  0.0343  0.0900
 1766WAT      O 8868   9.854   2.084   8.512 -0.4330 -0.1837 -0.4147
 1766WAT     H1 8869   9.790   2.090   8.583  0.4003 -0.1927  0.3495
 1766WAT     H2 8870   9.837   1.998   8.473 -1.4792  0.1855 -0.8129
 1766WAT    EPW 8871   9.843   2.073   8.516 -0.4611 -0.1361 -0.3662
 1767WAT      O 8872   9.784   3.603   7.442 -0.1243 -0.2581  0.1054
 1767WAT     H1 8873   9.756   3.680   7.393  2.3712  1.1471  0.7059
 1767WAT     H2 8874   9.720   3.595   7.514  0.0742  1.8294  0.5576
 1767WAT    EPW 8875   9.772   3.612   7.445  0.2308  0.2025  0.2444
 1768WAT      O 8876   0.394   2.822   7.624  0.0387 -0.2784  0.2243
 1768WAT     H1 8877   0.306   2.859   7.611  0.6240  1.3382  0.5656
 1768WAT     H2 8878   0.400   2.809   7.719  0.6654  1.0236  0.3866
 1768WAT    EPW 8879   0.383   2.825   7.635  0.1985  0.1066  0.2906
 1769WAT      O 8880   1.984   6.669   2.690 -0.1785  0.5140  0.3405
 1769WAT     H1 8881   1.993   6.629   2.777 -1.4109 -0.1077  0.2025
 1769WAT     H2 8882   1.937   6.604   2.638  1.5008  0.4250 -1.1324
 1769WAT    EPW 8883   1.979   6.655   2.695 -0.1195  0.4203  0.1280
 1770WAT      O 8884   9.999   2.219   6.998 -0.9920 -0.7124 -0.4625
 1770WAT     H1 8885   9.952   2.161   6.938  0.9852 -0.2839 -2.5329
 1770WAT     H2 8886  10.001   2.304   6.954 -0.3747 -0.1025  0.6840
 1770WAT    EPW 8887   9.993   2.223   6.985 -0.6495 -0.5755 -0.5844
 1771WAT      O 8888   2.105   1.789   8.088  0.4798  0.0643 -0.2727
 1771WAT     H1 8889   2.124   1.739   8.168  0.8146  0.6061 -0.0074
 1771WAT     H2 8890   2.181   1.773   8.032  0.6142  0.3083 -0.1652
 1771WAT    EPW 8891   2.118   1.780   8.091  0.5417  0.1679 -0.2241
 1772WAT      O 8892   9.611   6.566   8.435 -0.4860  0.0128 -0.2751
 1772WAT     H1 8893   9.617   6.493   8.374 -0.9215  1.1104 -1.6891
 1772WAT     H2 8894   9.567   6.635   8.386 -2.1036  0.5013  1.7278
 1772WAT    EPW 8895   9.606   6.566   8.420 -0.7567  0.2217 -0.1969
 1773WAT      O 8896   2.500   3.260   8.391 -0.8242 -0.5885 -0.4780
 1773WAT     H1 8897   2.486   3.319   8.317 -2.7464 -2.2880 -1.5831
 1773WAT     H2 8898   2.431   3.284   8.453  0.9899  1.0648  1.0358
 1773WAT    EPW 8899   2.489   3.271   8.390 -0.8386 -0.5945 -0.4244
 1774WAT      O 8900   5.237   6.052   0.319 -0.6015  0.1422 -0.2119
 1774WAT     H1 8901   5.324   6.080   0.293 -0.5912  1.1473  0.8351
 1774WAT     H2 8902   5.183   6.067   0.242  0.0258  0.0915 -0.6681
 1774WAT    EPW 8903   5.241   6.058   0.305 -0.5174  0.2682 -0.1340
 1775WAT      O 8904  10.675   4.327   8.805 -0.3582  0.0148  0.5262
 1775WAT     H1 8905  10.676   4.232   8.792 -1.0260 -0.0977  1.2562
 1775WAT     H2 8906  10.669   4.363   8.716 -0.8020 -0.6357  0.2881
 1775WAT    EPW 8907  10.675   4.319   8.791 -0.5050 -0.0858  0.5913
 1776WAT      O 8908   4.387   8.590   1.207  0.3644  0.5044 -0.4867
 1776WAT     H1 8909   4.305   8.604   1.254  0.1922  1.0174 -0.9351
 1776WAT     H2 8910   4.366   8.610   1.116  0.8192 -0.0108 -0.7102
 1776WAT    EPW 8911   4.373   8.594   1.201  0.4015  0.5040 -0.5752
 1777WAT      O 8912   7.829   8.450   7.513 -0.2148 -0.1231  1.0279
 1777WAT     H1 8913   7.878   8.521   7.472 -0.9732  0.9509  1.9178
 1777WAT     H2 8914   7.820   8.384   7.444 -2.7792  2.2187 -1.1599
 1777WAT    EPW 8915   7.834   8.451   7.499 -0.6530  0.3271  0.8566
 1778WAT      O 8916   5.712   1.548   0.109 -0.8036  0.9219  0.3353
 1778WAT     H1 8917   5.682   1.611   0.174 -2.6235 -0.1865  0.6242
 1778WAT     H2 8918   5.693   1.462   0.148 -1.8602  0.2283 -1.5878
 1778WAT    EPW 8919   5.706   1.545   0.123 -1.1830  0.6843  0.1197
 1779WAT      O 8920   8.151   1.685   7.719  0.6244  0.3652  0.8362
 1779WAT     H1 8921   8.241   1.676   7.686  0.3603  0.7496 -0.0114
 1779WAT     H2 8922   8.128   1.775   7.700 -0.3918 -0.0809 -0.1105
 1779WAT    EPW 8923   8.160   1.695   7.712  0.4559  0.3571  0.5994
 1780WAT      O 8924  10.933   5.431   6.917 -0.3653 -0.1189 -0.1048
 1780WAT     H1 8925  10.847   5.432   6.958  0.1971 -3.2673  1.4462
 1780WAT     H2 8926  10.953   5.523   6.902 -2.7722  0.8939  2.0652
 1780WAT    EPW 8927  10.924   5.443   6.920 -0.6080 -0.4005  0.3858
 1781WAT      O 8928   4.985   6.638   0.096  0.1597 -0.4046 -0.0387
 1781WAT     H1 8929   4.919   6.658   0.162  0.5733  1.4380 -0.1412
 1781WAT     H2 8930   4.938   6.589   0.028 -1.3098  1.4946 -0.4641
 1781WAT    EPW 8931   4.970   6.634   0.095  0.0203  0.0889 -0.1083
 1782WAT      O 8932   2.012   7.612   0.951  0.3043  0.3133 -0.1723
 1782WAT     H1 8933   2.070   7.554   0.901  0.7460  0.9098 -0.3560
 1782WAT     H2 8934   2.036   7.700   0.923 -2.4540  0.5437 -2.2110
 1782WAT    EPW 8935   2.023   7.616   0.941 -0.0012  0.4222 -0.4654
 1783WAT      O 8936   2.041   7.166   1.168  0.1156 -0.5426  0.4238
 1783WAT     H1 8937   2.028   7.196   1.259 -0.7117  0.6330 -0.0498
 1783WAT     H2 8938   2.134   7.146   1.163  0.1799 -0.6102  1.5363
 1783WAT    EPW 8939   2.052   7.168   1.179  0.0151 -0.3963  0.5081
 1784WAT      O 8940   0.943   3.518   6.935 -0.1854 -0.8491  0.2683
 1784WAT     H1 8941   1.016   3.456   6.932  0.5703 -0.0133  0.8767
 1784WAT     H2 8942   0.865   3.463   6.938  0.3657 -1.7680 -1.0489
 1784WAT    EPW 8943   0.942   3.502   6.935 -0.0131 -0.8601  0.1748
 1785WAT      O 8944   8.574   6.838   5.937 -0.0422  0.1845 -0.3395
 1785WAT     H1 8945   8.648   6.778   5.944 -1.1555 -1.3862 -1.2431
 1785WAT     H2 8946   8.498   6.784   5.962 -1.1004  1.1692 -1.3492
 1785WAT    EPW 8947   8.574   6.823   5.941 -0.3290  0.1070 -0.5915
 1786WAT      O 8948  10.189   2.802   8.523  0.2397  0.2594 -0.2027
 1786WAT     H1 8949  10.218   2.754   8.445  2.3307  0.3437  0.4495
 1786WAT     H2 8950  10.114   2.752   8.555  0.3948 -0.7419 -1.3234
 1786WAT    EPW 8951  10.183   2.789   8.517  0.5360  0.1384 -0.2646
 1787WAT      O 8952   2.194   4.561   7.724  0.5701  0.0227 -0.2825
 1787WAT     H1 8953   2.234   4.474   7.732  0.1777 -0.1157  0.2350
 1787WAT     H2 8954   2.246   4.616   7.782  0.5601  0.0385 -0.2887
 1787WAT    EPW 8955   2.206   4.557   7.733  0.5170  0.0064 -0.2151
 1788WAT      O 8956   3.082   9.502   0.250  0.0032  0.5048  0.0736
 1788WAT     H1 8957   3.171   9.503   0.284  0.6946 -3.1847 -1.1356
 1788WAT     H2 8958   3.092   9.519   0.156 -0.9545  2.5482  0.2749
 1788WAT    EPW 8959   3.095   9.504   0.242 -0.0319  0.2880 -0.0593
 1789WAT      O 8960   5.751  10.126   6.868  0.3707 -0.3848  0.2441
 1789WAT     H1 8961   5.781  10.118   6.778  3.4669  1.2437  1.0130
 1789WAT     H2 8962   5.693  10.203   6.868 -1.3470 -1.6134 -0.6523
 1789WAT    EPW 8963   5.747  10.135   6.856  0.5524 -0.3314  0.2275
 1790WAT      O 8964   5.810   3.992   7.339 -0.0114 -0.0652 -0.3840
 1790WAT     H1 8965   5.857   3.968   7.259 -2.0936 -0.3109 -1.5927
 1790WAT     H2 8966   5.772   3.910   7.370 -0.8166  0.3529 -0.2411
 1790WAT    EPW 8967   5.811   3.978   7.332 -0.3924 -0.0426 -0.5245
 1791WAT      O 8968   1.524   5.935   7.208  0.2445 -0.9449 -0.2350
 1791WAT     H1 8969   1.533   6.029   7.227  2.8461 -1.0474 -0.6240
 1791WAT     H2 8970   1.450   5.907   7.261  0.7863  0.8960  1.6200
 1791WAT    EPW 8971   1.516   5.944   7.217  0.6591 -0.7157 -0.0415
 1792WAT      O 8972   2.786   9.183   0.844 -0.3868  0.5995 -0.2489
 1792WAT     H1 8973   2.816   9.252   0.904 -1.0454  0.2702  0.4828
 1792WAT     H2 8974   2.741   9.121   0.901 -0.4811 -0.0410 -1.0125
 1792WAT    EPW 8975   2.784   9.184   0.860 -0.4861  0.4716 -0.2531
 1793WAT      O 8976   3.141   6.167   5.381  0.2466  0.7418  0.0720
 1793WAT     H1 8977   3.230   6.132   5.391 -0.1631  0.0543  1.5365
 1793WAT     H2 8978   3.144   6.253   5.423 -0.1111  0.1299  1.3919
 1793WAT    EPW 8979   3.153   6.174   5.388  0.1453  0.5703  0.4394
 1794WAT      O 8980   0.483   0.878   8.037 -0.2091  0.4479  0.6400
 1794WAT     H1 8981   0.418   0.820   7.997 -1.7267  2.0949  0.5597
 1794WAT     H2 8982   0.492   0.950   7.974 -1.8631  2.5858  2.6724
 1794WAT    EPW 8983   0.476   0.880   8.023 -0.6274  0.9471  0.8974
 1795WAT      O 8984   8.770   3.427   8.181 -0.0130 -0.2084  0.2766
 1795WAT     H1 8985   8.679   3.448   8.203 -0.0466 -1.4915  1.5123
 1795WAT     H2 8986   8.796   3.363   8.247  1.2693 -1.1187 -1.0511
 1795WAT    EPW 8987   8.761   3.421   8.193  0.1512 -0.4977  0.2642
 1796WAT      O 8988   2.305   8.427   0.170  0.0210 -0.1625 -0.4669
 1796WAT     H1 8989   2.350   8.489   0.112 -1.4913  0.9886 -0.4680
 1796WAT     H2 8990   2.261   8.482   0.234 -0.7663 -1.2872 -0.0143
 1796WAT    EPW 8991   2.305   8.443   0.171 -0.2823 -0.1588 -0.4074
 1797WAT      O 8992   9.327   3.061   8.899 -0.1876  0.9356  0.4330
 1797WAT     H1 8993   9.411   3.016   8.905 -0.9363 -0.8972 -1.4499
 1797WAT     H2 8994   9.329   3.126   8.969  2.7831  0.9729  0.4478
 1797WAT    EPW 8995   9.339   3.064   8.909  0.1054  0.6987  0.1864
 1798WAT      O 8996   8.230   0.567   8.004  0.4352 -0.2982  0.2042
 1798WAT     H1 8997   8.291   0.593   8.074 -1.1858 -0.2370  1.6491
 1798WAT     H2 8998   8.229   0.471   8.007 -0.8999 -0.2763  1.4552
 1798WAT    EPW 8999   8.238   0.558   8.013  0.0458 -0.2873  0.5598
 1799WAT      O 9000   0.644   2.755   8.155  0.1386  0.5774 -0.9600
 1799WAT     H1 9001   0.725   2.769   8.105  1.7016  0.1645  1.2907
 1799WAT     H2 9002   0.659   2.674   8.203 -2.0196  0.0089 -1.1541
 1799WAT    EPW 9003   0.657   2.746   8.154  0.0601  0.4480 -0.6886
 1800WAT      O 9004   1.679   2.507   8.291 -0.3395  0.0683 -0.0682
 1800WAT     H1 9005   1.601   2.559   8.273  0.5915  0.8828 -2.0843
 1800WAT     H2 9006   1.685   2.446   8.217  1.8700  1.2466 -0.9446
 1800WAT    EPW 9007   1.669   2.506   8.279  0.0747  0.3312 -0.4501
 1801WAT      O 9008   5.424   8.135   1.290 -0.1061 -0.2752 -0.0264
 1801WAT     H1 9009   5.406   8.151   1.197 -0.7374  0.2997  0.1884
 1801WAT     H2 9010   5.520   8.135   1.296 -0.0662  0.2308 -0.5873
 1801WAT    EPW 9011   5.434   8.137   1.278 -0.1841 -0.1326 -0.0721
 1802WAT      O 9012   8.728   3.817   6.212 -0.0516  0.5244  0.4766
 1802WAT     H1 9013   8.814   3.773   6.215  0.3402  1.1127 -1.1404
 1802WAT     H2 9014   8.722   3.862   6.296  1.2067  0.4017  0.6613
 1802WAT    EPW 9015   8.739   3.817   6.223  0.1659  0.5858  0.2875
 1803WAT      O 9016   9.649   3.659   2.899 -0.0398 -0.0155  0.2277
 1803WAT     H1 9017   9.566   3.613   2.887  2.0999 -3.9872 -1.3363
 1803WAT     H2 9018   9.693   3.611   2.969  1.6853  0.7331 -0.2952
 1803WAT    EPW 9019   9.644   3.646   2.907  0.4702 -0.4405 -0.0473
 1804WAT      O 9020   9.380   4.397   6.192 -0.4450 -0.0377 -0.0053
 1804WAT     H1 9021   9.345   4.317   6.232  2.5082 -2.3137 -1.5878
 1804WAT     H2 9022   9.351   4.467   6.250 -4.1265 -2.0275  0.9080
 1804WAT    EPW 9023   9.371   4.395   6.205 -0.5407 -0.6003 -0.0937
 1805WAT      O 9024   2.693   8.959   1.320 -0.2799 -0.0423  0.9033
 1805WAT     H1 9025   2.669   8.962   1.412  1.0681 -3.4570  1.5196
 1805WAT     H2 9026   2.739   8.876   1.310 -0.6184  0.0448 -2.9263
 1805WAT    EPW 9027   2.696   8.949   1.331 -0.1469 -0.4811  0.4795
 1806WAT      O 9028  10.765   2.588   7.676  0.6721  0.2303  0.1706
 1806WAT     H1 9029  10.735   2.507   7.717  1.5977 -0.3695 -0.3170
 1806WAT     H2 9030  10.858   2.594   7.699  0.1527  2.4275  2.2744
 1806WAT    EPW 9031  10.773   2.578   7.685  0.7257  0.4411  0.3839
 1807WAT      O 9032   3.065   4.694   7.066  0.7689 -0.0975 -1.1265
 1807WAT     H1 9033   3.124   4.766   7.088  0.5343 -0.0874 -0.5300
 1807WAT     H2 9034   3.009   4.684   7.142  0.6089 -0.7279 -1.3190
 1807WAT    EPW 9035   3.065   4.702   7.079  0.7168 -0.1795 -1.0734
 1808WAT      O 9036   9.895   4.605   8.835  0.1719  0.2345 -0.1513
 1808WAT     H1 9037   9.843   4.665   8.782  3.0768  3.7401  0.5584
 1808WAT     H2 9038   9.947   4.662   8.891  0.2036 -3.1465  3.6939
 1808WAT    EPW 9039   9.895   4.621   8.835  0.5593  0.2506  0.4497
 1809WAT      O 9040   5.242   3.258   8.355 -0.4203  0.0568 -0.7041
 1809WAT     H1 9041   5.184   3.183   8.366  1.1155 -0.8529  2.1090
 1809WAT     H2 9042   5.323   3.221   8.320  0.5891  0.1895  1.3499
 1809WAT    EPW 9043   5.245   3.244   8.352 -0.0846 -0.0458 -0.0620
 1810WAT      O 9044  10.477   1.893   8.591  0.4648  0.0663 -0.1972
 1810WAT     H1 9045  10.486   1.830   8.663 -0.2655  0.4148  0.2150
 1810WAT     H2 9046  10.500   1.977   8.630  1.3501  0.0801 -0.7219
 1810WAT    EPW 9047  10.481   1.896   8.606  0.4849  0.1141 -0.2117
 1811WAT      O 9048   2.086   1.866   5.522 -0.4372  0.0548  0.3284
 1811WAT     H1 9049   2.009   1.827   5.480  1.9058 -1.5077 -2.9797
 1811WAT     H2 9050   2.149   1.794   5.527  1.7269  1.8569  0.4499
 1811WAT    EPW 9051   2.084   1.851   5.518  0.1571  0.0864 -0.0918
 1812WAT      O 9052   9.958   3.899   6.196  0.1574  0.3748  0.5843
 1812WAT     H1 9053   9.890   3.908   6.262  0.0950  0.2636  0.5357
 1812WAT     H2 9054   9.966   3.804   6.182 -2.1200  0.4507 -1.9520
 1812WAT    EPW 9055   9.950   3.887   6.202 -0.1516  0.3701  0.2434
 1813WAT      O 9056   2.723   7.161   0.201  0.5681 -0.4676  0.3824
 1813WAT     H1 9057   2.727   7.113   0.118  1.4226 -0.0110  0.1501
 1813WAT     H2 9058   2.653   7.118   0.250 -2.1956  1.1483 -1.7748
 1813WAT    EPW 9059   2.714   7.149   0.197  0.3164 -0.1943  0.0673
 1814WAT      O 9060   3.481   5.814   1.227  0.3372  0.2321 -0.5181
 1814WAT     H1 9061   3.510   5.754   1.296  0.1937  0.7241 -0.0191
 1814WAT     H2 9062   3.562   5.851   1.192  0.4578 -0.6344 -1.1931
 1814WAT    EPW 9063   3.495   5.811   1.231  0.3340  0.1826 -0.5413
 1815WAT      O 9064   2.795   6.190   5.771  0.9229  0.5751 -0.0638
 1815WAT     H1 9065   2.707   6.168   5.741  0.3003  3.8306 -0.9405
 1815WAT     H2 9066   2.842   6.217   5.692  2.3893 -0.0275  0.5588
 1815WAT    EPW 9067   2.790   6.190   5.757  1.0343  0.9251 -0.0970
 1816WAT      O 9068  10.649   5.007   6.507  0.4078 -0.4224  0.4481
 1816WAT     H1 9069  10.722   4.952   6.536  0.8886  1.3133  2.9453
 1816WAT     H2 9070  10.684   5.097   6.511 -1.2071  0.2974 -0.5439
 1816WAT    EPW 9071  10.663   5.012   6.512  0.2580 -0.0985  0.6466
 1817WAT      O 9072   0.176   9.227   8.218 -0.2035  0.7399  0.5872
 1817WAT     H1 9073   0.257   9.194   8.181 -0.5493  0.5399  0.0013
 1817WAT     H2 9074   0.130   9.149   8.250  0.8420  1.0279  3.0489
 1817WAT    EPW 9075   0.180   9.212   8.217 -0.1112  0.7515  0.8349
 1818WAT      O 9076   9.166   2.793   6.872 -0.1694 -0.5621  0.3635
 1818WAT     H1 9077   9.084   2.836   6.846  0.6975  0.6747 -0.4102
 1818WAT     H2 9078   9.172   2.809   6.966 -0.3750  0.1326  0.2658
 1818WAT    EPW 9079   9.156   2.801   6.881 -0.0820 -0.3073  0.2484
 1819WAT      O 9080   6.441  10.049   7.905 -0.0915 -0.5550 -0.3711
 1819WAT     H1 9081   6.487   9.966   7.901  0.3791 -0.4564  1.7136
 1819WAT     H2 9082   6.464  10.094   7.824  0.1860 -2.1625 -1.2202
 1819WAT    EPW 9083   6.450  10.044   7.894  0.0072 -0.7534 -0.2079
 1820WAT      O 9084   2.072   3.801   6.391 -0.3396 -0.1964 -0.3631
 1820WAT     H1 9085   2.105   3.808   6.481  0.8202 -2.6552 -0.5277
 1820WAT     H2 9086   1.991   3.751   6.399  0.1454 -1.0556 -0.7407
 1820WAT    EPW 9087   2.066   3.795   6.404 -0.1228 -0.6340 -0.4344
 1821WAT      O 9088   2.413   2.718   5.113 -0.5493  0.2013 -0.4187
 1821WAT     H1 9089   2.451   2.806   5.122 -0.9701  0.3424 -0.0035
 1821WAT     H2 9090   2.419   2.681   5.202 -0.8125 -0.0123 -0.4911
 1821WAT    EPW 9091   2.419   2.725   5.126 -0.6394  0.1916 -0.3736
 1822WAT      O 9092   5.474   1.113   5.404 -0.0339 -0.1129  0.7431
 1822WAT     H1 9093   5.560   1.086   5.372  0.4968  1.1977  0.9874
 1822WAT     H2 9094   5.479   1.102   5.499  0.6723  1.9642  1.0094
 1822WAT    EPW 9095   5.486   1.108   5.412  0.1290  0.3339  0.8104
 1823WAT      O 9096   5.576  10.341   0.047 -0.1305 -0.4499  0.5517
 1823WAT     H1 9097   5.564  10.277  -0.023 -0.5107 -0.2291  0.4118
 1823WAT     H2 9098   5.595  10.288   0.125  2.1079 -0.6511 -0.0474
 1823WAT    EPW 9099   5.577  10.326   0.048  0.1144 -0.4478  0.4543
 1824WAT      O 9100   2.207   0.039   6.758 -0.4637 -0.0893 -0.5470
 1824WAT     H1 9101   2.142   0.065   6.823 -0.9346  0.3343 -1.1831
 1824WAT     H2 9102   2.246  -0.041   6.794  0.5045  1.0426  1.1169
 1824WAT    EPW 9103   2.204   0.032   6.771 -0.3982  0.1160 -0.4113
 1825WAT      O 9104   0.965   1.890   8.551  0.1699  0.1512 -0.8050
 1825WAT     H1 9105   0.923   1.938   8.623 -0.9894 -0.1225 -1.2732
 1825WAT     H2 9106   0.925   1.927   8.472  0.3074 -0.6034 -1.2315
 1825WAT    EPW 9107   0.954   1.901   8.550  0.0352  0.0156 -0.9222
 1826WAT      O 9108   9.786   6.470   7.812  0.1521  0.4825  0.0797
 1826WAT     H1 9109   9.791   6.564   7.792  1.0788  0.3320 -0.5025
 1826WAT     H2 9110   9.696   6.455   7.839  0.4192  1.8712  1.9273
 1826WAT    EPW 9111   9.775   6.480   7.813  0.3095  0.6459  0.2468
 1827WAT      O 9112   0.689   7.234   8.140  0.0368 -0.6567 -0.3833
 1827WAT     H1 9113   0.769   7.188   8.164  0.8480  0.6837 -0.4411
 1827WAT     H2 9114   0.687   7.311   8.198 -1.4087 -0.8564 -0.1214
 1827WAT    EPW 9115   0.699   7.238   8.151 -0.0468 -0.5062 -0.3572
 1828WAT      O 9116   0.398   5.839   6.941 -0.1846 -0.7116  0.1564
 1828WAT     H1 9117   0.475   5.781   6.936  2.0203  2.1087 -1.6011
 1828WAT     H2 9118   0.390   5.859   7.034  1.7576 -0.4797  0.3290
 1828WAT    EPW 9119   0.407   5.834   6.953  0.3624 -0.3092 -0.0527
 1829WAT      O 9120   2.274   3.107   8.341 -0.6670 -0.3119  0.4342
 1829WAT     H1 9121   2.196   3.164   8.340  0.6358  1.6036  1.3415
 1829WAT     H2 9122   2.348   3.168   8.336  0.8018 -2.0566 -0.0750
 1829WAT    EPW 9123   2.273   3.123   8.340 -0.3015 -0.2894  0.4869
 1830WAT      O 9124   2.831   9.916   2.296  0.0469 -0.5008  0.2545
 1830WAT     H1 9125   2.906   9.953   2.249  1.1964 -2.0908  0.7338
 1830WAT     H2 9126   2.772   9.886   2.227  0.3141 -0.1451 -0.1342
 1830WAT    EPW 9127   2.833   9.917   2.281  0.2337 -0.6638  0.2667
 1831WAT      O 9128   4.178   9.819   3.548 -0.3343 -0.3972  1.0049
 1831WAT     H1 9129   4.240   9.750   3.574 -0.7293 -1.0223  0.3028
 1831WAT     H2 9130   4.105   9.772   3.509  1.4216  0.5009 -4.0689
 1831WAT    EPW 9131   4.177   9.804   3.547 -0.1547 -0.3614  0.2431
 1832WAT      O 9132  10.450   3.863   6.905  0.9396 -0.2130 -0.1284
 1832WAT     H1 9133  10.390   3.791   6.886  2.1240 -1.3548  0.2639
 1832WAT     H2 9134  10.434   3.883   6.997  0.6948 -0.0582 -0.2044
 1832WAT    EPW 9135  10.440   3.856   6.915  1.0638 -0.3432 -0.0865
 1833WAT      O 9136   4.124   9.306   2.145 -0.5957 -0.2729 -0.8413
 1833WAT     H1 9137   4.064   9.246   2.102 -0.7140  0.1906 -1.3343
 1833WAT     H2 9138   4.172   9.348   2.073 -0.1614 -0.1439 -0.4849
 1833WAT    EPW 9139   4.123   9.304   2.130 -0.5538 -0.1950 -0.8594
 1834WAT      O 9140   5.135   0.882   8.492 -0.0062 -0.0219  0.1641
 1834WAT     H1 9141   5.141   0.789   8.515 -1.8115 -0.6143 -1.4478
 1834WAT     H2 9142   5.062   0.915   8.545  0.5252  0.4495  0.6123
 1834WAT    EPW 9143   5.126   0.874   8.502 -0.1743 -0.0379  0.0110
 1835WAT      O 9144   9.983   5.687   4.509  0.5618 -0.2589 -0.2574
 1835WAT     H1 9145  10.012   5.722   4.593  1.9218 -1.8765  0.0098
 1835WAT     H2 9146   9.887   5.689   4.513  0.5891 -0.9457  1.6231
 1835WAT    EPW 9147   9.974   5.692   4.521  0.7448 -0.5627  0.0257
 1836WAT      O 9148   1.779   0.612   5.598 -0.0703 -0.0597  0.5205
 1836WAT     H1 9149   1.800   0.533   5.547 -0.0885  0.7211 -0.7375
 1836WAT     H2 9150   1.864   0.645   5.627  0.1392  0.6916 -0.8775
 1836WAT    EPW 9151   1.793   0.606   5.595 -0.0451  0.1424  0.1702
 1837WAT      O 9152   7.899   4.187   8.827  0.6170 -0.1275  0.4060
 1837WAT     H1 9153   7.838   4.210   8.897  0.7605 -0.7396  0.7411
 1837WAT     H2 9154   7.934   4.270   8.798 -2.1289  0.5359 -1.4385
 1837WAT    EPW 9155   7.895   4.201   8.833  0.2737 -0.1204  0.2069
 1838WAT      O 9156   9.566   6.098   8.185  0.6231 -0.2839 -0.2200
 1838WAT     H1 9157   9.580   6.041   8.261  1.9256  0.8685  0.4588
 1838WAT     H2 9158   9.490   6.061   8.141 -0.5198 -0.6805  1.9443
 1838WAT    EPW 9159   9.558   6.086   8.189  0.6442 -0.1843  0.1550
 1839WAT      O 9160   6.529   1.981   0.478 -0.0855  0.5862  0.0305
 1839WAT     H1 9161   6.584   2.048   0.438  1.1538 -1.3226 -1.6461
 1839WAT     H2 9162   6.504   1.923   0.406 -1.5727 -0.4646  1.3074
 1839WAT    EPW 9163   6.533   1.982   0.463 -0.1180  0.1959 -0.0222
 1840WAT      O 9164   2.017   4.898   7.850 -0.2818 -0.0057 -0.6730
 1840WAT     H1 9165   2.049   4.871   7.764  0.0664 -0.9474 -0.2641
 1840WAT     H2 9166   2.003   4.992   7.842 -0.4804 -0.1143 -1.8292
 1840WAT    EPW 9167   2.019   4.906   7.838 -0.2619 -0.1442 -0.7715
 1841WAT      O 9168   1.639   6.940   8.103  0.2959 -0.6780  0.6558
 1841WAT     H1 9169   1.662   6.991   8.026  0.6078 -0.3255  0.9830
 1841WAT     H2 9170   1.640   6.849   8.072  0.3555 -0.5360  0.2332
 1841WAT    EPW 9171   1.642   6.934   8.088  0.3449 -0.6127  0.6428
 1842WAT      O 9172   2.025   2.910   8.382 -0.0080 -0.2434  0.4745
 1842WAT     H1 9173   2.109   2.954   8.369  0.2979 -1.1695 -0.8424
 1842WAT     H2 9174   2.048   2.820   8.403 -0.6546 -0.0402  2.2480
 1842WAT    EPW 9175   2.039   2.904   8.383 -0.0529 -0.3388  0.5345
 1843WAT      O 9176  10.649   8.386   7.157 -0.4934  0.2615 -0.2125
 1843WAT     H1 9177  10.561   8.354   7.177  0.1867 -1.7302 -0.2252
 1843WAT     H2 9178  10.698   8.372   7.238 -0.5113  2.8399  0.3384
 1843WAT    EPW 9179  10.644   8.380   7.171 -0.4058  0.3386 -0.1416
 1844WAT      O 9180   3.041   4.261   6.320  0.1036 -0.0701  0.6045
 1844WAT     H1 9181   3.037   4.238   6.227 -1.0341  0.3701  0.5185
 1844WAT     H2 9182   3.042   4.356   6.321  1.5883 -0.0726  1.0261
 1844WAT    EPW 9183   3.040   4.270   6.308  0.1495 -0.0122  0.6487
 1845WAT      O 9184   3.212   8.998   0.388 -0.0791  0.7141  0.0744
 1845WAT     H1 9185   3.232   9.002   0.295  0.2288  3.1590  0.1684
 1845WAT     H2 9186   3.118   8.981   0.392  0.0923 -0.4801 -0.6353
 1845WAT    EPW 9187   3.202   8.996   0.377 -0.0157  0.8783 -0.0068
 1846WAT      O 9188   2.996   8.138   0.210 -0.5575 -0.4245 -0.3533
 1846WAT     H1 9189   2.955   8.175   0.131  1.3844  0.6591 -0.9299
 1846WAT     H2 9190   3.051   8.208   0.243  0.1590 -1.5198  0.8609
 1846WAT    EPW 9191   2.998   8.152   0.204 -0.2068 -0.4258 -0.2692
 1847WAT      O 9192   9.429   2.939   5.043 -0.2098  0.3940  0.2625
 1847WAT     H1 9193   9.435   2.847   5.071  1.2501  1.0873  2.5590
 1847WAT     H2 9194   9.517   2.960   5.013 -0.5582  1.0202 -0.3221
 1847WAT    EPW 9195   9.442   2.930   5.043 -0.0634  0.5680  0.4883
 1848WAT      O 9196   2.010   4.416   5.947 -0.1649  0.6269  0.1764
 1848WAT     H1 9197   1.976   4.329   5.926 -0.7015  0.5178  1.3943
 1848WAT     H2 9198   1.964   4.440   6.027  3.9528 -0.3841  3.1676
 1848WAT    EPW 9199   1.999   4.408   5.955  0.3073  0.4790  0.7315
 1849WAT      O 9200   2.673   5.134   5.767  0.6211  0.3702 -0.0231
 1849WAT     H1 9201   2.625   5.051   5.765 -0.0070  0.7357 -1.7251
 1849WAT     H2 9202   2.711   5.141   5.679  1.4432  1.4419  0.4075
 1849WAT    EPW 9203   2.671   5.124   5.755  0.6467  0.5596 -0.1905
 1850WAT      O 9204  10.894   9.003   8.770 -0.4754 -0.0593  0.0571
 1850WAT     H1 9205  10.905   8.914   8.736 -0.8696 -0.4313  0.8882
 1850WAT     H2 9206  10.925   8.999   8.860 -2.6827  0.0680  0.8708
 1850WAT    EPW 9207  10.900   8.991   8.777 -0.8187 -0.0916  0.2737
 1851WAT      O 9208   2.727   8.171   3.273 -0.2422 -0.1585  0.6671
 1851WAT     H1 9209   2.702   8.099   3.332 -1.1697 -1.0878 -0.7931
 1851WAT     H2 9210   2.676   8.245   3.304  0.7406 -0.0629  2.2124
 1851WAT    EPW 9211   2.717   8.171   3.285 -0.2350 -0.2685  0.6782
 1852WAT      O 9212   9.372   1.713   8.465 -0.5010 -0.0595 -0.3789
 1852WAT     H1 9213   9.420   1.789   8.499 -0.5261 -0.9722  1.8454
 1852WAT     H2 9214   9.315   1.749   8.397 -0.8317  2.0001  0.9062
 1852WAT    EPW 9215   9.371   1.728   8.461 -0.5479  0.0917  0.0839
 1853WAT      O 9216   9.737   5.909   5.138  0.5053  0.9449 -1.2417
 1853WAT     H1 9217   9.770   5.821   5.150  0.6627  1.0859 -0.6149
 1853WAT     H2 9218   9.749   5.927   5.044 -0.0784  0.0901 -1.4979
 1853WAT    EPW 9219   9.743   5.900   5.127  0.4492  0.8504 -1.1930
 1854WAT      O 9220   1.810   2.993   8.848 -0.1819 -0.7810 -0.4129
 1854WAT     H1 9221   1.753   2.980   8.772 -1.3797 -0.2347  0.3592
 1854WAT     H2 9222   1.764   2.949   8.920 -1.2704  2.2827  0.9272
 1854WAT    EPW 9223   1.797   2.986   8.848 -0.4834 -0.3048 -0.1345
 1855WAT      O 9224   2.864   1.679   6.987  0.1424 -0.6721  0.5345
 1855WAT     H1 9225   2.797   1.636   7.040  0.4090 -1.7659  0.0046
 1855WAT     H2 9226   2.862   1.770   7.015 -2.6336 -0.3083 -0.5110
 1855WAT    EPW 9227   2.855   1.685   6.997 -0.1886 -0.7684  0.3266
 1856WAT      O 9228   6.028   4.459   6.851  0.3358  0.5748  0.8033
 1856WAT     H1 9229   6.048   4.408   6.773  3.1102  1.1433  1.0547
 1856WAT     H2 9230   5.978   4.534   6.818 -0.4666 -0.3116 -0.0667
 1856WAT    EPW 9231   6.024   4.463   6.836  0.5958  0.5329  0.7217
 1857WAT      O 9232  10.195   0.465   8.141 -0.2649  0.6890  0.6417
 1857WAT     H1 9233  10.139   0.522   8.195 -1.5213 -2.0828  2.5030
 1857WAT     H2 9234  10.148   0.458   8.058 -2.2370 -0.7061  1.7905
 1857WAT    EPW 9235  10.181   0.472   8.137 -0.6914  0.1394  1.0386
 1858WAT      O 9236   4.554   8.851   0.216  0.3765 -0.5954 -0.0995
 1858WAT     H1 9237   4.578   8.937   0.250 -1.9233 -0.1353  0.5497
 1858WAT     H2 9238   4.539   8.798   0.294  0.5841 -1.2348 -0.4866
 1858WAT    EPW 9239   4.555   8.855   0.230  0.1006 -0.6185 -0.0649
 1859WAT      O 9240   0.937   6.798   7.847  0.1890 -0.7850 -0.1760
 1859WAT     H1 9241   1.020   6.832   7.881  0.2054 -0.0991 -0.8521
 1859WAT     H2 9242   0.878   6.798   7.922 -0.5962  3.2950 -0.5747
 1859WAT    EPW 9243   0.940   6.803   7.861  0.0876 -0.1564 -0.3178
 1860WAT      O 9244   9.443   0.690   6.855 -0.0672 -0.0006 -0.2593
 1860WAT     H1 9245   9.398   0.651   6.780  0.6136 -0.4698 -0.4409
 1860WAT     H2 9246   9.377   0.744   6.898 -0.8765 -0.9008 -0.3444
 1860WAT    EPW 9247   9.428   0.692   6.851 -0.0844 -0.1812 -0.2942
 1861WAT      O 9248   9.718   4.872   8.029  0.0657  0.4264  0.2748
 1861WAT     H1 9249   9.631   4.849   7.999  0.4822 -0.7727 -0.0875
 1861WAT     H2 9250   9.750   4.935   7.965  0.1186 -0.4601 -0.5969
 1861WAT    EPW 9251   9.711   4.877   8.017  0.1278  0.1514  0.1121
 1862WAT      O 9252   7.396   8.793   7.755 -0.7766  0.3662  0.4873
 1862WAT     H1 9253   7.466   8.858   7.756 -0.4734  0.0665 -0.5873
 1862WAT     H2 9254   7.347   8.810   7.675 -1.1310 -0.2692  0.5561
 1862WAT    EPW 9255   7.398   8.803   7.745 -0.7832  0.2427  0.3545
 1863WAT      O 9256   0.208  10.349   1.525  0.2237  0.5706 -0.5223
 1863WAT     H1 9257   0.275  10.416   1.535  1.3497 -0.3203 -1.6374
 1863WAT     H2 9258   0.224  10.288   1.597  1.5644 -0.3618 -1.5426
 1863WAT    EPW 9259   0.219  10.350   1.536  0.5491  0.3300 -0.8039
 1864WAT      O 9260   5.781   6.938   0.581  0.3534 -0.1527 -0.9561
 1864WAT     H1 9261   5.694   6.942   0.622 -0.0920  1.0504 -1.9591
 1864WAT     H2 9262   5.830   6.877   0.636 -1.0593 -0.7098 -0.2475
 1864WAT    EPW 9263   5.776   6.931   0.594  0.1080 -0.0675 -0.9949
 1865WAT      O 9264   1.288   1.021   6.615  0.8163  0.3025  0.7182
 1865WAT     H1 9265   1.229   1.072   6.670 -0.1170 -1.0631  1.0375
 1865WAT     H2 9266   1.245   1.019   6.529  1.0246  0.3392  0.6127
 1865WAT    EPW 9267   1.275   1.027   6.611  0.7207  0.1273  0.7465
 1866WAT      O 9268   7.487   6.379   4.613 -0.1774  0.2572 -0.2342
 1866WAT     H1 9269   7.553   6.388   4.544  0.4130 -3.0140 -0.2392
 1866WAT     H2 9270   7.537   6.361   4.693 -0.9684  0.4324  0.3080
 1866WAT    EPW 9271   7.502   6.378   4.614 -0.2041 -0.1512 -0.1633
 1867WAT      O 9272  10.098   4.411   8.860 -0.2451  0.7158  0.1918
 1867WAT     H1 9273  10.034   4.482   8.857 -1.2116 -0.1452 -0.0622
 1867WAT     H2 9274  10.141   4.421   8.945 -0.6589  1.3572  0.3321
 1867WAT    EPW 9275  10.095   4.421   8.871 -0.4272  0.6869  0.1774
 1868WAT      O 9276   1.105   6.966   8.649 -0.4580 -0.1415  0.0992
 1868WAT     H1 9277   1.078   6.878   8.621 -1.9514 -0.1271  1.3268
 1868WAT     H2 9278   1.035   7.023   8.618 -1.0073  0.1706  1.8063
 1868WAT    EPW 9279   1.092   6.962   8.641 -0.7274 -0.0985  0.4859
 1869WAT      O 9280   8.784   5.725   7.047  0.3139  0.2293  0.8172
 1869WAT     H1 9281   8.858   5.664   7.056  0.6375  0.4573 -0.1914
 1869WAT     H2 9282   8.711   5.681   7.091  0.5214 -0.9182  0.0504
 1869WAT    EPW 9283   8.784   5.711   7.054  0.3834  0.1082  0.5834
 1870WAT      O 9284   2.873   4.664   5.787  0.2715 -0.8485  0.1859
 1870WAT     H1 9285   2.826   4.668   5.871  0.2799 -1.3507  0.2195
 1870WAT     H2 9286   2.928   4.742   5.787 -3.0487  1.7390 -1.3982
 1870WAT    EPW 9287   2.874   4.674   5.798 -0.1651 -0.5736 -0.0184
 1871WAT      O 9288   1.122   3.724   5.606 -0.2637 -0.4790 -1.0289
 1871WAT     H1 9289   1.057   3.784   5.570  0.4031 -0.6926 -2.6373
 1871WAT     H2 9290   1.137   3.660   5.537  0.0719 -1.7034  0.1387
 1871WAT    EPW 9291   1.115   3.723   5.592 -0.1315 -0.6688 -1.0870
 1872WAT      O 9292   8.878   0.603   8.736 -0.0686 -0.2719  0.0091
 1872WAT     H1 9293   8.932   0.634   8.808  1.5944 -1.7149 -0.5447
 1872WAT     H2 9294   8.800   0.566   8.779 -0.1576  0.8898  0.8880
 1872WAT    EPW 9295   8.875   0.602   8.751  0.1388 -0.3090  0.0520
 1873WAT      O 9296   5.011   8.959   0.242  0.1219 -0.0176  0.7920
 1873WAT     H1 9297   5.045   8.888   0.188 -1.8384  1.2019 -2.3382
 1873WAT     H2 9298   5.089   9.002   0.278  1.5032 -1.2648 -0.6015
 1873WAT    EPW 9299   5.026   8.955   0.240  0.0458 -0.0210  0.1954
 1874WAT      O 9300  10.775   2.203   6.201  0.1491  0.1263  0.1162
 1874WAT     H1 9301  10.814   2.222   6.115 -0.5101  0.3081 -0.1502
 1874WAT     H2 9302  10.742   2.114   6.193  1.0874 -0.2623  0.5590
 1874WAT    EPW 9303  10.776   2.194   6.188  0.1855  0.0991  0.1397
 1875WAT      O 9304   9.520   3.720   8.351 -0.3106  0.3517  0.2244
 1875WAT     H1 9305   9.497   3.787   8.286  1.4799  1.1041  0.3099
 1875WAT     H2 9306   9.611   3.739   8.373 -0.0861 -1.5000  1.0303
 1875WAT    EPW 9307   9.529   3.732   8.345 -0.0448  0.2067  0.3419
 1876WAT      O 9308   0.869   3.747   5.938  0.2023  0.0681 -0.1606
 1876WAT     H1 9309   0.911   3.798   6.007  1.5487 -0.2022 -0.7686
 1876WAT     H2 9310   0.838   3.813   5.876 -2.3584  0.4376  1.3352
 1876WAT    EPW 9311   0.870   3.763   5.939  0.0422  0.0813 -0.0436
 1877WAT      O 9312   0.871   2.335   7.640 -0.0497  0.4678 -0.3237
 1877WAT     H1 9313   0.915   2.402   7.588  1.4803  1.9609  2.6394
 1877WAT     H2 9314   0.787   2.374   7.664  0.6874  1.2877  1.0893
 1877WAT    EPW 9315   0.866   2.349   7.637  0.2493  0.7730  0.2532
 1878WAT      O 9316   9.449   8.579   8.079 -0.1269  0.1824  0.3429
 1878WAT     H1 9317   9.518   8.560   8.016 -2.5395 -0.6456 -2.2597
 1878WAT     H2 9318   9.441   8.499   8.130 -0.6983 -0.5862 -0.9245
 1878WAT    EPW 9319   9.457   8.566   8.077 -0.5202 -0.0281 -0.1669
 1879WAT      O 9320   2.739   0.650   6.976  0.3063 -0.1937  0.1515
 1879WAT     H1 9321   2.725   0.745   6.970 -1.4900 -0.3711  0.7121
 1879WAT     H2 9322   2.673   0.621   7.040  1.4535 -1.7013  0.6934
 1879WAT    EPW 9323   2.728   0.659   6.984  0.2207 -0.4160  0.2971
 1880WAT      O 9324   1.231   4.258   6.796  0.6601 -0.5316  0.0396
 1880WAT     H1 9325   1.307   4.314   6.811  1.5388 -1.8488  0.6613
 1880WAT     H2 9326   1.156   4.312   6.822  1.2575  1.1170 -1.4613
 1880WAT    EPW 9327   1.231   4.272   6.801  0.8548 -0.4880 -0.0765
 1881WAT      O 9328   1.129   7.425   6.273 -0.4428 -0.4883 -0.5074
 1881WAT     H1 9329   1.053   7.366   6.269 -1.0216  0.0999  1.0095
 1881WAT     H2 9330   1.104   7.492   6.337  0.8322  0.5029 -0.9944
 1881WAT    EPW 9331   1.115   7.426   6.281 -0.3510 -0.2797 -0.3715
 1882WAT      O 9332   3.521   4.441   4.381 -0.1136 -0.4524 -0.1902
 1882WAT     H1 9333   3.568   4.503   4.438 -1.3666  0.8873 -0.5714
 1882WAT     H2 9334   3.590   4.387   4.343  0.9485  0.1940  0.7488
 1882WAT    EPW 9335   3.536   4.442   4.384 -0.1388 -0.1905 -0.1168
 1883WAT      O 9336   9.856   3.962   3.205  0.2245  0.1183 -0.4816
 1883WAT     H1 9337   9.934   3.969   3.260 -0.2386  0.8619  0.1088
 1883WAT     H2 9338   9.816   4.049   3.209 -1.0441 -0.4509 -0.1437
 1883WAT    EPW 9339   9.861   3.975   3.213 -0.0038  0.1413 -0.3592
 1884WAT      O 9340   6.489   2.867   7.005 -0.1069  0.1401 -0.7042
 1884WAT     H1 9341   6.530   2.788   7.038 -0.0392  0.3988 -0.1612
 1884WAT     H2 9342   6.551   2.902   6.940 -0.5763 -0.7653 -1.6743
 1884WAT    EPW 9343   6.502   2.861   7.001 -0.1600  0.0548 -0.7606
 1885WAT      O 9344   9.715   1.882   5.180 -0.3156  0.2353  0.1968
 1885WAT     H1 9345   9.675   1.826   5.246  0.5808  0.7415  1.1958
 1885WAT     H2 9346   9.795   1.836   5.155 -0.7693 -0.0742 -0.7381
 1885WAT    EPW 9347   9.720   1.868   5.185 -0.2570  0.2612  0.2053
 1886WAT      O 9348   0.461   3.901   7.108  0.3507 -0.4095  1.1324
 1886WAT     H1 9349   0.404   3.873   7.180  2.7201 -2.4996  2.3857
 1886WAT     H2 9350   0.527   3.956   7.150  1.7809 -1.6692  0.6606
 1886WAT    EPW 9351   0.462   3.904   7.123  0.8518 -0.8513  1.2352
 1887WAT      O 9352   9.410   5.918   2.385  0.6193  0.2442  0.0224
 1887WAT     H1 9353   9.480   5.924   2.451  0.6168  4.9104 -0.0416
 1887WAT     H2 9354   9.337   5.967   2.423 -0.8508 -0.3407 -1.8745
 1887WAT    EPW 9355   9.410   5.925   2.399  0.4253  0.7823 -0.2364
 1888WAT      O 9356   5.233   1.170   8.415 -0.8628 -0.0600 -1.3011
 1888WAT     H1 9357   5.211   1.078   8.431 -0.2880  0.0819  0.6474
 1888WAT     H2 9358   5.184   1.218   8.483 -1.7718  1.1783 -2.7602
 1888WAT    EPW 9359   5.223   1.164   8.426 -0.9069  0.1220 -1.2364
 1889WAT      O 9360  10.681   6.842   6.993  0.5410 -0.1265  0.6594
 1889WAT     H1 9361  10.738   6.841   7.070 -0.1077 -1.5102  1.1504
 1889WAT     H2 9362  10.610   6.902   7.016  0.1171 -0.8697  1.3335
 1889WAT    EPW 9363  10.679   6.850   7.006  0.3991 -0.4070  0.8128
 1890WAT      O 9364   7.094   2.234   0.076 -0.3712  0.5031  0.3905
 1890WAT     H1 9365   7.188   2.246   0.071 -0.6150  2.6420  0.0357
 1890WAT     H2 9366   7.067   2.282   0.155 -1.2106  0.3503  0.2141
 1890WAT    EPW 9367   7.103   2.242   0.086 -0.5140  0.7651  0.3204
 1891WAT      O 9368   8.717   6.700   6.283 -0.1663  0.4126 -0.0471
 1891WAT     H1 9369   8.784   6.642   6.321 -0.8911  0.2198  0.9775
 1891WAT     H2 9370   8.707   6.669   6.193 -0.5189 -1.0769  0.4679
 1891WAT    EPW 9371   8.725   6.688   6.276 -0.3085  0.1905  0.1562
 1892WAT      O 9372   8.435   4.546   3.552 -0.3239  0.0746  0.3401
 1892WAT     H1 9373   8.471   4.609   3.489 -0.2869  0.5859  0.8622
 1892WAT     H2 9374   8.359   4.508   3.508 -0.3767  0.5284  0.0405
 1892WAT    EPW 9375   8.430   4.549   3.538 -0.3262  0.2017  0.3694
 1893WAT      O 9376   8.541   6.085   8.602  0.0957  0.0892 -0.8570
 1893WAT     H1 9377   8.521   6.162   8.548 -3.0783 -0.2289 -0.3463
 1893WAT     H2 9378   8.500   6.104   8.687  4.0686  0.1323  1.2948
 1893WAT    EPW 9379   8.533   6.098   8.606  0.2012  0.0532 -0.5054
 1894WAT      O 9380   8.456   9.007   8.462  0.3912 -0.0439  0.0142
 1894WAT     H1 9381   8.516   9.053   8.522 -0.2088  0.4225  0.2758
 1894WAT     H2 9382   8.379   9.064   8.459 -0.4129 -1.0805  0.4169
 1894WAT    EPW 9383   8.453   9.021   8.470  0.2055 -0.1192  0.1016
 1895WAT      O 9384   4.344   7.422   0.430 -0.5787  0.2796 -0.0523
 1895WAT     H1 9385   4.421   7.455   0.478 -0.5327  0.7646 -0.4547
 1895WAT     H2 9386   4.272   7.429   0.493  0.2277 -3.3629  1.5992
 1895WAT    EPW 9387   4.345   7.427   0.445 -0.4663 -0.1369  0.1124
 1896WAT      O 9388   2.272   2.324   3.934  0.0531  0.2234 -0.4351
 1896WAT     H1 9389   2.347   2.267   3.918  0.7823  0.8659  0.6041
 1896WAT     H2 9390   2.290   2.403   3.882 -0.2534  0.0949 -0.7410
 1896WAT    EPW 9391   2.284   2.327   3.925  0.1087  0.2912 -0.3384
 1897WAT      O 9392   7.001   0.180   1.454  0.0467  0.2783 -0.3442
 1897WAT     H1 9393   7.016   0.235   1.531  4.8415 -0.7107 -0.2674
 1897WAT     H2 9394   7.006   0.240   1.380  1.2594  0.5151 -0.0864
 1897WAT    EPW 9395   7.004   0.195   1.455  0.8388  0.1791 -0.3000
 1898WAT      O 9396   8.359   1.053   1.727 -0.6593 -0.2694 -0.3639
 1898WAT     H1 9397   8.372   1.148   1.715  0.2588 -0.1674  1.1469
 1898WAT     H2 9398   8.395   1.035   1.814 -0.3619 -2.1107 -0.8292
 1898WAT    EPW 9399   8.365   1.063   1.737 -0.4988 -0.4989 -0.2261
 1899WAT      O 9400   7.767   3.029   8.663 -0.6358 -0.3096 -0.3817
 1899WAT     H1 9401   7.784   2.982   8.582 -0.4343  0.7469 -0.9641
 1899WAT     H2 9402   7.736   3.115   8.636  1.8966  1.0340  0.5643
 1899WAT    EPW 9403   7.765   3.034   8.649 -0.2751  0.0069 -0.3333
 1900WAT      O 9404   9.724   5.045   8.790 -0.7704 -0.1258  0.3953
 1900WAT     H1 9405   9.710   4.951   8.788 -2.4655  0.0022  2.4145
 1900WAT     H2 9406   9.637   5.083   8.774 -0.3583  1.0493  0.7909
 1900WAT    EPW 9407   9.711   5.038   8.788 -0.9398  0.0463  0.7138
 1901WAT      O 9408   8.803   4.668   6.125  0.3188  0.0196  0.3418
 1901WAT     H1 9409   8.875   4.705   6.075 -0.9683  0.0595 -1.5997
 1901WAT     H2 9410   8.806   4.712   6.210  1.6046  1.1504 -0.2715
 1901WAT    EPW 9411   8.813   4.678   6.130  0.3190  0.1743  0.0048
 1902WAT      O 9412   0.081   2.628   5.191 -0.6526  0.4028  0.2388
 1902WAT     H1 9413   0.119   2.684   5.124  2.4400 -1.3636  0.3442
 1902WAT     H2 9414  -0.014   2.634   5.177 -0.2268  2.1942 -2.4985
 1902WAT    EPW 9415   0.073   2.636   5.180 -0.1886  0.4060 -0.1085
 1903WAT      O 9416  10.475   2.712   6.263  0.2411  0.2215  0.2755
 1903WAT     H1 9417  10.504   2.673   6.346  0.6734  0.0944  0.0708
 1903WAT     H2 9418  10.536   2.677   6.198  0.6028  1.2013  0.0752
 1903WAT    EPW 9419  10.487   2.702   6.265  0.3457  0.3340  0.2220
 1904WAT      O 9420   1.590   2.171   5.127  0.7101  0.1478  0.1014
 1904WAT     H1 9421   1.561   2.178   5.218 -0.8422  0.1437 -0.3560
 1904WAT     H2 9422   1.683   2.151   5.133  0.8195  0.9416  1.6752
 1904WAT    EPW 9423   1.599   2.169   5.140  0.5198  0.2518  0.2484
 1905WAT      O 9424   4.615   7.704   0.427  0.6597 -0.1016  0.3772
 1905WAT     H1 9425   4.626   7.754   0.346  1.4015  0.0008  0.5349
 1905WAT     H2 9426   4.539   7.744   0.469  2.0798  1.8594  1.1912
 1905WAT    EPW 9427   4.606   7.716   0.422  0.9451  0.1707  0.5053
 1906WAT      O 9428   1.419   5.879   6.576  0.5347  0.7886 -0.7262
 1906WAT     H1 9429   1.467   5.960   6.594 -0.8645  1.7418 -1.1069
 1906WAT     H2 9430   1.487   5.814   6.560  1.7456  2.4492 -2.9246
 1906WAT    EPW 9431   1.434   5.881   6.577  0.5099  1.1337 -1.0664
 1907WAT      O 9432   1.317   4.673   8.220  0.5818  0.0224 -0.0088
 1907WAT     H1 9433   1.268   4.591   8.212  0.2669 -0.0122  1.7576
 1907WAT     H2 9434   1.315   4.711   8.132  0.2633 -1.5888 -0.7373
 1907WAT    EPW 9435   1.310   4.667   8.207  0.4982 -0.1945  0.1287
 1908WAT      O 9436   0.250   5.882   8.775  0.1346  0.0389  0.3749
 1908WAT     H1 9437   0.307   5.935   8.719  1.0544 -1.5046 -0.2261
 1908WAT     H2 9438   0.301   5.869   8.855  0.9947 -1.8972 -0.4172
 1908WAT    EPW 9439   0.264   5.887   8.778  0.3694 -0.4201  0.1912
 1909WAT      O 9440   1.467   6.145   6.576 -0.6598  0.2666 -0.6387
 1909WAT     H1 9441   1.559   6.170   6.584 -0.7193  2.0348 -3.8738
 1909WAT     H2 9442   1.419   6.226   6.593 -1.4586  0.0063 -1.5917
 1909WAT    EPW 9443   1.473   6.159   6.580 -0.7730  0.4656 -1.1909
 1910WAT      O 9444  10.392   4.960   6.150 -0.2976 -0.3367  0.1896
 1910WAT     H1 9445  10.396   5.046   6.107 -1.3321  1.2245  2.9411
 1910WAT     H2 9446  10.479   4.949   6.189  0.5885 -1.6792 -1.9772
 1910WAT    EPW 9447  10.404   4.970   6.149 -0.3176 -0.3080  0.2668
 1911WAT      O 9448   1.039   1.776   3.511 -0.2924 -0.2385 -0.5881
 1911WAT     H1 9449   1.118   1.804   3.464 -0.2003  0.4205 -0.0430
 1911WAT     H2 9450   1.071   1.725   3.585 -0.4583 -1.9307 -1.6150
 1911WAT    EPW 9451   1.053   1.773   3.514 -0.3021 -0.3747 -0.6518
 1912WAT      O 9452   9.960   4.995   7.907  0.2075  0.2970  0.3002
 1912WAT     H1 9453  10.030   4.931   7.899 -0.1141 -0.2281  1.3817
 1912WAT     H2 9454   9.995   5.060   7.968 -0.1552  0.1441  0.6764
 1912WAT    EPW 9455   9.974   4.995   7.914  0.1168  0.2077  0.4923
 1913WAT      O 9456   6.143   0.492   0.661  0.0968 -0.2829 -0.4050
 1913WAT     H1 9457   6.053   0.501   0.631 -0.2605  1.0736  0.9405
 1913WAT     H2 9458   6.170   0.405   0.632 -2.3081 -1.5355  0.8453
 1913WAT    EPW 9459   6.135   0.482   0.653 -0.2673 -0.2692 -0.0627
 1914WAT      O 9460   0.269   4.565   7.948 -0.5177 -0.5219 -0.4273
 1914WAT     H1 9461   0.240   4.527   8.030  1.2787 -0.3712  0.3108
 1914WAT     H2 9462   0.352   4.522   7.929  0.4845  1.4301 -0.6935
 1914WAT    EPW 9463   0.276   4.554   7.956 -0.1486 -0.2449 -0.3648
 1915WAT      O 9464   0.031   3.950   7.772 -0.1817 -0.2643 -0.0142
 1915WAT     H1 9465  -0.053   3.986   7.801 -0.0375 -1.0713  1.5414
 1915WAT     H2 9466   0.040   3.869   7.822  1.4553 -0.2665 -0.2782
 1915WAT    EPW 9467   0.021   3.944   7.782  0.0534 -0.3710  0.1559
 1916WAT      O 9468   1.290   9.480   0.584  0.3078 -0.2921  0.1495
 1916WAT     H1 9469   1.380   9.467   0.554  0.1622  0.4042 -0.6337
 1916WAT     H2 9470   1.261   9.393   0.610  1.1420 -0.5577  0.2188
 1916WAT    EPW 9471   1.298   9.467   0.583  0.3987 -0.2351  0.0553
 1917WAT      O 9472   9.549   8.800   7.914 -0.3824 -0.0035  0.1151
 1917WAT     H1 9473   9.640   8.785   7.890 -0.5815  1.5402 -1.8786
 1917WAT     H2 9474   9.502   8.725   7.879  0.0611 -0.7095  0.9805
 1917WAT    EPW 9475   9.555   8.789   7.906 -0.3500  0.1073 -0.0339
 1918WAT      O 9476  10.400   1.760   8.232 -0.4738  0.1791 -0.3617
 1918WAT     H1 9477  10.305   1.755   8.220 -0.5947  0.5741  0.3042
 1918WAT     H2 9478  10.414   1.848   8.269 -0.3693 -1.3386  3.7088
 1918WAT    EPW 9479  10.389   1.771   8.236 -0.4754  0.0309  0.2627
 1919WAT      O 9480   9.946   1.093   8.513  0.6418  0.2840 -0.8429
 1919WAT     H1 9481   9.881   1.157   8.483 -4.3112 -4.5974 -2.3129
 1919WAT     H2 9482  10.008   1.086   8.441 -0.3084  1.5529 -1.8365
 1919WAT    EPW 9483   9.945   1.100   8.500 -0.1369 -0.1925 -1.1683
 1920WAT      O 9484   7.198   5.444   5.076  0.5393  0.0417 -0.0100
 1920WAT     H1 9485   7.206   5.352   5.051  0.6418  0.4088 -1.3965
 1920WAT     H2 9486   7.138   5.481   5.012 -0.6245  0.6503  1.3741
 1920WAT    EPW 9487   7.191   5.437   5.064  0.3994  0.1705 -0.0103
 1921WAT      O 9488   3.153   3.095   5.853  0.6269 -0.1190 -0.0298
 1921WAT     H1 9489   3.247   3.099   5.832  0.3638  2.3638 -1.1021
 1921WAT     H2 9490   3.132   3.183   5.882 -1.5209 -0.4587 -0.4358
 1921WAT    EPW 9491   3.163   3.107   5.854  0.3090  0.1636 -0.2246
 1922WAT      O 9492   5.720   8.509   7.993 -0.0213  0.2382 -0.4534
 1922WAT     H1 9493   5.779   8.434   8.003 -0.0262  0.3929  0.9299
 1922WAT     H2 9494   5.767   8.568   7.934  1.1700  0.2880  0.4844
 1922WAT    EPW 9495   5.734   8.507   7.986  0.1352  0.2656 -0.1473
 1923WAT      O 9496   2.649   9.908   1.748 -0.0818 -0.1024  0.4239
 1923WAT     H1 9497   2.594   9.965   1.802  0.5737  0.8378  0.1281
 1923WAT     H2 9498   2.713   9.872   1.809 -0.4445 -0.4700  0.5952
 1923WAT    EPW 9499   2.650   9.911   1.763 -0.0433 -0.0267  0.4073
 1924WAT      O 9500  10.407   4.898   5.608  0.2095  0.5359 -0.4161
 1924WAT     H1 9501  10.483   4.869   5.559 -0.9582 -1.1388 -1.3134
 1924WAT     H2 9502  10.413   4.851   5.691 -1.3160 -1.8937 -1.6031
 1924WAT    EPW 9503  10.418   4.888   5.613 -0.1454 -0.0055 -0.6909
 1925WAT      O 9504   0.589   7.957   5.802 -0.4232 -0.3893 -0.5474
 1925WAT     H1 9505   0.550   7.933   5.886  0.2495 -2.3358 -0.7344
 1925WAT     H2 9506   0.542   7.904   5.738 -1.4515  1.6254 -1.5606
 1925WAT    EPW 9507   0.578   7.947   5.804 -0.4700 -0.3800 -0.7055
 1926WAT      O 9508   5.238   9.428   1.981 -0.4145  0.5862  0.6796
 1926WAT     H1 9509   5.332   9.419   1.965 -0.5823 -3.3400  0.8861
 1926WAT     H2 9510   5.223   9.381   2.063 -2.5018  1.5910  0.9369
 1926WAT    EPW 9511   5.248   9.420   1.989 -0.7119  0.2012  0.7408
 1927WAT      O 9512   8.412   0.504   0.849 -0.6385  0.2870  0.5390
 1927WAT     H1 9513   8.395   0.410   0.850  0.2114  0.0923 -0.9595
 1927WAT     H2 9514   8.392   0.531   0.760 -1.0558  1.5843  1.0013
 1927WAT    EPW 9515   8.407   0.495   0.837 -0.5813  0.4324  0.4024
 1928WAT      O 9516   0.689   8.042   6.197 -0.1196  0.7287  0.0808
 1928WAT     H1 9517   0.651   8.129   6.214  0.1399  0.5706  1.6494
 1928WAT     H2 9518   0.758   8.033   6.263  0.7204 -0.1657 -0.8819
 1928WAT    EPW 9519   0.693   8.052   6.208  0.0254  0.5903  0.1605
 1929WAT      O 9520  10.662   3.438   8.119  0.3320 -0.0716 -0.5569
 1929WAT     H1 9521  10.579   3.454   8.074  0.2332  0.5503 -0.1671
 1929WAT     H2 9522  10.650   3.352   8.161 -0.5320  0.4899  0.4061
 1929WAT    EPW 9523  10.649   3.429   8.119  0.2050  0.0845 -0.3786
 1930WAT      O 9524   7.698   2.473   6.551 -0.2286 -0.0762 -0.3760
 1930WAT     H1 9525   7.652   2.391   6.531 -1.6491 -0.5992  4.1438
 1930WAT     H2 9526   7.767   2.447   6.611  0.8281  1.8266 -0.6931
 1930WAT    EPW 9527   7.701   2.459   6.556 -0.2768  0.1057  0.1783
 1931WAT      O 9528   1.224   3.191   7.385 -0.4163  0.4172 -0.1511
 1931WAT     H1 9529   1.176   3.222   7.309 -0.8671  0.7884  0.2744
 1931WAT     H2 9530   1.201   3.098   7.392  3.2142 -0.9490 -3.1570
 1931WAT    EPW 9531   1.214   3.183   7.376  0.0030  0.2861 -0.4911
 1932WAT      O 9532   5.778   1.081   7.754  0.0202 -0.3986 -0.2013
 1932WAT     H1 9533   5.689   1.084   7.788  1.5546 -0.0876  4.6552
 1932WAT     H2 9534   5.793   1.167   7.715 -1.2766  0.2086  0.5891
 1932WAT    EPW 9535   5.768   1.093   7.753  0.0513 -0.2775  0.5434
 1933WAT      O 9536   7.599   4.137   7.066 -0.3813  0.3562  0.1621
 1933WAT     H1 9537   7.657   4.177   7.131 -1.0040 -0.5906  1.3337
 1933WAT     H2 9538   7.656   4.116   6.992  0.1607  2.4048 -0.0818
 1933WAT    EPW 9539   7.614   4.140   7.065 -0.3922  0.5014  0.2844
 1934WAT      O 9540  10.934   1.550   7.843 -0.2199  0.2375  0.5179
 1934WAT     H1 9541  10.893   1.636   7.854 -0.6385  0.0248  0.6524
 1934WAT     H2 9542  11.016   1.568   7.798  0.1253  0.8060  1.3647
 1934WAT    EPW 9543  10.939   1.563   7.838 -0.2294  0.2844  0.6473
 1935WAT      O 9544   0.187   5.329   5.743 -0.3884 -0.0291  0.1140
 1935WAT     H1 9545   0.157   5.255   5.690 -2.0422  0.3675  0.4318
 1935WAT     H2 9546   0.280   5.337   5.723 -0.4435 -1.4325 -0.8370
 1935WAT    EPW 9547   0.196   5.320   5.733 -0.6138 -0.1619  0.0303
 1936WAT      O 9548   1.151   4.205   6.215  0.0649 -0.0715  0.5465
 1936WAT     H1 9549   1.146   4.285   6.267  0.6669 -0.0540  0.5822
 1936WAT     H2 9550   1.185   4.139   6.276  1.0442  0.0146  0.1119
 1936WAT    EPW 9551   1.155   4.207   6.230  0.2734 -0.0577  0.4940
 1937WAT      O 9552   1.440   3.586   6.366 -0.2960  0.7591 -0.2292
 1937WAT     H1 9553   1.444   3.553   6.455  0.9162  2.9290  0.6116
 1937WAT     H2 9554   1.348   3.578   6.341 -1.0134  1.6869  1.8852
 1937WAT    EPW 9555   1.429   3.581   6.374 -0.2308  1.1675  0.1607
 1938WAT      O 9556   1.052   4.420   6.917  0.2364 -0.5582 -0.4078
 1938WAT     H1 9557   1.073   4.509   6.946  0.2359 -0.2187 -1.3949
 1938WAT     H2 9558   1.031   4.373   6.997 -0.8229  0.6247  0.0462
 1938WAT    EPW 9559   1.052   4.425   6.932  0.0966 -0.3574 -0.4780
 1939WAT      O 9560   0.890   0.581   7.870  0.8344  0.2462  0.0233
 1939WAT     H1 9561   0.872   0.510   7.807  2.3004 -0.4273  0.3143
 1939WAT     H2 9562   0.896   0.660   7.816  0.3246 -0.0387 -0.4596
 1939WAT    EPW 9563   0.889   0.582   7.854  0.9605  0.1197 -0.0019
 1940WAT      O 9564   5.684   2.643   7.868  0.4479 -0.5156 -0.1031
 1940WAT     H1 9565   5.771   2.662   7.835 -0.0142  1.2346 -0.3775
 1940WAT     H2 9566   5.628   2.642   7.791  0.0805 -0.8386  0.1608
 1940WAT    EPW 9567   5.688   2.645   7.854  0.3383 -0.3273 -0.1047
 1941WAT      O 9568   1.661   0.469   8.096 -0.7138 -0.4234  0.2963
 1941WAT     H1 9569   1.743   0.473   8.048 -1.7369 -2.4367 -1.8538
 1941WAT     H2 9570   1.681   0.419   8.175  0.8175  2.2263  1.7176
 1941WAT    EPW 9571   1.674   0.463   8.100 -0.6468 -0.3394  0.2003
 1942WAT      O 9572  10.849   1.833   6.708  0.1272 -0.8617 -0.3423
 1942WAT     H1 9573  10.899   1.882   6.643 -0.1642 -0.4528 -0.2667
 1942WAT     H2 9574  10.778   1.792   6.659 -0.0830 -0.5670 -0.2856
 1942WAT    EPW 9575  10.846   1.834   6.693  0.0610 -0.7689 -0.3250
 1943WAT      O 9576  10.381   1.281   5.450 -0.0143  0.2430 -0.0110
 1943WAT     H1 9577  10.326   1.277   5.372 -1.6801 -1.2558  1.1538
 1943WAT     H2 9578  10.366   1.369   5.485 -0.8877  0.2054 -0.2755
 1943WAT    EPW 9579  10.372   1.292   5.445 -0.3500  0.0403  0.1080
 1944WAT      O 9580   9.923   1.830   7.195  0.3866  1.0800 -0.0480
 1944WAT     H1 9581   9.947   1.738   7.190 -0.1169  0.9606 -0.2479
 1944WAT     H2 9582   9.829   1.831   7.210  0.3774  1.5612 -0.1051
 1944WAT    EPW 9583   9.914   1.818   7.196  0.3185  1.1276 -0.0818
 1945WAT      O 9584   4.858   1.552   0.339 -0.1455 -0.0642  0.3840
 1945WAT     H1 9585   4.802   1.475   0.332 -0.3606 -0.1406  2.3101
 1945WAT     H2 9586   4.933   1.532   0.283  0.9661 -2.7986  2.6026
 1945WAT    EPW 9587   4.861   1.539   0.331 -0.0272 -0.4349  0.9307
 1946WAT      O 9588   8.891   3.806   8.552 -0.1697  0.4130 -0.4190
 1946WAT     H1 9589   8.876   3.717   8.522  0.7601 -0.8308  2.4410
 1946WAT     H2 9590   8.968   3.836   8.504 -0.1456 -0.5610 -0.9921
 1946WAT    EPW 9591   8.899   3.798   8.542 -0.0439  0.1204 -0.1173
 1947WAT      O 9592   5.251   2.567   7.584  0.0975  0.2180 -0.4099
 1947WAT     H1 9593   5.167   2.604   7.611 -0.5866  0.3674 -2.5651
 1947WAT     H2 9594   5.233   2.473   7.573  0.8560 -0.1840  1.3470
 1947WAT    EPW 9595   5.238   2.559   7.586  0.1070  0.1847 -0.4623
 1948WAT      O 9596  10.108   3.570   3.046  0.0503  0.0683 -0.2180
 1948WAT     H1 9597  10.127   3.623   2.968 -0.0243 -0.9898 -0.9818
 1948WAT     H2 9598  10.118   3.479   3.016  0.4409 -0.3570  1.1214
 1948WAT    EPW 9599  10.112   3.565   3.032  0.0925 -0.1272 -0.1420
 1949WAT      O 9600   9.223   2.226   5.167 -0.1732 -0.0105  0.0436
 1949WAT     H1 9601   9.243   2.135   5.185 -0.3182  0.0558  0.5528
 1949WAT     H2 9602   9.306   2.263   5.136  0.1624 -0.0548  0.8702
 1949WAT    EPW 9603   9.237   2.219   5.165 -0.1483 -0.0076  0.2198
 1950WAT      O 9604   7.839   2.972   7.342  0.3774 -0.3143  0.4699
 1950WAT     H1 9605   7.881   2.970   7.256  1.5022  0.1961  0.9807
 1950WAT     H2 9606   7.763   3.028   7.331  1.3294  0.9486  0.1432
 1950WAT    EPW 9607   7.835   2.979   7.330  0.6514 -0.0803  0.4945
 1951WAT      O 9608   7.230  10.119   6.273 -0.9160  0.3631  0.5036
 1951WAT     H1 9609   7.164  10.157   6.214 -1.1518  0.7442  1.0014
 1951WAT     H2 9610   7.180  10.085   6.346 -1.1381 -4.2682 -1.4759
 1951WAT    EPW 9611   7.215  10.120   6.275 -0.9766 -0.1979  0.3083
 1952WAT      O 9612   6.719   3.141   5.857  0.5030  0.3712  0.1699
 1952WAT     H1 9613   6.692   3.060   5.814 -0.3878  0.5002  0.4512
 1952WAT     H2 9614   6.813   3.132   5.869  0.3786 -0.7479  0.4466
 1952WAT    EPW 9615   6.728   3.129   5.853  0.3688  0.2404  0.2434
 1953WAT      O 9616   0.452   3.402   8.035  0.1779 -0.5304 -0.5891
 1953WAT     H1 9617   0.519   3.469   8.024  1.7089 -1.6105  1.4084
 1953WAT     H2 9618   0.389   3.419   7.965  0.9098  2.4474 -0.6415
 1953WAT    EPW 9619   0.453   3.413   8.024  0.4764 -0.2800 -0.3324
 1954WAT      O 9620   1.448   7.558   0.501  0.0355  0.8599 -0.0778
 1954WAT     H1 9621   1.478   7.632   0.448  2.6938 -0.8370 -1.1343
 1954WAT     H2 9622   1.489   7.481   0.461 -2.2889 -1.2070  1.1913
 1954WAT    EPW 9623   1.457   7.557   0.489  0.0796  0.3633 -0.0497
 1955WAT      O 9624   7.385   0.874   5.369  0.5843  0.3571  0.5194
 1955WAT     H1 9625   7.331   0.953   5.373 -0.7557 -0.5206  0.4092
 1955WAT     H2 9626   7.458   0.898   5.311  2.3861  2.7182  3.4772
 1955WAT    EPW 9627   7.388   0.888   5.362  0.6452  0.5527  0.8948
 1956WAT      O 9628  10.435   1.697   5.140  0.3748  0.3833 -0.0232
 1956WAT     H1 9629  10.398   1.684   5.052 -2.0427 -1.6862  1.1549
 1956WAT     H2 9630  10.369   1.661   5.199  1.8341  1.8466  2.7032
 1956WAT    EPW 9631  10.421   1.691   5.136  0.2484  0.3033  0.4921
 1957WAT      O 9632  10.545   2.693   5.584  0.0771 -0.3066  0.2584
 1957WAT     H1 9633  10.539   2.677   5.678 -0.8387  1.6446  0.5716
 1957WAT     H2 9634  10.479   2.635   5.546 -0.8217  0.1981  1.0089
 1957WAT    EPW 9635  10.536   2.683   5.591 -0.1631  0.0174  0.3989
 1958WAT      O 9636   3.820   8.664   0.184 -0.1924  1.2542  0.4117
 1958WAT     H1 9637   3.784   8.751   0.172 -1.1822  0.7989 -0.0063
 1958WAT     H2 9638   3.808   8.620   0.100 -0.7763  0.3423  0.9443
 1958WAT    EPW 9639   3.814   8.670   0.172 -0.4001  1.0738  0.4268
 1959WAT      O 9640  10.184   5.394   7.152 -0.5465  0.4128 -0.1799
 1959WAT     H1 9641  10.176   5.437   7.237  1.2220  1.2284 -0.3719
 1959WAT     H2 9642  10.184   5.301   7.171  1.7666  0.5898  0.9880
 1959WAT    EPW 9643  10.183   5.388   7.165 -0.0081  0.5438 -0.0513
 1960WAT      O 9644   1.804   0.707   8.250 -0.3561 -0.2489 -0.3347
 1960WAT     H1 9645   1.755   0.647   8.306  1.0887 -1.2256 -0.0494
 1960WAT     H2 9646   1.765   0.793   8.265 -0.9912 -0.7571  0.9958
 1960WAT    EPW 9647   1.793   0.711   8.259 -0.2492 -0.4447 -0.1216
 1961WAT      O 9648   9.614   2.121   5.876  0.0475 -0.8649  0.7605
 1961WAT     H1 9649   9.549   2.051   5.872  2.3642 -3.1061 -0.7377
 1961WAT     H2 9650   9.564   2.199   5.899 -3.0956 -2.4828 -0.0571
 1961WAT    EPW 9651   9.599   2.122   5.879 -0.0610 -1.3738  0.4551
 1962WAT      O 9652   8.238   0.984   8.560 -0.3139  0.4616  0.2500
 1962WAT     H1 9653   8.179   0.930   8.612  0.2290 -2.3070 -1.8042
 1962WAT     H2 9654   8.324   0.969   8.599 -0.1652 -0.1846 -0.3108
 1962WAT    EPW 9655   8.242   0.975   8.572 -0.2227  0.0111 -0.0949
 1963WAT      O 9656   4.742   6.043   1.333 -0.2286 -0.1881  1.1914
 1963WAT     H1 9657   4.711   6.130   1.356  0.2813 -0.2305  2.0688
 1963WAT     H2 9658   4.837   6.053   1.321 -0.0508 -0.7624  2.0349
 1963WAT    EPW 9659   4.751   6.056   1.334 -0.1378 -0.2694  1.4184
 1964WAT      O 9660   8.614   9.430   6.852  0.2731  0.3207  0.0313
 1964WAT     H1 9661   8.596   9.354   6.907  1.0488  1.2017  1.5924
 1964WAT     H2 9662   8.709   9.440   6.855  0.1246  1.9280  0.7389
 1964WAT    EPW 9663   8.624   9.422   6.860  0.3562  0.6480  0.3307
 1965WAT      O 9664  10.180   1.705   5.080 -0.7786 -0.2704 -0.2870
 1965WAT     H1 9665  10.131   1.681   5.001 -1.2130 -2.0694  0.4848
 1965WAT     H2 9666  10.216   1.791   5.060  1.1646 -1.6242 -3.4177
 1965WAT    EPW 9667  10.178   1.713   5.067 -0.5794 -0.6862 -0.5984
 1966WAT      O 9668   9.861   1.637   6.910 -0.3120 -0.0474 -0.1745
 1966WAT     H1 9669   9.767   1.651   6.899 -0.4740 -0.6259  0.4651
 1966WAT     H2 9670   9.899   1.725   6.904 -1.0963  0.4468  1.6234
 1966WAT    EPW 9671   9.854   1.650   6.907 -0.4368 -0.0586  0.1471
 1967WAT      O 9672   0.039   2.279   7.283 -0.0632 -0.2780  0.0388
 1967WAT     H1 9673  -0.024   2.340   7.321 -1.2421 -2.0248  0.9944
 1967WAT     H2 9674  -0.013   2.203   7.257  1.4221 -1.1015 -0.6511
 1967WAT    EPW 9675   0.024   2.277   7.285 -0.0229 -0.6169  0.0739
 1968WAT      O 9676   7.673   2.639   7.632  0.0725 -0.5992 -0.2440
 1968WAT     H1 9677   7.645   2.674   7.716  0.6063 -1.0687  0.1331
 1968WAT     H2 9678   7.747   2.694   7.607 -0.0673 -0.4789 -0.3985
 1968WAT    EPW 9679   7.679   2.651   7.639  0.1242 -0.6453 -0.2143
 1969WAT      O 9680   7.378   9.812   4.901 -0.0399  0.3893 -0.9103
 1969WAT     H1 9681   7.324   9.828   4.823 -2.5462 -0.3165  0.5686
 1969WAT     H2 9682   7.386   9.717   4.906 -1.3242  0.3170  0.5312
 1969WAT    EPW 9683   7.372   9.802   4.891 -0.5400  0.2866 -0.5248
 1970WAT      O 9684   9.745   3.035   3.161 -0.3610 -0.3354  0.2028
 1970WAT     H1 9685   9.767   2.954   3.207 -1.1088 -0.4866  0.3114
 1970WAT     H2 9686   9.649   3.039   3.165 -0.3149  0.7341  0.5034
 1970WAT    EPW 9687   9.735   3.025   3.168 -0.4539 -0.2142  0.2568
 1971WAT      O 9688   1.328   1.381   8.077 -0.3831 -0.1468  0.2003
 1971WAT     H1 9689   1.302   1.324   8.005 -1.9869  1.6178 -0.7004
 1971WAT     H2 9690   1.274   1.352   8.151 -0.2233 -0.6401  0.1266
 1971WAT    EPW 9691   1.317   1.370   8.077 -0.5736  0.0210  0.0710
 1972WAT      O 9692   2.232   1.925   4.056 -0.9364  0.2179  0.2010
 1972WAT     H1 9693   2.230   1.892   4.146  0.1354  1.1890  0.6071
 1972WAT     H2 9694   2.141   1.922   4.026 -1.2773 -0.2505  1.2620
 1972WAT    EPW 9695   2.220   1.920   4.064 -0.8399  0.2842  0.3946
 1973WAT      O 9696  10.810   1.599   7.405  0.0966 -0.6237 -0.6583
 1973WAT     H1 9697  10.734   1.628   7.455 -0.0679 -1.0809 -0.6398
 1973WAT     H2 9698  10.778   1.589   7.315  0.9531  2.6449 -1.4645
 1973WAT    EPW 9699  10.796   1.602   7.400  0.1879 -0.2528 -0.7622
 1974WAT      O 9700   9.554   2.388   5.973 -0.2784 -0.2575 -0.6359
 1974WAT     H1 9701   9.464   2.354   5.975  0.2992 -1.8625  0.8514
 1974WAT     H2 9702   9.567   2.424   6.061  0.8411 -0.9203 -0.5161
 1974WAT    EPW 9703   9.543   2.389   5.985 -0.0544 -0.5567 -0.4237
 1975WAT      O 9704  10.549   1.088   7.103  0.7057  0.4941 -0.6073
 1975WAT     H1 9705  10.502   1.078   7.186  0.5747  0.8062 -0.6416
 1975WAT     H2 9706  10.621   1.025   7.108  2.2121  2.2110  0.8109
 1975WAT    EPW 9707  10.552   1.078   7.114  0.8874  0.7617 -0.4249
 1976WAT      O 9708   2.707   8.148   0.347 -0.2671 -0.1885  0.1638
 1976WAT     H1 9709   2.736   8.128   0.435  0.0616 -0.0318  0.0937
 1976WAT     H2 9710   2.778   8.201   0.310  0.5323 -1.8935 -0.8682
 1976WAT    EPW 9711   2.720   8.152   0.353 -0.1184 -0.3924  0.0184
 1977WAT      O 9712   3.266   5.686   1.653 -0.7689 -0.0270  0.4337
 1977WAT     H1 9713   3.258   5.722   1.565 -0.7691 -1.5521 -0.2120
 1977WAT     H2 9714   3.321   5.750   1.700 -0.8612  0.8540 -0.6177
 1977WAT    EPW 9715   3.272   5.699   1.648 -0.7809 -0.1118  0.2098
 1978WAT      O 9716   9.962   0.114   6.397  0.3258  0.0564  0.3084
 1978WAT     H1 9717   9.879   0.149   6.365 -0.0195 -2.1528 -1.4421
 1978WAT     H2 9718   9.959   0.128   6.492 -1.5857  0.9263  0.1662
 1978WAT    EPW 9719   9.951   0.120   6.405  0.0291 -0.1203  0.0589
 1979WAT      O 9720   5.629   9.964   8.447 -0.0706  0.4330 -0.2135
 1979WAT     H1 9721   5.552   9.998   8.401 -0.4819 -2.8002 -2.2956
 1979WAT     H2 9722   5.601   9.878   8.479  1.5638  0.8058  2.5315
 1979WAT    EPW 9723   5.615   9.957   8.445  0.0906  0.0563 -0.1259
 1980WAT      O 9724  10.706   2.235   8.768 -0.7595 -0.3116 -0.3301
 1980WAT     H1 9725  10.694   2.304   8.703 -0.2847  3.1586  2.9258
 1980WAT     H2 9726  10.777   2.267   8.824 -0.6727 -3.4078  1.5560
 1980WAT    EPW 9727  10.714   2.248   8.766 -0.6852 -0.2623  0.3486
 1981WAT      O 9728   1.438   6.993   1.591 -1.0581  0.2233 -0.0713
 1981WAT     H1 9729   1.424   6.906   1.553 -0.6005 -0.5614  1.4433
 1981WAT     H2 9730   1.352   7.033   1.595 -1.7249 -1.2490  1.6262
 1981WAT    EPW 9731   1.425   6.987   1.586 -1.0857 -0.0744  0.3524
 1982WAT      O 9732   0.050   1.963   7.562  0.4890 -0.1449  0.0846
 1982WAT     H1 9733  -0.019   2.027   7.576 -0.1120 -0.8180  0.2486
 1982WAT     H2 9734   0.030   1.924   7.477  2.5906  2.0105 -1.5513
 1982WAT    EPW 9735   0.038   1.966   7.553  0.6871  0.0507 -0.1094
 1983WAT      O 9736   7.827   3.437   5.793  1.1164  0.5767  0.7726
 1983WAT     H1 9737   7.843   3.421   5.701  1.3566 -1.4342  1.1338
 1983WAT     H2 9738   7.874   3.368   5.839  0.8902  1.4501  2.4024
 1983WAT    EPW 9739   7.835   3.426   5.787  1.1184  0.4268  1.0352
 1984WAT      O 9740   8.470   0.350   6.533 -0.5884  0.0927  0.1547
 1984WAT     H1 9741   8.473   0.293   6.609 -0.6127  1.7363  1.4318
 1984WAT     H2 9742   8.383   0.389   6.535 -0.3468  0.6798 -0.3038
 1984WAT    EPW 9743   8.459   0.348   6.543 -0.5603  0.3869  0.2627
 1985WAT      O 9744   1.896   4.199   6.241  0.5044 -0.3679 -0.0123
 1985WAT     H1 9745   1.857   4.184   6.155 -0.5024  0.4791  0.2675
 1985WAT     H2 9746   1.951   4.123   6.256 -2.2172 -2.4272  0.2251
 1985WAT    EPW 9747   1.898   4.187   6.231  0.0126 -0.5281  0.0558
 1986WAT      O 9748   3.199   0.541   6.796  0.3804 -0.0690 -1.0496
 1986WAT     H1 9749   3.133   0.559   6.864  0.4644 -1.6651 -0.4983
 1986WAT     H2 9750   3.266   0.607   6.811  0.4364 -0.4306  0.5138
 1986WAT    EPW 9751   3.199   0.552   6.807  0.3989 -0.3272 -0.7708
 1987WAT      O 9752   9.588   0.003   4.562  0.1038  0.2621 -0.6260
 1987WAT     H1 9753   9.658  -0.062   4.563  0.7158  0.9060 -0.3310
 1987WAT     H2 9754   9.535  -0.020   4.486  0.2228 -0.6658 -0.4432
 1987WAT    EPW 9755   9.590  -0.009   4.552  0.2007  0.2246 -0.5629
 1988WAT      O 9756   2.148   0.190   6.028  0.4879 -0.0385  0.6114
 1988WAT     H1 9757   2.171   0.200   6.120  2.8401  0.1650  0.0426
 1988WAT     H2 9758   2.135   0.095   6.016 -0.1275 -0.0353  1.1811
 1988WAT    EPW 9759   2.149   0.179   6.038  0.7169 -0.0113  0.6118
 1989WAT      O 9760   0.763   2.522   6.207  0.6391 -0.5803 -0.0757
 1989WAT     H1 9761   0.847   2.480   6.228  0.1864 -1.0189  0.8955
 1989WAT     H2 9762   0.727   2.468   6.136  1.2843 -0.2429 -0.6705
 1989WAT    EPW 9763   0.770   2.509   6.200  0.6645 -0.5937 -0.0260
 1990WAT      O 9764  10.139   4.039   6.449  0.6997  0.1723 -0.1826
 1990WAT     H1 9765  10.129   4.112   6.388 -0.0815  0.5440  0.3632
 1990WAT     H2 9766  10.049   4.011   6.467  0.7063  1.5139  2.4719
 1990WAT    EPW 9767  10.126   4.045   6.444  0.5980  0.3982  0.2398
 1991WAT      O 9768   6.225   2.050   0.117  0.1407 -0.1188 -0.3749
 1991WAT     H1 9769   6.274   2.110   0.173  0.8464 -1.0672  0.0441
 1991WAT     H2 9770   6.157   2.105   0.077  0.4070  0.8295  0.4356
 1991WAT    EPW 9771   6.222   2.065   0.119  0.2689 -0.1187 -0.2128
 1992WAT      O 9772   2.040   1.708   7.738  0.2661  0.2515 -0.5333
 1992WAT     H1 9773   1.966   1.719   7.798 -0.4853 -0.5890 -1.2802
 1992WAT     H2 9774   2.108   1.668   7.792 -0.4934 -0.7548 -0.2959
 1992WAT    EPW 9775   2.039   1.704   7.753  0.0669  0.0079 -0.6003
 1993WAT      O 9776  10.075   2.392   6.209 -0.2751  0.3850  0.1066
 1993WAT     H1 9777  10.170   2.398   6.220 -0.3884 -0.5381  2.0883
 1993WAT     H2 9778  10.061   2.308   6.167 -0.2586 -0.2745  1.3622
 1993WAT    EPW 9779  10.085   2.382   6.205 -0.2875  0.1762  0.5333
 1994WAT      O 9780   9.865   2.399   5.415  0.0105 -0.5190 -0.3922
 1994WAT     H1 9781   9.879   2.323   5.358  0.3585 -3.0815  2.8002
 1994WAT     H2 9782   9.801   2.369   5.480  1.1601  1.4239  1.8109
 1994WAT    EPW 9783   9.859   2.385   5.416  0.2079 -0.6006  0.3195
 1995WAT      O 9784   2.590   4.708   7.168 -0.6501  0.5197  0.5419
 1995WAT     H1 9785   2.618   4.755   7.089  1.3743 -0.5696  0.5487
 1995WAT     H2 9786   2.568   4.620   7.137 -0.5745  0.3072  1.0786
 1995WAT    EPW 9787   2.591   4.702   7.154 -0.3730  0.3483  0.6135
 1996WAT      O 9788  10.195   0.622   6.162 -0.7157  0.0279  0.4423
 1996WAT     H1 9789  10.272   0.587   6.118 -1.9516  0.4128 -2.2854
 1996WAT     H2 9790  10.229   0.692   6.217  0.8890  0.3274 -0.8340
 1996WAT    EPW 9791  10.210   0.627   6.163 -0.6671  0.1182 -0.0858
 1997WAT      O 9792  10.279   4.307   0.779  0.3987  0.1396 -0.1540
 1997WAT     H1 9793  10.197   4.357   0.784  0.1097 -0.3220 -0.2453
 1997WAT     H2 9794  10.334   4.357   0.718  0.5449  0.9596  0.6324
 1997WAT    EPW 9795  10.276   4.320   0.772  0.3796  0.1864 -0.0623
 1998WAT      O 9796   1.468   0.641   5.915 -0.0875  0.1927  0.1638
 1998WAT     H1 9797   1.487   0.581   5.843  2.6295  0.9852  0.1048
 1998WAT     H2 9798   1.394   0.602   5.961  1.6200 -3.3414  0.2234
 1998WAT    EPW 9799   1.461   0.628   5.912  0.4960 -0.1689  0.1638
 1999WAT      O 9800   3.650   8.082   0.399 -0.5644 -0.1375  0.6115
 1999WAT     H1 9801   3.568   8.036   0.415 -1.5853  0.8628 -1.5132
 1999WAT     H2 9802   3.658   8.144   0.472  0.1131 -2.5238  2.7239
 1999WAT    EPW 9803   3.640   8.084   0.411 -0.6096 -0.3204  0.6099
 2000WAT      O 9804   0.117   4.938   6.593  0.0589 -0.0798  0.2158
 2000WAT     H1 9805   0.198   4.935   6.644 -1.0659 -0.7082  2.0345
 2000WAT     H2 9806   0.119   4.857   6.542  1.8016  1.1457 -1.8374
 2000WAT    EPW 9807   0.128   4.927   6.593  0.1404 -0.0010  0.1848
 2001WAT      O 9808   1.263   3.657   6.905  1.1015 -0.5640  0.1216
 2001WAT     H1 9809   1.190   3.717   6.921 -0.1955 -2.2054  0.6524
 2001WAT     H2 9810   1.288   3.672   6.814 -0.4827 -0.5562 -0.3325
 2001WAT    EPW 9811   1.257   3.667   6.895  0.7215 -0.7795  0.1318
 2002WAT      O 9812  10.669   3.166   8.868 -0.1677 -0.3408 -0.5600
 2002WAT     H1 9813  10.631   3.089   8.826 -3.8059  1.6188 -1.2683
 2002WAT     H2 9814  10.595   3.209   8.910  1.8095  2.5148  0.2820
 2002WAT    EPW 9815  10.655   3.161   8.868 -0.3867  0.2942 -0.5426
 2003WAT      O 9816   9.144   2.787   7.560  0.5357 -0.0223  0.6484
 2003WAT     H1 9817   9.134   2.699   7.524  2.8375 -0.1177  0.0913
 2003WAT     H2 9818   9.069   2.836   7.526  1.0182 -0.8881 -1.8659
 2003WAT    EPW 9819   9.133   2.782   7.551  0.9031 -0.1490  0.2432
 2004WAT      O 9820   9.517   3.190   4.751  0.0089  0.5068  0.2703
 2004WAT     H1 9821   9.608   3.219   4.750 -0.3117  1.8413  2.3856
 2004WAT     H2 9822   9.481   3.230   4.830 -2.6789  0.7749 -0.9931
 2004WAT    EPW 9823   9.524   3.199   4.761 -0.3877  0.7181  0.3829
 2005WAT      O 9824   7.052   9.663   5.382  0.8871  0.5551  0.8972
 2005WAT     H1 9825   7.099   9.607   5.443  1.0421 -0.1253  0.1666
 2005WAT     H2 9826   6.966   9.623   5.373  0.8646  0.6523  0.6637
 2005WAT    EPW 9827   7.047   9.651   5.389  0.9048  0.4783  0.7699
 2006WAT      O 9828   0.512   0.741   6.896 -0.3652  0.2904  0.0202
 2006WAT     H1 9829   0.529   0.807   6.829  0.7249  1.1898  1.1133
 2006WAT     H2 9830   0.421   0.715   6.882 -0.8420  2.0636 -0.4418
 2006WAT    EPW 9831   0.503   0.747   6.886 -0.2843  0.6430  0.1037
 2007WAT      O 9832   9.425   0.393   7.424  0.8124  0.7800 -0.1048
 2007WAT     H1 9833   9.361   0.463   7.410 -1.4982 -0.7767  1.8490
 2007WAT     H2 9834   9.491   0.408   7.357 -1.1704  2.9964 -1.7597
 2007WAT    EPW 9835   9.425   0.404   7.413  0.2465  0.8670 -0.0653
 2008WAT      O 9836   0.751   3.069   8.162  0.2134 -0.5227 -0.1041
 2008WAT     H1 9837   0.724   3.071   8.070 -2.1249  2.5990  0.4897
 2008WAT     H2 9838   0.671   3.053   8.211  0.9515  0.3042  1.4678
 2008WAT    EPW 9839   0.737   3.067   8.156  0.0024 -0.0019  0.1812
 2009WAT      O 9840   1.164   3.178   7.987 -0.0087  0.1000  0.3771
 2009WAT     H1 9841   1.102   3.186   8.060  0.6520 -1.3715  1.1640
 2009WAT     H2 9842   1.119   3.121   7.924  0.0259  0.0978  0.3545
 2009WAT    EPW 9843   1.150   3.171   7.989  0.0830 -0.0943  0.4778
 2010WAT      O 9844   0.419   5.003   0.443 -0.3073 -0.0026 -0.6118
 2010WAT     H1 9845   0.359   5.045   0.382 -0.1360  0.3601 -0.5337
 2010WAT     H2 9846   0.397   4.910   0.438 -2.1457  0.3138  0.8240
 2010WAT    EPW 9847   0.409   4.996   0.434 -0.5271  0.0870 -0.4122
 2011WAT      O 9848   1.599   4.172   7.407 -0.5550 -0.4258  0.2227
 2011WAT     H1 9849   1.508   4.173   7.378 -1.3275 -0.3485  2.4311
 2011WAT     H2 9850   1.627   4.082   7.392 -1.7932 -1.0965  1.6610
 2011WAT    EPW 9851   1.591   4.160   7.401 -0.8201 -0.5040  0.7033
 2012WAT      O 9852   7.156   3.248   6.335  0.3189  0.0793 -0.3029
 2012WAT     H1 9853   7.159   3.338   6.367  2.0595  0.2523 -0.8778
 2012WAT     H2 9854   7.085   3.208   6.386 -0.8157  1.8691 -0.3784
 2012WAT    EPW 9855   7.147   3.255   6.346  0.3986  0.3381 -0.3889
 2013WAT      O 9856   0.791   4.011   4.393 -0.4187 -0.2173 -0.0777
 2013WAT     H1 9857   0.875   4.034   4.432 -0.3506 -0.3833 -0.1286
 2013WAT     H2 9858   0.729   4.075   4.430 -0.5477 -0.9681  1.0495
 2013WAT    EPW 9859   0.794   4.023   4.403 -0.4267 -0.3383  0.0644
 2014WAT      O 9860   0.995   1.487   2.492  0.2408 -0.3746 -1.1595
 2014WAT     H1 9861   1.046   1.565   2.514 -0.5439  0.0113 -0.6288
 2014WAT     H2 9862   0.904   1.516   2.499 -0.0705 -1.4890 -0.3519
 2014WAT    EPW 9863   0.990   1.501   2.496  0.0963 -0.4706 -0.9830
 2015WAT      O 9864   1.863   1.603   2.102 -0.7214 -0.5607 -0.1889
 2015WAT     H1 9865   1.884   1.579   2.192 -0.5733 -2.3565 -0.6733
 2015WAT     H2 9866   1.939   1.652   2.072  0.2837 -1.9983 -0.0707
 2015WAT    EPW 9867   1.875   1.606   2.110 -0.5693 -0.9871 -0.2372
 2016WAT      O 9868   8.506   1.430   3.111  0.6147  0.7670 -0.7126
 2016WAT     H1 9869   8.536   1.433   3.202  2.3534 -0.4454 -1.1888
 2016WAT     H2 9870   8.429   1.373   3.113 -0.0486  1.6665  0.1379
 2016WAT    EPW 9871   8.500   1.423   3.123  0.7563  0.7257 -0.6633
 2017WAT      O 9872   9.628   9.115   3.908  0.1864 -0.6138  0.4596
 2017WAT     H1 9873   9.681   9.191   3.932  0.4523 -0.8089  0.4974
 2017WAT     H2 9874   9.548   9.124   3.960 -0.1095  0.0393 -0.0939
 2017WAT    EPW 9875   9.625   9.126   3.918  0.1822 -0.5536  0.3916
 2018WAT      O 9876   4.501   0.460   1.336 -0.4627  0.8817  0.0721
 2018WAT     H1 9877   4.439   0.528   1.309 -0.5582  1.1040  0.8512
 2018WAT     H2 9878   4.528   0.485   1.424  0.3606  0.5142 -0.0683
 2018WAT    EPW 9879   4.497   0.472   1.344 -0.3667  0.8625  0.1562
 2019WAT      O 9880  10.112   0.512   3.521 -0.2356 -0.4068 -0.0014
 2019WAT     H1 9881  10.103   0.605   3.541  0.5179  0.0266 -1.5004
 2019WAT     H2 9882  10.052   0.498   3.447  1.4076 -0.5231 -1.3594
 2019WAT    EPW 9883  10.103   0.523   3.514  0.0806 -0.3650 -0.3781
 2020WAT      O 9884   1.044   0.305   4.264 -0.7435 -0.5583 -0.5946
 2020WAT     H1 9885   0.977   0.367   4.293  2.0019  2.6721 -0.4249
 2020WAT     H2 9886   1.125   0.339   4.303  1.1962 -3.4911 -1.7752
 2020WAT    EPW 9887   1.046   0.318   4.273 -0.1256 -0.5191 -0.7281
 2021WAT      O 9888   5.320   8.566   8.535  1.2177 -0.0644  0.0225
 2021WAT     H1 9889   5.386   8.511   8.577  0.3054 -0.8603  0.4564
 2021WAT     H2 9890   5.258   8.505   8.496  0.5280  0.6501 -0.0409
 2021WAT    EPW 9891   5.321   8.551   8.536  1.0064 -0.0749  0.0710
 2022WAT      O 9892   9.144   1.466   4.301  0.4605  0.0140 -0.3566
 2022WAT     H1 9893   9.099   1.549   4.281  0.1428  0.3011  1.4263
 2022WAT     H2 9894   9.076   1.400   4.290  0.1059  0.2404  0.4188
 2022WAT    EPW 9895   9.129   1.468   4.297  0.3719  0.0817 -0.0193
 2023WAT      O 9896   1.710   0.591   1.648  0.0297 -0.2382 -0.5289
 2023WAT     H1 9897   1.625   0.549   1.656  0.8256 -2.1761 -1.5482
 2023WAT     H2 9898   1.732   0.617   1.738 -0.9096 -1.2195  0.0067
 2023WAT    EPW 9899   1.702   0.589   1.661  0.0107 -0.6232 -0.5927
 2024WAT      O 9900   0.272   2.893   6.549 -0.1550  0.0914 -0.0116
 2024WAT     H1 9901   0.270   2.919   6.457 -3.3097  0.6435  0.1220
 2024WAT     H2 9902   0.316   2.966   6.594  0.1607  0.4579 -0.9074
 2024WAT    EPW 9903   0.278   2.906   6.543 -0.5294  0.2127 -0.1123
 2025WAT      O 9904   0.538   3.128   5.806 -0.2962 -0.2795 -0.1437
 2025WAT     H1 9905   0.456   3.177   5.809 -1.4574 -1.9439 -1.8574
 2025WAT     H2 9906   0.597   3.183   5.756 -1.2085 -0.0943 -1.0633
 2025WAT    EPW 9907   0.535   3.142   5.800 -0.5696 -0.4746 -0.4911
 2026WAT      O 9908   0.817   0.807   1.230 -0.6821 -0.0696 -0.7060
 2026WAT     H1 9909   0.780   0.878   1.177 -0.0368 -0.7979 -2.2100
 2026WAT     H2 9910   0.805   0.728   1.176  0.8259 -0.7032 -0.1887
 2026WAT    EPW 9911   0.811   0.806   1.216 -0.3981 -0.2492 -0.8361
 2027WAT      O 9912   3.225   1.751   3.714 -0.4022 -0.0113 -0.2290
 2027WAT     H1 9913   3.243   1.769   3.622  1.1274  0.2963  0.1180
 2027WAT     H2 9914   3.177   1.829   3.745  1.2519  1.0176 -0.1588
 2027WAT    EPW 9915   3.221   1.764   3.706  0.0179  0.1650 -0.1742
 2028WAT      O 9916   9.068   0.612   2.870 -0.1490 -0.6965  0.0866
 2028WAT     H1 9917   9.162   0.599   2.877 -0.0210  0.3171  0.4021
 2028WAT     H2 9918   9.034   0.526   2.845  1.2630 -0.3157 -3.9347
 2028WAT    EPW 9919   9.076   0.599   2.868  0.0544 -0.5126 -0.4022
 2029WAT      O 9920   2.199   1.924   5.200 -0.0883  0.4684  0.4576
 2029WAT     H1 9921   2.248   1.856   5.153  0.4852  0.4800  1.0251
 2029WAT     H2 9922   2.221   2.005   5.156 -0.0409  0.4016  0.3592
 2029WAT    EPW 9923   2.208   1.926   5.188 -0.0063  0.4610  0.5195
 2030WAT      O 9924  10.327   0.002   4.227  0.4595 -0.3307  0.6553
 2030WAT     H1 9925  10.298   0.036   4.312 -0.2124 -1.3538  0.8520
 2030WAT     H2 9926  10.420  -0.017   4.239  0.7050  0.8205  0.7252
 2030WAT    EPW 9927  10.336   0.004   4.240  0.4034 -0.3138  0.6905
 2031WAT      O 9928  10.616   1.292   2.899 -0.2107  0.2205  0.3587
 2031WAT     H1 9929  10.579   1.240   2.828  0.9058  2.4679 -2.0231
 2031WAT     H2 9930  10.708   1.301   2.877  0.0217  1.5363  1.7214
 2031WAT    EPW 9931  10.623   1.287   2.887 -0.0324  0.6906  0.2242
 2032WAT      O 9932  10.783   9.935   2.878  0.1788  0.0143  0.1190
 2032WAT     H1 9933  10.701   9.891   2.855  0.1204 -0.1249  0.6014
 2032WAT     H2 9934  10.771  10.025   2.848 -0.4318  0.1784  0.8343
 2032WAT    EPW 9935  10.771   9.941   2.871  0.0906  0.0176  0.2770
 2033WAT      O 9936   9.175   1.866   2.810  0.3655  0.1420  0.3125
 2033WAT     H1 9937   9.121   1.895   2.883  0.5870  1.4389 -0.0141
 2033WAT     H2 9938   9.255   1.919   2.817 -0.2042  1.3875 -1.6903
 2033WAT    EPW 9939   9.179   1.877   2.821  0.3195  0.4773  0.0051
 2034WAT      O 9940   2.788   5.909   1.496 -0.4091  0.2275  0.6727
 2034WAT     H1 9941   2.839   5.966   1.554  1.8087  0.1116 -1.0267
 2034WAT     H2 9942   2.711   5.961   1.474 -0.6383  0.7959  2.6121
 2034WAT    EPW 9943   2.785   5.924   1.501 -0.1470  0.2873  0.7043
 2035WAT      O 9944  10.528   2.106   5.790 -0.4206  0.5819 -0.5841
 2035WAT     H1 9945  10.537   2.057   5.709  0.9955 -1.5359  0.7571
 2035WAT     H2 9946  10.614   2.144   5.805 -0.8565  1.5156 -0.3910
 2035WAT    EPW 9947  10.541   2.104   5.781 -0.2918  0.4257 -0.3815
 2036WAT      O 9948   0.094   1.562   2.452  0.2963 -0.5064 -0.7808
 2036WAT     H1 9949   0.122   1.591   2.539  1.9487  1.0623 -1.7634
 2036WAT     H2 9950   0.033   1.629   2.422  2.8085  1.2761 -2.3588
 2036WAT    EPW 9951   0.090   1.574   2.460  0.8456 -0.0644 -1.1185
 2037WAT      O 9952   6.611   6.428   1.961 -0.1573  0.0738 -0.1642
 2037WAT     H1 9953   6.616   6.364   2.033 -3.5669  1.2246  1.3005
 2037WAT     H2 9954   6.586   6.375   1.885  0.7445 -0.7961  0.1141
 2037WAT    EPW 9955   6.608   6.412   1.961 -0.4878  0.1106  0.0657
 2038WAT      O 9956   8.232   9.080   1.712 -0.3119  0.3569  0.2453
 2038WAT     H1 9957   8.288   9.014   1.670 -1.3949  0.0861 -0.8142
 2038WAT     H2 9958   8.257   9.163   1.671 -3.0513 -0.1956 -2.9316
 2038WAT    EPW 9959   8.243   9.082   1.701 -0.8159  0.2484 -0.3134
 2039WAT      O 9960   7.394  10.207   1.721 -0.2164 -0.2722  0.2166
 2039WAT     H1 9961   7.345  10.180   1.643  1.3865 -2.9781 -0.0089
 2039WAT     H2 9962   7.443  10.284   1.692  0.9125 -1.6322 -1.8025
 2039WAT    EPW 9963   7.394  10.214   1.707  0.1440 -0.8087 -0.0795
 2040WAT      O 9964  10.778   7.839   5.389 -0.3864 -0.4427  0.0784
 2040WAT     H1 9965  10.866   7.876   5.394 -0.3331 -0.2982 -1.3788
 2040WAT     H2 9966  10.791   7.745   5.379 -0.4377 -0.5235  0.7085
 2040WAT    EPW 9967  10.791   7.832   5.388 -0.3867 -0.4344 -0.0308
 2041WAT      O 9968   1.094   3.706   7.909 -0.9394 -0.1014 -0.4616
 2041WAT     H1 9969   1.121   3.738   7.995 -0.2755 -3.6990  0.8610
 2041WAT     H2 9970   1.163   3.735   7.849  0.3006 -0.2058  0.8703
 2041WAT    EPW 9971   1.106   3.714   7.912 -0.6883 -0.5898 -0.1116
 2042WAT      O 9972   1.934   0.686   3.400  0.6058 -0.9568  0.0018
 2042WAT     H1 9973   1.936   0.761   3.340  0.1504 -0.5922  0.4269
 2042WAT     H2 9974   1.974   0.615   3.351  0.9691 -0.4544 -0.4426
 2042WAT    EPW 9975   1.939   0.687   3.386  0.5936 -0.8424 -0.0007
 2043WAT      O 9976  10.324   1.354   1.592  0.1836 -0.4606  0.0023
 2043WAT     H1 9977  10.233   1.343   1.618  0.2957  0.6754  0.9908
 2043WAT     H2 9978  10.332   1.447   1.571  1.0406 -0.6067 -0.3536
 2043WAT    EPW 9979  10.313   1.365   1.593  0.3114 -0.3300  0.0858
 2044WAT      O 9980   7.937   6.951   5.544  0.0523 -0.6970  0.9170
 2044WAT     H1 9981   7.974   7.008   5.476 -0.7897  1.4032  2.1372
 2044WAT     H2 9982   8.013   6.910   5.585  0.7355  0.2188  0.5839
 2044WAT    EPW 9983   7.952   6.953   5.540  0.0312 -0.2992  1.0340
 2045WAT      O 9984   6.645   9.570   4.214  0.2573  0.4517  0.0832
 2045WAT     H1 9985   6.735   9.598   4.200  0.2587  0.5075  0.2078
 2045WAT     H2 9986   6.592   9.643   4.184  0.2027 -0.3359 -1.8724
 2045WAT    EPW 9987   6.650   9.583   4.208  0.2503  0.3552 -0.1583
 2046WAT      O 9988   0.375   7.636   5.304 -0.1988 -0.4091 -0.4667
 2046WAT     H1 9989   0.415   7.554   5.275  0.2244 -0.6800  0.8130
 2046WAT     H2 9990   0.293   7.641   5.256  0.4994 -0.7785 -1.7513
 2046WAT    EPW 9991   0.370   7.626   5.294 -0.0509 -0.4935 -0.4673
 2047WAT      O 9992   1.994   3.150   1.479 -0.5086 -0.8005 -0.1242
 2047WAT     H1 9993   2.056   3.221   1.461 -3.1362  1.3446 -1.4758
 2047WAT     H2 9994   2.032   3.104   1.553  2.1558  1.0182 -0.2041
 2047WAT    EPW 9995   2.007   3.154   1.487 -0.5037 -0.2776 -0.3130
 2048WAT      O 9996   3.289   2.985   1.505 -0.3676  0.2106 -0.4208
 2048WAT     H1 9997   3.243   3.010   1.425 -0.3585  1.4454 -0.0652
 2048WAT     H2 9998   3.373   2.951   1.475 -0.2100  1.0188 -0.9329
 2048WAT    EPW 9999   3.294   2.984   1.491 -0.3457  0.4801 -0.4415
 2049WAT      O10000   1.404   0.165   1.074 -0.1074  0.7146  0.0482
 2049WAT     H110001   1.446   0.226   1.134 -3.4452  0.0111  3.4444
 2049WAT     H210002   1.436   0.079   1.101 -2.2069  0.3242  1.4939
 2049WAT    EPW10003   1.414   0.162   1.085 -0.8245  0.5703  0.6868
 2050WAT      O10004   5.623   0.013   0.658 -0.1303  0.1050 -0.2978
 2050WAT     H110005   5.667  -0.061   0.698  2.3182  1.5114 -0.1860
 2050WAT     H210006   5.545  -0.024   0.617  1.9693 -2.8944 -1.9957
 2050WAT    EPW10007   5.618  -0.001   0.658  0.4697 -0.1051 -0.5070
 2051WAT      O10008   6.938   9.402   3.951 -0.5507  0.3990  0.1427
 2051WAT     H110009   7.002   9.340   3.915  1.0207  2.0357 -0.0481
 2051WAT     H210010   6.864   9.347   3.977 -0.4468 -1.2646 -2.5858
 2051WAT    EPW10011   6.937   9.386   3.949 -0.3297  0.3948 -0.2424
 2052WAT      O10012   1.415   0.332   5.436  0.3012 -0.1712  0.2080
 2052WAT     H110013   1.469   0.327   5.515 -0.7462  1.2566  1.0624
 2052WAT     H210014   1.377   0.244   5.427  3.8178 -1.7595 -1.3099
 2052WAT    EPW10015   1.417   0.320   5.445  0.6269 -0.1924  0.1206
 2053WAT      O10016   0.922   1.968   1.142  0.1950 -0.4226  0.1418
 2053WAT     H110017   0.939   2.058   1.116 -1.2894 -0.2382 -0.2757
 2053WAT     H210018   0.991   1.917   1.099 -0.4197  0.2347 -1.7303
 2053WAT    EPW10019   0.933   1.973   1.133 -0.0819 -0.3116 -0.1602
 2054WAT      O10020   1.509   3.755   1.126 -0.3613 -0.0069 -0.0078
 2054WAT     H110021   1.559   3.714   1.197 -0.3659  1.5819  0.9539
 2054WAT     H210022   1.574   3.807   1.078 -0.8013  0.9225  0.3758
 2054WAT    EPW10023   1.525   3.756   1.129 -0.4200  0.3253  0.1696
 2055WAT      O10024   2.621   2.118   2.730  0.4060 -0.5398  0.6737
 2055WAT     H110025   2.714   2.133   2.712 -0.1214  1.8777 -0.4867
 2055WAT     H210026   2.619   2.090   2.821  2.2022  0.5212  1.1035
 2055WAT    EPW10027   2.633   2.116   2.740  0.5734 -0.0811  0.5772
 2056WAT      O10028   2.656   0.695   5.335 -0.2482 -0.2833  0.4530
 2056WAT     H110029   2.631   0.603   5.341 -2.6090  0.3339  1.2846
 2056WAT     H210030   2.579   0.742   5.367 -0.6527  2.1657 -3.5034
 2056WAT    EPW10031   2.643   0.689   5.340 -0.6130  0.1211  0.0410
 2057WAT      O10032   9.276   0.321   3.354 -0.6966  0.8007  0.3877
 2057WAT     H110033   9.369   0.298   3.344 -0.4876  1.1376  1.4980
 2057WAT     H210034   9.263   0.327   3.448 -1.7569  1.1624  0.2233
 2057WAT    EPW10035   9.287   0.319   3.365 -0.8087  0.8929  0.5124
 2058WAT      O10036   3.054   4.675   1.032  0.4178 -0.3116 -0.2583
 2058WAT     H110037   3.123   4.640   1.088 -0.5987 -1.6974  0.1993
 2058WAT     H210038   3.023   4.754   1.076 -0.2244 -1.2696  1.0738
 2058WAT    EPW10039   3.059   4.681   1.045  0.1990 -0.6208 -0.0223
 2059WAT      O10040   7.795   9.908   4.096  0.3102  0.5863  0.4110
 2059WAT     H110041   7.854   9.983   4.085 -0.9421  1.4085 -1.2281
 2059WAT     H210042   7.748   9.925   4.177  0.6105  1.1593  0.4676
 2059WAT    EPW10043   7.797   9.920   4.105  0.1848  0.7701  0.2024
 2060WAT      O10044   5.067   0.274   8.028 -0.5599 -0.2293  0.5978
 2060WAT     H110045   5.139   0.245   8.085 -0.3814  0.6161  0.8163
 2060WAT     H210046   4.988   0.259   8.080 -0.5359 -0.9416  0.4467
 2060WAT    EPW10047   5.066   0.268   8.042 -0.5331 -0.2118  0.6065
 2061WAT      O10048   0.698   2.186   2.091 -0.0190  0.3089  0.2250
 2061WAT     H110049   0.767   2.213   2.030 -0.3167  0.5798  0.0119
 2061WAT     H210050   0.616   2.205   2.045 -0.2515  0.9564  0.9009
 2061WAT    EPW10051   0.697   2.192   2.077 -0.0889  0.4302  0.2861
 2062WAT      O10052   6.476  10.301   3.231 -0.5435 -0.6196  0.7671
 2062WAT     H110053   6.460  10.216   3.271 -2.0813 -0.4976  0.4697
 2062WAT     H210054   6.424  10.362   3.283 -1.0369 -0.1662 -0.2272
 2062WAT    EPW10055   6.467  10.298   3.243 -0.8113 -0.5436  0.5966
 2063WAT      O10056   4.385   3.462   1.496  0.4935 -0.5488  0.1355
 2063WAT     H110057   4.299   3.503   1.487  0.3591 -1.1214 -1.5393
 2063WAT     H210058   4.446   3.536   1.501 -0.0254 -0.1422  0.6813
 2063WAT    EPW10059   4.381   3.477   1.495  0.4072 -0.5705 -0.0134
 2064WAT      O10060   1.074   2.062   4.254  0.4243  0.7609 -0.4437
 2064WAT     H110061   1.019   1.987   4.233 -1.0037  1.8119 -0.5842
 2064WAT     H210062   1.097   2.050   4.346  0.8384 -0.2234 -0.6668
 2064WAT    EPW10063   1.070   2.050   4.263  0.2905  0.7697 -0.4914
 2065WAT      O10064   4.691   1.174   1.183  0.3244  0.3730  0.5290
 2065WAT     H110065   4.689   1.130   1.097 -2.7883  0.1787  0.5561
 2065WAT     H210066   4.736   1.112   1.240 -0.1325 -0.8511 -0.3749
 2065WAT    EPW10067   4.696   1.160   1.179 -0.1466  0.1860  0.4134
 2066WAT      O10068   2.448   5.136   3.927 -0.4213  0.0044  0.3090
 2066WAT     H110069   2.499   5.212   3.957  0.1726 -1.1335  2.3468
 2066WAT     H210070   2.442   5.080   4.004 -1.7768 -1.5336 -0.8676
 2066WAT    EPW10071   2.454   5.139   3.941 -0.5215 -0.3486  0.4227
 2067WAT      O10072   2.500   0.169   0.606 -1.1484  0.0421  0.4564
 2067WAT     H110073   2.488   0.263   0.619 -0.5527  0.4575 -1.5310
 2067WAT     H210074   2.462   0.152   0.520  1.3111 -0.9194 -0.5616
 2067WAT    EPW10075   2.494   0.179   0.596 -0.7454 -0.0299  0.0600
 2068WAT      O10076   0.044   3.129   0.236 -0.1260  0.3448  1.5578
 2068WAT     H110077   0.054   3.036   0.217 -2.4229  0.2608  0.3622
 2068WAT     H210078   0.101   3.173   0.173 -1.7528 -0.1972 -0.3778
 2068WAT    EPW10079   0.053   3.123   0.225 -0.6433  0.2621  1.1448
 2069WAT      O10080   0.765   3.438   2.251 -0.7882 -0.9629  0.0888
 2069WAT     H110081   0.711   3.479   2.183  0.1224  0.5453  0.2375
 2069WAT     H210082   0.742   3.345   2.246 -1.2498 -0.8030 -1.8317
 2069WAT    EPW10083   0.755   3.431   2.241 -0.7290 -0.7429 -0.1448
 2070WAT      O10084   0.120   1.874   1.685  0.2922 -0.2987 -0.4902
 2070WAT     H110085   0.076   1.790   1.679  1.1197 -0.7233 -0.6677
 2070WAT     H210086   0.212   1.853   1.703  0.5030  0.5613 -0.4879
 2070WAT    EPW10087   0.127   1.860   1.687  0.4292 -0.2412 -0.5133
 2071WAT      O10088  10.522   1.656   4.416 -0.1864 -0.0951  0.3492
 2071WAT     H110089  10.461   1.583   4.410 -1.2848  0.9339 -2.5942
 2071WAT     H210090  10.504   1.696   4.501 -1.8303 -1.3099  0.6162
 2071WAT    EPW10091  10.512   1.652   4.427 -0.5484 -0.1196 -0.0038
 2072WAT      O10092  10.860   0.754   5.558  0.1586 -0.4074 -0.2905
 2072WAT     H110093  10.863   0.726   5.649 -0.2831  1.6761  0.4189
 2072WAT     H210094  10.772   0.789   5.547  0.5810  0.4157 -1.1744
 2072WAT    EPW10095  10.849   0.755   5.569  0.1559 -0.0240 -0.3138
 2073WAT      O10096   1.099   2.815   1.695  0.7672  0.9048  0.2038
 2073WAT     H110097   1.136   2.735   1.659 -2.2057 -0.2638 -0.5459
 2073WAT     H210098   1.140   2.886   1.646 -0.1219 -0.4402 -2.6578
 2073WAT    EPW10099   1.109   2.814   1.684  0.2579  0.5732 -0.2725
 2074WAT      O10100   1.572   3.906   6.697 -0.7225  0.1368 -0.4039
 2074WAT     H110101   1.577   3.931   6.605  0.2464  0.0194 -0.3984
 2074WAT     H210102   1.663   3.890   6.722 -0.9809  0.1228  0.5635
 2074WAT    EPW10103   1.585   3.907   6.688 -0.6287  0.1196 -0.2756
 2075WAT      O10104   0.567   1.065   5.299  0.3455  0.4964  0.3487
 2075WAT     H110105   0.604   1.146   5.334 -0.7353  2.0588 -1.8911
 2075WAT     H210106   0.479   1.060   5.337 -1.0762  2.5314 -2.3444
 2075WAT    EPW10107   0.560   1.075   5.309  0.0154  0.9708 -0.3021
 2076WAT      O10108   8.550   9.227   4.902 -0.1402  0.4344  0.1519
 2076WAT     H110109   8.524   9.140   4.872 -2.1415  1.2235 -0.5385
 2076WAT     H210110   8.575   9.214   4.994  1.7643 -1.2105 -0.5099
 2076WAT    EPW10111   8.550   9.214   4.910 -0.1526  0.3214 -0.0265
 2077WAT      O10112   1.564   0.470   2.091 -0.0060  0.5679  0.1985
 2077WAT     H110113   1.486   0.505   2.133 -0.4153  1.1487 -1.0066
 2077WAT     H210114   1.531   0.425   2.013  0.6204 -1.4833  1.0335
 2077WAT    EPW10115   1.549   0.469   2.086  0.0226  0.3740  0.1497
 2078WAT      O10116   5.338   9.705   3.077  0.1116 -0.5667 -0.7864
 2078WAT     H110117   5.269   9.693   3.012 -1.4501  1.4346  0.3931
 2078WAT     H210118   5.402   9.763   3.035 -0.0115 -0.6883 -1.1407
 2078WAT    EPW10119   5.337   9.711   3.063 -0.1104 -0.3185 -0.6775
 2079WAT      O10120  10.486   1.046   4.105 -0.3773 -0.4058  0.2203
 2079WAT     H110121  10.542   0.975   4.137 -0.3272 -0.4892 -0.0525
 2079WAT     H210122  10.403   1.034   4.151 -0.5231 -0.9185 -0.1624
 2079WAT    EPW10123  10.482   1.036   4.115 -0.3901 -0.4845  0.1338
 2080WAT      O10124   4.453   3.310   1.721 -0.1287  0.2169  0.1694
 2080WAT     H110125   4.432   3.347   1.636  1.4880 -0.4799 -0.5736
 2080WAT     H210126   4.403   3.363   1.783 -1.2737  0.7869 -1.1836
 2080WAT    EPW10127   4.443   3.322   1.718 -0.0665  0.2002 -0.1070
 2081WAT      O10128   4.626   1.922   1.705  0.2692  0.7850 -0.3572
 2081WAT     H110129   4.695   1.887   1.761 -1.6298  0.4451  1.9024
 2081WAT     H210130   4.607   1.852   1.643 -0.5768 -0.6442  1.4250
 2081WAT    EPW10131   4.633   1.908   1.704 -0.0930  0.5517  0.1759
 2082WAT      O10132   3.921   4.906   8.948  0.7867 -0.3862 -0.0986
 2082WAT     H110133   4.015   4.924   8.944  0.5799  0.7756  0.0814
 2082WAT     H210134   3.894   4.938   9.034  0.0624  0.1140 -0.5022
 2082WAT    EPW10135   3.930   4.912   8.958  0.6638 -0.1667 -0.1283
 2083WAT      O10136  10.228   0.301   4.273  0.1320 -0.2217 -0.2124
 2083WAT     H110137  10.224   0.210   4.245 -2.3253 -1.0547  2.3063
 2083WAT     H210138  10.139   0.334   4.261  0.8893  1.7977 -0.7745
 2083WAT    EPW10139  10.216   0.293   4.268 -0.0925 -0.0652  0.0458
 2084WAT      O10140  10.150   8.976   2.416 -0.0887 -0.0163 -0.1517
 2084WAT     H110141  10.169   8.882   2.422 -0.4735 -0.0166  1.6484
 2084WAT     H210142  10.232   9.018   2.443 -0.6459  0.0937  1.4569
 2084WAT    EPW10143  10.164   8.969   2.420 -0.2131 -0.0024  0.2980
 2085WAT      O10144   9.724   8.752   6.173  1.1144 -0.1404  0.2976
 2085WAT     H110145   9.712   8.789   6.086 -2.9799 -2.1094 -0.2088
 2085WAT     H210146   9.775   8.672   6.158  0.4629 -0.4498 -0.2761
 2085WAT    EPW10147   9.729   8.746   6.160  0.4878 -0.4411  0.1552
 2086WAT      O10148   3.064   1.154   1.312 -0.2269  0.3025  0.3280
 2086WAT     H110149   2.985   1.185   1.355  0.2037  1.4509  0.3247
 2086WAT     H210150   3.130   1.221   1.330  0.9798 -1.0035  1.0009
 2086WAT    EPW10151   3.062   1.167   1.320 -0.0110  0.2818  0.4163
 2087WAT      O10152   9.265   1.618   1.374 -0.1963  0.3544  0.4697
 2087WAT     H110153   9.243   1.538   1.327  0.2571  1.1035 -1.0889
 2087WAT     H210154   9.286   1.589   1.463  0.3827 -1.3060 -0.1678
 2087WAT    EPW10155   9.265   1.604   1.380 -0.0606  0.2342  0.1799
 2088WAT      O10156  10.407   3.611   3.101 -0.2125 -0.2981 -0.2125
 2088WAT     H110157  10.327   3.560   3.084  1.2809 -2.6019 -0.9488
 2088WAT     H210158  10.477   3.545   3.103  1.8077  1.6984 -0.5281
 2088WAT    EPW10159  10.406   3.595   3.099  0.2508 -0.3387 -0.3512
 2089WAT      O10160   1.952   1.934   2.736 -0.2702  0.3325 -0.1307
 2089WAT     H110161   1.857   1.944   2.743 -0.1694  1.7146 -0.4472
 2089WAT     H210162   1.983   1.939   2.826 -0.4596  0.3325 -0.0636
 2089WAT    EPW10163   1.943   1.936   2.749 -0.2818  0.5147 -0.1637
 2090WAT      O10164   2.479   1.544   1.105  0.0668  0.0509 -0.5078
 2090WAT     H110165   2.517   1.459   1.123  2.3091  1.3476  1.5020
 2090WAT     H210166   2.535   1.583   1.038  2.9652  2.1417  2.7685
 2090WAT    EPW10167   2.491   1.538   1.098  0.7448  0.4976  0.1895
 2091WAT      O10168   0.096   0.115   3.738  0.5797 -0.1295 -0.7245
 2091WAT     H110169   0.046   0.195   3.753 -3.0264 -2.5226  1.4120
 2091WAT     H210170   0.139   0.098   3.821  1.5697 -0.3050 -1.2564
 2091WAT    EPW10171   0.095   0.123   3.751  0.2346 -0.4683 -0.5128
 2092WAT      O10172   4.950   4.093   7.488  0.7855  0.0786 -0.2805
 2092WAT     H110173   5.013   4.022   7.474  0.1303 -0.1564 -2.3699
 2092WAT     H210174   4.906   4.070   7.570 -0.8739 -3.1515 -1.8532
 2092WAT    EPW10175   4.953   4.081   7.497  0.4799 -0.3781 -0.7637
 2093WAT      O10176   7.594   8.755   2.023 -0.6495  0.2346 -0.3540
 2093WAT     H110177   7.601   8.663   2.000  0.0889 -0.0470  0.8850
 2093WAT     H210178   7.656   8.799   1.965  0.6961 -0.3756  0.5451
 2093WAT    EPW10179   7.603   8.749   2.013 -0.3748  0.1173 -0.0719
 2094WAT      O10180   0.038   0.982   4.286  0.2558 -0.0092  0.3764
 2094WAT     H110181  -0.049   0.951   4.311  0.1565  0.0960  0.1625
 2094WAT     H210182   0.029   1.010   4.195  0.3057  0.7868  0.6066
 2094WAT    EPW10183   0.026   0.982   4.278  0.2492  0.1097  0.3786
 2095WAT      O10184  10.362   2.445   4.696 -0.8871  0.6483 -0.1665
 2095WAT     H110185  10.272   2.415   4.685 -1.9918  3.1817  1.0869
 2095WAT     H210186  10.392   2.400   4.775 -1.4529  0.5902  0.0244
 2095WAT    EPW10187  10.354   2.436   4.705 -1.1077  0.9747  0.0241
 2096WAT      O10188  10.339   1.436   4.376 -0.5054 -0.0871  0.1865
 2096WAT     H110189  10.337   1.395   4.463 -2.9050  2.3034  1.4053
 2096WAT     H210190  10.249   1.429   4.345 -0.1987  1.1572 -1.0772
 2096WAT    EPW10191  10.327   1.429   4.383 -0.7815  0.3923  0.1807
 2097WAT      O10192   1.113   3.928   6.756  0.0972 -0.1240  0.3446
 2097WAT     H110193   1.158   3.959   6.835  0.0138  0.8609  0.0231
 2097WAT     H210194   1.179   3.933   6.688  0.8155 -3.0217  0.7161
 2097WAT    EPW10195   1.128   3.933   6.758  0.1810 -0.3762  0.3510
 2098WAT      O10196  10.760   4.381   4.380  0.3783  0.1991  0.1060
 2098WAT     H110197  10.762   4.457   4.322 -1.0668  0.1668 -0.0087
 2098WAT     H210198  10.695   4.403   4.447 -1.6618 -1.7485 -1.1092
 2098WAT    EPW10199  10.752   4.394   4.381 -0.0815 -0.0620 -0.0696
 2099WAT      O10200   2.688   1.315   2.725 -0.1924  0.0280  0.7885
 2099WAT     H110201   2.749   1.350   2.661 -0.3766  0.3068  0.7614
 2099WAT     H210202   2.680   1.223   2.703 -0.2481  0.1210  0.4128
 2099WAT    EPW10203   2.695   1.308   2.714 -0.2241  0.0771  0.7353
 2100WAT      O10204   4.471   3.306   8.556 -0.0425 -0.1754 -0.5538
 2100WAT     H110205   4.470   3.383   8.613 -1.6210 -1.1511  0.8318
 2100WAT     H210206   4.380   3.275   8.556  0.7187 -2.6468 -0.1822
 2100WAT    EPW10207   4.458   3.312   8.564 -0.1502 -0.6301 -0.3219
 2101WAT      O10208   4.810   4.126   7.234 -0.0240  0.1101 -0.4616
 2101WAT     H110209   4.887   4.073   7.254 -1.0798 -1.5077 -0.5519
 2101WAT     H210210   4.845   4.200   7.183  1.7934  0.8389  1.6661
 2101WAT    EPW10211   4.825   4.129   7.230  0.0763 -0.0072 -0.1929
 2102WAT      O10212   5.115   3.044   7.359  0.1419 -0.9076 -0.6603
 2102WAT     H110213   5.191   3.096   7.333 -1.1387  1.9127  0.8197
 2102WAT     H210214   5.070   3.098   7.424 -3.0361 -2.5304 -1.3157
 2102WAT    EPW10215   5.119   3.058   7.364 -0.4463 -0.7496 -0.5519
 2103WAT      O10216   2.509   2.543   8.629  0.6704  0.3463 -0.4444
 2103WAT     H110217   2.432   2.590   8.662  1.1390  1.0669 -0.3438
 2103WAT     H210218   2.485   2.520   8.539  0.9150  1.9983 -0.9788
 2103WAT    EPW10219   2.495   2.546   8.621  0.7645  0.6591 -0.5012
 2104WAT      O10220   8.703   5.996   0.660 -0.2598  0.8271  0.2837
 2104WAT     H110221   8.742   5.990   0.573  0.1762  1.5308  0.4299
 2104WAT     H210222   8.636   6.064   0.652 -2.5097 -1.2925 -0.3439
 2104WAT    EPW10223   8.699   6.004   0.648 -0.4997  0.6404  0.2202
 2105WAT      O10224   2.719   0.323   1.151  0.4871  0.3301 -0.3614
 2105WAT     H110225   2.713   0.415   1.177  0.2505  0.2878 -0.2653
 2105WAT     H210226   2.706   0.275   1.233 -3.1126  0.1084 -0.9127
 2105WAT    EPW10227   2.716   0.329   1.166 -0.0190  0.2953 -0.4214
 2106WAT      O10228   4.857   1.671   7.376 -0.4133  0.1249  0.0587
 2106WAT     H110229   4.817   1.657   7.463 -3.8860  3.1085 -0.7938
 2106WAT     H210230   4.793   1.635   7.315  0.0692  1.5018 -1.3252
 2106WAT    EPW10231   4.843   1.665   7.380 -0.8075  0.7001 -0.2363
 2107WAT      O10232  10.740   8.462   2.819  0.3563 -0.0311 -0.1757
 2107WAT     H110233  10.810   8.397   2.822  0.1034 -0.2799  0.5645
 2107WAT     H210234  10.762   8.517   2.744  1.7421  0.3279  0.4588
 2107WAT    EPW10235  10.752   8.461   2.809  0.5054 -0.0167  0.0056
 2108WAT      O10236   5.949   5.488   2.674  0.3558 -0.6702 -1.0044
 2108WAT     H110237   5.927   5.536   2.754  2.7968 -0.8442 -0.1411
 2108WAT     H210238   5.897   5.531   2.605  0.3859  1.4080  0.1865
 2108WAT    EPW10239   5.939   5.500   2.675  0.6819 -0.4191 -0.7335
 2109WAT      O10240   4.493   2.476   8.311  0.1225  1.0004  0.6677
 2109WAT     H110241   4.571   2.460   8.364 -0.9548  1.9148  2.6433
 2109WAT     H210242   4.430   2.412   8.341 -0.3530  1.2034  0.1204
 2109WAT    EPW10243   4.495   2.466   8.322 -0.0823  1.1477  0.8554
 2110WAT      O10244   6.113   9.600   6.727  0.1797 -0.4662  0.0754
 2110WAT     H110245   6.081   9.563   6.645 -3.9333  3.3851 -0.4451
 2110WAT     H210246   6.175   9.668   6.701 -0.1515 -0.1066  0.2074
 2110WAT    EPW10247   6.117   9.604   6.713 -0.4063  0.0892  0.0243
 2111WAT      O10248   8.592   9.336   1.409 -0.6836  1.4436 -0.3854
 2111WAT     H110249   8.512   9.385   1.389 -2.3316  0.1331  2.4019
 2111WAT     H210250   8.617   9.366   1.497  0.2050 -0.2115 -0.0361
 2111WAT    EPW10251   8.585   9.347   1.418 -0.7844  1.0524  0.0283
 2112WAT      O10252   6.348  10.355   1.786 -0.0946  0.6052  0.0469
 2112WAT     H110253   6.254  10.340   1.787 -0.0466 -0.7156 -3.0069
 2112WAT     H210254   6.386  10.272   1.812  0.3767  1.7140  3.4165
 2112WAT    EPW10255   6.341  10.342   1.789 -0.0260  0.5779  0.0886
 2113WAT      O10256   3.203   2.474   6.856  0.9785  0.2987  0.2076
 2113WAT     H110257   3.190   2.396   6.910  0.9218 -1.9712 -2.8170
 2113WAT     H210258   3.115   2.506   6.838  0.7459 -1.1193 -1.3807
 2113WAT    EPW10259   3.190   2.468   6.861  0.9404 -0.1878 -0.4008
 2114WAT      O10260   9.098   6.650   4.419  0.3726  0.0508  0.0546
 2114WAT     H110261   9.045   6.595   4.362 -0.7748 -2.0034  2.8807
 2114WAT     H210262   9.034   6.698   4.472  1.2158 -1.3701  2.5297
 2114WAT    EPW10263   9.082   6.649   4.419  0.3328 -0.4075  0.7539
 2115WAT      O10264   6.633   9.414   0.746  0.6335 -0.0100 -0.3632
 2115WAT     H110265   6.729   9.411   0.737  0.5250 -2.2530 -1.4040
 2115WAT     H210266   6.602   9.338   0.698 -1.6928  0.5247  0.1691
 2115WAT    EPW10267   6.642   9.403   0.739  0.3123 -0.2351 -0.4303
 2116WAT      O10268   9.207   9.032   2.408 -0.6434  0.6426 -0.2384
 2116WAT     H110269   9.122   9.056   2.371 -0.1122  1.2332 -1.1182
 2116WAT     H210270   9.186   8.994   2.494 -1.7279  1.5202 -0.0935
 2116WAT    EPW10271   9.193   9.030   2.414 -0.7167  0.8368 -0.3355
 2117WAT      O10272   0.514   1.082   3.430 -0.3769  0.7177  0.2355
 2117WAT     H110273   0.598   1.109   3.393 -0.5575  0.9731  0.0003
 2117WAT     H210274   0.490   1.154   3.488  0.5733 -0.3093  1.9655
 2117WAT    EPW10275   0.522   1.095   3.433 -0.2754  0.6159  0.4327
 2118WAT      O10276   7.709   6.227   0.983 -0.1518 -0.2429  0.1396
 2118WAT     H110277   7.682   6.297   1.042  0.8425 -0.2602  0.6272
 2118WAT     H210278   7.753   6.272   0.911 -1.6992 -0.1858 -0.8361
 2118WAT    EPW10279   7.711   6.242   0.981 -0.2246 -0.2377  0.0753
 2119WAT      O10280   2.816   0.451   1.514 -0.3463  0.2300  0.0273
 2119WAT     H110281   2.899   0.497   1.503 -1.0302  1.7194  0.7641
 2119WAT     H210282   2.795   0.417   1.427 -0.6385  2.8061 -0.9925
 2119WAT    EPW10283   2.825   0.452   1.501 -0.4750  0.7662 -0.0099
 2120WAT      O10284   5.892   7.629   0.753  0.1465 -0.2656 -0.3051
 2120WAT     H110285   5.976   7.658   0.789 -0.0489  0.4447 -0.4098
 2120WAT     H210286   5.874   7.690   0.682 -0.5676 -0.2755 -0.1432
 2120WAT    EPW10287   5.901   7.641   0.749  0.0262 -0.1731 -0.2976
 2121WAT      O10288   8.342   4.399   1.313 -0.6080  0.0821  0.6310
 2121WAT     H110289   8.281   4.402   1.239 -1.1186 -0.3444  1.0255
 2121WAT     H210290   8.318   4.474   1.367  0.1432  0.7312  0.0816
 2121WAT    EPW10291   8.331   4.409   1.310 -0.5760  0.1113  0.6106
 2122WAT      O10292   7.358   2.776   7.104 -0.0649  0.7076  0.0799
 2122WAT     H110293   7.379   2.868   7.119  1.1211  0.3861  0.5682
 2122WAT     H210294   7.426   2.728   7.152  0.1183 -0.4084 -1.2212
 2122WAT    EPW10295   7.370   2.782   7.112  0.1156  0.5180 -0.0274
 2123WAT      O10296   7.255   8.421   2.558  0.1396 -0.1856 -0.4192
 2123WAT     H110297   7.272   8.400   2.466 -0.5236 -2.1443 -0.1456
 2123WAT     H210298   7.279   8.341   2.605  1.6642  1.1951  1.2853
 2123WAT    EPW10299   7.260   8.408   2.552  0.2532 -0.2618 -0.1584
 2124WAT      O10300   2.718   6.257   7.865  0.1885  0.0552 -0.4086
 2124WAT     H110301   2.690   6.307   7.941  0.0736 -0.6124 -0.0039
 2124WAT     H210302   2.644   6.260   7.805  1.2014  2.8602 -1.7129
 2124WAT    EPW10303   2.705   6.264   7.867  0.3070  0.3371 -0.5271
 2125WAT      O10304   8.620   6.873   3.787  0.0828  0.1656  0.0858
 2125WAT     H110305   8.694   6.928   3.812 -0.1881  1.4200 -1.6333
 2125WAT     H210306   8.656   6.784   3.782  1.4906  0.7513 -0.7283
 2125WAT    EPW10307   8.634   6.869   3.789  0.2327  0.4084 -0.2483
 2126WAT      O10308   2.203   3.349   0.912 -0.4446  0.2745  0.1753
 2126WAT     H110309   2.227   3.421   0.971  0.2519  1.3384 -1.3312
 2126WAT     H210310   2.271   3.283   0.926 -0.8851  0.0356  1.3067
 2126WAT    EPW10311   2.215   3.350   0.922 -0.4107  0.3834  0.1258
 2127WAT      O10312   2.166   0.824   3.471  0.6982  0.3699 -0.1446
 2127WAT     H110313   2.099   0.761   3.499 -1.2504  2.4368  0.1051
 2127WAT     H210314   2.236   0.815   3.536  0.2327 -1.0880  0.2047
 2127WAT    EPW10315   2.167   0.814   3.483  0.3798  0.4502 -0.0657
 2128WAT      O10316   4.332   3.835   7.310  0.1869  0.0552 -0.4629
 2128WAT     H110317   4.258   3.890   7.337  0.4985 -0.0818  0.7244
 2128WAT     H210318   4.297   3.783   7.237 -0.3497  1.2339 -1.0826
 2128WAT    EPW10319   4.317   3.836   7.304  0.1576  0.1925 -0.3879
 2129WAT      O10320  10.299   6.698   1.920  0.4709  0.7329 -0.3066
 2129WAT     H110321  10.364   6.723   1.855  1.3703 -0.3651  0.1414
 2129WAT     H210322  10.337   6.725   2.003  0.7676 -0.6591  0.0403
 2129WAT    EPW10323  10.312   6.705   1.922  0.6285  0.4046 -0.2018
 2130WAT      O10324   1.328   1.361   2.838  0.7963  0.3542 -0.5347
 2130WAT     H110325   1.341   1.440   2.890  2.0882  1.4818 -2.4471
 2130WAT     H210326   1.235   1.360   2.818  0.7963  1.5045 -0.6332
 2130WAT    EPW10327   1.318   1.371   2.842  0.9667  0.6547 -0.7999
 2131WAT      O10328   6.050   7.901   0.147 -0.0374 -0.0713  0.2783
 2131WAT     H110329   6.057   7.848   0.226  1.2628 -1.8708 -0.9608
 2131WAT     H210330   5.962   7.885   0.114  0.6886 -2.4861 -0.6811
 2131WAT    EPW10331   6.040   7.892   0.153  0.2298 -0.6270 -0.0117
 2132WAT      O10332   3.939   2.556   6.378  0.2952  0.0719 -0.8641
 2132WAT     H110333   3.869   2.600   6.330 -1.2055  0.8571  1.8207
 2132WAT     H210334   3.905   2.468   6.395  0.8701 -0.2433 -1.3007
 2132WAT    EPW10335   3.925   2.550   6.374  0.1731  0.1340 -0.5674
 2133WAT      O10336   5.906   7.348   0.085 -0.4035 -0.5419 -0.0215
 2133WAT     H110337   5.919   7.265   0.039  0.8948 -1.1998  1.4231
 2133WAT     H210338   5.982   7.354   0.144 -0.9506  1.2346  0.5545
 2133WAT    EPW10339   5.918   7.338   0.087 -0.3042 -0.3943  0.2450
 2134WAT      O10340   2.692   3.115   7.245 -0.2058  0.1365 -0.1932
 2134WAT     H110341   2.766   3.055   7.253 -1.0171 -0.8263  0.2861
 2134WAT     H210342   2.689   3.161   7.329 -0.4370 -0.1668 -0.0342
 2134WAT    EPW10343   2.702   3.113   7.257 -0.3432 -0.0305 -0.1090
 2135WAT      O10344   9.784   0.369   3.090 -0.3132  0.4301  0.1300
 2135WAT     H110345   9.804   0.337   3.002 -1.2203  0.9642 -0.2870
 2135WAT     H210346   9.836   0.449   3.098 -1.3226  1.1715 -0.4942
 2135WAT    EPW10347   9.793   0.375   3.079 -0.5655  0.5984 -0.0075
 2136WAT      O10348   8.811   9.784   0.841 -0.4199 -0.3200  1.0659
 2136WAT     H110349   8.739   9.807   0.900 -0.3315 -1.4515  1.6367
 2136WAT     H210350   8.886   9.833   0.874 -0.6688  0.0411  1.1066
 2136WAT    EPW10351   8.811   9.794   0.853 -0.4411 -0.4215  1.1466
 2137WAT      O10352   2.728  10.147   3.021  1.1283  0.0039  0.1398
 2137WAT     H110353   2.702  10.111   2.936 -0.0560 -1.1334  0.9500
 2137WAT     H210354   2.715  10.241   3.013  1.9561  0.0255 -1.2330
 2137WAT    EPW10355   2.723  10.155   3.009  1.0812 -0.1431  0.0654
 2138WAT      O10356  10.635   9.671   2.629 -0.1138  0.2609  0.0961
 2138WAT     H110357  10.721   9.634   2.612  1.6919  3.6076  1.0209
 2138WAT     H210358  10.594   9.677   2.543  0.6539 -1.1634 -0.3907
 2138WAT    EPW10359  10.641   9.667   2.616  0.2255  0.5145  0.1539
 2139WAT      O10360   9.139   5.460   2.320  0.3671 -0.4123 -0.6680
 2139WAT     H110361   9.113   5.550   2.303  1.5424 -0.0593 -0.6716
 2139WAT     H210362   9.057   5.415   2.343 -0.3227  0.4885 -1.3124
 2139WAT    EPW10363   9.125   5.466   2.321  0.4315 -0.2470 -0.7535
 2140WAT      O10364   7.461   6.764   2.319  0.4411  0.4968  0.3786
 2140WAT     H110365   7.448   6.791   2.228 -0.4181 -3.0650 -0.7129
 2140WAT     H210366   7.540   6.709   2.316 -0.0522 -0.3203  1.5751
 2140WAT    EPW10367   7.470   6.760   2.306  0.2625 -0.0811  0.3924
 2141WAT      O10368   7.414   7.770   1.376  0.1506  0.6243  1.0469
 2141WAT     H110369   7.424   7.854   1.420  1.7364  2.4133 -2.3608
 2141WAT     H210370   7.503   7.736   1.370 -0.1958 -0.2190  0.4585
 2141WAT    EPW10371   7.427   7.776   1.381  0.3140  0.7493  0.5199
 2142WAT      O10372   9.721   8.331   3.075 -0.5428  0.2100 -0.6862
 2142WAT     H110373   9.754   8.339   2.986 -2.3750 -0.3020 -1.4416
 2142WAT     H210374   9.673   8.412   3.091  0.2808  0.5712  0.0898
 2142WAT    EPW10375   9.719   8.343   3.065 -0.6752  0.1898 -0.6835
 2143WAT      O10376   6.573   7.036   5.633 -0.4322 -0.1184  0.4139
 2143WAT     H110377   6.640   6.973   5.660  0.5952  1.0090  0.6098
 2143WAT     H210378   6.523   7.052   5.713 -0.6273 -0.5947  0.3902
 2143WAT    EPW10379   6.575   7.030   5.647 -0.3226 -0.0324  0.4365
 2144WAT      O10380   4.381   9.069   2.558 -0.4129  0.7032  0.5671
 2144WAT     H110381   4.299   9.047   2.602 -0.6242  2.2029  0.9710
 2144WAT     H210382   4.360   9.145   2.503 -0.8263 -2.4598 -4.2033
 2144WAT    EPW10383   4.368   9.076   2.556 -0.4954  0.4835 -0.0087
 2145WAT      O10384   5.191  10.186   4.204 -0.1002  0.2649 -0.6812
 2145WAT     H110385   5.257  10.223   4.145  0.1787 -0.7750 -1.0332
 2145WAT     H210386   5.155  10.111   4.157 -1.3344  0.6334 -0.3634
 2145WAT    EPW10387   5.195  10.181   4.190 -0.2263  0.1764 -0.6855
 2146WAT      O10388   8.331   9.269   0.692 -0.0523 -0.0422  0.6776
 2146WAT     H110389   8.284   9.222   0.623 -1.0851  1.1132  0.5593
 2146WAT     H210390   8.262   9.308   0.745  0.7411 -0.4687  2.0765
 2146WAT    EPW10391   8.316   9.268   0.690 -0.0839  0.0539  0.8465
 2147WAT      O10392   2.104   2.203   0.549 -0.2429  0.5339  0.2433
 2147WAT     H110393   2.075   2.245   0.630  0.4166  0.9113  0.2885
 2147WAT     H210394   2.199   2.213   0.549 -0.2558  0.7480 -0.6944
 2147WAT    EPW10395   2.112   2.210   0.560 -0.1576  0.6119  0.1256
 2148WAT      O10396   4.368   3.739   7.939  0.0462 -0.0369  0.3851
 2148WAT     H110397   4.437   3.684   7.903 -2.2884 -1.5579 -2.1717
 2148WAT     H210398   4.330   3.783   7.863 -0.9998  1.7543  1.8566
 2148WAT    EPW10399   4.372   3.737   7.924 -0.3998 -0.0013  0.2422
 2149WAT      O10400   7.860   7.779   4.036 -0.5788  0.2648 -0.0475
 2149WAT     H110401   7.778   7.793   3.988  0.7481  2.8365 -1.7920
 2149WAT     H210402   7.922   7.839   3.995  2.5649 -2.4057  0.4227
 2149WAT    EPW10403   7.857   7.789   4.025  0.0110  0.2518 -0.2153
 2150WAT      O10404   6.316  10.100   2.148 -0.4387  0.5967  0.0918
 2150WAT     H110405   6.265  10.042   2.091  0.3552  1.1408 -1.2290
 2150WAT     H210406   6.261  10.177   2.159  0.1313  1.2811 -1.5190
 2150WAT    EPW10407   6.302  10.102   2.142 -0.2589  0.7582 -0.2948
 2151WAT      O10408   0.585   1.095   4.368 -0.1852 -0.6195  0.1609
 2151WAT     H110409   0.546   1.026   4.422 -0.2995 -0.9373 -0.3212
 2151WAT     H210410   0.526   1.103   4.293  0.1524 -0.4257 -0.0864
 2151WAT    EPW10411   0.572   1.087   4.365 -0.1558 -0.6359  0.0646
 2152WAT      O10412  10.509   9.440   1.770 -0.0485 -0.4952  0.5741
 2152WAT     H110413  10.490   9.512   1.830  1.3374  1.5113 -1.2467
 2152WAT     H210414  10.595   9.409   1.797  0.6281  0.4866 -0.3736
 2152WAT    EPW10415  10.518   9.446   1.782  0.2236 -0.1011  0.2090
 2153WAT      O10416   3.060   2.444   1.756 -0.2974  0.5666 -0.2892
 2153WAT     H110417   2.985   2.483   1.710 -0.2013 -0.1473 -1.0751
 2153WAT     H210418   3.092   2.377   1.696  0.2097  0.0205  0.5789
 2153WAT    EPW10419   3.054   2.440   1.742 -0.2178  0.4004 -0.2784
 2154WAT      O10420   2.988   2.189   0.767  0.8794 -0.2447  1.0666
 2154WAT     H110421   2.931   2.180   0.691  2.3165 -0.8919  0.0039
 2154WAT     H210422   2.942   2.249   0.825 -0.3200  0.1678 -0.2557
 2154WAT    EPW10423   2.975   2.196   0.764  0.9108 -0.2756  0.7520
 2155WAT      O10424  10.473   8.076   1.544  0.2122 -0.1024 -0.6587
 2155WAT     H110425  10.566   8.098   1.554  0.1465  0.9437 -2.1216
 2155WAT     H210426  10.427   8.159   1.560 -0.5011 -0.6205  0.1042
 2155WAT    EPW10427  10.479   8.090   1.548  0.1092 -0.0329 -0.7511
 2156WAT      O10428   8.520   7.093   6.622 -0.0971 -0.3833  0.0156
 2156WAT     H110429   8.591   7.151   6.649  0.8612 -0.2649 -2.4912
 2156WAT     H210430   8.515   7.028   6.693  1.3144  0.6037  1.0906
 2156WAT    EPW10431   8.529   7.092   6.635  0.2155 -0.2372 -0.1733
 2157WAT      O10432   5.751   4.510   7.639 -1.1034 -0.3608  0.1259
 2157WAT     H110433   5.829   4.527   7.692 -1.2700 -0.5162  0.4198
 2157WAT     H210434   5.693   4.459   7.696 -1.5274 -0.0311 -0.0036
 2157WAT    EPW10435   5.754   4.506   7.654 -1.1811 -0.3378  0.1476
 2158WAT      O10436   7.368   6.254   5.825  0.1393 -0.1093 -0.2013
 2158WAT     H110437   7.378   6.300   5.741  0.1526  0.1634 -0.0511
 2158WAT     H210438   7.276   6.229   5.828 -0.4108  1.8477  0.7017
 2158WAT    EPW10439   7.357   6.257   5.814  0.0687  0.1848 -0.0622
 2159WAT      O10440  10.822   2.122   2.450  0.3238  0.3314 -1.2265
 2159WAT     H110441  10.726   2.115   2.451  0.1961  1.7283 -0.6734
 2159WAT     H210442  10.848   2.085   2.366 -0.6030 -1.0897 -0.9189
 2159WAT    EPW10443  10.813   2.116   2.439  0.1850  0.3282 -1.1129
 2160WAT      O10444   9.688   9.526   0.814  0.0852 -0.9642 -0.1384
 2160WAT     H110445   9.675   9.509   0.721  0.8394 -1.8544 -0.0982
 2160WAT     H210446   9.675   9.440   0.856 -0.9427 -0.4370  0.6586
 2160WAT    EPW10447   9.685   9.512   0.808  0.0486 -1.0114 -0.0280
 2161WAT      O10448   6.333   8.970   2.288  0.8091  0.6218  0.3090
 2161WAT     H110449   6.422   8.947   2.262  1.1783  0.5583  1.5675
 2161WAT     H210450   6.283   8.968   2.206  1.0591 -3.3610  0.0376
 2161WAT    EPW10451   6.338   8.967   2.274  0.8907  0.0882  0.4392
 2162WAT      O10452   5.298  10.127   1.450 -0.1223  0.9441  0.2919
 2162WAT     H110453   5.392  10.141   1.465 -0.2277  4.9950 -1.5562
 2162WAT     H210454   5.267  10.210   1.415 -4.4121 -0.3390  0.5223
 2162WAT    EPW10455   5.306  10.140   1.448 -0.7024  1.3089  0.0785
 2163WAT      O10456   7.265   7.959   1.962  0.1737  0.1884  0.1523
 2163WAT     H110457   7.173   7.984   1.953  0.3617  0.2844 -2.0341
 2163WAT     H210458   7.281   7.901   1.887  2.6225  2.4655 -1.2421
 2163WAT    EPW10459   7.255   7.955   1.951  0.5214  0.5014 -0.3201
 2164WAT      O10460   7.888   9.009   0.280 -0.4030  0.3882 -0.2086
 2164WAT     H110461   7.910   8.968   0.363 -1.0003  0.5612  0.0406
 2164WAT     H210462   7.915   8.945   0.214 -1.8322 -0.6840  0.1911
 2164WAT    EPW10463   7.894   8.995   0.282 -0.6700  0.2694 -0.1230
 2165WAT      O10464   8.151   5.737   2.655 -0.1147  0.1159  0.2497
 2165WAT     H110465   8.236   5.755   2.616  0.3911  1.2466  1.7672
 2165WAT     H210466   8.168   5.735   2.749 -1.6315 -0.4591  0.5352
 2165WAT    EPW10467   8.164   5.739   2.662 -0.2480  0.1891  0.4874
 2166WAT      O10468   8.344   7.802   2.239  0.7049 -0.8139  0.1014
 2166WAT     H110469   8.346   7.854   2.320 -2.9609 -0.0735 -0.1439
 2166WAT     H210470   8.437   7.790   2.217  1.8914  3.7189  1.4021
 2166WAT    EPW10471   8.357   7.807   2.247  0.3777 -0.1183  0.2407
 2167WAT      O10472   7.263   4.082   8.653 -0.4278 -0.2209 -0.4537
 2167WAT     H110473   7.212   4.006   8.624  2.3717 -1.2945 -3.1501
 2167WAT     H210474   7.213   4.157   8.620 -2.5655 -0.8787  1.0957
 2167WAT    EPW10475   7.250   4.082   8.645 -0.3405 -0.4494 -0.6046
 2168WAT      O10476   2.370   0.856   4.213 -0.0661  0.1839 -0.0044
 2168WAT     H110477   2.356   0.941   4.172 -3.9380 -1.1950 -2.0223
 2168WAT     H210478   2.366   0.873   4.307  2.0005  2.5015 -0.2440
 2168WAT    EPW10479   2.368   0.869   4.220 -0.3041  0.3077 -0.3018
 2169WAT      O10480   4.096   9.112   5.113  0.2936 -0.2274 -0.5378
 2169WAT     H110481   4.011   9.131   5.153  0.2328 -1.2549 -0.1594
 2169WAT     H210482   4.151   9.186   5.139 -0.7320  0.9734 -1.6202
 2169WAT    EPW10483   4.092   9.125   5.122  0.1502 -0.2050 -0.6306
 2170WAT      O10484  10.012   0.005   1.049 -0.5259  0.4527  0.7005
 2170WAT     H110485  10.094   0.034   1.089 -0.3635  3.0857 -1.3055
 2170WAT     H210486  10.031  -0.083   1.017  1.5633  1.0130  0.2493
 2170WAT    EPW10487  10.025  -0.003   1.050 -0.2294  0.8739  0.3764
 2171WAT      O10488   6.368   5.235   2.413 -0.2922  0.0033  0.4908
 2171WAT     H110489   6.290   5.283   2.443 -0.2043 -0.4844  1.5330
 2171WAT     H210490   6.441   5.290   2.439 -0.2223 -0.3484  1.0542
 2171WAT    EPW10491   6.367   5.249   2.420 -0.2713 -0.1073  0.7024
 2172WAT      O10492   8.865   7.727   3.574  0.4682 -0.0293 -0.0000
 2172WAT     H110493   8.872   7.806   3.521  0.5340  0.3240  0.5219
 2172WAT     H210494   8.952   7.688   3.570  0.4321 -0.0867 -0.2727
 2172WAT    EPW10495   8.878   7.732   3.567  0.4721  0.0098  0.0328
 2173WAT      O10496   7.588   8.701   0.518  0.5843  0.0918  0.1755
 2173WAT     H110497   7.558   8.769   0.578 -1.8020 -0.0751 -0.7233
 2173WAT     H210498   7.675   8.729   0.491  0.5257  1.6467  1.4891
 2173WAT    EPW10499   7.596   8.714   0.523  0.2615  0.2751  0.2302
 2174WAT      O10500   9.411   8.446   1.960  0.9387 -0.6164  0.0207
 2174WAT     H110501   9.468   8.403   1.895  2.1330 -0.9904  1.2669
 2174WAT     H210502   9.453   8.531   1.976  0.7833 -0.6183  0.4564
 2174WAT    EPW10503   9.424   8.452   1.953  1.0757 -0.6661  0.2425
 2175WAT      O10504   9.693   9.968   1.077 -0.4315  1.1954 -0.0478
 2175WAT     H110505   9.598   9.963   1.091 -0.1009 -0.6816  2.2601
 2175WAT     H210506   9.717   9.882   1.044  0.6047  1.1856  0.6710
 2175WAT    EPW10507   9.684   9.956   1.075 -0.2518  0.9465  0.3514
 2176WAT      O10508   5.739   3.696   8.454 -0.3760  0.2280 -0.1429
 2176WAT     H110509   5.833   3.698   8.472 -0.4987  2.4475  0.4923
 2176WAT     H210510   5.703   3.648   8.529  0.1702  0.1129  0.0567
 2176WAT    EPW10511   5.747   3.690   8.467 -0.3202  0.5054 -0.0324
 2177WAT      O10512   7.457  10.253   2.650  0.4367 -0.6783 -0.2619
 2177WAT     H110513   7.384  10.296   2.695 -0.1446 -2.7702  0.9161
 2177WAT     H210514   7.472  10.307   2.572 -1.8357  0.2789 -0.1154
 2177WAT    EPW10515   7.449  10.265   2.645  0.0606 -0.8283 -0.0870
 2178WAT      O10516   9.900   7.280   2.790 -0.6734  0.0446  0.4288
 2178WAT     H110517   9.859   7.315   2.711 -0.1146 -0.8547 -0.2856
 2178WAT     H210518   9.991   7.309   2.785 -0.6635  0.0983  0.8274
 2178WAT    EPW10519   9.907   7.289   2.779 -0.5989 -0.0672  0.3873
 2179WAT      O10520   7.230   9.907   3.535  0.4445  0.3226  0.0328
 2179WAT     H110521   7.162   9.844   3.511  0.4806 -0.6038  2.1257
 2179WAT     H210522   7.185   9.970   3.592  0.9245  0.8552 -0.1662
 2179WAT    EPW10523   7.215   9.907   3.539  0.5124  0.2708  0.2826
 2180WAT      O10524   7.420   8.999   4.134  0.4398  0.6895 -0.6166
 2180WAT     H110525   7.459   8.915   4.158  0.5262  0.1600 -2.4237
 2180WAT     H210526   7.329   8.977   4.112  0.5952  0.9495 -1.5835
 2180WAT    EPW10527   7.413   8.985   4.134  0.4716  0.6537 -0.9820
 2181WAT      O10528   6.493  10.064   2.539  0.4178 -0.3599 -0.4275
 2181WAT     H110529   6.525  10.138   2.486  0.0823  0.4172  0.4267
 2181WAT     H210530   6.488   9.991   2.477  0.2673  0.4638 -1.4163
 2181WAT    EPW10531   6.497  10.064   2.524  0.3533 -0.1488 -0.4452
 2182WAT      O10532   9.687   7.001   1.861 -0.0756  0.2492  0.1117
 2182WAT     H110533   9.676   6.908   1.841 -0.5497 -0.0594  1.6706
 2182WAT     H210534   9.603   7.028   1.897 -0.2484  1.5411 -1.1224
 2182WAT    EPW10535   9.674   6.992   1.863 -0.1612  0.3786  0.1546
 2183WAT      O10536  10.489   6.825   0.025 -0.3021  0.0659 -0.6348
 2183WAT     H110537  10.441   6.813  -0.057  0.3272  1.0413 -1.1641
 2183WAT     H210538  10.422   6.848   0.089 -0.9977 -2.0730 -0.5161
 2183WAT    EPW10539  10.474   6.827   0.022 -0.3109 -0.0877 -0.6889
 2184WAT      O10540   3.019   5.331   7.884  0.7604  0.3282  0.1114
 2184WAT     H110541   3.107   5.355   7.915  1.6411 -0.9888 -1.1933
 2184WAT     H210542   3.020   5.235   7.884 -0.7666  0.3026  0.2505
 2184WAT    EPW10543   3.031   5.322   7.888  0.6752  0.1509 -0.0424
 2185WAT      O10544   5.934   6.168   1.219  0.5163 -0.0920 -0.4819
 2185WAT     H110545   5.852   6.169   1.267  0.4178 -0.8515 -0.6245
 2185WAT     H210546   5.969   6.080   1.232  0.7862 -0.1202 -1.2911
 2185WAT    EPW10547   5.928   6.157   1.227  0.5393 -0.1957 -0.6074
 2186WAT      O10548   7.368   5.851   1.056 -0.2292  0.3007  0.4673
 2186WAT     H110549   7.386   5.935   1.015  0.3030  0.4179  0.9360
 2186WAT     H210550   7.297   5.868   1.118  1.6084  0.9937  2.4794
 2186WAT    EPW10551   7.361   5.864   1.058  0.0832  0.4075  0.7945
 2187WAT      O10552   9.826   0.829   1.415  0.2315  0.2584 -0.1649
 2187WAT     H110553   9.733   0.842   1.395 -0.2419  0.0196  1.6592
 2187WAT     H210554   9.868   0.910   1.388 -0.4088  0.1553 -1.5203
 2187WAT    EPW10555   9.819   0.841   1.409  0.0844  0.2133 -0.1032
 2188WAT      O10556   2.417   2.135   0.543 -0.1875  0.3524  0.5713
 2188WAT     H110557   2.421   2.046   0.576 -0.9376  0.8308  2.0151
 2188WAT     H210558   2.427   2.126   0.448 -1.3310 -1.3418  0.5834
 2188WAT    EPW10559   2.419   2.122   0.535 -0.4373  0.1920  0.7633
 2189WAT      O10560   6.209   1.033   8.515  0.2877  0.6919  0.0665
 2189WAT     H110561   6.293   1.063   8.480 -0.1500 -0.5745 -2.2488
 2189WAT     H210562   6.178   0.968   8.452 -2.2359  0.7878  1.0811
 2189WAT    EPW10563   6.216   1.028   8.502 -0.1030  0.5375 -0.1054
 2190WAT      O10564   4.507   4.833   8.582  0.1730  0.3449 -0.2804
 2190WAT     H110565   4.551   4.899   8.528  3.2457 -2.7415 -1.9133
 2190WAT     H210566   4.560   4.829   8.662  2.5027 -2.5831 -1.7774
 2190WAT    EPW10567   4.520   4.841   8.586  0.8855 -0.4485 -0.6933
 2191WAT      O10568   6.986   8.103   1.764 -0.4908 -0.1632 -0.1124
 2191WAT     H110569   6.982   8.176   1.702 -0.9572 -1.0156 -1.1092
 2191WAT     H210570   6.950   8.029   1.716  0.9217 -1.2997  0.5381
 2191WAT    EPW10571   6.981   8.103   1.749 -0.3662 -0.4258 -0.1581
 2192WAT      O10572   7.855   8.100   1.977 -0.0153 -0.3834 -0.0454
 2192WAT     H110573   7.873   8.194   1.970 -1.3231 -0.0267  1.0769
 2192WAT     H210574   7.831   8.087   2.068 -1.5046 -1.5091 -0.5628
 2192WAT    EPW10575   7.854   8.111   1.988 -0.3841 -0.4845  0.0345
 2193WAT      O10576   7.930   8.408   2.443 -0.3354 -0.0221 -0.0540
 2193WAT     H110577   7.958   8.493   2.477 -1.1694  0.1063  0.3497
 2193WAT     H210578   7.919   8.353   2.521 -0.7304 -0.2013 -0.2293
 2193WAT    EPW10579   7.932   8.412   2.458 -0.4973 -0.0291 -0.0241
 2194WAT      O10580   9.033   9.454   2.273  1.0277 -0.9433  0.3237
 2194WAT     H110581   9.105   9.400   2.241  0.8222 -1.7039  1.1100
 2194WAT     H210582   9.076   9.523   2.324  1.3609  0.3444 -1.6276
 2194WAT    EPW10583   9.048   9.456   2.276  1.0448 -0.8740  0.1701
 2195WAT      O10584   1.270   0.773   2.924 -0.0689 -0.5523 -0.7216
 2195WAT     H110585   1.247   0.772   3.017  1.2679  0.8874 -0.3488
 2195WAT     H210586   1.187   0.755   2.879 -1.0537  0.2351  0.7093
 2195WAT    EPW10587   1.256   0.771   2.930 -0.0224 -0.2586 -0.4838
 2196WAT      O10588  10.099   0.187   2.975 -0.9279  0.3351 -0.2504
 2196WAT     H110589  10.173   0.200   2.916 -0.4202 -0.3490  0.2149
 2196WAT     H210590  10.039   0.130   2.926 -0.5933 -0.0786 -0.1851
 2196WAT    EPW10591  10.101   0.181   2.960 -0.8168  0.1903 -0.1805
 2197WAT      O10592   7.332   7.419   5.156  0.1683  0.0879 -0.4421
 2197WAT     H110593   7.246   7.379   5.138  0.3191 -0.6072  0.3184
 2197WAT     H210594   7.346   7.480   5.083 -0.7484 -0.1555 -0.8355
 2197WAT    EPW10595   7.322   7.422   5.144  0.0675 -0.0355 -0.3936
 2198WAT      O10596   7.999   8.255   4.134 -0.6158 -0.1662  0.8976
 2198WAT     H110597   8.022   8.163   4.139  1.5834  0.3136  0.7598
 2198WAT     H210598   7.957   8.274   4.218  0.0286 -1.0301  1.4328
 2198WAT    EPW10599   7.997   8.246   4.146 -0.2410 -0.2174  0.9501
 2199WAT      O10600   0.556   0.013   2.964 -0.1594  0.5157  0.2717
 2199WAT     H110601   0.535  -0.055   2.900 -0.4498 -0.1968  1.1109
 2199WAT     H210602   0.610   0.075   2.916  0.0075 -0.2416 -0.5406
 2199WAT    EPW10603   0.560   0.012   2.949 -0.1757  0.3219  0.2753
 2200WAT      O10604   5.069   0.010   1.006 -0.5556 -0.1339 -0.6129
 2200WAT     H110605   5.041   0.100   1.027 -0.5708  0.1127 -1.6578
 2200WAT     H210606   5.107  -0.022   1.088 -0.2302  0.9529 -0.3162
 2200WAT    EPW10607   5.070   0.018   1.020 -0.5147  0.0420 -0.7116
 2201WAT      O10608  10.420   0.959   2.289  0.8987 -0.6046 -0.2372
 2201WAT     H110609  10.392   0.971   2.198 -1.4778 -1.3957  0.3157
 2201WAT     H210610  10.512   0.984   2.289  1.1939 -1.3102 -3.0261
 2201WAT    EPW10611  10.428   0.964   2.277  0.6247 -0.8020 -0.5319
 2202WAT      O10612   5.889   8.815   2.133 -0.0555 -0.1301 -0.3563
 2202WAT     H110613   5.853   8.740   2.181 -0.1208  0.8015  1.1088
 2202WAT     H210614   5.982   8.817   2.158  0.1867 -0.3223 -1.2079
 2202WAT    EPW10615   5.897   8.805   2.143 -0.0324 -0.0329 -0.2755
 2203WAT      O10616   6.538   8.624   1.742 -0.5050  0.4193  0.0883
 2203WAT     H110617   6.489   8.549   1.709  3.0696 -0.6224 -3.6157
 2203WAT     H210618   6.497   8.699   1.699 -1.6616  0.1726  0.7186
 2203WAT    EPW10619   6.526   8.624   1.732 -0.1860  0.2494 -0.3170
 2204WAT      O10620  10.766  10.208   0.868  0.1579 -0.1524  0.4121
 2204WAT     H110621  10.848  10.214   0.820 -1.2003  1.3828 -1.8642
 2204WAT     H210622  10.786  10.243   0.955  1.3720  2.6730 -0.9039
 2204WAT    EPW10623  10.779  10.214   0.873  0.1392  0.4220 -0.0617
 2205WAT      O10624   2.663   3.940   8.279 -0.3272  0.4880  0.1187
 2205WAT     H110625   2.707   3.901   8.204 -0.3119 -1.7455  1.1973
 2205WAT     H210626   2.578   3.969   8.245  0.2562  0.8755 -1.0529
 2205WAT    EPW10627   2.657   3.939   8.265 -0.2482  0.2445  0.1068
 2206WAT      O10628   8.279   8.201   0.035 -0.0903 -0.5502 -0.3014
 2206WAT     H110629   8.269   8.241  -0.051 -1.1500  0.3287  0.1930
 2206WAT     H210630   8.263   8.108   0.021 -1.4164 -0.2657 -0.8954
 2206WAT    EPW10631   8.275   8.194   0.022 -0.4044 -0.3967 -0.3146
 2207WAT      O10632   9.378   8.198   0.837 -0.4801 -0.6360 -0.1618
 2207WAT     H110633   9.440   8.268   0.821  3.2976 -3.6126 -0.0400
 2207WAT     H210634   9.382   8.183   0.932 -0.3465 -1.7082 -0.3256
 2207WAT    EPW10635   9.387   8.205   0.848  0.0358 -1.1702 -0.1673
 2208WAT      O10636   7.218   8.476   4.820  0.0431  0.0001  0.3477
 2208WAT     H110637   7.184   8.545   4.876 -0.0947 -1.5607  2.3035
 2208WAT     H210638   7.311   8.497   4.811  0.1773  0.0246  1.6111
 2208WAT    EPW10639   7.226   8.488   4.826  0.0427 -0.2027  0.7722
 2209WAT      O10640   7.542   9.401   0.670 -0.0764 -0.3828  0.2897
 2209WAT     H110641   7.550   9.427   0.762 -0.6888 -1.1562  0.5734
 2209WAT     H210642   7.580   9.474   0.622  6.0101 -2.2743  1.2606
 2209WAT    EPW10643   7.548   9.414   0.676  0.6459 -0.7348  0.4552
 2210WAT      O10644   4.803   4.538   8.757  0.8541 -0.7166  0.4945
 2210WAT     H110645   4.811   4.621   8.804 -1.1431  0.3350 -0.8760
 2210WAT     H210646   4.864   4.546   8.684  0.0166 -0.0564 -0.1434
 2210WAT    EPW10647   4.812   4.550   8.754  0.4804 -0.4907  0.2298
 2211WAT      O10648  10.805   0.210   0.855  0.2763  0.3064 -0.3007
 2211WAT     H110649  10.743   0.231   0.924 -0.1373  2.8032 -1.3276
 2211WAT     H210650  10.886   0.255   0.881 -0.5087  3.1945 -2.3689
 2211WAT    EPW10651  10.808   0.219   0.868  0.1187  1.0166 -0.7089
 2212WAT      O10652   8.449   9.573   1.511 -0.1952 -0.8088  0.5426
 2212WAT     H110653   8.508   9.565   1.586 -0.4715 -2.5505  0.6068
 2212WAT     H210654   8.491   9.638   1.455  0.5697 -0.2841  1.6851
 2212WAT    EPW10655   8.462   9.581   1.513 -0.1316 -0.9685  0.7018
 2213WAT      O10656   6.846   5.843   1.680  0.2823 -0.0526  0.7653
 2213WAT     H110657   6.812   5.759   1.649  1.2023  0.9558 -3.7826
 2213WAT     H210658   6.933   5.823   1.714 -1.1413 -1.3889  3.9833
 2213WAT    EPW10659   6.853   5.829   1.680  0.2155 -0.0958  0.5899
 2214WAT      O10660   4.508   0.397   0.953 -0.2221 -0.2971 -0.1001
 2214WAT     H110661   4.548   0.420   1.037 -1.5182 -0.8130  0.6995
 2214WAT     H210662   4.545   0.459   0.891 -0.0675  0.8439  1.0872
 2214WAT    EPW10663   4.518   0.408   0.956 -0.3726 -0.2147  0.1620
 2215WAT      O10664   9.229   8.158   2.154  0.2800  0.5953 -0.6131
 2215WAT     H110665   9.324   8.152   2.158  0.1545 -1.4366  0.4387
 2215WAT     H210666   9.199   8.133   2.241 -1.2681 -1.2560 -1.6027
 2215WAT    EPW10667   9.237   8.154   2.166  0.0596  0.0830 -0.6049
 2216WAT      O10668   7.653   6.701   0.256  0.2813  0.3774  0.3678
 2216WAT     H110669   7.712   6.626   0.263 -0.8305 -1.3820 -4.6678
 2216WAT     H210670   7.567   6.662   0.238 -0.1899  2.6284 -3.3848
 2216WAT    EPW10671   7.649   6.686   0.254  0.0722  0.4423 -0.7913
 2217WAT      O10672   0.488   0.607   3.661 -0.2493 -0.0746  0.0398
 2217WAT     H110673   0.421   0.553   3.703  0.0525 -0.2248  0.3351
 2217WAT     H210674   0.484   0.690   3.708  0.5614 -0.4767  0.8367
 2217WAT    EPW10675   0.478   0.611   3.672 -0.1025 -0.1475  0.1838
 2218WAT      O10676   1.890   1.037   6.157  0.4872  0.0979 -0.1396
 2218WAT     H110677   1.927   1.031   6.245  0.5207  0.3650 -0.1347
 2218WAT     H210678   1.966   1.035   6.099  0.5905  1.5929 -0.0917
 2218WAT    EPW10679   1.905   1.036   6.161  0.5053  0.3303 -0.1328
 2219WAT      O10680   6.390   8.394   1.703  0.6646  0.1740 -0.2027
 2219WAT     H110681   6.359   8.356   1.621  1.0140 -2.2873  0.7287
 2219WAT     H210682   6.311   8.427   1.745  0.2566  0.0145 -0.8243
 2219WAT    EPW10683   6.376   8.393   1.698  0.6568 -0.1712 -0.1619
 2220WAT      O10684   9.331   7.592   0.728 -0.2212  0.3926  0.2386
 2220WAT     H110685   9.276   7.604   0.805  0.3413 -2.9315  1.3411
 2220WAT     H210686   9.304   7.507   0.692  0.3233  1.2992 -2.6122
 2220WAT    EPW10687   9.320   7.582   0.733 -0.0758  0.0734  0.0080
 2221WAT      O10688   7.243   5.734   2.723 -0.5647  0.0356  0.5708
 2221WAT     H110689   7.319   5.732   2.665 -1.3356  0.2510 -0.4861
 2221WAT     H210690   7.279   5.724   2.811  0.6194 -0.5017  0.0414
 2221WAT    EPW10691   7.258   5.732   2.727 -0.5102 -0.0069  0.3617
 2222WAT      O10692   7.405   6.705   1.699 -0.0844 -0.1402 -0.3440
 2222WAT     H110693   7.480   6.701   1.759 -0.0568 -1.3401 -0.4309
 2222WAT     H210694   7.329   6.713   1.757  0.1111  1.3653 -0.2667
 2222WAT    EPW10695   7.404   6.705   1.715 -0.0551 -0.0999 -0.3452
 2223WAT      O10696   9.381   9.500   3.471 -0.7701  0.1007 -0.4717
 2223WAT     H110697   9.345   9.573   3.522 -0.5002 -0.2730  0.2642
 2223WAT     H210698   9.379   9.425   3.531  0.9205 -0.0128 -0.5176
 2223WAT    EPW10699   9.376   9.500   3.485 -0.5121  0.0358 -0.3808
 2224WAT      O10700   7.595   8.070   1.925 -0.7323  0.7297  0.4747
 2224WAT     H110701   7.689   8.085   1.935 -0.5468 -0.1187  0.0804
 2224WAT     H210702   7.557   8.157   1.914  0.2542  0.9821 -1.3492
 2224WAT    EPW10703   7.602   8.083   1.925 -0.5777  0.6509  0.1822
 2225WAT      O10704   8.098   9.036   1.283 -0.2597 -0.1675 -0.9007
 2225WAT     H110705   8.081   9.103   1.217 -0.0435 -0.4196 -1.2155
 2225WAT     H210706   8.192   9.017   1.274  0.5515  1.9966  1.5454
 2225WAT    EPW10707   8.108   9.043   1.273 -0.1249  0.0839 -0.6196
 2226WAT      O10708   0.066   8.922   2.203  0.0334  0.1755  1.2572
 2226WAT     H110709  -0.029   8.908   2.207 -0.2156  1.8007  1.9714
 2226WAT     H210710   0.076   9.008   2.163  1.2337 -0.1421  0.8454
 2226WAT    EPW10711   0.054   8.932   2.198  0.1589  0.3486  1.2970
 2227WAT      O10712   7.443   8.991   2.893 -0.3337  0.9579  0.0925
 2227WAT     H110713   7.413   9.076   2.923  0.9237  1.5375 -0.2473
 2227WAT     H210714   7.421   8.989   2.800  0.1154  1.1221 -0.0157
 2227WAT    EPW10715   7.436   9.002   2.885 -0.1082  1.0567  0.0335
 2228WAT      O10716   1.720   3.275   1.250  0.2698 -0.3912  0.1241
 2228WAT     H110717   1.707   3.191   1.205 -0.2924  0.5962 -1.6112
 2228WAT     H210718   1.809   3.301   1.225  0.3638 -0.3491  0.4929
 2228WAT    EPW10719   1.730   3.267   1.241  0.2080 -0.2555 -0.0561
 2229WAT      O10720   0.876   1.097   2.237  0.4625 -0.2881  0.1182
 2229WAT     H110721   0.931   1.103   2.159  1.8676 -0.9483  1.0041
 2229WAT     H210722   0.931   1.131   2.308  0.2255 -2.1100  1.2551
 2229WAT    EPW10723   0.891   1.102   2.236  0.6165 -0.6155  0.3850
 2230WAT      O10724   0.984   3.899   3.373  0.0823 -0.0537 -0.7994
 2230WAT     H110725   1.051   3.942   3.425 -0.6775 -0.7639  0.8540
 2230WAT     H210726   0.995   3.934   3.284  1.3065  1.3384 -0.1298
 2230WAT    EPW10727   0.994   3.909   3.368  0.1436  0.0361 -0.4930
 2231WAT      O10728   9.240  10.084   2.776  0.2295  0.5160  0.1735
 2231WAT     H110729   9.331  10.065   2.751  0.0109  1.0595 -1.0882
 2231WAT     H210730   9.219  10.166   2.732 -1.2862 -0.2554 -0.6111
 2231WAT    EPW10731   9.249  10.092   2.767  0.0010  0.4864 -0.0964
 2232WAT      O10732   0.188   8.741   2.010  0.1521  0.0268 -0.2946
 2232WAT     H110733   0.144   8.780   2.085 -1.3379 -2.6243  0.3157
 2232WAT     H210734   0.258   8.803   1.989 -0.4093  1.6576  2.2051
 2232WAT    EPW10735   0.191   8.754   2.017 -0.1185 -0.1078  0.1156
 2233WAT      O10736   1.358   0.062   0.314  0.2669 -0.4152  0.2293
 2233WAT     H110737   1.293   0.132   0.317  0.6600 -0.0255 -0.1496
 2233WAT     H210738   1.345   0.019   0.230 -1.2435 -2.0569  1.2473
 2233WAT    EPW10739   1.348   0.065   0.304  0.1195 -0.5804  0.3136
 2234WAT      O10740   1.190   6.614   8.760  0.7458  0.6204  0.2534
 2234WAT     H110741   1.232   6.531   8.738  0.3052 -0.0837  1.9028
 2234WAT     H210742   1.096   6.593   8.762  0.4747  1.6060 -1.0906
 2234WAT    EPW10743   1.183   6.600   8.757  0.6520  0.6578  0.2937
 2235WAT      O10744  10.291  10.251   1.488 -0.2961 -0.4767 -0.1439
 2235WAT     H110745  10.366  10.269   1.432 -0.4863  1.9578  0.2789
 2235WAT     H210746  10.215  10.274   1.435 -0.6919 -1.4928 -0.0477
 2235WAT    EPW10747  10.291  10.256   1.474 -0.3738 -0.2894 -0.0755
 2236WAT      O10748   9.313   9.354   5.280 -0.3958  0.3505  0.1625
 2236WAT     H110749   9.355   9.313   5.356 -0.7165 -2.7569 -1.1843
 2236WAT     H210750   9.386   9.394   5.232  0.1033  0.5032  1.0152
 2236WAT    EPW10751   9.329   9.354   5.284 -0.3724 -0.0391  0.0970
 2237WAT      O10752   9.843  10.161   3.065  0.5575  0.1111  0.1196
 2237WAT     H110753   9.919  10.105   3.082 -0.4850 -0.9126  1.6550
 2237WAT     H210754   9.830  10.156   2.970  1.7458 -0.5496 -0.0269
 2237WAT    EPW10755   9.851  10.153   3.054  0.5770 -0.1111  0.3029
 2238WAT      O10756   1.304   7.473   2.412  0.9093 -0.4042  0.8270
 2238WAT     H110757   1.243   7.475   2.338 -0.0125 -0.7618  1.5520
 2238WAT     H210758   1.358   7.395   2.397 -1.1579 -2.1511  1.9410
 2238WAT    EPW10759   1.303   7.463   2.401  0.5151 -0.6819  1.0695
 2239WAT      O10760   7.281   9.081   2.628 -0.2542 -0.9385 -0.2324
 2239WAT     H110761   7.228   9.029   2.689 -0.1646 -0.7726 -0.0133
 2239WAT     H210762   7.290   9.166   2.670 -0.0471 -0.8770 -0.3984
 2239WAT    EPW10763   7.275   9.085   2.641 -0.2151 -0.9084 -0.2254
 2240WAT      O10764   8.488   9.798   3.491  0.1191 -0.4179 -0.4703
 2240WAT     H110765   8.482   9.863   3.560 -0.4145 -0.0371 -0.8635
 2240WAT     H210766   8.567   9.821   3.442 -0.7377  0.7260 -1.3752
 2240WAT    EPW10767   8.497   9.809   3.493 -0.0639 -0.2165 -0.6417
 2241WAT      O10768  10.421   9.011   0.077 -0.0942  1.1200  0.2271
 2241WAT     H110769  10.486   9.061   0.028  1.0603  1.3828  1.9315
 2241WAT     H210770  10.469   8.934   0.107 -0.8044  0.9087  0.8287
 2241WAT    EPW10771  10.436   9.008   0.074 -0.0358  1.1263  0.5313
 2242WAT      O10772  10.340   1.795   2.392 -0.4927  0.0854  0.7921
 2242WAT     H110773  10.295   1.740   2.455 -0.6845  0.7099  1.2160
 2242WAT     H210774  10.414   1.832   2.441  0.3663 -0.7524  0.1698
 2242WAT    EPW10775  10.344   1.793   2.406 -0.4048  0.0573  0.7659
 2243WAT      O10776   4.933   7.516   7.861  0.7152  0.4748 -0.1550
 2243WAT     H110777   4.878   7.595   7.870 -3.2123 -1.8820 -1.0514
 2243WAT     H210778   4.940   7.482   7.950  0.0616  0.4453 -0.1051
 2243WAT    EPW10779   4.926   7.522   7.874  0.1106  0.1600 -0.2666
 2244WAT      O10780   2.813   1.728   2.621  0.7871  0.3174  0.5539
 2244WAT     H110781   2.730   1.773   2.635  0.6243 -0.3062  1.6367
 2244WAT     H210782   2.873   1.798   2.595  0.2844  1.0021  1.1819
 2244WAT    EPW10783   2.810   1.744   2.619  0.6993  0.3254  0.7796
 2245WAT      O10784  10.755   3.496   4.812 -0.2518 -0.1191 -0.4286
 2245WAT     H110785  10.824   3.526   4.753  2.1653 -1.9256  1.2982
 2245WAT     H210786  10.775   3.404   4.828 -0.5899  0.3134  3.3740
 2245WAT    EPW10787  10.766   3.488   4.807  0.0215 -0.3004  0.3006
 2246WAT      O10788   1.127   8.658   0.555 -0.7554  0.3336  0.4571
 2246WAT     H110789   1.193   8.718   0.591  1.6285 -1.7176 -0.2046
 2246WAT     H210790   1.047   8.677   0.604  0.8730  1.5410  2.7936
 2246WAT    EPW10791   1.125   8.668   0.566 -0.2263  0.2222  0.6780
 2247WAT      O10792  10.556   9.199   4.607 -0.5133  0.0817 -0.8437
 2247WAT     H110793  10.580   9.273   4.552  1.7004  0.4408  0.5218
 2247WAT     H210794  10.616   9.202   4.681 -2.0986 -1.5428  0.6196
 2247WAT    EPW10795  10.567   9.209   4.609 -0.4311 -0.0849 -0.4706
 2248WAT      O10796   2.348   1.332   3.825 -0.4543 -0.0043  0.5696
 2248WAT     H110797   2.374   1.253   3.778  2.3375  2.2198 -2.0334
 2248WAT     H210798   2.268   1.361   3.781 -0.9284 -0.7855  0.8869
 2248WAT    EPW10799   2.341   1.326   3.813 -0.1488  0.1860  0.2680
 2249WAT      O10800   1.942   1.510   2.363  0.0955  0.5288  0.3235
 2249WAT     H110801   1.850   1.484   2.371  0.4642 -0.8320  0.2556
 2249WAT     H210802   1.957   1.564   2.441 -0.2470 -0.8409  1.3847
 2249WAT    EPW10803   1.932   1.514   2.374  0.0990  0.1686  0.4544
 2250WAT      O10804  10.757   9.041   3.235 -0.2252 -0.6043 -0.1865
 2250WAT     H110805  10.740   9.064   3.143  1.7259 -2.3209 -1.0595
 2250WAT     H210806  10.850   9.021   3.238 -0.6506 -2.7423  1.6713
 2250WAT    EPW10807  10.767   9.042   3.223 -0.0238 -1.1125 -0.0565
 2251WAT      O10808   9.170   4.956   6.862 -0.3916  0.0039 -0.3402
 2251WAT     H110809   9.095   4.929   6.916 -0.1401 -0.8757 -0.4171
 2251WAT     H210810   9.160   5.050   6.854 -2.8727 -0.3225 -2.3461
 2251WAT    EPW10811   9.159   4.965   6.868 -0.6862 -0.1552 -0.6146
 2252WAT      O10812   6.195   8.299   4.689 -1.1190 -0.4085 -0.0291
 2252WAT     H110813   6.204   8.231   4.756 -0.2100 -0.1077  0.1699
 2252WAT     H210814   6.226   8.256   4.609 -0.1087 -0.1123  0.1841
 2252WAT    EPW10815   6.200   8.284   4.687 -0.8657 -0.3300  0.0253
 2253WAT      O10816   5.333   4.618   8.805  0.5346 -0.3762 -0.3050
 2253WAT     H110817   5.368   4.593   8.720  1.6554 -0.6449  0.2231
 2253WAT     H210818   5.266   4.553   8.824  1.6103 -1.4537 -0.1263
 2253WAT    EPW10819   5.329   4.606   8.796  0.8245 -0.5538 -0.2122
 2254WAT      O10820   8.741   5.739   8.544 -0.1696  0.6349 -0.2915
 2254WAT     H110821   8.825   5.746   8.498 -0.1344 -0.4235 -0.4120
 2254WAT     H210822   8.750   5.662   8.599 -0.4686  1.4792  0.9900
 2254WAT    EPW10823   8.753   5.730   8.545 -0.2046  0.6065 -0.1383
 2255WAT      O10824   4.882   3.546   8.697 -0.0253  0.4454  0.1120
 2255WAT     H110825   4.823   3.621   8.705 -0.7615  0.0316 -1.0690
 2255WAT     H210826   4.947   3.559   8.765 -1.2230  1.1695  1.1688
 2255WAT    EPW10827   4.882   3.558   8.707 -0.2801  0.4863  0.0954
 2256WAT      O10828   3.560   3.067   0.892  0.3165  0.4118 -0.0258
 2256WAT     H110829   3.645   3.110   0.879  0.4289  0.1543 -0.1462
 2256WAT     H210830   3.550   3.064   0.987 -0.1497  1.5963 -0.0246
 2256WAT    EPW10831   3.570   3.072   0.903  0.2699  0.5339 -0.0415
 2257WAT      O10832   7.612   9.065   2.416 -0.0007 -0.2682  0.4760
 2257WAT     H110833   7.639   9.018   2.495 -0.0211 -2.7039 -0.8591
 2257WAT     H210834   7.520   9.084   2.430 -0.2480 -1.5109  0.6974
 2257WAT    EPW10835   7.604   9.061   2.428 -0.0358 -0.7534  0.3291
 2258WAT      O10836   1.186   1.915   5.720  1.0127 -0.3783  0.1162
 2258WAT     H110837   1.225   1.864   5.792 -0.7515 -2.5274 -0.3542
 2258WAT     H210838   1.100   1.875   5.706  1.3533 -0.1818 -3.3336
 2258WAT    EPW10839   1.180   1.903   5.728  0.8249 -0.6359 -0.4010
 2259WAT      O10840  10.880   1.086   1.699  0.1025 -0.1214  0.0385
 2259WAT     H110841  10.975   1.079   1.704  0.1272  0.9833  2.9195
 2259WAT     H210842  10.853   1.116   1.786 -2.5121  3.7479 -1.7755
 2259WAT    EPW10843  10.889   1.089   1.711 -0.2389  0.5347  0.1792
 2260WAT      O10844   7.348   9.380   4.472 -0.5704  0.0385  0.2326
 2260WAT     H110845   7.340   9.473   4.495 -0.9699  0.0628 -0.0000
 2260WAT     H210846   7.292   9.370   4.396 -2.0242 -0.7958  1.3735
 2260WAT    EPW10847   7.340   9.391   4.465 -0.8149 -0.0682  0.3526
 2261WAT      O10848   9.255   7.046   4.169  0.2974  0.3377  0.5567
 2261WAT     H110849   9.253   7.058   4.264 -0.4321  0.0148  0.5894
 2261WAT     H210850   9.199   6.970   4.154  1.0513 -0.1048 -0.0632
 2261WAT    EPW10851   9.248   7.038   4.180  0.3004  0.2367  0.4792
 2262WAT      O10852   3.107   0.302   4.253  0.3438 -0.2349 -0.0803
 2262WAT     H110853   3.189   0.315   4.205  0.8796 -0.3936  0.7830
 2262WAT     H210854   3.071   0.390   4.263  0.1519 -0.2084 -0.8779
 2262WAT    EPW10855   3.113   0.315   4.248  0.3891 -0.2524 -0.0718
 2263WAT      O10856   3.639   0.452   2.981  0.1310  0.5246 -0.0188
 2263WAT     H110857   3.677   0.521   2.927  1.6605 -0.4247 -0.2025
 2263WAT     H210858   3.664   0.474   3.071  1.1195 -0.0672 -0.1336
 2263WAT    EPW10859   3.647   0.464   2.986  0.4630  0.3213 -0.0582
 2264WAT      O10860   0.756   8.561   5.609 -0.8502  0.0487  0.1961
 2264WAT     H110861   0.666   8.569   5.576 -1.2434 -0.2430  1.1659
 2264WAT     H210862   0.783   8.651   5.625  0.1345  0.4005 -2.8623
 2264WAT    EPW10863   0.747   8.574   5.607 -0.7721  0.0567 -0.0796
 2265WAT      O10864   7.448   8.408   4.245  0.1214 -0.6468  0.3183
 2265WAT     H110865   7.466   8.435   4.155 -2.4644  0.2512 -0.0262
 2265WAT     H210866   7.357   8.380   4.243 -0.5025  0.8956  2.9520
 2265WAT    EPW10867   7.439   8.408   4.233 -0.3021 -0.3242  0.6201
 2266WAT      O10868   1.310   1.639   3.285  0.0335 -0.5432  0.6038
 2266WAT     H110869   1.257   1.610   3.210  1.6558 -2.7503  0.1747
 2266WAT     H210870   1.299   1.570   3.350 -0.3526  0.7267  1.9312
 2266WAT    EPW10871   1.302   1.626   3.284  0.1965 -0.6669  0.7221
 2267WAT      O10872   1.768   5.012   4.512  0.3071 -0.5815  0.8199
 2267WAT     H110873   1.691   4.977   4.466  0.0998  0.2053  0.5483
 2267WAT     H210874   1.799   4.939   4.566 -1.1178 -0.6807  1.5525
 2267WAT    EPW10875   1.762   4.998   4.514  0.0919 -0.4909  0.8807
 2268WAT      O10876   0.345   9.113   2.962 -0.2917 -0.5166  0.8735
 2268WAT     H110877   0.426   9.163   2.974  1.0037 -2.3382  0.1529
 2268WAT     H210878   0.362   9.029   3.004 -0.7206 -1.9559 -1.6362
 2268WAT    EPW10879   0.358   9.109   2.969 -0.1774 -0.9465  0.4473
 2269WAT      O10880   1.137   2.288   1.294 -0.7428 -0.0985  1.2206
 2269WAT     H110881   1.222   2.330   1.278 -0.0532 -1.4337  1.1937
 2269WAT     H210882   1.156   2.194   1.290 -2.5072 -0.4552 -0.2365
 2269WAT    EPW10883   1.151   2.281   1.292 -0.8846 -0.3216  1.0249
 2270WAT      O10884   1.229   0.602   1.855  0.0580  0.1250 -0.3954
 2270WAT     H110885   1.250   0.677   1.911 -1.4099  0.0572  0.2900
 2270WAT     H210886   1.169   0.636   1.790 -0.1530 -0.3288 -0.4437
 2270WAT    EPW10887   1.224   0.616   1.854 -0.1634  0.0562 -0.3114
 2271WAT      O10888   9.643   8.150   1.938  0.1007 -0.7128 -1.0207
 2271WAT     H110889   9.591   8.073   1.961 -1.0615 -0.0145 -1.2372
 2271WAT     H210890   9.608   8.179   1.854 -0.3639  0.8013 -0.3479
 2271WAT    EPW10891   9.632   8.144   1.930 -0.1140 -0.4210 -0.9605
 2272WAT      O10892   0.052   2.652   0.008 -0.3372  0.4151  0.5092
 2272WAT     H110893   0.126   2.648   0.069 -0.9116 -0.6670  1.1655
 2272WAT     H210894   0.041   2.562  -0.022 -1.6885  0.4767  0.7883
 2272WAT    EPW10895   0.061   2.640   0.012 -0.5912  0.2806  0.6326
 2273WAT      O10896   3.567   1.014   0.396  0.2074 -0.2679  0.2286
 2273WAT     H110897   3.517   0.959   0.336 -0.4268 -1.6532  1.9397
 2273WAT     H210898   3.638   0.959   0.428  0.3434  0.3202  0.9862
 2273WAT    EPW10899   3.569   1.000   0.392  0.1419 -0.3730  0.5542
 2274WAT      O10900  10.757   8.082   1.505 -0.5198 -0.2810 -0.1732
 2274WAT     H110901  10.797   8.008   1.460  1.2492  0.9569 -0.7472
 2274WAT     H210902  10.794   8.081   1.593  0.5725  0.6377 -0.5862
 2274WAT    EPW10903  10.767   8.072   1.511 -0.1426  0.0033 -0.3034
 2275WAT      O10904   1.730   9.501   4.180 -0.1105 -0.2558 -0.2787
 2275WAT     H110905   1.824   9.486   4.169 -0.1464 -1.9023  1.1681
 2275WAT     H210906   1.714   9.483   4.272 -1.9244 -0.4498 -0.6014
 2275WAT    EPW10907   1.741   9.496   4.191 -0.3543 -0.4988 -0.1302
 2276WAT      O10908   8.651   8.593   2.737  0.3633  0.1188  0.2140
 2276WAT     H110909   8.586   8.577   2.806 -0.1551  1.4599  0.0688
 2276WAT     H210910   8.601   8.587   2.655  0.6336  0.1592  0.0446
 2276WAT    EPW10911   8.636   8.590   2.735  0.3304  0.3014  0.1725
 2277WAT      O10912   5.196   1.561   5.571 -0.1238 -0.3814 -0.2100
 2277WAT     H110913   5.246   1.493   5.526 -2.6928 -2.2603 -0.4523
 2277WAT     H210914   5.208   1.639   5.517  2.1644 -0.8090 -0.4308
 2277WAT    EPW10915   5.204   1.562   5.558 -0.1607 -0.6856 -0.2711
 2278WAT      O10916   3.548   1.333   0.423 -0.8434 -0.7990  0.3243
 2278WAT     H110917   3.540   1.240   0.402  1.5253 -0.8891 -0.4680
 2278WAT     H210918   3.639   1.355   0.401 -1.2375  1.6259  0.8234
 2278WAT    EPW10919   3.559   1.324   0.417 -0.5829 -0.4910  0.2856
 2279WAT      O10920   4.104   2.210   2.802  0.0270 -0.3581 -0.8473
 2279WAT     H110921   4.185   2.172   2.767  0.6488 -0.2426  0.3894
 2279WAT     H210922   4.124   2.225   2.894 -0.9486  0.9586 -0.8308
 2279WAT    EPW10923   4.117   2.207   2.810 -0.0198 -0.1692 -0.6821
 2280WAT      O10924   3.638   1.609   0.951  0.5219 -0.0495 -0.5194
 2280WAT     H110925   3.604   1.560   0.876 -1.4798 -0.1970  0.4200
 2280WAT     H210926   3.627   1.701   0.926 -0.7183 -0.0950 -0.1948
 2280WAT    EPW10927   3.632   1.614   0.938  0.0943 -0.0750 -0.3527
 2281WAT      O10928  10.080   8.173   0.450 -0.6759  0.7997  0.3408
 2281WAT     H110929  10.038   8.247   0.493 -0.1388  0.6523  1.1524
 2281WAT     H210930  10.008   8.119   0.419 -1.0793  0.8577  1.1639
 2281WAT    EPW10931  10.065   8.176   0.451 -0.6576  0.7887  0.5564
 2282WAT      O10932   2.390   8.541   3.529 -0.0147  0.4275 -0.1730
 2282WAT     H110933   2.340   8.592   3.465 -1.3128  0.5371  0.8957
 2282WAT     H210934   2.326   8.515   3.595  1.1869 -0.1499  0.8096
 2282WAT    EPW10935   2.375   8.544   3.529 -0.0274  0.3657  0.0975
 2283WAT      O10936   7.539   7.132   1.438 -0.5319  0.8972 -0.3583
 2283WAT     H110937   7.553   7.109   1.530 -3.7763 -1.4815 -0.2808
 2283WAT     H210938   7.517   7.225   1.440  0.1259  1.0564  1.1541
 2283WAT    EPW10939   7.538   7.141   1.450 -0.8729  0.6044 -0.1486
 2284WAT      O10940   9.205   9.780   2.819  0.2976 -0.1223  0.0112
 2284WAT     H110941   9.175   9.769   2.909 -1.7519  0.8329 -0.4871
 2284WAT     H210942   9.196   9.874   2.802 -0.3246 -0.4215 -1.4851
 2284WAT    EPW10943   9.200   9.791   2.828 -0.0548 -0.0362 -0.2518
 2285WAT      O10944   8.928  10.015   2.849  0.0397 -0.6218 -0.5182
 2285WAT     H110945   8.847   9.985   2.888 -0.3343  0.7121 -0.2351
 2285WAT     H210946   8.986  10.033   2.923  0.4471 -1.1213 -0.7042
 2285WAT    EPW10947   8.925  10.013   2.864  0.0439 -0.5116 -0.5054
 2286WAT      O10948   0.168   0.929   2.510  0.2224  0.1385 -0.3777
 2286WAT     H110949   0.147   0.917   2.602 -0.1107  2.5819 -0.0878
 2286WAT     H210950   0.239   0.993   2.509 -0.3211  0.7728 -1.8217
 2286WAT    EPW10951   0.174   0.936   2.522  0.1068  0.5444 -0.5300
 2287WAT      O10952   0.053   9.796   2.188 -0.1259  0.6680  1.1290
 2287WAT     H110953   0.039   9.810   2.095  1.2622  0.5692  0.8858
 2287WAT     H210954  -0.035   9.800   2.227 -0.9231 -0.8436 -0.3682
 2287WAT    EPW10955   0.039   9.798   2.181 -0.0482  0.4559  0.8994
 2288WAT      O10956   0.848   8.968   3.424 -0.9318  0.0514 -0.7146
 2288WAT     H110957   0.853   8.873   3.435 -1.5426  0.2992  2.5524
 2288WAT     H210958   0.929   8.991   3.379  0.4545 -1.7664  0.7209
 2288WAT    EPW10959   0.859   8.958   3.419 -0.8295 -0.1559 -0.0942
 2289WAT      O10960   3.657   0.470   1.874 -0.5771 -0.1827  0.1376
 2289WAT     H110961   3.712   0.446   1.949  1.7356  1.9023 -0.7845
 2289WAT     H210962   3.569   0.476   1.911  0.1130 -1.3915  2.1855
 2289WAT    EPW10963   3.653   0.467   1.889 -0.1811 -0.0671  0.2862
 2290WAT      O10964   3.982   2.400   6.720 -0.2573 -0.6042 -0.2864
 2290WAT     H110965   3.902   2.440   6.752 -1.2640 -3.2440  0.8098
 2290WAT     H210966   4.035   2.386   6.798 -0.0490 -1.5421 -0.5767
 2290WAT    EPW10967   3.979   2.403   6.735 -0.3626 -1.0760 -0.1802
 2291WAT      O10968   2.621   3.387   2.096 -0.0500  0.2751 -0.5886
 2291WAT     H110969   2.635   3.482   2.090 -0.7866  0.4353  0.1036
 2291WAT     H210970   2.597   3.361   2.007  0.4737  0.6741 -0.8552
 2291WAT    EPW10971   2.620   3.396   2.083 -0.0781  0.3487 -0.5324
 2292WAT      O10972  10.601  10.006   0.910  0.2766  0.4213  0.1858
 2292WAT     H110973  10.657   9.931   0.889  1.7132  1.7087 -0.7202
 2292WAT     H210974  10.655  10.083   0.893 -2.0420  1.7926 -1.6261
 2292WAT    EPW10975  10.615  10.006   0.905  0.1593  0.7720 -0.1727
 2293WAT      O10976   5.918   0.413   0.348 -0.2006 -0.2841  0.1509
 2293WAT     H110977   5.872   0.393   0.430  0.1144 -0.0387  0.3849
 2293WAT     H210978   5.862   0.374   0.280 -2.1943  2.2536  0.1794
 2293WAT    EPW10979   5.904   0.405   0.350 -0.4220  0.0830  0.1855
 2294WAT      O10980   2.399   0.223   3.781 -1.0243  0.4186 -0.2379
 2294WAT     H110981   2.464   0.281   3.821  0.2622 -1.2819  0.2772
 2294WAT     H210982   2.344   0.281   3.729  2.2152  1.7658 -2.4835
 2294WAT    EPW10983   2.400   0.238   3.779 -0.4274  0.3720 -0.4661
 2295WAT      O10984   9.023   9.398   5.229 -0.6210 -0.1690  0.4395
 2295WAT     H110985   9.114   9.374   5.249  0.3077  2.2741 -0.4843
 2295WAT     H210986   9.010   9.369   5.139 -0.6986 -0.3642  0.5139
 2295WAT    EPW10987   9.034   9.391   5.220 -0.5088  0.1278  0.3273
 2296WAT      O10988   0.142   9.523   1.311  0.0707 -0.9271 -0.6773
 2296WAT     H110989   0.144   9.524   1.215  1.4854 -2.2618 -0.7118
 2296WAT     H210990   0.102   9.439   1.332 -2.6998  0.4575 -0.0209
 2296WAT    EPW10991   0.137   9.512   1.301 -0.1081 -0.9203 -0.5953
 2297WAT      O10992   4.210   5.534   1.292  0.3745 -1.0848 -0.5560
 2297WAT     H110993   4.151   5.497   1.357 -2.2837  2.5487 -0.6216
 2297WAT     H210994   4.173   5.507   1.208  1.3327 -2.2269 -0.6431
 2297WAT    EPW10995   4.198   5.525   1.289  0.1502 -0.7560 -0.5761
 2298WAT      O10996   4.598   2.200   2.082  0.3624  0.2314  0.7583
 2298WAT     H110997   4.559   2.124   2.125 -0.1331  0.6149  1.0014
 2298WAT     H210998   4.528   2.265   2.080  0.4129  0.2615 -0.5437
 2298WAT    EPW10999   4.584   2.198   2.088  0.3035  0.2859  0.6187
 2299WAT      O11000   3.671   0.328   1.352 -0.1572 -0.4376  0.1609
 2299WAT     H111001   3.675   0.340   1.257 -1.8821  2.1248  0.3154
 2299WAT     H211002   3.758   0.353   1.382  0.8155 -2.4477 -0.7679
 2299WAT    EPW11003   3.683   0.333   1.343 -0.2564 -0.3647  0.0588
 2300WAT      O11004   5.611   5.051   2.427 -0.3598  0.8519 -0.5321
 2300WAT     H111005   5.597   4.968   2.382  0.0307  1.2107 -1.3473
 2300WAT     H211006   5.592   5.117   2.360 -0.4463  1.4139  0.0390
 2300WAT    EPW11007   5.606   5.049   2.412 -0.3197  0.9732 -0.5643
 2301WAT      O11008   9.983   9.739   4.607 -0.0249  0.0407  0.0997
 2301WAT     H111009   9.974   9.687   4.687  0.0044  0.0048  0.0798
 2301WAT     H211010   9.902   9.723   4.559 -0.4403  0.7785  0.5414
 2301WAT    EPW11011   9.971   9.730   4.611 -0.0758  0.1335  0.1552
 2302WAT      O11012   9.668   8.216   5.342  0.1532  0.1006  0.3304
 2302WAT     H111013   9.634   8.205   5.431 -2.0289 -0.6254 -0.5110
 2302WAT     H211014   9.597   8.185   5.286  0.6833  2.3795 -1.7547
 2302WAT    EPW11015   9.654   8.210   5.347 -0.0648  0.3052 -0.0558
 2303WAT      O11016   9.469  10.247   6.308  0.1572 -0.5136  0.1586
 2303WAT     H111017   9.484  10.262   6.214  0.0746 -2.5512 -0.2274
 2303WAT     H211018   9.376  10.268   6.320 -0.3075 -1.9851 -0.6374
 2303WAT    EPW11019   9.459  10.252   6.297  0.0849 -0.9766  0.0029
 2304WAT      O11020   3.568   2.328   1.304 -0.1895 -0.0796  0.1083
 2304WAT     H111021   3.536   2.250   1.258 -2.4677  0.0934  1.2483
 2304WAT     H211022   3.495   2.390   1.299  1.4795  1.9053 -0.5320
 2304WAT    EPW11023   3.554   2.326   1.298 -0.2699  0.2049  0.1742
 2305WAT      O11024  10.577  10.131   0.413  0.3494  0.0549  0.1040
 2305WAT     H111025  10.619  10.158   0.332 -0.6418  1.6466  0.0764
 2305WAT     H211026  10.507  10.071   0.385  1.1988 -0.9132 -0.0198
 2305WAT    EPW11027  10.573  10.126   0.399  0.3309  0.1369  0.0840
 2306WAT      O11028   7.619   3.262   8.596 -0.6946 -0.8684 -0.1686
 2306WAT     H111029   7.582   3.308   8.521  1.5171  1.5978  0.1086
 2306WAT     H211030   7.577   3.302   8.672  2.9490  2.9650  0.2468
 2306WAT    EPW11031   7.609   3.273   8.596  0.0775 -0.0376 -0.0768
 2307WAT      O11032   8.152   0.721   0.670 -0.0352  0.2062  0.0268
 2307WAT     H111033   8.071   0.670   0.675  0.5627 -1.0359 -1.8636
 2307WAT     H211034   8.164   0.756   0.758 -2.6175  0.4536  0.3622
 2307WAT    EPW11035   8.143   0.719   0.682 -0.2966  0.0750 -0.1783
 2308WAT      O11036   3.755   0.616   2.792 -0.8278  0.3446  0.6159
 2308WAT     H111037   3.729   0.635   2.701 -2.3099 -0.2711  0.8821
 2308WAT     H211038   3.814   0.687   2.815 -2.4367  1.9612  0.0005
 2308WAT    EPW11039   3.759   0.628   2.783 -1.2355  0.4766  0.5698
 2309WAT      O11040   2.141   2.747   0.183 -0.8109  0.3913 -0.7599
 2309WAT     H111041   2.146   2.656   0.156 -0.5271  0.2765 -0.3268
 2309WAT     H211042   2.185   2.750   0.267 -2.5343  0.5448  0.1898
 2309WAT    EPW11043   2.147   2.736   0.190 -1.0008  0.3965 -0.5775
 2310WAT      O11044   3.289   0.258   1.262 -0.4505 -0.5020  0.0099
 2310WAT     H111045   3.308   0.342   1.304 -2.4413 -1.0672  2.2449
 2310WAT     H211046   3.253   0.204   1.332 -1.7057 -2.3490 -1.9410
 2310WAT    EPW11047   3.287   0.262   1.277 -0.8786 -0.8202  0.0474
 2311WAT      O11048   2.349   1.412   1.852  0.1252  0.1836 -0.0991
 2311WAT     H111049   2.400   1.452   1.923  0.4895  1.6273 -1.1333
 2311WAT     H211050   2.354   1.318   1.870 -2.4475  0.5147  3.6082
 2311WAT    EPW11051   2.357   1.405   1.864 -0.1661  0.4177  0.2534
 2312WAT      O11052   1.102   2.479   8.677  0.1735  0.9185  0.6350
 2312WAT     H111053   1.035   2.429   8.631  0.6645 -1.5863  2.3838
 2312WAT     H211054   1.139   2.538   8.611 -1.5914  0.1198 -1.1514
 2312WAT    EPW11055   1.098   2.480   8.662  0.0054  0.4828  0.6299
 2313WAT      O11056   1.826  10.033   1.360 -0.2742 -0.4435 -0.5311
 2313WAT     H111057   1.876  10.070   1.287 -0.6795  0.1636 -0.5089
 2313WAT     H211058   1.736  10.030   1.328 -0.2743 -1.3368 -0.4950
 2313WAT    EPW11059   1.821  10.037   1.346 -0.3277 -0.4816 -0.5234
 2314WAT      O11060   2.207   2.452   1.664 -0.2673  0.9660 -0.6195
 2314WAT     H111061   2.162   2.525   1.622  0.8218  1.7081 -0.5497
 2314WAT     H211062   2.284   2.492   1.705 -0.0519 -0.1051  0.0710
 2314WAT    EPW11063   2.211   2.467   1.664 -0.0952  0.9226 -0.5192
 2315WAT      O11064   0.246   0.687   1.812 -0.4017 -0.2227 -0.3228
 2315WAT     H111065   0.177   0.628   1.840  0.7012 -0.9103  1.0717
 2315WAT     H211066   0.294   0.639   1.744  0.7769 -1.1814  1.1331
 2315WAT    EPW11067   0.243   0.673   1.807 -0.1008 -0.4399  0.0532
 2316WAT      O11068   2.200   0.918   1.902 -0.7177  0.5254 -0.2633
 2316WAT     H111069   2.163   0.843   1.856 -1.3314 -1.7526  3.4397
 2316WAT     H211070   2.124   0.965   1.937 -0.2826  1.1424 -0.1228
 2316WAT    EPW11071   2.185   0.914   1.901 -0.7411  0.3063  0.2437
 2317WAT      O11072  10.145   9.908   3.357 -0.2054 -0.8522 -0.1923
 2317WAT     H111073  10.123   9.921   3.265 -0.2773 -1.0694 -0.2073
 2317WAT     H211074  10.060   9.906   3.401 -0.2124 -1.4603 -0.2183
 2317WAT    EPW11075  10.131   9.909   3.351 -0.2165 -0.9613 -0.1978
 2318WAT      O11076   1.020   1.496   4.610  0.1727 -0.0034  0.4694
 2318WAT     H111077   1.115   1.486   4.619  0.2564 -1.1183 -1.2719
 2318WAT     H211078   0.991   1.416   4.565 -1.8107 -0.3648  2.2010
 2318WAT    EPW11079   1.028   1.484   4.605 -0.0778 -0.1981  0.4680
 2319WAT      O11080   4.503   2.422   3.833  0.0744  0.1691 -0.1655
 2319WAT     H111081   4.461   2.346   3.874  1.9658 -1.5763 -1.2356
 2319WAT     H211082   4.586   2.388   3.801  0.0367  2.1695 -2.7020
 2319WAT    EPW11083   4.508   2.407   3.834  0.3188  0.2029 -0.6412
 2320WAT      O11084   8.690   9.977   2.420 -0.1651 -0.2353  0.3080
 2320WAT     H111085   8.640  10.004   2.496 -1.3177  0.6265 -0.7290
 2320WAT     H211086   8.631   9.989   2.346  0.5755 -1.9973 -0.6356
 2320WAT    EPW11087   8.676   9.982   2.420 -0.2193 -0.3538  0.0466
 2321WAT      O11088   8.795   8.251   1.514  0.3713  0.0396 -0.5895
 2321WAT     H111089   8.815   8.335   1.473  0.5270 -0.9210 -2.5963
 2321WAT     H211090   8.737   8.273   1.587  0.2674  1.8620 -1.1837
 2321WAT    EPW11091   8.790   8.265   1.518  0.3781  0.1531 -0.9325
 2322WAT      O11092  10.539  10.314   0.653 -0.3004 -0.2513  0.1842
 2322WAT     H111093  10.618  10.353   0.689 -0.8354  1.5687 -0.4873
 2322WAT     H211094  10.569  10.269   0.574  0.0849  0.4881 -0.1093
 2322WAT    EPW11095  10.553  10.313   0.647 -0.3200  0.0858  0.0570
 2323WAT      O11096   9.119   9.623   4.040  0.0760 -0.6534 -0.8528
 2323WAT     H111097   9.072   9.698   4.004  1.7138  1.3078  0.9004
 2323WAT     H211098   9.049   9.564   4.070 -1.2418  0.3761 -1.7827
 2323WAT    EPW11099   9.103   9.625   4.039  0.1178 -0.2584 -0.7439
 2324WAT      O11100   3.085   0.632   0.219  0.1590  0.4362 -0.2667
 2324WAT     H111101   3.004   0.608   0.174  0.1678 -1.3150  0.5846
 2324WAT     H211102   3.058   0.698   0.283 -0.7479 -0.5919  0.4515
 2324WAT    EPW11103   3.071   0.638   0.221  0.0404  0.0696 -0.0597
 2325WAT      O11104   8.981  10.123   0.602  0.9112  0.1185  0.0319
 2325WAT     H111105   9.037  10.181   0.653  0.8424 -0.7664  1.1594
 2325WAT     H211106   8.950  10.177   0.529  0.2719  1.7073  1.4292
 2325WAT    EPW11107   8.984  10.138   0.599  0.8183  0.2112  0.3649
 2326WAT      O11108  10.217   9.322   4.188 -0.3738  0.2795  0.2462
 2326WAT     H111109  10.169   9.382   4.130 -2.2709 -2.3137 -1.1181
 2326WAT     H211110  10.171   9.327   4.271  2.0624  3.6660  1.5677
 2326WAT    EPW11111  10.205   9.330   4.191 -0.3023  0.3839  0.2406
 2327WAT      O11112   4.065   0.601   1.851  0.2156 -0.0165  0.5502
 2327WAT     H111113   4.150   0.563   1.829 -0.0123 -1.1609  1.5483
 2327WAT     H211114   4.073   0.625   1.944 -0.9294 -1.3173  1.0249
 2327WAT    EPW11115   4.078   0.599   1.861  0.0346 -0.3390  0.7444
 2328WAT      O11116   9.708   8.587   3.340 -0.3686  0.6316  0.5846
 2328WAT     H111117   9.748   8.674   3.336  0.5527  0.1999 -2.3604
 2328WAT     H211118   9.783   8.526   3.343 -0.8226 -0.0827 -1.0439
 2328WAT    EPW11119   9.723   8.590   3.340 -0.3066  0.4802 -0.0185
 2329WAT      O11120   9.919   9.464   2.785  0.2398  0.6433 -0.1754
 2329WAT     H111121   9.946   9.491   2.873 -1.8503 -0.2043  0.8072
 2329WAT     H211122   9.936   9.369   2.783  1.0624  0.7996 -1.0167
 2329WAT    EPW11123   9.924   9.455   2.796  0.0730  0.5522 -0.1568
 2330WAT      O11124   1.921   4.327   1.827 -0.1647  0.7522  0.2165
 2330WAT     H111125   1.935   4.411   1.871  3.0781 -0.6505  2.3067
 2330WAT     H211126   1.868   4.277   1.889  0.1741  0.4007  0.2222
 2330WAT    EPW11127   1.916   4.332   1.841  0.3077  0.5209  0.4930
 2331WAT      O11128   8.161   7.817   2.603  0.4180  0.3673  0.5994
 2331WAT     H111129   8.174   7.726   2.576 -0.1222  0.9087 -1.6853
 2331WAT     H211130   8.223   7.867   2.550 -0.1929  1.4740  0.9061
 2331WAT    EPW11131   8.171   7.811   2.593  0.2656  0.5846  0.3386
 2332WAT      O11132   1.724   0.932   1.990  0.1492 -0.4068  0.0318
 2332WAT     H111133   1.734   0.864   2.056 -1.1043 -1.3203 -0.6719
 2332WAT     H211134   1.676   1.002   2.035  0.3608 -0.5049  0.4135
 2332WAT    EPW11135   1.719   0.932   2.004  0.0118 -0.5402 -0.0106
 2333WAT      O11136   6.074  10.166   0.874 -0.5494 -0.0421  0.9661
 2333WAT     H111137   6.025  10.091   0.908 -0.8210  0.5568  1.9435
 2333WAT     H211138   6.006  10.224   0.839 -0.2169 -1.2601 -2.0565
 2333WAT    EPW11139   6.058  10.163   0.874 -0.5412 -0.1245  0.6964
 2334WAT      O11140   4.400   8.155   4.166 -0.2704 -0.3806  0.4036
 2334WAT     H111141   4.440   8.191   4.245 -1.2891  0.3820  0.5923
 2334WAT     H211142   4.376   8.231   4.114 -0.5432 -0.8465 -0.1690
 2334WAT    EPW11143   4.402   8.170   4.169 -0.4406 -0.3414  0.3529
 2335WAT      O11144   1.072   0.335   1.736 -0.0361 -0.6351  0.2308
 2335WAT     H111145   1.019   0.265   1.774 -0.5045 -0.6612 -0.4642
 2335WAT     H211146   1.082   0.399   1.807  0.5195 -1.4574  0.9158
 2335WAT    EPW11147   1.067   0.334   1.751 -0.0247 -0.7470  0.2294
 2336WAT      O11148   1.508   0.532   5.667 -0.1956 -0.3227  0.2403
 2336WAT     H111149   1.594   0.558   5.635 -1.0623  0.1575 -1.8863
 2336WAT     H211150   1.449   0.550   5.594 -1.8829 -2.0636  1.0709
 2336WAT    EPW11151   1.511   0.537   5.653 -0.5325 -0.4890  0.0696
 2337WAT      O11152   8.598   0.713   4.655  0.0984  0.3102 -0.2748
 2337WAT     H111153   8.673   0.655   4.669  0.9945  1.4424 -0.2618
 2337WAT     H211154   8.602   0.776   4.727 -0.6970  0.5644 -0.4438
 2337WAT    EPW11155   8.608   0.714   4.666  0.1116  0.4930 -0.2956
 2338WAT      O11156   0.153   9.183   1.172 -0.1956 -0.5732  0.1629
 2338WAT     H111157   0.159   9.140   1.257 -2.7579 -0.6948  0.3382
 2338WAT     H211158   0.207   9.129   1.114 -1.1224 -2.4774  0.9908
 2338WAT    EPW11159   0.161   9.170   1.175 -0.6558 -0.8407  0.2952
 2339WAT      O11160   7.620   9.011   0.266 -0.0495  0.1645  0.2270
 2339WAT     H111161   7.713   9.035   0.263 -0.1695  0.6461  0.2590
 2339WAT     H211162   7.591   9.017   0.176  0.4008 -1.8834 -0.1146
 2339WAT    EPW11163   7.629   9.015   0.254 -0.0060 -0.0420  0.1862
 2340WAT      O11164   1.680   9.508   1.406  0.2244 -0.1173 -0.1431
 2340WAT     H111165   1.656   9.598   1.381  0.4895  0.1516  0.5374
 2340WAT     H211166   1.773   9.502   1.387  0.2214 -0.2263 -0.1204
 2340WAT    EPW11167   1.689   9.519   1.400  0.2589 -0.0954 -0.0504
 2341WAT      O11168   2.411   0.659   0.779 -0.1289 -0.0305  0.4637
 2341WAT     H111169   2.463   0.675   0.700  0.0034  0.6282  0.6740
 2341WAT     H211170   2.360   0.739   0.790 -2.3440 -1.2090 -0.5829
 2341WAT    EPW11171   2.411   0.672   0.770 -0.4035 -0.0991  0.3534
 2342WAT      O11172   3.415   9.079   8.370 -0.2151  0.0704  0.0510
 2342WAT     H111173   3.348   9.033   8.320 -1.5902  1.0525  0.8953
 2342WAT     H211174   3.413   9.039   8.456  0.0780  0.2924  0.1635
 2342WAT    EPW11175   3.405   9.068   8.375 -0.3579  0.2289  0.1769
 2343WAT      O11176   0.440   4.076   1.590 -0.1831 -0.3322 -0.2512
 2343WAT     H111177   0.459   4.038   1.676  0.3960 -0.3973 -0.4005
 2343WAT     H211178   0.489   4.021   1.529  0.5090  0.5255 -0.4878
 2343WAT    EPW11179   0.449   4.064   1.593 -0.0154 -0.2277 -0.3021
 2344WAT      O11180   0.068   1.477   0.737  0.2787  0.1401 -0.0274
 2344WAT     H111181  -0.012   1.431   0.712 -1.0011  1.0040  2.1684
 2344WAT     H211182   0.070   1.555   0.681 -0.1529 -0.1531 -0.4495
 2344WAT    EPW11183   0.058   1.482   0.727  0.0534  0.2153  0.2065
 2345WAT      O11184   1.133   0.029   4.054 -0.2505  0.1736 -0.2496
 2345WAT     H111185   1.055   0.081   4.036 -0.4462  0.1707  0.5374
 2345WAT     H211186   1.205   0.080   4.017 -0.7534 -0.5915 -2.4338
 2345WAT    EPW11187   1.133   0.043   4.047 -0.3428  0.0725 -0.4339
 2346WAT      O11188   0.699   0.831   3.316  0.1779 -0.0906 -0.2008
 2346WAT     H111189   0.610   0.857   3.341 -0.3242 -0.2207 -1.7371
 2346WAT     H211190   0.693   0.738   3.298  0.4278  0.0498 -1.0680
 2346WAT    EPW11191   0.687   0.822   3.317  0.1447 -0.0892 -0.5178
 2347WAT      O11192   7.078   8.325   5.447  0.5647  0.1396  0.7894
 2347WAT     H111193   7.121   8.406   5.474  0.0750 -0.1361  2.5277
 2347WAT     H211194   6.984   8.345   5.448  0.5085  0.0847 -0.7087
 2347WAT    EPW11195   7.071   8.338   5.451  0.4928  0.0963  0.8209
 2348WAT      O11196   2.768   0.752   1.701  0.4319 -0.3502 -0.2627
 2348WAT     H111197   2.721   0.835   1.707  0.6019 -0.1765 -1.1659
 2348WAT     H211198   2.703   0.685   1.723 -0.1495 -0.0865 -1.1544
 2348WAT    EPW11199   2.753   0.754   1.705  0.3777 -0.2925 -0.4995
 2349WAT      O11200   7.950   4.586   1.101  0.3516  0.5489  0.1771
 2349WAT     H111201   7.901   4.639   1.163 -1.2099 -0.1004 -0.4562
 2349WAT     H211202   7.885   4.526   1.064  1.8140 -1.0061  0.0062
 2349WAT    EPW11203   7.935   4.585   1.104  0.3386  0.2580  0.0710
 2350WAT      O11204  10.818   2.703   2.457  0.3943 -0.2394  0.0812
 2350WAT     H111205  10.765   2.625   2.444 -0.9615  0.6325  0.2668
 2350WAT     H211206  10.759   2.776   2.443  1.8602  0.7940 -1.0178
 2350WAT    EPW11207  10.803   2.702   2.454  0.4086  0.0119 -0.0392
 2351WAT      O11208   9.797   8.512   1.778 -0.2884 -0.6499  0.4363
 2351WAT     H111209   9.791   8.570   1.854 -1.7358 -1.7581  1.2202
 2351WAT     H211210   9.889   8.515   1.753 -0.3845  2.4455  0.0486
 2351WAT    EPW11211   9.808   8.520   1.785 -0.4916 -0.3881  0.4886
 2352WAT      O11212  10.744  10.230   3.807  0.3216  0.1868 -0.0504
 2352WAT     H111213  10.688  10.158   3.838 -0.1952  0.2739 -0.7539
 2352WAT     H211214  10.747  10.218   3.712 -0.6047  1.6702 -0.2969
 2352WAT    EPW11215  10.737  10.219   3.798  0.1311  0.3934 -0.1756
 2353WAT      O11216   3.328   1.217   5.934 -0.4927  0.0494 -0.1692
 2353WAT     H111217   3.402   1.225   5.874  0.3802 -2.4957  0.4350
 2353WAT     H211218   3.258   1.181   5.879 -0.0114 -1.2804  0.0297
 2353WAT    EPW11219   3.328   1.213   5.919 -0.3141 -0.4617 -0.0634
 2354WAT      O11220   4.133   8.295   8.731  0.2690  0.0205  0.3405
 2354WAT     H111221   4.112   8.238   8.805  2.5017  0.2183  1.2011
 2354WAT     H211222   4.228   8.287   8.721  0.1434  0.7197 -1.9331
 2354WAT    EPW11223   4.143   8.286   8.739  0.5467  0.1392  0.1545
 2355WAT      O11224   5.703   9.952   1.851  0.5374 -0.5302  0.2529
 2355WAT     H111225   5.683   9.995   1.934 -1.8084  0.9648 -1.0080
 2355WAT     H211226   5.657   9.868   1.856  0.0748 -0.2720  0.2918
 2355WAT    EPW11227   5.694   9.946   1.863  0.1674 -0.2990  0.0917
 2356WAT      O11228   2.012   1.738   1.377 -0.4926 -0.3161  0.2791
 2356WAT     H111229   2.061   1.656   1.390 -0.6077 -0.2031  1.5811
 2356WAT     H211230   1.985   1.735   1.285  2.4415 -0.0930 -0.6958
 2356WAT    EPW11231   2.014   1.727   1.367 -0.1208 -0.2718  0.3223
 2357WAT      O11232   0.022   8.839   1.119 -0.1556  1.3420 -0.1578
 2357WAT     H111233   0.055   8.766   1.171 -1.2181  0.7968 -0.2016
 2357WAT     H211234  -0.031   8.889   1.181  1.1588  2.5201  0.0585
 2357WAT    EPW11235   0.019   8.836   1.134 -0.1223  1.4257 -0.1351
 2358WAT      O11236  10.117   8.377   2.013 -0.1936 -0.2652 -0.5745
 2358WAT     H111237  10.157   8.398   2.097  3.4200 -1.2095 -1.8577
 2358WAT     H211238  10.036   8.332   2.036  0.8815 -0.9216  2.4414
 2358WAT    EPW11239  10.112   8.374   2.027  0.4253 -0.4759 -0.3461
 2359WAT      O11240   0.089   7.404   0.630 -0.0724 -0.5800  0.0955
 2359WAT     H111241   0.110   7.441   0.545 -0.4310  2.9830  1.3783
 2359WAT     H211242   0.172   7.370   0.663  0.8780  1.2198 -0.2959
 2359WAT    EPW11243   0.102   7.404   0.623  0.0057  0.1273  0.2131
 2360WAT      O11244   7.148   9.453   1.616  0.0756  0.0825  0.0639
 2360WAT     H111245   7.204   9.432   1.542 -1.5471  0.3798 -1.3247
 2360WAT     H211246   7.084   9.514   1.580 -0.9326  0.0139  1.6536
 2360WAT    EPW11247   7.147   9.458   1.602 -0.2716  0.1125  0.0905
 2361WAT      O11248   1.912   2.032   1.344  0.5936 -0.2757 -0.5552
 2361WAT     H111249   1.936   1.949   1.385 -0.2488  0.5485  1.8297
 2361WAT     H211250   1.985   2.053   1.286  0.5844 -2.8840 -1.6157
 2361WAT    EPW11251   1.925   2.024   1.342  0.4812 -0.5111 -0.3805
 2362WAT      O11252   2.124   2.626   0.955  0.0610  0.0705  0.1719
 2362WAT     H111253   2.187   2.586   1.014  0.7757 -0.7817 -1.1171
 2362WAT     H211254   2.099   2.556   0.895 -1.7085  0.5394  0.3087
 2362WAT    EPW11255   2.129   2.612   0.955 -0.0781  0.0198  0.0199
 2363WAT      O11256   1.891   0.192   0.975 -0.0235  0.1448  0.6677
 2363WAT     H111257   1.976   0.204   1.018 -0.4713  0.5958  1.4532
 2363WAT     H211258   1.843   0.134   1.033 -0.2454 -0.1256  0.2153
 2363WAT    EPW11259   1.896   0.186   0.988 -0.1118  0.1686  0.7116
 2364WAT      O11260   4.802   0.894   3.542 -0.3087  0.3719 -0.0456
 2364WAT     H111261   4.780   0.982   3.572 -0.1832  0.9204 -1.4499
 2364WAT     H211262   4.897   0.895   3.534 -0.2772 -0.0128  0.2921
 2364WAT    EPW11263   4.812   0.906   3.545 -0.2882  0.3935 -0.1862
 2365WAT      O11264  10.204   8.208   0.862  1.1058  0.0373 -0.2017
 2365WAT     H111265  10.246   8.206   0.948 -0.6183 -0.7993  0.6580
 2365WAT     H211266  10.152   8.127   0.859 -2.2755  2.0208 -0.2119
 2365WAT    EPW11267  10.203   8.197   0.873  0.4330  0.1888 -0.0897
 2366WAT      O11268  10.360  10.309   2.728  0.3652 -0.4854  0.5829
 2366WAT     H111269  10.384  10.292   2.637  0.4503  0.4284  0.4190
 2366WAT     H211270  10.327  10.399   2.727 -0.5904 -0.8182  1.2756
 2366WAT    EPW11271  10.359  10.319   2.716  0.2499 -0.4086  0.6526
 2367WAT      O11272   5.033   0.497   0.035 -0.2741 -0.0888  0.2339
 2367WAT     H111273   5.071   0.412   0.057  0.3338  0.2276  0.4358
 2367WAT     H211274   4.949   0.476  -0.005 -0.8228 -0.7494  1.6441
 2367WAT    EPW11275   5.027   0.483   0.033 -0.2663 -0.1342  0.4465
 2368WAT      O11276   2.869   0.639   0.669  0.5330 -0.9472 -0.3499
 2368WAT     H111277   2.850   0.550   0.640  0.2311 -0.8426 -0.4731
 2368WAT     H211278   2.963   0.650   0.652  0.4050 -0.9608 -1.1022
 2368WAT    EPW11279   2.879   0.629   0.663  0.4764 -0.9352 -0.4653
 2369WAT      O11280  10.022   1.202   0.213  0.0168  0.3420  0.3375
 2369WAT     H111281  10.094   1.152   0.252 -0.3587 -1.1503 -0.7562
 2369WAT     H211282   9.978   1.243   0.287 -1.5868 -3.5687  1.8326
 2369WAT    EPW11283  10.026   1.201   0.228 -0.2441 -0.3706  0.3904
 2370WAT      O11284  10.400  10.008   5.867 -0.7256 -0.1430 -0.8351
 2370WAT     H111285  10.479  10.029   5.917  0.5189 -1.4573 -2.1444
 2370WAT     H211286  10.335  10.071   5.897  0.9563  1.3171 -0.0714
 2370WAT    EPW11287  10.402  10.019   5.878 -0.3395 -0.1240 -0.9069
 2371WAT      O11288   7.615   8.485   3.768 -0.2533  0.5014 -0.0516
 2371WAT     H111289   7.690   8.543   3.779  1.3638 -1.2301 -1.3371
 2371WAT     H211290   7.602   8.480   3.673 -1.2896 -0.0830  0.0998
 2371WAT    EPW11291   7.623   8.492   3.757 -0.1764  0.1955 -0.2011
 2372WAT      O11292   0.255   0.628   2.424 -0.1892 -0.1658  0.0097
 2372WAT     H111293   0.179   0.681   2.402  1.7881  2.6646 -0.5651
 2372WAT     H211294   0.243   0.608   2.517 -2.2679 -1.0472 -0.3861
 2372WAT    EPW11295   0.243   0.632   2.433 -0.2026  0.0913 -0.1183
 2373WAT      O11296   5.346   8.886   7.611 -0.9722  0.0772  1.1579
 2373WAT     H111297   5.289   8.955   7.577 -0.4585 -0.3036 -0.5902
 2373WAT     H211298   5.390   8.925   7.686 -2.0692  1.0124  1.3367
 2373WAT    EPW11299   5.344   8.900   7.617 -1.0493  0.1502  0.9508
 2374WAT      O11300   1.905   0.936   2.701  0.0477 -0.0315 -0.0406
 2374WAT     H111301   1.946   0.912   2.784  0.7363  2.9549  0.5853
 2374WAT     H211302   1.976   0.974   2.649 -0.1432 -2.6986 -2.4934
 2374WAT    EPW11303   1.920   0.938   2.705  0.1134  0.0106 -0.2816
 2375WAT      O11304   1.331   4.598   2.108 -0.5242 -0.9676  0.3124
 2375WAT     H111305   1.309   4.660   2.177  0.6811  0.0691 -0.2004
 2375WAT     H211306   1.255   4.602   2.049 -0.1553  0.6122 -0.1025
 2375WAT    EPW11307   1.318   4.607   2.109 -0.3167 -0.6223  0.1899
 2376WAT      O11308   1.184   1.982   4.783  0.2360 -0.9058  0.4086
 2376WAT     H111309   1.114   1.991   4.847 -0.6280  0.0831 -0.6216
 2376WAT     H211310   1.253   2.041   4.814  0.0639 -0.8731  0.7330
 2376WAT    EPW11311   1.184   1.991   4.795  0.0994 -0.7711  0.3154
 2377WAT      O11312   8.580   8.983   4.750  0.2483 -0.1128  0.3720
 2377WAT     H111313   8.611   8.900   4.788  0.5518 -1.1894 -2.0559
 2377WAT     H211314   8.507   8.957   4.693  0.0194  1.3779 -0.0397
 2377WAT    EPW11315   8.574   8.968   4.748  0.2584 -0.0582 -0.0026
 2378WAT      O11316   8.035   4.551   8.039  0.0201  0.6369  0.3931
 2378WAT     H111317   7.976   4.484   8.005  2.2536 -1.2239 -0.1083
 2378WAT     H211318   8.103   4.559   7.972  1.1788  1.5073  1.6126
 2378WAT    EPW11319   8.036   4.543   8.026  0.4668  0.5062  0.4878
 2379WAT      O11320   2.549   1.631   4.257  0.0269  0.2355  0.2138
 2379WAT     H111321   2.516   1.557   4.309 -0.4435  2.4554  3.3636
 2379WAT     H211322   2.492   1.634   4.180 -0.5618 -2.0114  0.4821
 2379WAT    EPW11323   2.537   1.621   4.254 -0.1129  0.2320  0.6647
 2380WAT      O11324   1.935   0.568   1.474 -0.1627 -0.1033 -0.5459
 2380WAT     H111325   1.904   0.515   1.401 -0.2042 -3.9152  1.9467
 2380WAT     H211326   1.861   0.570   1.535  0.2998  1.8155  0.0017
 2380WAT    EPW11327   1.921   0.561   1.472 -0.1072 -0.3530 -0.1449
 2381WAT      O11328   8.702   9.468   2.857  0.2445  0.0965  0.8207
 2381WAT     H111329   8.725   9.403   2.923 -0.6309 -0.3781  0.6749
 2381WAT     H211330   8.759   9.543   2.876 -0.7242  0.3852  2.7755
 2381WAT    EPW11331   8.713   9.469   2.868  0.0010  0.0715  1.0592
 2382WAT      O11332   1.415   1.568   1.142  0.4100 -0.4537 -0.4785
 2382WAT     H111333   1.503   1.584   1.177 -0.5175 -2.7534  3.4642
 2382WAT     H211334   1.358   1.626   1.191 -0.5435 -0.6078 -1.3627
 2382WAT    EPW11335   1.419   1.578   1.153  0.1619 -0.7773 -0.0751
 2383WAT      O11336   1.122   1.426   3.198  0.3855  0.1347 -0.2772
 2383WAT     H111337   1.026   1.431   3.206  0.2157 -0.5306 -1.6104
 2383WAT     H211338   1.137   1.353   3.138  1.9512 -3.0784  3.5605
 2383WAT    EPW11339   1.111   1.417   3.191  0.5697 -0.3768  0.0532
 2384WAT      O11340   0.021   9.128   2.653 -0.1647 -0.3347  0.4171
 2384WAT     H111341   0.003   9.174   2.571 -0.0831  2.0220  1.6390
 2384WAT     H211342  -0.065   9.112   2.691 -0.1331  0.1916  0.7100
 2384WAT    EPW11343   0.007   9.132   2.647 -0.1497  0.0458  0.6168
 2385WAT      O11344   8.547   3.701   7.664 -0.0209 -0.4068  0.4004
 2385WAT     H111345   8.504   3.777   7.704 -2.5146 -1.0523 -0.8688
 2385WAT     H211346   8.549   3.722   7.571  3.0791 -0.1749  0.4004
 2385WAT    EPW11347   8.542   3.714   7.657  0.0591 -0.4615  0.2329
 2386WAT      O11348   2.193   1.548   1.439  0.3345  0.4417  0.1691
 2386WAT     H111349   2.227   1.468   1.399 -1.8481 -0.0606 -0.8411
 2386WAT     H211350   2.182   1.526   1.532  0.6936 -0.0699  0.0948
 2386WAT    EPW11351   2.196   1.535   1.446  0.0939  0.3080  0.0261
 2387WAT      O11352  10.955   1.068   4.013 -1.1158  0.3568  0.1161
 2387WAT     H111353  11.006   1.140   4.049 -0.3022 -0.0024 -0.2741
 2387WAT     H211354  10.883   1.110   3.966 -1.6369  0.8522  1.3187
 2387WAT    EPW11355  10.953   1.083   4.012 -1.0772  0.3747  0.2234
 2388WAT      O11356   1.793   0.365   6.062  0.5011  0.0075  0.5713
 2388WAT     H111357   1.803   0.393   5.971  0.4720  0.5278  0.7233
 2388WAT     H211358   1.852   0.422   6.111 -0.0441  0.2477  0.9669
 2388WAT    EPW11359   1.802   0.376   6.057  0.4253  0.1078  0.6435
 2389WAT      O11360   2.106   0.212   1.163 -0.5821  0.1098  0.3288
 2389WAT     H111361   2.187   0.248   1.199 -0.6022  0.7765 -0.2543
 2389WAT     H211362   2.129   0.124   1.136 -0.8691 -0.8580  2.9835
 2389WAT    EPW11363   2.119   0.205   1.164 -0.6225  0.0701  0.6021
 2390WAT      O11364   2.461   8.908   2.633 -0.1713  0.5384 -0.3893
 2390WAT     H111365   2.494   8.938   2.549  2.1579 -1.9318 -0.4518
 2390WAT     H211366   2.537   8.871   2.678 -1.9064 -0.8297  1.6167
 2390WAT    EPW11367   2.475   8.907   2.628 -0.0930  0.0324 -0.1330
 2391WAT      O11368   5.024   7.963   1.856 -0.3445 -0.1492  1.0692
 2391WAT     H111369   4.943   7.992   1.899 -2.1156 -2.3482 -0.5443
 2391WAT     H211370   5.033   7.871   1.882 -1.3919 -1.5521 -2.8079
 2391WAT    EPW11371   5.014   7.955   1.865 -0.7162 -0.6239  0.3451
 2392WAT      O11372   2.556   0.526   2.219  0.2676 -0.0463  0.7646
 2392WAT     H111373   2.629   0.537   2.280  1.2266  2.2661 -0.6284
 2392WAT     H211374   2.493   0.593   2.245 -0.6575 -0.9870  0.9867
 2392WAT    EPW11375   2.557   0.536   2.230  0.2722  0.1346  0.6102
 2393WAT      O11376  10.557   9.709   6.324  0.7375 -0.6728 -0.6124
 2393WAT     H111377  10.651   9.693   6.337  0.6346  0.0167  1.4585
 2393WAT     H211378  10.553   9.798   6.289  0.8675 -0.3031  0.2599
 2393WAT    EPW11379  10.569   9.719   6.321  0.7410 -0.5336 -0.2241
 2394WAT      O11380   1.193   0.786   2.067 -0.3005  0.0159  0.6887
 2394WAT     H111381   1.204   0.878   2.045  2.4429 -0.3009  0.3849
 2394WAT     H211382   1.114   0.783   2.122  0.4180  2.7669  2.0146
 2394WAT    EPW11383   1.184   0.798   2.071  0.1561  0.3370  0.8235
 2395WAT      O11384  10.749   8.267   0.931  0.2269  0.0285  0.4718
 2395WAT     H111385  10.835   8.259   0.973  1.1425 -0.3733 -1.4007
 2395WAT     H211386  10.728   8.179   0.901 -0.8655  0.1248  0.8905
 2395WAT    EPW11387  10.757   8.254   0.933  0.2031 -0.0114  0.2801
 2396WAT      O11388   9.314   7.497   1.811  0.3850  0.1583  0.6674
 2396WAT     H111389   9.293   7.581   1.851  0.0371  0.0053  0.8132
 2396WAT     H211390   9.400   7.474   1.847  0.4270  0.3921  0.7190
 2396WAT    EPW11391   9.323   7.505   1.821  0.3448  0.1688  0.6934
 2397WAT      O11392   0.770   3.554   4.923  0.0123  0.7153  0.2846
 2397WAT     H111393   0.741   3.643   4.906 -3.2241 -0.4468 -1.0132
 2397WAT     H211394   0.759   3.542   5.017 -1.6862  1.0674  0.1544
 2397WAT    EPW11395   0.765   3.564   4.933 -0.6385  0.6086  0.0966
 2398WAT      O11396   4.563   2.558   2.907 -0.3300  0.4005  0.1707
 2398WAT     H111397   4.477   2.599   2.897 -1.4407 -1.2892  2.0908
 2398WAT     H211398   4.571   2.541   3.001  0.3760 -2.9260 -0.3738
 2398WAT    EPW11399   4.552   2.561   2.918 -0.3834 -0.2612  0.3520
 2399WAT      O11400   9.057   9.890   4.455 -0.4216 -0.3644  0.2268
 2399WAT     H111401   9.044   9.982   4.476 -0.5273 -0.4906  0.7401
 2399WAT     H211402   9.130   9.889   4.394 -0.0934  0.0162  0.6122
 2399WAT    EPW11403   9.065   9.902   4.450 -0.3920 -0.3314  0.3452
 2400WAT      O11404   8.515   7.717   1.189  0.0328  0.1180 -0.3488
 2400WAT     H111405   8.560   7.657   1.130 -0.6566 -0.6824 -0.0768
 2400WAT     H211406   8.585   7.771   1.227  0.4575  0.9347 -2.1738
 2400WAT    EPW11407   8.530   7.717   1.187 -0.0019  0.1204 -0.5536
 2401WAT      O11408   1.293   1.956   0.731 -0.1799  0.2622  0.4112
 2401WAT     H111409   1.198   1.947   0.729 -0.1370 -0.6031  1.3854
 2401WAT     H211410   1.322   1.892   0.796  1.3502 -1.7968 -2.1021
 2401WAT    EPW11411   1.284   1.946   0.739  0.0276 -0.1235  0.2082
 2402WAT      O11412   2.139   1.429   2.083 -0.4228  0.6685 -0.7415
 2402WAT     H111413   2.206   1.360   2.081 -0.2672  0.8349 -1.3032
 2402WAT     H211414   2.098   1.419   2.169  1.5724  1.7259  0.4126
 2402WAT    EPW11415   2.143   1.418   2.094 -0.1392  0.8299 -0.6633
 2403WAT      O11416   9.586   9.059   4.579 -0.1684  0.4666 -0.1369
 2403WAT     H111417   9.647   9.005   4.528  0.6580  2.6141 -1.5391
 2403WAT     H211418   9.535   9.107   4.514 -0.9383  1.3439  1.0551
 2403WAT    EPW11419   9.587   9.058   4.564 -0.1607  0.8655 -0.1647
 2404WAT      O11420   3.508  10.301   5.305  0.4043  0.0411 -0.3636
 2404WAT     H111421   3.432  10.285   5.360 -0.6826  2.4978 -1.0502
 2404WAT     H211422   3.582  10.296   5.365 -0.3424 -1.3878  0.4990
 2404WAT    EPW11423   3.508  10.298   5.320  0.1626  0.1764 -0.3405
 2405WAT      O11424   2.387   3.208   2.192  0.2239  0.1230 -0.3190
 2405WAT     H111425   2.385   3.232   2.100 -1.8049 -0.2083 -0.4070
 2405WAT     H211426   2.379   3.291   2.239  2.1784  0.3913 -0.3613
 2405WAT    EPW11427   2.386   3.222   2.186  0.2142  0.1147 -0.3362
 2406WAT      O11428   2.134   2.737   2.111  0.1892  0.2435 -0.3001
 2406WAT     H111429   2.124   2.642   2.104  1.1355  0.2589 -2.1895
 2406WAT     H211430   2.195   2.749   2.185  2.1488 -0.7829 -1.6641
 2406WAT    EPW11431   2.141   2.726   2.120  0.5724  0.1103 -0.7292
 2407WAT      O11432   8.317   9.063   5.344 -0.1525 -0.1801 -0.0855
 2407WAT     H111433   8.342   9.063   5.437 -2.5009 -1.0230  0.6118
 2407WAT     H211434   8.325   9.155   5.317  0.1633  0.1440  1.0623
 2407WAT    EPW11435   8.321   9.075   5.353 -0.4210 -0.2484  0.1581
 2408WAT      O11436   3.998   0.576   0.533  0.5626  0.2005 -0.2435
 2408WAT     H111437   3.902   0.576   0.536  0.3938 -3.8607  1.9910
 2408WAT     H211438   4.025   0.624   0.611  0.5098  2.4715 -1.5418
 2408WAT    EPW11439   3.989   0.582   0.544  0.5335 -0.0356 -0.1200
 2409WAT      O11440   5.934   4.747   8.795 -0.8453  0.3485  0.2394
 2409WAT     H111441   5.996   4.818   8.783 -0.2640 -0.2071 -0.0809
 2409WAT     H211442   5.848   4.787   8.784 -0.4970  0.4791 -2.8865
 2409WAT    EPW11443   5.931   4.761   8.792 -0.7224  0.2923 -0.2155
 2410WAT      O11444   8.189   7.910   4.890 -0.2569  0.1304  0.4440
 2410WAT     H111445   8.165   7.986   4.943  0.4163  0.3882  0.3844
 2410WAT     H211446   8.106   7.864   4.876 -0.7707  1.1399  0.0309
 2410WAT    EPW11447   8.175   7.914   4.895 -0.2356  0.2973  0.3817
 2411WAT      O11448   9.672   9.918   1.390  0.2168  0.7367  0.4472
 2411WAT     H111449   9.727   9.993   1.368 -0.9099  1.5747  0.4013
 2411WAT     H211450   9.597   9.956   1.434 -1.4971 -0.1073 -1.5952
 2411WAT    EPW11451   9.670   9.933   1.393 -0.1583  0.7362  0.1717
 2412WAT      O11452   2.847   5.507   7.683 -1.0022  0.5362 -0.7050
 2412WAT     H111453   2.897   5.435   7.722 -0.6209 -0.7558 -3.3549
 2412WAT     H211454   2.834   5.569   7.755  0.2438 -1.3163  1.2361
 2412WAT    EPW11455   2.852   5.506   7.698 -0.7876  0.1214 -0.7985
 2413WAT      O11456   2.008   0.435   2.581  0.0287 -0.0896 -0.2081
 2413WAT     H111457   1.930   0.404   2.534  0.3294  1.4521 -1.8264
 2413WAT     H211458   1.984   0.523   2.610  1.3016  0.5914 -1.1355
 2413WAT    EPW11459   1.994   0.442   2.579  0.2363  0.2036 -0.5440
 2414WAT      O11460   3.407   0.772   4.863 -0.6017  0.3934 -0.0149
 2414WAT     H111461   3.329   0.820   4.836 -0.1907 -0.0785 -2.2564
 2414WAT     H211462   3.417   0.792   4.956 -2.7299  1.3599  0.0542
 2414WAT    EPW11463   3.398   0.781   4.871 -0.8283  0.4586 -0.3014
 2415WAT      O11464  10.504   9.599   4.080  0.4717  0.3899 -0.4375
 2415WAT     H111465  10.477   9.666   4.017 -1.1631  0.0694 -0.1353
 2415WAT     H211466  10.565   9.643   4.138 -0.7312  1.7149 -0.1093
 2415WAT    EPW11467  10.508   9.614   4.079  0.0973  0.5221 -0.3545
 2416WAT      O11468  10.423   0.998   0.215  0.3278  0.2830 -0.0592
 2416WAT     H111469  10.396   1.002   0.124 -2.1636 -2.5661  0.4100
 2416WAT     H211470  10.510   0.959   0.213  0.1676 -0.0391 -1.2308
 2416WAT    EPW11471  10.431   0.993   0.203 -0.0215 -0.1352 -0.1518
 2417WAT      O11472   0.925   0.678   2.459  0.8124  0.2271  0.2720
 2417WAT     H111473   0.934   0.737   2.534 -0.5624  1.9202 -0.8136
 2417WAT     H211474   0.832   0.659   2.454  0.7122  0.9858 -1.5712
 2417WAT    EPW11475   0.914   0.684   2.468  0.6178  0.5504 -0.1142
 2418WAT      O11476   8.170   7.012   4.325  0.0807  0.3597  0.1854
 2418WAT     H111477   8.097   6.965   4.363  0.3584  0.9319  1.5123
 2418WAT     H211478   8.138   7.102   4.315  0.2624  0.3813 -0.2403
 2418WAT    EPW11479   8.157   7.018   4.329  0.1416  0.4377  0.3042
 2419WAT      O11480   0.724   0.144   2.771 -0.1515  0.1230 -0.3175
 2419WAT     H111481   0.749   0.225   2.815 -1.2862  0.8709 -1.0135
 2419WAT     H211482   0.749   0.157   2.679 -1.0275 -0.0080 -0.5812
 2419WAT    EPW11483   0.731   0.156   2.765 -0.4167  0.2044 -0.4442
 2420WAT      O11484   8.301   8.732   1.973  0.3390  0.1161 -0.4557
 2420WAT     H111485   8.347   8.659   1.931  3.3812  1.7349 -0.2002
 2420WAT     H211486   8.212   8.700   1.985  1.0477 -2.8340 -2.0675
 2420WAT    EPW11487   8.296   8.718   1.969  0.8335 -0.0591 -0.6346
 2421WAT      O11488   1.554   2.350   2.644 -0.0100 -0.4163  0.3204
 2421WAT     H111489   1.497   2.290   2.692  1.8583 -0.7513  2.2209
 2421WAT     H211490   1.641   2.337   2.682  1.4745 -0.1980 -2.7325
 2421WAT    EPW11491   1.558   2.341   2.655  0.4322 -0.4315  0.1683
 2422WAT      O11492   8.208   5.246   8.981  0.2503 -0.0053 -0.0077
 2422WAT     H111493   8.259   5.168   8.960 -0.0171  0.3982 -2.4657
 2422WAT     H211494   8.136   5.215   9.035  0.0920 -1.4979 -1.0313
 2422WAT    EPW11495   8.205   5.232   8.985  0.1938 -0.1489 -0.4669
 2423WAT      O11496  10.660  10.172   3.492 -0.0861 -0.5789  0.0425
 2423WAT     H111497  10.619  10.256   3.470 -4.7045 -2.5982 -0.2287
 2423WAT     H211498  10.643  10.117   3.416  3.7024 -1.6520 -0.1979
 2423WAT    EPW11499  10.652  10.176   3.479 -0.1955 -0.9861 -0.0250
 2424WAT      O11500   9.198   8.636   8.563 -0.4938  0.6823 -0.4644
 2424WAT     H111501   9.173   8.544   8.574  0.9932  0.1268 -1.4287
 2424WAT     H211502   9.256   8.654   8.637 -0.2258  0.6275 -0.6591
 2424WAT    EPW11503   9.202   8.626   8.574 -0.2623  0.6018 -0.6170
 2425WAT      O11504   7.657   7.034   7.103  0.0644  0.2950 -0.3404
 2425WAT     H111505   7.689   7.123   7.118 -2.5520  1.3820 -0.7418
 2425WAT     H211506   7.620   7.037   7.015 -5.0963  0.5550  1.5246
 2425WAT    EPW11507   7.656   7.046   7.093 -0.9613  0.4728 -0.1471
 2426WAT      O11508  10.797   9.491   1.511 -0.1817  0.7123 -0.5165
 2426WAT     H111509  10.708   9.491   1.475 -0.3153 -1.5613 -0.3400
 2426WAT     H211510  10.785   9.463   1.602  0.6443  1.4265 -0.1716
 2426WAT    EPW11511  10.784   9.487   1.518 -0.0901  0.5069 -0.4477
 2427WAT      O11512   1.310   9.234   0.129 -0.9372  0.5808 -0.3954
 2427WAT     H111513   1.338   9.193   0.048 -1.7946 -0.5494 -0.1472
 2427WAT     H211514   1.237   9.290   0.104 -2.1568 -0.8795 -0.2283
 2427WAT    EPW11515   1.304   9.236   0.115 -1.2111  0.2389 -0.3406
 2428WAT      O11516   1.630   9.172   0.033 -0.1964  0.0196  0.1394
 2428WAT     H111517   1.701   9.156  -0.028  1.1748 -0.7981  1.8633
 2428WAT     H211518   1.588   9.252   0.001 -1.1160 -1.6423 -3.2301
 2428WAT    EPW11519   1.634   9.181   0.021 -0.1373 -0.3076 -0.0777
 2429WAT      O11520   1.642   1.608   0.240  1.1043 -0.0450  0.0679
 2429WAT     H111521   1.629   1.530   0.186 -2.0508  0.1090  0.4387
 2429WAT     H211522   1.662   1.678   0.178  2.8433 -0.8519 -0.3538
 2429WAT    EPW11523   1.643   1.607   0.225  0.9175 -0.1311  0.0612
 2430WAT      O11524   2.046   1.518   3.433  0.1441 -0.5662  0.3668
 2430WAT     H111525   2.071   1.454   3.366  0.0153  0.2518 -0.4915
 2430WAT     H211526   1.957   1.543   3.409  0.2274  0.0003  0.6346
 2430WAT    EPW11527   2.038   1.513   3.421  0.1382 -0.3836  0.2888
 2431WAT      O11528   3.297   0.633   2.817 -0.5330 -0.0169 -0.3113
 2431WAT     H111529   3.320   0.554   2.769  0.1616  1.2180 -2.1123
 2431WAT     H211530   3.241   0.682   2.757  0.2636  1.5388  0.1723
 2431WAT    EPW11531   3.293   0.629   2.803 -0.3363  0.3512 -0.4852
 2432WAT      O11532  10.845   7.965   3.795 -0.1056 -0.9205 -0.6870
 2432WAT     H111533  10.843   7.947   3.889  1.7433 -2.2847 -0.8563
 2432WAT     H211534  10.791   7.896   3.756 -0.8906 -0.3412 -0.6354
 2432WAT    EPW11535  10.838   7.953   3.803  0.0348 -1.0240 -0.7025
 2433WAT      O11536   1.245   0.472   2.902 -0.3418  0.2619 -0.9168
 2433WAT     H111537   1.263   0.566   2.908  3.1509 -0.3466 -0.2112
 2433WAT     H211538   1.195   0.463   2.821  1.9105  2.4610 -2.7062
 2433WAT    EPW11539   1.241   0.483   2.892  0.4160  0.4717 -1.0598
 2434WAT      O11540   0.219   9.893   1.785 -0.5525  0.0554 -0.0304
 2434WAT     H111541   0.216   9.874   1.691  2.1135 -0.7835 -0.0205
 2434WAT     H211542   0.285   9.833   1.820 -1.1492  0.6569  2.3256
 2434WAT    EPW11543   0.227   9.882   1.777 -0.2796  0.0238  0.2816
 2435WAT      O11544   1.319   5.372   4.110  0.3093 -0.6288  0.2290
 2435WAT     H111545   1.308   5.447   4.052 -0.6890 -0.9596 -0.0201
 2435WAT     H211546   1.409   5.343   4.094  0.4883  0.1024 -0.1511
 2435WAT    EPW11547   1.330   5.378   4.101  0.2012 -0.5763  0.1462
 2436WAT      O11548  10.299  10.156   3.397 -0.4797  0.8054  0.5247
 2436WAT     H111549  10.270  10.065   3.393  2.9876 -0.5284  1.5298
 2436WAT     H211550  10.363  10.163   3.326 -1.5699  2.8906 -0.3216
 2436WAT    EPW11551  10.304  10.145   3.387 -0.1669  0.9046  0.5456
 2437WAT      O11552   2.673   1.342   1.928 -0.1705 -0.1015 -0.3582
 2437WAT     H111553   2.680   1.427   1.972 -0.0955  0.2040 -0.9522
 2437WAT     H211554   2.741   1.344   1.860 -2.2567  0.7119 -2.5790
 2437WAT    EPW11555   2.683   1.354   1.925 -0.4358  0.0461 -0.7294
 2438WAT      O11556   2.006   8.867   1.045  0.5007 -0.3793  0.2860
 2438WAT     H111557   1.968   8.823   1.121  1.3472  0.3585  1.1710
 2438WAT     H211558   1.935   8.869   0.980 -1.7300  2.6219  2.5202
 2438WAT    EPW11559   1.991   8.862   1.046  0.3182  0.1135  0.6974
 2439WAT      O11560   9.963   6.669   0.989 -0.3055  0.0792 -0.0358
 2439WAT     H111561  10.042   6.716   1.018  0.0058  0.5777 -1.6139
 2439WAT     H211562   9.986   6.577   1.000 -0.1893  0.2371  1.2209
 2439WAT    EPW11563   9.977   6.663   0.994 -0.2489  0.1657 -0.0782
 2440WAT      O11564   5.556   2.185   3.877 -0.1955  0.0938  0.5087
 2440WAT     H111565   5.603   2.208   3.797  1.4206 -0.0657  1.3766
 2440WAT     H211566   5.557   2.265   3.930 -0.0824 -0.1790  0.9256
 2440WAT    EPW11567   5.562   2.198   3.873  0.0327  0.0370  0.6783
 2441WAT      O11568   0.334   4.744   1.734 -0.5967 -0.3104  0.0587
 2441WAT     H111569   0.288   4.666   1.765 -1.9675  0.3711 -0.1706
 2441WAT     H211570   0.282   4.775   1.660 -0.0131  0.7634  0.0737
 2441WAT    EPW11571   0.321   4.738   1.728 -0.7005 -0.0787  0.0304
 2442WAT      O11572  10.033   0.531   0.665  0.2193  0.7962  0.5577
 2442WAT     H111573  10.080   0.605   0.703  2.7115 -1.2066  1.6624
 2442WAT     H211574   9.983   0.494   0.738 -0.3468  0.8909  0.2213
 2442WAT    EPW11575  10.032   0.536   0.680  0.4735  0.5446  0.6590
 2443WAT      O11576   1.660   2.182   1.197  0.1157 -0.2905  0.4014
 2443WAT     H111577   1.726   2.128   1.241  0.8801  1.0435  0.9523
 2443WAT     H211578   1.681   2.174   1.104  0.8045 -0.2227  0.5425
 2443WAT    EPW11579   1.672   2.174   1.190  0.3074 -0.1057  0.4928
 2444WAT      O11580   5.333   0.533   3.309  0.6314 -0.3426  0.5579
 2444WAT     H111581   5.283   0.614   3.322  0.8121 -0.2880  0.9271
 2444WAT     H211582   5.421   0.554   3.340  1.1360 -0.1623 -0.9049
 2444WAT    EPW11583   5.338   0.547   3.315  0.7219 -0.3116  0.4137
 2445WAT      O11584   4.707   2.625   0.275 -0.9124 -0.8713 -0.5162
 2445WAT     H111585   4.770   2.580   0.218 -0.7218  0.0772 -1.0767
 2445WAT     H211586   4.758   2.652   0.351 -0.3877  0.6762 -1.3651
 2445WAT    EPW11587   4.722   2.623   0.277 -0.8180 -0.5422 -0.7021
 2446WAT      O11588   3.184   5.188   3.672 -0.1890 -0.3323 -0.4705
 2446WAT     H111589   3.211   5.127   3.741  0.4272 -2.9822 -2.8217
 2446WAT     H211590   3.093   5.164   3.654 -1.1930  2.0669  1.0137
 2446WAT    EPW11591   3.175   5.177   3.679 -0.2402 -0.3653 -0.5848
 2447WAT      O11592   4.421   1.121   3.257 -0.6120 -1.1375  0.5925
 2447WAT     H111593   4.470   1.184   3.310 -0.8030 -1.2332  0.8848
 2447WAT     H211594   4.482   1.048   3.243 -0.3706 -0.8646  0.2068
 2447WAT    EPW11595   4.435   1.120   3.262 -0.6053 -1.1141  0.5802
 2448WAT      O11596   3.398   1.115   2.251  0.3234  0.1767 -0.5777
 2448WAT     H111597   3.309   1.103   2.218  1.0466 -2.6046 -1.8139
 2448WAT     H211598   3.418   1.207   2.233 -1.4625  0.2722 -2.4805
 2448WAT    EPW11599   3.389   1.126   2.244  0.1832 -0.1776 -0.9917
 2449WAT      O11600   2.893   1.362   0.995  0.2899  0.4000 -0.1499
 2449WAT     H111601   2.893   1.366   0.900 -1.1431  0.9576 -0.1483
 2449WAT     H211602   2.935   1.278   1.016 -1.5956 -0.9330 -1.3556
 2449WAT    EPW11603   2.898   1.351   0.985 -0.1476  0.2977 -0.3088
 2450WAT      O11604   2.504   2.111   1.590  0.0393  0.4646  0.1818
 2450WAT     H111605   2.476   2.193   1.631 -2.0900  0.9147 -1.9946
 2450WAT     H211606   2.436   2.091   1.526  2.2160 -1.2100 -1.7791
 2450WAT    EPW11607   2.491   2.119   1.587  0.0457  0.3030 -0.3638
 2451WAT      O11608   2.095   0.797   1.087 -0.3042  0.2828  0.8789
 2451WAT     H111609   2.048   0.822   1.007 -2.5072  1.1055  2.3416
 2451WAT     H211610   2.035   0.738   1.132  1.9618 -2.2951  0.7989
 2451WAT    EPW11611   2.081   0.792   1.082 -0.2960  0.0513  1.0613
 2452WAT      O11612   0.738   9.723   3.358  0.7934 -0.1577 -0.1608
 2452WAT     H111613   0.695   9.764   3.433 -0.8411 -2.1151  0.0276
 2452WAT     H211614   0.825   9.764   3.356  0.6030  0.5310  2.3007
 2452WAT    EPW11615   0.744   9.734   3.368  0.5527 -0.3247  0.1888
 2453WAT      O11616   1.928   5.876   1.762  0.0159  0.0549  0.4767
 2453WAT     H111617   1.984   5.807   1.727  1.0685  0.7447  0.7418
 2453WAT     H211618   1.941   5.950   1.703  0.2416  0.5723  1.1584
 2453WAT    EPW11619   1.937   5.877   1.750  0.1845  0.2141  0.6015
 2454WAT      O11620   0.796   8.116   2.520  0.1545 -0.3076  0.4030
 2454WAT     H111621   0.812   8.193   2.465  1.1702 -0.1308  0.9258
 2454WAT     H211622   0.813   8.041   2.462  2.6136 -0.1404  0.7720
 2454WAT    EPW11623   0.801   8.116   2.505  0.6128 -0.2623  0.5209
 2455WAT      O11624   1.556   0.429   0.930 -0.0103  0.4005 -0.2670
 2455WAT     H111625   1.588   0.362   0.868  1.7008 -0.0016  0.9648
 2455WAT     H211626   1.567   0.389   1.016  1.4508  2.3823  0.5409
 2455WAT    EPW11627   1.562   0.415   0.933  0.4081  0.6088  0.0020
 2456WAT      O11628   3.716   4.491   1.250  0.0566 -0.3155 -0.2213
 2456WAT     H111629   3.634   4.541   1.251  1.3264  1.9442 -1.4840
 2456WAT     H211630   3.748   4.496   1.340 -0.5933 -0.1704  0.0093
 2456WAT    EPW11631   3.709   4.498   1.262  0.1384  0.0017 -0.3574
 2457WAT      O11632   4.501   1.607   3.638 -0.3668 -0.8867 -0.1972
 2457WAT     H111633   4.472   1.656   3.561  1.2862  0.2727 -0.1412
 2457WAT     H211634   4.584   1.649   3.663 -1.3341 -0.5083  2.8332
 2457WAT    EPW11635   4.508   1.619   3.631 -0.2766 -0.6839  0.2100
 2458WAT      O11636   1.567   7.748   0.084 -0.4153 -0.3805  0.3965
 2458WAT     H111637   1.630   7.676   0.087 -0.7303 -0.6737  0.1063
 2458WAT     H211638   1.505   7.722   0.016 -0.5640  0.1407  0.3283
 2458WAT    EPW11639   1.567   7.735   0.075 -0.4765 -0.3505  0.3493
 2459WAT      O11640   2.409   0.238   3.490  0.0697 -0.4202  0.0538
 2459WAT     H111641   2.429   0.168   3.551  1.3848 -1.1674 -1.1828
 2459WAT     H211642   2.492   0.283   3.476 -0.5480  0.7646  0.0463
 2459WAT    EPW11643   2.422   0.235   3.496  0.1618 -0.3625 -0.1103
 2460WAT      O11644   8.612   7.017   8.883 -0.1008 -0.3564 -0.3579
 2460WAT     H111645   8.539   6.988   8.938  1.0004  1.0743  2.0446
 2460WAT     H211646   8.636   7.102   8.920  1.7028 -0.0176 -2.1772
 2460WAT    EPW11647   8.605   7.025   8.895  0.2823 -0.1233 -0.2804
 2461WAT      O11648   2.366   4.484   1.684 -0.0265  0.0856  0.3768
 2461WAT     H111649   2.309   4.518   1.752 -1.1802 -1.1387  0.0772
 2461WAT     H211650   2.368   4.389   1.700 -0.8926 -0.3302 -1.6622
 2461WAT    EPW11651   2.359   4.476   1.695 -0.2930 -0.1307  0.0683
 2462WAT      O11652   0.564   5.749   2.067  0.2977  0.2156 -0.2527
 2462WAT     H111653   0.570   5.707   2.153 -1.8910 -0.1582 -0.2258
 2462WAT     H211654   0.580   5.678   2.005 -0.9261 -0.1523 -0.1695
 2462WAT    EPW11655   0.567   5.734   2.070 -0.1524  0.1180 -0.2383
 2463WAT      O11656   3.255   2.658   3.586  0.4402  0.0205 -0.0785
 2463WAT     H111657   3.198   2.585   3.609 -1.8657  1.2213 -1.6804
 2463WAT     H211658   3.237   2.724   3.653  2.5794 -0.7745  1.4130
 2463WAT    EPW11659   3.245   2.657   3.598  0.4183  0.0741 -0.0931
 2464WAT      O11660   0.709   9.905   2.524 -0.2444  0.1989 -0.3607
 2464WAT     H111661   0.725   9.995   2.493  0.9826  0.1439  0.0761
 2464WAT     H211662   0.618   9.907   2.554 -0.3540  1.1987 -0.7000
 2464WAT    EPW11663   0.699   9.917   2.524 -0.0970  0.3238 -0.3479
 2465WAT      O11664   5.105   2.522   5.757 -0.2686 -0.0987 -0.0789
 2465WAT     H111665   5.182   2.570   5.788 -1.1578 -0.7207  3.5774
 2465WAT     H211666   5.032   2.556   5.810 -1.9618 -1.5959 -1.3086
 2465WAT    EPW11667   5.105   2.533   5.768 -0.6092 -0.3783  0.2408
 2466WAT      O11668   5.374   1.673   2.308 -0.9916  0.1586 -0.3380
 2466WAT     H111669   5.431   1.640   2.377 -0.6240 -0.0501 -0.7302
 2466WAT     H211670   5.304   1.609   2.302  1.0025 -2.0292 -2.7769
 2466WAT    EPW11671   5.373   1.660   2.316 -0.6802 -0.1575 -0.7114
 2467WAT      O11672   7.859  10.213   2.530 -0.0362 -0.6666  0.4627
 2467WAT     H111673   7.780  10.245   2.485  0.0666  0.5513  1.1039
 2467WAT     H211674   7.840  10.225   2.623  0.2668 -1.9409  0.7032
 2467WAT    EPW11675   7.846  10.219   2.536  0.0174 -0.6742  0.5789
 2468WAT      O11676   1.245   2.769   0.915  0.5472  0.1019 -0.1312
 2468WAT     H111677   1.283   2.696   0.867  0.4698  0.1569 -0.2770
 2468WAT     H211678   1.287   2.846   0.878  1.9845  0.0335  1.2694
 2468WAT    EPW11679   1.255   2.769   0.904  0.7266  0.1001  0.0343
 2469WAT      O11680   5.338   9.001   5.841  0.8286  0.5410  0.6266
 2469WAT     H111681   5.404   9.002   5.910  0.7060 -2.7611  0.9507
 2469WAT     H211682   5.293   8.917   5.852 -1.6475  1.4933 -1.2575
 2469WAT    EPW11683   5.341   8.990   5.852  0.4859  0.2313  0.4208
 2470WAT      O11684   0.453   2.382   4.277  0.3533 -0.3759  0.0323
 2470WAT     H111685   0.377   2.406   4.330  1.4282  1.3292  0.8956
 2470WAT     H211686   0.513   2.339   4.338  0.3134 -1.2441 -0.5225
 2470WAT    EPW11687   0.451   2.380   4.292  0.4898 -0.2655  0.0730
 2471WAT      O11688   8.233   7.087   7.856  0.0921  0.3469 -0.6976
 2471WAT     H111689   8.223   7.175   7.819  2.7529 -0.1205 -2.8660
 2471WAT     H211690   8.311   7.092   7.910 -0.3981 -0.4460  0.1219
 2471WAT    EPW11691   8.242   7.099   7.858  0.3781  0.1805 -0.8752
 2472WAT      O11692   7.369   5.148   8.708  0.1711  0.4237  0.4060
 2472WAT     H111693   7.391   5.198   8.786  0.4824  0.5521  0.2409
 2472WAT     H211694   7.384   5.210   8.636  0.8879 -0.0021  0.1734
 2472WAT    EPW11695   7.374   5.163   8.709  0.3068  0.3843  0.3529
 2473WAT      O11696   0.640   0.787   5.327 -0.2022 -0.5106  0.5598
 2473WAT     H111697   0.617   0.805   5.418 -2.1461 -0.1244  0.0215
 2473WAT     H211698   0.612   0.865   5.279  0.4663 -0.8605 -0.4356
 2473WAT    EPW11699   0.634   0.799   5.333 -0.3704 -0.5058  0.3574
 2474WAT      O11700   6.982   1.405   1.700  0.0671 -0.3648 -0.1350
 2474WAT     H111701   6.985   1.309   1.700 -0.6356 -0.4655 -2.5147
 2474WAT     H211702   7.074   1.431   1.708  0.3116 -1.2525  0.0975
 2474WAT    EPW11703   6.995   1.396   1.701  0.0064 -0.4951 -0.4182
 2475WAT      O11704   3.342   8.796   2.525 -0.1712 -0.6191 -0.2338
 2475WAT     H111705   3.329   8.722   2.584  0.0228  0.3609  1.0742
 2475WAT     H211706   3.428   8.780   2.486 -0.9235 -2.0352 -1.4347
 2475WAT    EPW11707   3.351   8.784   2.527 -0.2447 -0.6766 -0.2197
 2476WAT      O11708   4.048   2.566   1.424 -0.1117 -0.1320  0.4013
 2476WAT     H111709   4.034   2.653   1.386 -0.2794 -0.0328  0.6874
 2476WAT     H211710   3.962   2.539   1.456 -0.3832 -1.0473 -1.0101
 2476WAT    EPW11711   4.035   2.574   1.423 -0.1695 -0.2396  0.2528
 2477WAT      O11712  10.196   8.254   0.181 -0.5245 -0.3019  0.7903
 2477WAT     H111713  10.142   8.241   0.258 -1.0812  0.6833  0.5848
 2477WAT     H211714  10.143   8.310   0.123  0.6570  0.6131  0.5498
 2477WAT    EPW11715  10.182   8.260   0.183 -0.4420 -0.0505  0.7315
 2478WAT      O11716   9.841   9.807   0.653 -0.1033 -0.2242 -0.4287
 2478WAT     H111717   9.856   9.772   0.740  0.3698  0.0068 -0.4162
 2478WAT     H211718   9.747   9.822   0.649 -0.1687 -0.5423 -0.0754
 2478WAT    EPW11719   9.831   9.804   0.664 -0.0496 -0.2356 -0.3804
 2479WAT      O11720   2.010   4.272   2.653  0.2890 -0.9964 -0.3583
 2479WAT     H111721   1.985   4.337   2.719  0.3601  1.4901 -2.5925
 2479WAT     H211722   1.964   4.193   2.678 -0.3316  0.0743  2.1757
 2479WAT    EPW11723   2.001   4.270   2.665  0.2164 -0.5271 -0.3186
 2480WAT      O11724   6.966   2.742   3.263  0.5715 -0.2429  0.1149
 2480WAT     H111725   7.025   2.742   3.338 -0.6589  0.2900  1.1036
 2480WAT     H211726   6.882   2.712   3.297  0.8495 -3.8292 -1.8440
 2480WAT    EPW11727   6.963   2.738   3.277  0.4458 -0.6455 -0.0129
 2481WAT      O11728   3.258   7.707   0.381  0.1965 -0.1649 -0.3016
 2481WAT     H111729   3.212   7.660   0.450  2.2713 -2.0420 -0.0719
 2481WAT     H211730   3.310   7.640   0.337 -0.5003  1.0907 -3.2910
 2481WAT    EPW11731   3.259   7.692   0.384  0.3783 -0.2470 -0.6656
 2482WAT      O11732   0.979   6.422   2.737 -0.3897 -0.3873  0.2472
 2482WAT     H111733   1.020   6.479   2.802 -0.3023  0.0468 -0.1828
 2482WAT     H211734   1.024   6.444   2.655 -1.4145  0.0303 -0.2117
 2482WAT    EPW11735   0.991   6.433   2.735 -0.5133 -0.2749  0.1299
 2483WAT      O11736   4.365   9.760   7.808  0.3877  0.4190  0.6081
 2483WAT     H111737   4.419   9.693   7.849 -0.4062 -0.1313  0.7959
 2483WAT     H211738   4.360   9.735   7.716 -1.5106 -0.9599  1.0100
 2483WAT    EPW11739   4.371   9.748   7.802  0.0327  0.1645  0.6859
 2484WAT      O11740   2.541   3.210   5.072  0.1381  0.0625  1.4441
 2484WAT     H111741   2.589   3.205   4.989  0.9328 -1.4932  1.9725
 2484WAT     H211742   2.450   3.221   5.045  0.4595  0.2816  0.3833
 2484WAT    EPW11743   2.535   3.211   5.057  0.2853 -0.1136  1.3738
 2485WAT      O11744   2.667   3.618   0.869 -0.2092 -0.4629  0.4707
 2485WAT     H111745   2.611   3.656   0.937  0.6573 -0.8908  1.4573
 2485WAT     H211746   2.751   3.662   0.881  0.0976 -0.9197  0.0237
 2485WAT    EPW11747   2.671   3.629   0.880 -0.0544 -0.5796  0.5418
 2486WAT      O11748   2.624   1.823   1.171  0.2236 -0.0465  0.2623
 2486WAT     H111749   2.638   1.822   1.077 -1.1429  0.6576  0.0216
 2486WAT     H211750   2.646   1.734   1.200  2.5206  0.2505 -0.3830
 2486WAT    EPW11751   2.629   1.811   1.163  0.3463  0.0855  0.1454
 2487WAT      O11752   5.521   9.433   8.344  0.6146 -0.6960  0.0727
 2487WAT     H111753   5.542   9.514   8.390 -1.1595 -0.5267  0.6792
 2487WAT     H211754   5.570   9.438   8.262  2.2957 -0.0766  1.0565
 2487WAT    EPW11755   5.530   9.444   8.340  0.6022 -0.5922  0.2832
 2488WAT      O11756   6.780   8.383   3.740  0.8021  0.3033 -0.1430
 2488WAT     H111757   6.748   8.360   3.827  1.5460 -1.8834 -0.3779
 2488WAT     H211758   6.710   8.436   3.702  0.0257  0.4571  1.4111
 2488WAT    EPW11759   6.767   8.387   3.746  0.7975  0.0348  0.0310
 2489WAT      O11760   5.190   5.125   1.995  0.5093 -0.6872 -0.4653
 2489WAT     H111761   5.184   5.140   1.900  1.7425 -1.1936 -0.6385
 2489WAT     H211762   5.101   5.138   2.026  0.2572  0.3828 -1.5609
 2489WAT    EPW11763   5.177   5.129   1.986  0.6385 -0.6130 -0.6326
 2490WAT      O11764   4.450   1.216   1.650 -0.0471 -0.6410  0.0155
 2490WAT     H111765   4.490   1.129   1.640 -0.5874 -0.8943  0.0319
 2490WAT     H211766   4.521   1.277   1.632  0.8756 -1.0634  1.9239
 2490WAT    EPW11767   4.465   1.212   1.646  0.0033 -0.7301  0.2694
 2491WAT      O11768   1.699   1.320   1.972 -0.4132  0.2432 -0.3116
 2491WAT     H111769   1.659   1.356   1.893  1.4717  2.9313 -0.1969
 2491WAT     H211770   1.629   1.271   2.015 -2.7543  2.3751 -1.4731
 2491WAT    EPW11771   1.685   1.318   1.967 -0.4734  0.8789 -0.4497
 2492WAT      O11772  10.194   3.165   1.699 -0.5577 -0.6677  0.3320
 2492WAT     H111773  10.246   3.194   1.775  0.8386 -1.2892 -0.3399
 2492WAT     H211774  10.112   3.214   1.706  1.7502  3.9523 -0.9659
 2492WAT    EPW11775  10.190   3.175   1.710 -0.0696 -0.1403  0.0722
 2493WAT      O11776   3.036   0.647   1.541 -0.1231 -0.4070 -0.6870
 2493WAT     H111777   3.094   0.599   1.482 -1.1011  0.4524 -2.4183
 2493WAT     H211778   3.037   0.737   1.508 -1.2564 -0.0620  0.1641
 2493WAT    EPW11779   3.044   0.652   1.529 -0.4015 -0.2481 -0.8031
 2494WAT      O11780   4.718   3.146   1.937  0.2799  0.0430 -0.0396
 2494WAT     H111781   4.703   3.099   1.855 -1.6588  0.5819 -0.0464
 2494WAT     H211782   4.638   3.131   1.988  0.7528  1.0950  1.0697
 2494WAT    EPW11783   4.706   3.138   1.933  0.0868  0.2527  0.1057
 2495WAT      O11784   1.862   0.292   4.034  0.0043 -0.2107 -0.0834
 2495WAT     H111785   1.926   0.227   4.005 -0.4695 -0.7587  0.0723
 2495WAT     H211786   1.778   0.260   4.000 -0.1720  0.5722 -0.4047
 2495WAT    EPW11787   1.859   0.279   4.026 -0.0814 -0.1797 -0.1054
 2496WAT      O11788   3.136   2.811   0.769  0.0221 -0.2098 -0.5104
 2496WAT     H111789   3.197   2.749   0.730  1.2295  0.3152  0.4828
 2496WAT     H211790   3.115   2.872   0.698 -0.3264 -1.1021 -1.1933
 2496WAT    EPW11791   3.141   2.811   0.755  0.1354 -0.2583 -0.4695
 2497WAT      O11792   1.583   4.512   1.280 -0.3126 -0.0006  0.1255
 2497WAT     H111793   1.577   4.535   1.373  1.2096 -2.0515  0.7785
 2497WAT     H211794   1.666   4.551   1.251 -1.8996  2.7841 -1.1295
 2497WAT    EPW11795   1.593   4.520   1.288 -0.3211  0.0963  0.0461
 2498WAT      O11796   1.832   9.830   1.052 -0.0904  0.1539 -0.4950
 2498WAT     H111797   1.758   9.869   1.005 -1.9432  0.0071  2.0812
 2498WAT     H211798   1.904   9.891   1.038 -1.5919  2.0334 -0.4780
 2498WAT    EPW11799   1.831   9.843   1.044 -0.5328  0.3829 -0.1529
 2499WAT      O11800   4.760  10.299   2.105  0.6897  0.4865 -0.0916
 2499WAT     H111801   4.710  10.381   2.102 -0.6352 -0.3128 -0.4399
 2499WAT     H211802   4.798  10.297   2.193 -0.4679  0.7868  0.4311
 2499WAT    EPW11803   4.758  10.310   2.116  0.3624  0.4210 -0.0684
 2500WAT      O11804   0.418   4.168   0.783  0.5840 -0.5979  0.0136
 2500WAT     H111805   0.499   4.206   0.816  0.1764  0.4231 -0.1252
 2500WAT     H211806   0.382   4.235   0.725 -1.9171  0.3382  2.4167
 2500WAT    EPW11807   0.424   4.182   0.779  0.2004 -0.3397  0.3123
 2501WAT      O11808  10.364   8.585   2.512 -0.0678 -0.7047  0.0817
 2501WAT     H111809  10.413   8.660   2.543  1.4478 -1.7284  0.2677
 2501WAT     H211810  10.333   8.541   2.591 -0.8403 -0.3621 -0.0223
 2501WAT    EPW11811  10.366   8.589   2.526  0.0300 -0.7944  0.0925
 2502WAT      O11812   2.441   2.487   1.381 -0.5304  0.5976 -0.6256
 2502WAT     H111813   2.357   2.441   1.376 -0.0576 -0.1293 -3.5743
 2502WAT     H211814   2.425   2.571   1.338  0.3289  0.2371 -1.6991
 2502WAT    EPW11815   2.428   2.492   1.375 -0.3548  0.4542 -1.1562
 2503WAT      O11816   2.736   3.334   0.425  0.5141 -1.0381 -0.0964
 2503WAT     H111817   2.738   3.238   0.417 -1.0343 -0.9306 -2.8689
 2503WAT     H211818   2.788   3.365   0.351 -1.1229  0.2739 -0.7329
 2503WAT    EPW11819   2.743   3.325   0.414  0.0941 -0.8509 -0.5461
 2504WAT      O11820   9.857   7.271   8.455 -0.0180  0.6139  0.0495
 2504WAT     H111821   9.846   7.268   8.360  1.1348  1.9886 -0.1555
 2504WAT     H211822   9.941   7.228   8.471 -0.8382 -0.8357  0.6029
 2504WAT    EPW11823   9.867   7.265   8.445  0.0262  0.6042  0.0954
 2505WAT      O11824  10.950   1.256   3.047  0.1011  0.9234 -1.0246
 2505WAT     H111825  11.011   1.312   3.095  1.0885  0.0309 -1.1976
 2505WAT     H211826  10.941   1.178   3.102  0.6197  0.2311 -1.9036
 2505WAT    EPW11827  10.956   1.253   3.061  0.3004  0.7143 -1.1634
 2506WAT      O11828   3.318   5.593   0.491 -0.2924  0.0813 -0.0268
 2506WAT     H111829   3.377   5.667   0.474 -0.3097  0.3455  0.9887
 2506WAT     H211830   3.357   5.521   0.441  1.5015 -0.0134  1.3978
 2506WAT    EPW11831   3.331   5.593   0.482 -0.0582  0.1037  0.2950
 2507WAT      O11832  10.667   9.730   4.234  0.7180  0.6554 -0.5061
 2507WAT     H111833  10.733   9.703   4.171 -0.3045  1.7837 -2.1454
 2507WAT     H211834  10.699   9.814   4.267  0.9165  0.3931 -0.0250
 2507WAT    EPW11835  10.680   9.738   4.230  0.6094  0.7691 -0.6588
 2508WAT      O11836   9.513  10.288   0.381  0.5665  0.0511  0.1355
 2508WAT     H111837   9.424  10.320   0.394 -0.1137 -0.6194 -2.4345
 2508WAT     H211838   9.568  10.365   0.398 -0.5656  0.8120  0.5111
 2508WAT    EPW11839   9.509  10.303   0.385  0.3273  0.0630 -0.1539
 2509WAT      O11840   2.310   9.975   0.203 -0.3968 -0.2465 -0.0027
 2509WAT     H111841   2.315   9.925   0.284  1.2425  0.8435  0.6402
 2509WAT     H211842   2.338   9.913   0.135  1.1081 -0.4005  0.7010
 2509WAT    EPW11843   2.314   9.960   0.205  0.0180 -0.1235  0.1749
 2510WAT      O11844   8.360   5.590   6.447 -0.3792  0.0211  0.3335
 2510WAT     H111845   8.392   5.515   6.398  4.3631  1.0479  1.3342
 2510WAT     H211846   8.345   5.657   6.381  1.9630  0.1470 -0.1617
 2510WAT    EPW11847   8.362   5.589   6.432  0.5550  0.1731  0.4001
 2511WAT      O11848   5.805   9.228   7.344 -0.1004 -0.7242 -0.0586
 2511WAT     H111849   5.840   9.316   7.360 -1.9420  0.8437 -3.4074
 2511WAT     H211850   5.759   9.205   7.424  0.9879  1.0454  1.1534
 2511WAT    EPW11851   5.804   9.237   7.356 -0.1996 -0.2842 -0.3402
 2512WAT      O11852   5.582   1.316   3.180 -0.0292 -0.3261 -0.2750
 2512WAT     H111853   5.640   1.379   3.137  1.1775 -2.5481 -2.1659
 2512WAT     H211854   5.639   1.243   3.203 -1.7317 -1.7783 -0.4375
 2512WAT    EPW11855   5.597   1.315   3.177 -0.0947 -0.8107 -0.5457
 2513WAT      O11856   6.443   6.575   5.497  0.7055  0.8996  0.5160
 2513WAT     H111857   6.376   6.512   5.522  0.8015  1.2286  1.6215
 2513WAT     H211858   6.394   6.649   5.461  0.5905  0.2534 -0.7305
 2513WAT    EPW11859   6.428   6.576   5.495  0.7029  0.8578  0.4971
 2514WAT      O11860   3.091   1.462   0.162 -0.0270  0.1938  0.9146
 2514WAT     H111861   3.058   1.390   0.215 -0.0291 -0.3835  0.1369
 2514WAT     H211862   3.029   1.469   0.089 -0.4179  1.4289  1.3262
 2514WAT    EPW11863   3.078   1.454   0.159 -0.0788  0.2806  0.8663
 2515WAT      O11864   2.124   1.067   2.545 -0.0829  0.1690 -0.2736
 2515WAT     H111865   2.155   1.155   2.524 -1.0257  0.8134  0.8984
 2515WAT     H211866   2.149   1.014   2.470  0.5339  1.4312 -0.9842
 2515WAT    EPW11867   2.131   1.072   2.533 -0.1259  0.4205 -0.2127
 2516WAT      O11868   9.215   9.116   1.593  0.7348  0.8126 -0.6049
 2516WAT     H111869   9.230   9.035   1.642 -0.6278  1.1594  0.4432
 2516WAT     H211870   9.298   9.163   1.598  0.8760  0.4640  0.7000
 2516WAT    EPW11871   9.228   9.112   1.600  0.5736  0.8121 -0.2946
 2517WAT      O11872   2.539   4.769   0.718  0.2778  0.4999 -0.2095
 2517WAT     H111873   2.611   4.830   0.731  1.7264 -1.2386  0.3477
 2517WAT     H211874   2.463   4.825   0.702  1.8867  2.3771 -1.7436
 2517WAT    EPW11875   2.538   4.784   0.718  0.6810  0.5181 -0.3383
 2518WAT      O11876   0.996   7.620   0.156 -0.3340  0.3112  0.1814
 2518WAT     H111877   1.020   7.709   0.180  0.5009  0.7737 -2.1159
 2518WAT     H211878   0.937   7.592   0.226  1.3147  1.7205  2.2756
 2518WAT    EPW11879   0.991   7.628   0.168 -0.0065  0.5581  0.1546
 2519WAT      O11880   2.198   1.594   0.985  0.0147 -0.3062  0.0951
 2519WAT     H111881   2.163   1.557   0.904  1.0610 -1.5069  0.1505
 2519WAT     H211882   2.259   1.527   1.016  1.6491  1.2958  0.4589
 2519WAT    EPW11883   2.201   1.580   0.978  0.3682 -0.2533  0.1504
 2520WAT      O11884  10.449   1.529   3.587 -0.7193  0.3348 -0.4691
 2520WAT     H111885  10.390   1.557   3.656 -1.5302  0.9846 -1.3933
 2520WAT     H211886  10.425   1.583   3.511  0.9770  0.5382 -0.9188
 2520WAT    EPW11887  10.438   1.540   3.586 -0.6027  0.4473 -0.6502
 2521WAT      O11888   4.815   3.122   1.579 -0.2521 -0.3391 -0.2044
 2521WAT     H111889   4.823   3.051   1.643  2.3089  0.8733  0.9923
 2521WAT     H211890   4.816   3.078   1.494 -0.5230 -1.8137  0.5241
 2521WAT    EPW11891   4.816   3.107   1.577  0.0501 -0.3735  0.0496
 2522WAT      O11892   1.689   9.974   0.822 -0.0257 -0.3008 -0.4300
 2522WAT     H111893   1.599   9.949   0.801 -0.5127 -2.5312  3.3396
 2522WAT     H211894   1.742   9.928   0.756 -1.5336 -2.6882 -0.1095
 2522WAT    EPW11895   1.685   9.964   0.810 -0.2889 -0.9098  0.1094
 2523WAT      O11896   2.140   3.672   1.312 -0.4918 -0.0925  0.0699
 2523WAT     H111897   2.085   3.601   1.346 -2.0072 -0.8421 -3.4358
 2523WAT     H211898   2.079   3.729   1.264  1.1229  2.0023  0.3824
 2523WAT    EPW11899   2.125   3.670   1.310 -0.4785  0.0850 -0.3513
 2524WAT      O11900   2.993   0.967   1.641 -0.5378  0.4467 -0.2192
 2524WAT     H111901   2.958   1.004   1.722 -1.1613  1.4641 -0.9375
 2524WAT     H211902   2.941   0.888   1.627 -1.9691  1.4465 -0.7803
 2524WAT    EPW11903   2.982   0.961   1.650 -0.8088  0.7128 -0.3880
 2525WAT      O11904   7.988   5.857   8.685  0.4023  0.1312 -0.2216
 2525WAT     H111905   8.071   5.874   8.641  0.1211  1.2811 -0.3413
 2525WAT     H211906   7.924   5.857   8.614 -0.0557  1.9964  0.1458
 2525WAT    EPW11907   7.990   5.859   8.670  0.3047  0.5288 -0.1893
 2526WAT      O11908   8.359   6.617   8.366 -0.4855  0.9140  0.7391
 2526WAT     H111909   8.293   6.613   8.297  0.9154 -0.9305 -0.5963
 2526WAT     H211910   8.408   6.535   8.357  0.8595  1.4150  2.8230
 2526WAT    EPW11911   8.357   6.605   8.355 -0.1230  0.7367  0.8378
 2527WAT      O11912   3.814   1.715   0.349  1.2204  0.2832 -0.2707
 2527WAT     H111913   3.841   1.769   0.274  2.7056  1.5202  1.0664
 2527WAT     H211914   3.868   1.637   0.342  0.8942  0.1009 -0.8294
 2527WAT    EPW11915   3.825   1.712   0.338  1.3734  0.4222 -0.1680
 2528WAT      O11916   8.123   9.388   1.374  0.0216  0.3396  0.1913
 2528WAT     H111917   8.121   9.463   1.433  0.5209  0.2058  0.3789
 2528WAT     H211918   8.062   9.412   1.303 -1.8947 -0.1809  1.5635
 2528WAT    EPW11919   8.114   9.401   1.373 -0.1655  0.2532  0.3970
 2529WAT      O11920   5.693   0.066   0.979  0.4032 -0.4675 -0.2467
 2529WAT     H111921   5.673   0.061   0.885 -0.5436  0.0496 -0.0881
 2529WAT     H211922   5.645   0.144   1.009  2.9111  1.0432  0.1177
 2529WAT    EPW11923   5.684   0.076   0.970  0.6094 -0.2000 -0.1777
 2530WAT      O11924   4.344   0.191   2.371  0.3620 -0.1879 -0.1736
 2530WAT     H111925   4.257   0.162   2.399  0.3608  0.9956  1.1565
 2530WAT     H211926   4.399   0.114   2.382  0.1987 -0.0083  2.5510
 2530WAT    EPW11927   4.340   0.177   2.376  0.3402 -0.0081  0.3612
 2531WAT      O11928   3.813   4.467   1.495 -0.9749  0.1009  0.2553
 2531WAT     H111929   3.896   4.434   1.527 -0.7163  1.3912  1.0102
 2531WAT     H211930   3.775   4.513   1.570 -0.3006  3.3308 -1.1643
 2531WAT    EPW11931   3.819   4.469   1.509 -0.8518  0.6974  0.1676
 2532WAT      O11932   3.511   1.919   0.646  0.2085 -0.3923  0.9202
 2532WAT     H111933   3.580   1.857   0.621  0.3579 -0.6346  1.8917
 2532WAT     H211934   3.551   2.005   0.633  0.2216 -0.4989  0.1861
 2532WAT    EPW11935   3.525   1.922   0.641  0.2301 -0.4383  0.9515
 2533WAT      O11936   1.041   2.491   0.760 -0.5791 -0.1343  0.3257
 2533WAT     H111937   1.029   2.437   0.682 -0.0350  0.1295  0.0560
 2533WAT     H211938   1.015   2.579   0.733 -0.6640 -0.0990  0.5230
 2533WAT    EPW11939   1.036   2.495   0.746 -0.5185 -0.0949  0.3162
 2534WAT      O11940  10.571   9.549   0.974 -0.0964 -0.2367 -0.2125
 2534WAT     H111941  10.574   9.497   0.893 -1.0929  0.1049 -0.4808
 2534WAT     H211942  10.623   9.498   1.036 -1.0086 -1.5717 -0.4795
 2534WAT    EPW11943  10.578   9.535   0.971 -0.3481 -0.3681 -0.2831
 2535WAT      O11944   2.714   1.259   1.238  0.2224  0.1972  0.3512
 2535WAT     H111945   2.752   1.213   1.313 -1.7111 -1.2589  0.4964
 2535WAT     H211946   2.751   1.214   1.162 -1.6681 -1.7091  0.4923
 2535WAT    EPW11947   2.724   1.247   1.238 -0.2820 -0.2463  0.3890
 2536WAT      O11948   8.125  10.298   0.537  0.4351 -0.4793  0.0263
 2536WAT     H111949   8.083  10.279   0.621 -0.3195  0.8452 -0.0093
 2536WAT     H211950   8.182  10.224   0.521  1.6811 -0.1241  2.4029
 2536WAT    EPW11951   8.127  10.286   0.546  0.4997 -0.2575  0.3351
 2537WAT      O11952   3.392   1.342   2.860 -0.3908 -0.4595 -1.1673
 2537WAT     H111953   3.338   1.263   2.854  1.1210 -1.6890  0.2292
 2537WAT     H211954   3.432   1.336   2.947  2.8110 -0.2153 -2.4814
 2537WAT    EPW11955   3.390   1.331   2.871  0.2309 -0.5894 -1.1563
 2538WAT      O11956   1.612  10.065   2.937  0.4717  0.0850  0.4561
 2538WAT     H111957   1.572   9.982   2.911  1.1522 -0.8055  2.0700
 2538WAT     H211958   1.706  10.049   2.931  0.8293 -0.8558  4.8140
 2538WAT    EPW11959   1.619  10.052   2.933  0.6086 -0.1564  1.2438
 2539WAT      O11960   7.496   4.154   8.119 -0.2133  0.6405  0.6014
 2539WAT     H111961   7.429   4.184   8.181 -0.5468 -1.0592  1.1146
 2539WAT     H211962   7.457   4.078   8.076  1.1860 -0.0590  0.5132
 2539WAT    EPW11963   7.482   4.148   8.121 -0.0725  0.3242  0.6571
 2540WAT      O11964   2.726   3.025   0.569 -0.0343 -0.0734  0.8043
 2540WAT     H111965   2.786   3.012   0.643  1.9487 -1.4776 -0.9384
 2540WAT     H211966   2.662   2.954   0.578 -0.6610  0.5981  1.8998
 2540WAT    EPW11967   2.726   3.014   0.580  0.1446 -0.1700  0.7189
 2541WAT      O11968   0.052  10.023   2.527  0.9700  0.5466  0.7479
 2541WAT     H111969   0.063  10.058   2.616 -1.7957 -1.6264  2.1315
 2541WAT     H211970  -0.039  10.042   2.505  1.0336 -0.7301 -0.7912
 2541WAT    EPW11971   0.042  10.030   2.536  0.6132  0.0916  0.7273
 2542WAT      O11972   3.598   1.804   1.641 -0.6417  0.4257 -0.3839
 2542WAT     H111973   3.598   1.804   1.545 -1.7201 -2.0113 -0.4722
 2542WAT     H211974   3.660   1.735   1.665 -2.2374 -0.7680  0.5359
 2542WAT    EPW11975   3.606   1.795   1.631 -0.9946 -0.0532 -0.2742
 2543WAT      O11976   3.230   4.529   2.088  0.6002 -0.2356 -0.1477
 2543WAT     H111977   3.263   4.440   2.101  2.0793  0.3360  0.2027
 2543WAT     H211978   3.253   4.575   2.168 -0.4768  0.3966 -0.1756
 2543WAT    EPW11979   3.237   4.523   2.100  0.6533 -0.0768 -0.1051
 2544WAT      O11980   3.418   7.094   1.042  0.0948  0.0260  0.3008
 2544WAT     H111981   3.330   7.111   1.074  0.2506  0.7388  0.3624
 2544WAT     H211982   3.474   7.103   1.120  0.4251  1.3502 -0.0678
 2544WAT    EPW11983   3.414   7.097   1.057  0.1589  0.2947  0.2603
 2545WAT      O11984   1.257   2.937   1.248  0.4499 -0.1939  0.0781
 2545WAT     H111985   1.277   3.009   1.187 -1.1193 -0.9907 -1.4422
 2545WAT     H211986   1.270   2.976   1.335 -1.3653  2.2817 -0.6549
 2545WAT    EPW11987   1.262   2.952   1.252  0.0035  0.0275 -0.2190
 2546WAT      O11988   9.153  10.342   2.652 -0.1862 -0.2775 -0.2529
 2546WAT     H111989   9.150  10.437   2.643  0.3762 -0.4056 -2.4921
 2546WAT     H211990   9.245  10.319   2.641 -0.3350 -1.1019  0.1020
 2546WAT    EPW11991   9.165  10.351   2.649 -0.1316 -0.4034 -0.5014
 2547WAT      O11992   4.142   0.965   0.717 -0.1844  0.0119  0.8723
 2547WAT     H111993   4.238   0.964   0.723 -0.1406 -1.5116  0.3412
 2547WAT     H211994   4.118   0.873   0.706 -1.8195  0.1820  2.4821
 2547WAT    EPW11995   4.152   0.952   0.716 -0.3941 -0.1666  1.0145
 2548WAT      O11996   4.102   1.985   0.488  0.0307 -0.0508  0.0245
 2548WAT     H111997   4.196   1.989   0.505 -0.1757  0.7336  1.0929
 2548WAT     H211998   4.072   1.909   0.537  0.4296 -1.7174 -2.1663
 2548WAT    EPW11999   4.110   1.976   0.497  0.0563 -0.1672 -0.1236
 2549WAT      O12000   3.101   5.739   3.758 -0.6318  0.0503  0.4004
 2549WAT     H112001   3.010   5.759   3.734  0.3471  1.1937 -2.8242
 2549WAT     H212002   3.124   5.665   3.702  0.6911  0.3568  0.5219
 2549WAT    EPW12003   3.092   5.732   3.747 -0.3283  0.2418 -0.0091
 2550WAT      O12004   2.735   5.473   1.299  0.0831 -0.4369 -0.1840
 2550WAT     H112005   2.710   5.465   1.391  0.8290 -0.8247 -0.0053
 2550WAT     H212006   2.696   5.555   1.271  0.0522 -0.1937  0.5484
 2550WAT    EPW12007   2.727   5.483   1.307  0.1773 -0.4559 -0.0638
 2551WAT      O12008   2.809   1.944   1.733  0.5190  0.0316  0.4380
 2551WAT     H112009   2.787   1.947   1.640  0.6507 -2.1437  0.2757
 2551WAT     H212010   2.794   2.033   1.764  2.6032  1.4395 -2.1091
 2551WAT    EPW12011   2.804   1.956   1.725  0.8113 -0.0696  0.0806
 2552WAT      O12012   3.615   3.677   0.533 -0.8475 -0.5053 -0.0869
 2552WAT     H112013   3.695   3.672   0.584 -0.6086 -0.5252 -0.4579
 2552WAT     H212014   3.559   3.608   0.568 -0.0580 -1.6086 -0.9175
 2552WAT    EPW12015   3.618   3.667   0.544 -0.7117 -0.6533 -0.2453
 2553WAT      O12016   2.886   4.227   0.533 -0.0260  0.4082  0.3757
 2553WAT     H112017   2.969   4.218   0.487 -0.2687  0.0123  0.0067
 2553WAT     H212018   2.911   4.244   0.624  0.4552  1.2299  0.0936
 2553WAT    EPW12019   2.900   4.228   0.539  0.0055  0.4642  0.2898
 2554WAT      O12020   0.917   3.859   1.102 -0.3260 -0.1535 -0.0185
 2554WAT     H112021   0.980   3.801   1.059  0.7074  0.2995  0.8406
 2554WAT     H212022   0.851   3.799   1.138 -0.2064 -0.6589 -0.6172
 2554WAT    EPW12023   0.916   3.843   1.101 -0.1739 -0.1602  0.0157
 2555WAT      O12024   2.717   1.394   4.126  0.4092  0.2580  0.6933
 2555WAT     H112025   2.690   1.422   4.214 -2.7432  0.2084 -0.1376
 2555WAT     H212026   2.758   1.472   4.088  0.6680  0.6623  1.7578
 2555WAT    EPW12027   2.719   1.408   4.133  0.0275  0.3048  0.7243
 2556WAT      O12028   2.192   0.360   8.321  0.2254 -0.1708 -0.6006
 2556WAT     H112029   2.181   0.274   8.362 -0.5289  0.0042 -0.4109
 2556WAT     H212030   2.188   0.422   8.394  0.2358  0.0568 -0.7899
 2556WAT    EPW12031   2.190   0.357   8.336  0.1272 -0.1177 -0.6008
 2557WAT      O12032   4.755   4.887   2.359 -0.9662 -0.2153 -0.1463
 2557WAT     H112033   4.695   4.955   2.329 -1.6218 -0.9345 -0.5157
 2557WAT     H212034   4.725   4.865   2.448 -0.9674 -0.2516 -0.1555
 2557WAT    EPW12035   4.743   4.893   2.367 -1.0526 -0.3147 -0.1962
 2558WAT      O12036   9.193   8.513   8.298  0.1995  0.5448  0.2446
 2558WAT     H112037   9.173   8.560   8.379 -0.8885 -2.3125  1.7963
 2558WAT     H212038   9.125   8.541   8.237 -1.0071  0.3477  1.4315
 2558WAT    EPW12039   9.181   8.523   8.301 -0.1035  0.1416  0.6056
 2559WAT      O12040   0.103   8.119   8.681 -0.5694  0.0131  0.4558
 2559WAT     H112041   0.161   8.161   8.617  0.7360  0.0305  1.5996
 2559WAT     H212042   0.162   8.092   8.752 -1.5963 -2.3583  0.4687
 2559WAT    EPW12043   0.118   8.121   8.682 -0.5327 -0.2971  0.6084
 2560WAT      O12044   9.726   9.103   8.787  0.6600  1.2239 -0.5098
 2560WAT     H112045   9.743   9.196   8.774 -1.3098  1.5447 -1.2079
 2560WAT     H212046   9.667   9.080   8.715  1.1260 -0.5707 -0.3520
 2560WAT    EPW12047   9.720   9.112   8.776  0.4625  1.0300 -0.5813
 2561WAT      O12048   2.780   1.161   8.515  0.8286  0.1151  0.7873
 2561WAT     H112049   2.773   1.130   8.425 -0.5105 -0.1171  0.9482
 2561WAT     H212050   2.857   1.217   8.515  0.2488  0.9871 -0.7716
 2561WAT    EPW12051   2.789   1.165   8.503  0.5754  0.1995  0.6027
 2562WAT      O12052   3.121   0.851   8.740  0.0485  0.0741  0.1270
 2562WAT     H112053   3.034   0.814   8.747 -0.3916  1.1910  0.7551
 2562WAT     H212054   3.161   0.804   8.666 -1.1213 -0.3431 -0.2628
 2562WAT    EPW12055   3.115   0.840   8.731 -0.1638  0.1663  0.1593
 2563WAT      O12056   4.676   1.509   6.783 -0.3700  0.1060 -0.4278
 2563WAT     H112057   4.737   1.582   6.769  0.0493 -0.2841 -0.6693
 2563WAT     H212058   4.590   1.546   6.764 -0.2559  0.7661  0.2863
 2563WAT    EPW12059   4.672   1.523   6.779 -0.2997  0.1416 -0.3655
 2564WAT      O12060   0.369   8.106   6.875  0.1140  0.3717 -0.1451
 2564WAT     H112061   0.382   8.015   6.899 -0.1587  0.5501  0.7188
 2564WAT     H212062   0.290   8.132   6.923 -1.5686  0.2373 -2.6865
 2564WAT    EPW12063   0.361   8.098   6.885 -0.1439  0.3777 -0.3664
 2565WAT      O12064   5.743   4.535   8.010  0.2864 -0.7345  0.1093
 2565WAT     H112065   5.669   4.520   7.952 -0.2231 -3.0967  1.2268
 2565WAT     H212066   5.797   4.456   8.000  0.7194 -0.7293  1.9965
 2565WAT    EPW12067   5.740   4.522   8.001  0.2763 -1.0455  0.5059
 2566WAT      O12068   1.819   0.020   3.127 -0.3181 -0.1238 -0.4401
 2566WAT     H112069   1.868   0.084   3.077  2.3677 -3.2120 -2.1473
 2566WAT     H212070   1.729   0.028   3.096 -0.4184  3.4744  0.3472
 2566WAT    EPW12071   1.814   0.029   3.116  0.0229 -0.0563 -0.5614
 2567WAT      O12072   8.922   7.076   1.837 -0.3350 -0.5532  0.5126
 2567WAT     H112073   8.950   6.995   1.794 -0.1130 -1.1584  1.7594
 2567WAT     H212074   8.912   7.139   1.765  2.5420 -0.7884 -0.2094
 2567WAT    EPW12075   8.924   7.074   1.822  0.0744 -0.6640  0.5819
 2568WAT      O12076   8.103   4.110   8.002 -0.0778  0.3034 -0.5272
 2568WAT     H112077   8.007   4.110   8.001 -0.0955  0.9708  0.2239
 2568WAT     H212078   8.126   4.149   8.087  0.8546 -1.1886 -0.0444
 2568WAT    EPW12079   8.093   4.115   8.013  0.0424  0.1945 -0.3643
 2569WAT      O12080   7.866   1.439   8.580 -0.0760  0.3546  0.0580
 2569WAT     H112081   7.950   1.467   8.543 -0.0204 -1.0032 -0.9263
 2569WAT     H212082   7.820   1.521   8.597  1.7108  1.1636  1.3326
 2569WAT    EPW12083   7.871   1.453   8.577  0.1671  0.2822  0.0963
 2570WAT      O12084   1.792   5.553   0.007 -0.1414 -0.3092 -0.0072
 2570WAT     H112085   1.884   5.524   0.006  0.7569  2.0867  2.2349
 2570WAT     H212086   1.793   5.635  -0.043 -1.1600 -0.4072 -0.2094
 2570WAT    EPW12087   1.804   5.560   0.000 -0.1569 -0.0061  0.2618
 2571WAT      O12088   3.512   3.929   3.343 -0.1275 -0.0461 -0.4672
 2571WAT     H112089   3.477   3.855   3.392  0.7007 -0.7023 -0.8430
 2571WAT     H212090   3.604   3.935   3.369 -0.2835  1.1268 -0.1239
 2571WAT    EPW12091   3.520   3.920   3.353 -0.0389  0.0221 -0.4715
 2572WAT      O12092   6.760   1.447   8.035  0.3845  0.2428  0.2961
 2572WAT     H112093   6.823   1.375   8.034  1.5323  1.2255  0.5206
 2572WAT     H212094   6.680   1.408   8.000  1.1041 -1.0267 -0.0144
 2572WAT    EPW12095   6.758   1.432   8.030  0.6306  0.2049  0.2847
 2573WAT      O12096   5.023   1.412   7.479 -0.8245 -0.0486 -0.4964
 2573WAT     H112097   5.065   1.464   7.547  0.3250 -2.3153  0.6755
 2573WAT     H212098   5.058   1.447   7.397  0.0949  0.8526  0.2542
 2573WAT    EPW12099   5.033   1.423   7.477 -0.5517 -0.2287 -0.2427
 2574WAT      O12100   3.968   3.827   8.977 -0.2982 -0.3235  0.0403
 2574WAT     H112101   3.873   3.819   8.971 -0.1593 -1.2516 -1.4428
 2574WAT     H212102   3.989   3.907   8.928 -0.1678 -1.3867 -1.7469
 2574WAT    EPW12103   3.958   3.836   8.970 -0.2627 -0.5865 -0.3911
 2575WAT      O12104   2.789   1.857   8.158  0.5128 -0.8616  0.2142
 2575WAT     H112105   2.786   1.851   8.062  1.4734 -0.0463  0.1161
 2575WAT     H212106   2.698   1.868   8.184  0.4702  3.8711 -1.0086
 2575WAT    EPW12107   2.777   1.857   8.149  0.6338 -0.1299  0.0401
 2576WAT      O12108   1.453   3.364   1.299 -0.5509  0.1672 -0.4308
 2576WAT     H112109   1.399   3.332   1.226  0.9361 -1.9884 -0.6657
 2576WAT     H212110   1.542   3.338   1.276  0.2386  1.2546  1.2200
 2576WAT    EPW12111   1.458   3.357   1.286 -0.2508  0.0263 -0.2441
 2577WAT      O12112   5.239   6.679   0.511  0.0143 -0.1334 -0.0838
 2577WAT     H112113   5.245   6.607   0.448  0.0355 -0.4483  0.2767
 2577WAT     H212114   5.149   6.710   0.502  0.5246  1.0339 -1.5835
 2577WAT    EPW12115   5.228   6.673   0.502  0.0844 -0.0210 -0.2340
 2578WAT      O12116   9.259   6.574   0.675  0.3594  0.3944  0.3917
 2578WAT     H112117   9.188   6.541   0.730 -1.3741  1.4075 -1.1333
 2578WAT     H212118   9.278   6.661   0.711 -0.8436  1.0991 -0.5950
 2578WAT    EPW12119   9.252   6.581   0.687 -0.0272  0.6211  0.0604
 2579WAT      O12120   8.881   5.607   2.876 -0.4033  0.8720  0.1939
 2579WAT     H112121   8.870   5.678   2.813 -2.6858  0.7116  0.3475
 2579WAT     H212122   8.958   5.632   2.927  0.3508  1.9471 -1.3867
 2579WAT    EPW12123   8.890   5.620   2.875 -0.6046  0.9928  0.0057
 2580WAT      O12124   5.511   8.113   1.922  0.2372  0.1423 -0.0189
 2580WAT     H112125   5.468   8.030   1.940 -0.0742  0.2552 -0.2225
 2580WAT     H212126   5.550   8.139   2.005 -2.2027  1.2524  0.8570
 2580WAT    EPW12127   5.510   8.106   1.935 -0.1254  0.3033  0.0697
 2581WAT      O12128   2.452   0.488   5.091  0.1329  0.5299  0.8121
 2581WAT     H112129   2.409   0.468   5.008  0.6985  1.5342  0.2484
 2581WAT     H212130   2.492   0.406   5.119  0.5725  0.3582 -0.3018
 2581WAT    EPW12131   2.452   0.475   5.084  0.2655  0.6397  0.5908
 2582WAT      O12132   4.453   0.902   7.521 -0.6532  0.7234 -0.5262
 2582WAT     H112133   4.530   0.864   7.478 -0.3048  1.3295 -0.4555
 2582WAT     H212134   4.490   0.957   7.590 -1.2242 -1.9435  2.0740
 2582WAT    EPW12135   4.468   0.904   7.524 -0.6828  0.4516 -0.1736
 2583WAT      O12136   1.454   1.561   8.638 -0.1272 -0.5921  0.6181
 2583WAT     H112137   1.365   1.556   8.672  0.1416  0.1954  1.4652
 2583WAT     H212138   1.506   1.510   8.699 -0.1799 -2.2526 -0.6498
 2583WAT    EPW12139   1.449   1.553   8.650 -0.0988 -0.7071  0.5631
 2584WAT      O12140   5.747   6.636   0.437  0.4370 -0.5405 -0.3569
 2584WAT     H112141   5.813   6.583   0.482 -0.9393 -2.3021 -0.3276
 2584WAT     H212142   5.728   6.706   0.499  2.0110 -0.1674 -0.2364
 2584WAT    EPW12143   5.753   6.638   0.451  0.4630 -0.7238 -0.3371
 2585WAT      O12144   4.684   2.621   6.795  0.5414 -0.1155  0.1438
 2585WAT     H112145   4.735   2.545   6.766  1.0381 -0.5475  1.9974
 2585WAT     H212146   4.620   2.634   6.726  2.9445  0.2922 -2.1950
 2585WAT    EPW12147   4.683   2.613   6.782  0.9236 -0.1186  0.0794
 2586WAT      O12148   0.347   4.447   0.923  0.3815 -0.0816  0.0865
 2586WAT     H112149   0.293   4.397   0.861 -0.3685 -1.3234  1.6755
 2586WAT     H212150   0.427   4.396   0.932  0.5125  0.1247  0.0908
 2586WAT    EPW12151   0.350   4.434   0.916  0.2999 -0.2184  0.2967
 2587WAT      O12152   5.594   0.526   6.013  0.2642 -0.5819 -0.9587
 2587WAT     H112153   5.633   0.605   5.974 -1.1108  0.1993 -0.8163
 2587WAT     H212154   5.594   0.544   6.107 -1.5814  0.0183 -1.0327
 2587WAT    EPW12155   5.599   0.539   6.020 -0.1605 -0.3997 -0.9494
 2588WAT      O12156   7.067   5.299   1.638  0.4077  0.0417  0.3922
 2588WAT     H112157   7.086   5.392   1.622 -1.3157  0.2711 -0.5827
 2588WAT     H212158   7.021   5.298   1.722 -0.3569  0.2017 -0.0134
 2588WAT    EPW12159   7.063   5.311   1.647  0.0796  0.0930  0.2100
 2589WAT      O12160   2.628   9.208   4.625  0.4408 -0.1563 -0.2944
 2589WAT     H112161   2.667   9.269   4.563 -1.4020 -0.2744 -1.6771
 2589WAT     H212162   2.663   9.122   4.600  1.3247  0.0478  0.2169
 2589WAT    EPW12163   2.638   9.205   4.613  0.3144 -0.1450 -0.4094
 2590WAT      O12164   5.275   2.677   8.646  0.0321 -0.4357 -0.5850
 2590WAT     H112165   5.369   2.663   8.657 -0.3999 -1.8173  2.3039
 2590WAT     H212166   5.240   2.590   8.629 -1.0279 -0.5224  1.7452
 2590WAT    EPW12167   5.283   2.664   8.645 -0.1647 -0.6293  0.1035
 2591WAT      O12168   6.419   3.912   7.292  0.2666  0.3334 -0.1028
 2591WAT     H112169   6.467   3.994   7.279 -0.1800  0.6289  0.0994
 2591WAT     H212170   6.331   3.940   7.316  0.0160 -0.2079 -0.3919
 2591WAT    EPW12171   6.414   3.927   7.293  0.1743  0.3010 -0.1142
 2592WAT      O12172   7.356   3.852   4.234 -0.5090  0.2295  0.6591
 2592WAT     H112173   7.383   3.914   4.301 -0.1268 -0.1670  0.8786
 2592WAT     H212174   7.431   3.848   4.174  0.5273 -1.8749  1.9830
 2592WAT    EPW12175   7.370   3.860   4.235 -0.3219 -0.1003  0.8624
 2593WAT      O12176   0.352   7.810   1.829  0.1523  0.3732 -0.1627
 2593WAT     H112177   0.328   7.751   1.900 -1.7148 -1.3945 -2.1285
 2593WAT     H212178   0.299   7.888   1.843 -0.3465 -0.0382  0.2695
 2593WAT    EPW12179   0.342   7.812   1.840 -0.1598  0.0854 -0.3649
 2594WAT      O12180   9.486   4.061   8.744  0.1759 -0.3117  0.3859
 2594WAT     H112181   9.527   4.003   8.808  0.3444  0.5061  1.0320
 2594WAT     H212182   9.481   4.146   8.788  2.2968  0.8568 -1.4457
 2594WAT    EPW12183   9.491   4.064   8.759  0.4783 -0.0498  0.2294
 2595WAT      O12184   0.472   9.098   8.815  0.5948  0.0302  0.1279
 2595WAT     H112185   0.460   9.084   8.909 -0.4806  0.1567  0.0198
 2595WAT     H212186   0.504   9.188   8.808  0.5998  0.0462  0.3629
 2595WAT    EPW12187   0.475   9.108   8.827  0.4536  0.0482  0.1445
 2596WAT      O12188   4.217   6.791   0.084  0.0378  0.3333 -0.8663
 2596WAT     H112189   4.178   6.787   0.171 -1.5663 -2.7998 -1.5914
 2596WAT     H212190   4.148   6.828   0.028 -0.7749 -1.9699 -1.5242
 2596WAT    EPW12191   4.203   6.795   0.088 -0.2809 -0.3839 -1.0487
 2597WAT      O12192   5.417   0.906   6.827  0.3646 -0.0806  0.5971
 2597WAT     H112193   5.410   0.881   6.919 -1.1172  0.2266  0.6065
 2597WAT     H212194   5.358   0.982   6.819 -0.1254 -0.5728 -0.7432
 2597WAT    EPW12195   5.408   0.913   6.838  0.1044 -0.1050  0.4213
 2598WAT      O12196   3.724   0.451   6.078  0.3763 -0.5508  0.0186
 2598WAT     H112197   3.801   0.507   6.073  0.2197 -0.3751 -0.4073
 2598WAT     H212198   3.701   0.433   5.987  1.4083 -2.6541  0.0950
 2598WAT    EPW12199   3.731   0.456   6.065  0.4917 -0.8051 -0.0277
 2599WAT      O12200   3.575   2.677   4.458  0.1067 -0.5515 -0.6850
 2599WAT     H112201   3.482   2.698   4.462  0.3556  0.3901  0.5210
 2599WAT     H212202   3.577   2.584   4.437 -1.2294 -1.6471  3.2527
 2599WAT    EPW12203   3.563   2.668   4.455 -0.0367 -0.5717 -0.0067
 2600WAT      O12204  10.590   7.023   7.742  1.2606 -0.2333  0.7596
 2600WAT     H112205  10.581   6.935   7.778 -1.6088 -0.9017 -1.2350
 2600WAT     H212206  10.573   7.013   7.648 -3.5654  2.7922  0.9555
 2600WAT    EPW12207  10.587   7.010   7.734  0.2456  0.0777  0.5221
 2601WAT      O12208   5.150   0.195   8.623 -0.0845 -0.0712  0.1872
 2601WAT     H112209   5.128   0.105   8.599  0.5503 -0.0537 -0.5013
 2601WAT     H212210   5.182   0.189   8.713  1.3256 -0.7696 -0.3310
 2601WAT    EPW12211   5.151   0.182   8.632  0.1850 -0.1610  0.0281
 2602WAT      O12212   9.391  10.016   6.611 -0.5539  0.2103  0.5246
 2602WAT     H112213   9.321   9.984   6.668 -1.5804  0.6964 -0.4291
 2602WAT     H212214   9.358  10.099   6.577 -0.0567 -0.1611 -0.9274
 2602WAT    EPW12215   9.377  10.023   6.614 -0.6237  0.2255  0.2074
 2603WAT      O12216   8.159   3.107   0.097  0.3908 -0.6608  1.0189
 2603WAT     H112217   8.075   3.128   0.056  1.6141  1.1466 -0.7310
 2603WAT     H212218   8.157   3.153   0.181  0.0207  0.2769  0.5150
 2603WAT    EPW12219   8.148   3.116   0.103  0.5040 -0.2987  0.7217
 2604WAT      O12220   9.278   8.861   8.124 -0.6092  0.0376 -0.4196
 2604WAT     H112221   9.203   8.804   8.109 -0.7973  0.1479  0.0959
 2604WAT     H212222   9.353   8.802   8.124 -0.8959 -0.3510  1.0807
 2604WAT    EPW12223   9.278   8.846   8.122 -0.6719  0.0010 -0.1535
 2605WAT      O12224   2.446   5.266   0.889 -0.1455 -0.4440  0.1554
 2605WAT     H112225   2.505   5.340   0.903 -0.3281 -0.1548 -0.5777
 2605WAT     H212226   2.493   5.192   0.927 -0.0421  0.0664  1.0748
 2605WAT    EPW12227   2.460   5.266   0.896 -0.1558 -0.3383  0.1799
 2606WAT      O12228   3.365   2.938   7.148  0.0926 -0.1951  0.1057
 2606WAT     H112229   3.283   2.907   7.108 -0.0130 -0.2952  0.3934
 2606WAT     H212230   3.362   2.903   7.238 -1.0906  2.4915  1.2036
 2606WAT    EPW12231   3.354   2.929   7.155 -0.0774  0.1462  0.2887
 2607WAT      O12232   6.734   6.764   0.192  0.2081  0.2384 -0.2424
 2607WAT     H112233   6.763   6.681   0.155  0.3232 -0.7472  1.8910
 2607WAT     H212234   6.658   6.789   0.139 -1.0553 -2.2672  0.2398
 2607WAT    EPW12235   6.728   6.756   0.180  0.0570 -0.2220  0.1026
 2608WAT      O12236   6.215   7.697   2.364 -0.2786  0.4579  0.0380
 2608WAT     H112237   6.135   7.706   2.415 -1.2151  0.2814 -1.3521
 2608WAT     H212238   6.285   7.705   2.429 -1.3959  0.8757  1.2490
 2608WAT    EPW12239   6.214   7.699   2.380 -0.5496  0.4895  0.0142
 2609WAT      O12240   5.585   7.763   1.550 -0.2695 -0.3108  0.2507
 2609WAT     H112241   5.614   7.808   1.630 -0.3766 -0.9259  0.6422
 2609WAT     H212242   5.489   7.771   1.552 -0.2236  0.4922 -0.3122
 2609WAT    EPW12243   5.576   7.770   1.561 -0.2775 -0.2863  0.2280
 2610WAT      O12244   5.832   1.267   6.629 -0.1636  0.3761 -0.3577
 2610WAT     H112245   5.803   1.270   6.720 -0.2624  0.0769 -0.3796
 2610WAT     H212246   5.833   1.174   6.607 -0.5616  0.4738 -0.7953
 2610WAT    EPW12247   5.828   1.255   6.638 -0.2294  0.3495 -0.4182
 2611WAT      O12248   8.014   8.741   0.990  0.1381  0.3801  0.3067
 2611WAT     H112249   7.939   8.693   1.025 -0.9168  0.4174 -1.7327
 2611WAT     H212250   7.977   8.825   0.962  0.9944  0.5495 -0.3708
 2611WAT    EPW12251   7.999   8.746   0.991  0.1116  0.4072 -0.0516
 2612WAT      O12252   5.699   3.860   8.795  0.1257  0.2245  0.4393
 2612WAT     H112253   5.638   3.810   8.741  0.7514 -1.3375  1.1140
 2612WAT     H212254   5.761   3.897   8.732 -0.5857  0.4950 -0.1106
 2612WAT    EPW12255   5.699   3.858   8.779  0.1144  0.0541  0.4554
 2613WAT      O12256   5.495   3.132   1.609 -0.5332 -0.6621  0.0170
 2613WAT     H112257   5.487   3.220   1.646 -1.1441 -1.6699  2.4790
 2613WAT     H212258   5.586   3.107   1.626 -1.0679 -1.5150  1.9842
 2613WAT    EPW12259   5.506   3.140   1.616 -0.6845 -0.9075  0.6012
 2614WAT      O12260   8.278   6.462   2.906 -0.5898  0.2794 -0.5416
 2614WAT     H112261   8.229   6.509   2.973  0.1263 -0.2080  0.3534
 2614WAT     H212262   8.218   6.455   2.832 -1.2616  1.1687 -0.0987
 2614WAT    EPW12263   8.264   6.467   2.905 -0.5836  0.3324 -0.3651
 2615WAT      O12264   9.269   6.374   2.145 -0.3808 -0.8957 -0.0399
 2615WAT     H112265   9.340   6.333   2.095  0.4592  1.5827 -0.9883
 2615WAT     H212266   9.313   6.412   2.221 -0.8109 -0.0467 -0.2121
 2615WAT    EPW12267   9.284   6.373   2.149 -0.3262 -0.4568 -0.1876
 2616WAT      O12268   6.955   0.295   8.127 -0.0583  0.2431 -0.2376
 2616WAT     H112269   6.972   0.245   8.046 -0.3180  0.6028 -0.5176
 2616WAT     H212270   7.040   0.335   8.148 -0.0003  0.1845 -0.3557
 2616WAT    EPW12271   6.969   0.294   8.119 -0.0849  0.2828 -0.2904
 2617WAT      O12272   8.661   4.375   2.472  0.3812  0.7134  1.0227
 2617WAT     H112273   8.659   4.470   2.478  1.0703  0.8844 -0.7375
 2617WAT     H212274   8.571   4.350   2.450  0.5499  1.1581 -0.3021
 2617WAT    EPW12275   8.649   4.384   2.470  0.4945  0.7946  0.6157
 2618WAT      O12276   8.235   8.096   8.374  0.2826  0.5513  0.2418
 2618WAT     H112277   8.174   8.085   8.301 -1.4295  2.1885  1.3346
 2618WAT     H212278   8.219   8.021   8.431 -0.2543  0.6413  0.2089
 2618WAT    EPW12279   8.225   8.085   8.372 -0.0143  0.7792  0.3819
 2619WAT      O12280   7.556   6.285   0.543 -0.5044 -0.4671 -0.4725
 2619WAT     H112281   7.490   6.308   0.608  0.6880  0.8282  0.3379
 2619WAT     H212282   7.545   6.351   0.474  1.8897  1.7938  1.1198
 2619WAT    EPW12283   7.546   6.297   0.542 -0.0312  0.0017 -0.1556
 2620WAT      O12284   6.382   3.249   8.971  0.0526 -0.0338 -0.4386
 2620WAT     H112285   6.452   3.295   8.924 -1.2824  1.0449 -1.4324
 2620WAT     H212286   6.311   3.242   8.907 -0.7250 -1.1987  0.5162
 2620WAT    EPW12287   6.382   3.254   8.957 -0.2263 -0.0452 -0.4435
 2621WAT      O12288  10.860   8.831   7.705 -0.1866  0.4006 -0.0102
 2621WAT     H112289  10.794   8.775   7.746  1.0906 -0.5127  0.8753
 2621WAT     H212290  10.919   8.855   7.776 -0.0558  1.9573 -0.6062
 2621WAT    EPW12291  10.859   8.827   7.720 -0.0014  0.4854  0.0281
 2622WAT      O12292   7.200   4.674   1.287  0.4504  1.0468 -0.0975
 2622WAT     H112293   7.124   4.725   1.317  0.6026  0.3431  1.5822
 2622WAT     H212294   7.275   4.732   1.303  0.2884  1.9462 -2.2305
 2622WAT    EPW12295   7.200   4.689   1.293  0.4489  1.0729 -0.1574
 2623WAT      O12296   6.328   5.514   0.703 -0.0934  0.4666  0.3035
 2623WAT     H112297   6.332   5.430   0.657  2.4590 -0.6963  2.3739
 2623WAT     H212298   6.344   5.579   0.635 -0.9178 -0.7744 -1.1497
 2623WAT    EPW12299   6.331   5.511   0.688  0.1347  0.1495  0.3849
 2624WAT      O12300   0.039  10.342   7.035  0.1804 -0.3174 -0.5952
 2624WAT     H112301  -0.015  10.335   7.114  1.3795 -0.0156  0.2820
 2624WAT     H212302   0.029  10.433   7.008  1.2521  0.1068  0.3425
 2624WAT    EPW12303   0.031  10.353   7.042  0.4798 -0.2217 -0.3557
 2625WAT      O12304  10.955   1.687   6.155 -0.3911  0.5651 -0.3074
 2625WAT     H112305  11.026   1.742   6.120 -0.5357  0.0442 -1.4714
 2625WAT     H212306  10.988   1.657   6.240 -0.0930  2.0166  0.1212
 2625WAT    EPW12307  10.969   1.690   6.161 -0.3705  0.6878 -0.4044
 2626WAT      O12308   5.343   1.318   7.221 -0.1930 -0.2910 -0.4498
 2626WAT     H112309   5.253   1.352   7.223 -0.6867 -1.5496  0.8510
 2626WAT     H212310   5.366   1.308   7.313  0.8821 -1.0188 -0.7879
 2626WAT    EPW12311   5.334   1.321   7.234 -0.1166 -0.5530 -0.3233
 2627WAT      O12312   0.484   2.375   6.676  0.5071  0.2698 -0.3040
 2627WAT     H112313   0.467   2.467   6.658  1.9798  0.4052 -1.1268
 2627WAT     H212314   0.397   2.334   6.672 -0.2022  1.6448  0.3728
 2627WAT    EPW12315   0.470   2.381   6.673  0.6078  0.4691 -0.3233
 2628WAT      O12316   4.462   0.335   8.643 -0.1643 -0.1725 -0.3659
 2628WAT     H112317   4.437   0.347   8.551 -3.3808 -1.5736  0.1686
 2628WAT     H212318   4.533   0.271   8.641  1.5542  1.6525 -1.9262
 2628WAT    EPW12319   4.468   0.328   8.631 -0.3619 -0.1166 -0.5016
 2629WAT      O12320   6.348   8.017   2.056  0.2391  0.0569 -0.7107
 2629WAT     H112321   6.438   7.984   2.061  1.1409  2.3674 -0.5807
 2629WAT     H212322   6.323   8.001   1.965  0.1537 -2.0083 -0.3739
 2629WAT    EPW12323   6.356   8.010   2.044  0.3467  0.0892 -0.6491
 2630WAT      O12324   4.689   0.532   6.698 -0.2163 -0.3625 -0.3297
 2630WAT     H112325   4.642   0.487   6.628  0.0679 -1.0782 -0.0666
 2630WAT     H212326   4.709   0.464   6.762  0.4332  0.0885 -0.0348
 2630WAT    EPW12327   4.686   0.517   6.697 -0.0932 -0.3974 -0.2563
 2631WAT      O12328   3.464   0.647   6.439  0.1105 -0.3409 -0.2470
 2631WAT     H112329   3.527   0.699   6.490  0.2315 -1.3596  0.6931
 2631WAT     H212330   3.500   0.646   6.351  0.9182 -0.1026  0.0696
 2631WAT    EPW12331   3.477   0.654   6.434  0.2329 -0.4438 -0.0811
 2632WAT      O12332   9.063   4.585   0.554  0.8663 -0.1707  0.5449
 2632WAT     H112333   9.121   4.536   0.613  0.7592 -0.1186  0.6902
 2632WAT     H212334   8.981   4.536   0.554 -0.6977  2.1149  3.8338
 2632WAT    EPW12335   9.060   4.572   0.562  0.6456  0.1373  0.9979
 2633WAT      O12336   5.644   2.132   5.231  0.5098 -0.3768  0.1478
 2633WAT     H112337   5.552   2.138   5.205  0.5098  0.4279  0.3096
 2633WAT     H212338   5.644   2.149   5.325  0.4515 -3.8460  0.9078
 2633WAT    EPW12339   5.632   2.135   5.240  0.5021 -0.7281  0.2697
 2634WAT      O12340   6.050   6.981   2.675  0.2135 -0.6255  0.4091
 2634WAT     H112341   6.139   7.004   2.650  0.4638 -2.1296 -0.1806
 2634WAT     H212342   5.997   6.998   2.597  0.1020 -0.3937  0.5341
 2634WAT    EPW12343   6.055   6.986   2.662  0.2320 -0.7935  0.3479
 2635WAT      O12344   2.812   7.574   2.454 -0.2140  0.0150  0.3320
 2635WAT     H112345   2.891   7.585   2.507 -0.2555  1.3548  0.1603
 2635WAT     H212346   2.786   7.663   2.432 -2.1273 -0.3691  0.8747
 2635WAT    EPW12347   2.819   7.587   2.458 -0.4717  0.1414  0.3809
 2636WAT      O12348   5.831   4.815   0.926  1.0505  0.3768  0.3580
 2636WAT     H112349   5.782   4.885   0.883 -0.5037 -1.0622 -0.2966
 2636WAT     H212350   5.782   4.795   1.005  0.7593 -0.8216 -0.1065
 2636WAT    EPW12351   5.818   4.822   0.931  0.8073  0.0291  0.2103
 2637WAT      O12352   3.983   0.727   6.331  0.4069  1.2563  0.3153
 2637WAT     H112353   3.920   0.786   6.371 -1.2963  0.3786 -0.9136
 2637WAT     H212354   4.065   0.777   6.327  0.8385  1.3128  4.9733
 2637WAT    EPW12355   3.986   0.741   6.335  0.2393  1.1480  0.7675
 2638WAT      O12356   7.814   7.582   0.588  0.1521 -0.5671 -0.3036
 2638WAT     H112357   7.872   7.531   0.531  0.2608  0.1678 -0.8659
 2638WAT     H212358   7.868   7.656   0.616 -0.5020  0.1253 -0.8354
 2638WAT    EPW12359   7.829   7.585   0.584  0.0806 -0.3791 -0.4479
 2639WAT      O12360   5.928   2.742   7.766  0.4263 -0.5580  0.4402
 2639WAT     H112361   5.919   2.706   7.677 -3.1123  0.9489  0.0336
 2639WAT     H212362   5.986   2.818   7.755  0.8583 -0.9810 -0.3480
 2639WAT    EPW12363   5.935   2.747   7.753  0.0167 -0.4151  0.2828
 2640WAT      O12364   8.434   7.536   3.050  0.1723  0.2749 -0.3777
 2640WAT     H112365   8.407   7.621   3.082  0.1069  0.0497  0.1731
 2640WAT     H212366   8.354   7.497   3.015  0.5205  1.1243 -2.2412
 2640WAT    EPW12367   8.420   7.542   3.050  0.2098  0.3572 -0.5509
 2641WAT      O12368   1.040   7.869   3.069  0.0588  0.4186  0.1855
 2641WAT     H112369   0.972   7.885   3.134 -0.4863 -2.4118  0.4376
 2641WAT     H212370   1.015   7.922   2.994 -0.7837  1.6735  1.3162
 2641WAT    EPW12371   1.028   7.878   3.067 -0.1242  0.2105  0.3679
 2642WAT      O12372   2.989   3.718   2.338  0.0224 -0.8983 -0.4233
 2642WAT     H112373   2.902   3.730   2.298 -0.3204 -1.4839  0.1102
 2642WAT     H212374   3.051   3.736   2.268 -0.3968  2.5772 -0.0727
 2642WAT    EPW12375   2.985   3.722   2.324 -0.0781 -0.5171 -0.3067
 2643WAT      O12376   2.970   5.485   5.996 -0.5898  0.4396  0.0359
 2643WAT     H112377   3.062   5.465   6.014 -0.9980 -0.2867  1.4759
 2643WAT     H212378   2.963   5.480   5.901  0.7771  0.1252 -0.0731
 2643WAT    EPW12379   2.981   5.482   5.986 -0.4632  0.3023  0.2115
 2644WAT      O12380   2.954   3.735   7.802  0.2295 -0.1056  0.5504
 2644WAT     H112381   2.989   3.671   7.741 -0.7523  0.4189 -0.6235
 2644WAT     H212382   2.950   3.816   7.751 -1.5928  0.1052  0.9570
 2644WAT    EPW12383   2.958   3.737   7.787 -0.1403 -0.0086  0.4492
 2645WAT      O12384   0.020   0.421   3.790  0.6926  0.6213 -0.2189
 2645WAT     H112385  -0.043   0.484   3.756  1.7921  1.4257 -0.8443
 2645WAT     H212386   0.002   0.418   3.884 -1.3779 -0.4861 -0.6019
 2645WAT    EPW12387   0.009   0.429   3.798  0.5641  0.5813 -0.3519
 2646WAT      O12388   7.063   4.849   7.648  0.3925 -0.0415  0.9650
 2646WAT     H112389   7.029   4.873   7.562  1.2607 -2.2239 -0.0622
 2646WAT     H212390   7.157   4.869   7.642  0.5595 -0.7468  1.1715
 2646WAT    EPW12391   7.071   4.855   7.636  0.5293 -0.4222  0.8566
 2647WAT      O12392   9.907   9.300   6.834 -0.0049  0.1057  0.1372
 2647WAT     H112393   9.995   9.262   6.827  0.7866  2.0782 -2.0302
 2647WAT     H212394   9.920   9.380   6.885 -0.7980 -0.1877  0.8205
 2647WAT    EPW12395   9.920   9.305   6.840 -0.0052  0.3271 -0.0587
 2648WAT      O12396   9.835   8.339   0.502  0.1661  0.3105  0.9945
 2648WAT     H112397   9.805   8.268   0.446  1.4367 -0.8064  1.6527
 2648WAT     H212398   9.783   8.415   0.476  0.7395 -0.1229 -1.7269
 2648WAT    EPW12399   9.824   8.340   0.491  0.4091  0.1059  0.7224
 2649WAT      O12400   8.634   4.433   1.312 -0.4568  0.3421  0.0471
 2649WAT     H112401   8.550   4.452   1.352  0.5915  0.4833  2.3241
 2649WAT     H212402   8.618   4.358   1.255 -2.3524  1.1434 -0.5338
 2649WAT    EPW12403   8.621   4.426   1.310 -0.5684  0.4663  0.2709
 2650WAT      O12404   6.811   2.825   8.477  0.0200  0.1035  0.5717
 2650WAT     H112405   6.877   2.882   8.438 -0.1812  0.1526  0.2994
 2650WAT     H212406   6.731   2.843   8.427 -0.0170 -0.4939  0.4021
 2650WAT    EPW12407   6.810   2.835   8.465 -0.0112  0.0311  0.5136
 2651WAT      O12408   3.842   0.908   6.539  0.3106  0.3216  0.1622
 2651WAT     H112409   3.862   0.859   6.618 -1.8306  0.2081  0.6894
 2651WAT     H212410   3.913   0.972   6.531  0.9711 -0.1861  1.7241
 2651WAT    EPW12411   3.854   0.910   6.548  0.1154  0.2396  0.4377
 2652WAT      O12412   0.258   3.473   7.763 -0.1469 -0.0616 -0.1362
 2652WAT     H112413   0.288   3.390   7.726 -4.7671 -1.6015 -1.0381
 2652WAT     H212414   0.276   3.537   7.695 -0.9168 -1.2996 -1.5585
 2652WAT    EPW12415   0.265   3.470   7.749 -0.8578 -0.4281 -0.4425
 2653WAT      O12416   6.500   0.766   7.408 -0.7049 -0.1338 -0.0643
 2653WAT     H112417   6.518   0.713   7.485  0.6853 -1.5986 -1.3204
 2653WAT     H212418   6.492   0.855   7.442 -2.0815 -0.9544  1.9805
 2653WAT    EPW12419   6.502   0.771   7.423 -0.7029 -0.4352  0.0396
 2654WAT      O12420   2.434   2.083   7.709  0.8315  0.5092 -0.1856
 2654WAT     H112421   2.520   2.095   7.669 -0.1360  0.8242 -2.3434
 2654WAT     H212422   2.445   2.011   7.771  2.8822  1.3198  0.4621
 2654WAT    EPW12423   2.447   2.075   7.712  0.9743  0.6577 -0.3848
 2655WAT      O12424   4.764   0.413   8.838  0.2487 -0.2652  0.1535
 2655WAT     H112425   4.753   0.373   8.752  1.4206 -0.0955 -0.0978
 2655WAT     H212426   4.798   0.343   8.893 -3.3892 -1.2818  1.3836
 2655WAT    EPW12427   4.767   0.399   8.834 -0.0768 -0.3769  0.2828
 2656WAT      O12428   4.767   4.276   1.881  0.1021  0.1119  0.1154
 2656WAT     H112429   4.699   4.343   1.874  2.2563  2.2999 -3.7406
 2656WAT     H212430   4.846   4.325   1.903  1.3209 -1.5307 -0.3918
 2656WAT    EPW12431   4.768   4.291   1.883  0.5472  0.1841 -0.4600
 2657WAT      O12432   6.265   1.017   7.703  0.1105  0.9836 -0.3790
 2657WAT     H112433   6.170   1.014   7.689 -0.0820 -0.2222  1.0451
 2657WAT     H212434   6.295   1.083   7.640 -2.0483  3.7984  1.2840
 2657WAT    EPW12435   6.256   1.026   7.693 -0.1996  1.1958  0.0284
 2658WAT      O12436   4.499   1.956   7.129 -0.1415  0.1519 -0.0326
 2658WAT     H112437   4.566   1.920   7.071 -0.4647  1.1056 -1.0148
 2658WAT     H212438   4.424   1.972   7.072  0.0656  2.6066  0.3067
 2658WAT    EPW12439   4.498   1.953   7.114 -0.1569  0.6014 -0.1175
 2659WAT      O12440   4.552   1.048   5.399  0.9758 -0.5150  0.3686
 2659WAT     H112441   4.576   0.962   5.433 -0.2196 -0.9618  0.1435
 2659WAT     H212442   4.469   1.069   5.442  0.6616 -0.0022 -0.4417
 2659WAT    EPW12443   4.544   1.040   5.409  0.7765 -0.5063  0.2320
 2660WAT      O12444   9.979   8.721   2.587 -0.2646  0.7211 -0.5201
 2660WAT     H112445   9.897   8.699   2.544  0.6577 -2.2281 -1.0230
 2660WAT     H212446  10.045   8.717   2.517  0.5038  1.7439  0.1038
 2660WAT    EPW12447   9.977   8.718   2.572 -0.0420  0.4668 -0.5040
 2661WAT      O12448   2.596   4.543   8.419 -0.3406  0.0174 -0.3489
 2661WAT     H112449   2.601   4.593   8.337 -2.1182 -1.7658 -1.6490
 2661WAT     H212450   2.508   4.560   8.452 -0.7713 -1.7046 -0.5113
 2661WAT    EPW12451   2.585   4.551   8.412 -0.6319 -0.4447 -0.5422
 2662WAT      O12452   6.745   6.042   2.966  0.0502  0.2116  0.1720
 2662WAT     H112453   6.683   6.025   2.895  0.3829 -0.0274 -0.0603
 2662WAT     H212454   6.821   5.987   2.946  0.0265 -0.0824  0.8698
 2662WAT    EPW12455   6.747   6.033   2.954  0.0911  0.1411  0.2333
 2663WAT      O12456   7.659   8.479   0.232 -0.5835  0.0539 -0.0404
 2663WAT     H112457   7.675   8.461   0.139 -3.4237  1.9048 -1.0074
 2663WAT     H212458   7.662   8.393   0.274 -1.7794 -1.1961 -2.3224
 2663WAT    EPW12459   7.661   8.465   0.225 -1.1156  0.1330 -0.4689
 2664WAT      O12460   6.303   5.051   5.549 -0.0294 -0.1139  0.3248
 2664WAT     H112461   6.322   4.973   5.601 -0.0906 -1.1736 -1.1922
 2664WAT     H212462   6.388   5.091   5.533  0.0727 -0.2468  0.5363
 2664WAT    EPW12463   6.317   5.046   5.554 -0.0238 -0.2713  0.1526
 2665WAT      O12464   4.766   6.292   0.109  0.2273  0.9095 -0.1249
 2665WAT     H112465   4.803   6.348   0.177  0.2142  1.6980 -0.7540
 2665WAT     H212466   4.724   6.221   0.157  2.5276 -0.0255  0.6286
 2665WAT    EPW12467   4.765   6.290   0.124  0.5288  0.8900 -0.1085
 2666WAT      O12468   1.842   7.651   8.846 -0.0117 -0.3362 -0.0482
 2666WAT     H112469   1.797   7.577   8.887 -1.7651  0.0628 -1.1389
 2666WAT     H212470   1.771   7.708   8.816  1.2555  0.6666 -1.2633
 2666WAT    EPW12471   1.827   7.649   8.848 -0.0758 -0.1516 -0.3519
 2667WAT      O12472   1.445   3.363   7.220  0.1354  0.7403  0.5378
 2667WAT     H112473   1.403   3.277   7.210  0.0622  0.7998  0.3103
 2667WAT     H212474   1.408   3.415   7.148 -0.0994  1.0717  0.8988
 2667WAT    EPW12475   1.434   3.359   7.209  0.0948  0.7920  0.5553
 2668WAT      O12476   8.408   7.689   2.487 -0.8035  0.0200  0.2618
 2668WAT     H112477   8.383   7.691   2.395 -0.4177  0.2422  0.1574
 2668WAT     H212478   8.503   7.704   2.486 -0.4402 -1.9717  0.5595
 2668WAT    EPW12479   8.417   7.691   2.475 -0.7043 -0.2131  0.2873
 2669WAT      O12480   4.331   6.730   0.860  0.5012 -0.4839  0.8165
 2669WAT     H112481   4.299   6.820   0.862 -0.6286 -0.8497  0.4111
 2669WAT     H212482   4.363   6.713   0.949  1.7957  0.6669  0.5931
 2669WAT    EPW12483   4.331   6.740   0.872  0.5229 -0.3803  0.7336
 2670WAT      O12484   5.363   0.495   5.879  0.1820  0.1098  0.1422
 2670WAT     H112485   5.427   0.501   5.949 -0.6632  0.6422  0.8993
 2670WAT     H212486   5.414   0.503   5.799  1.3460 -1.9880  0.6118
 2670WAT    EPW12487   5.378   0.497   5.878  0.2241 -0.0967  0.3040
 2671WAT      O12488  10.571   9.028   7.758  0.1824 -0.6383 -0.1386
 2671WAT     H112489  10.618   9.102   7.798 -0.6712  0.5060 -1.1787
 2671WAT     H212490  10.534   8.980   7.832  0.9889 -0.1940  0.5714
 2671WAT    EPW12491  10.573   9.032   7.773  0.1760 -0.4287 -0.1822
 2672WAT      O12492   3.835   4.087   6.973 -0.0996  0.1107 -0.4273
 2672WAT     H112493   3.882   4.006   6.955 -0.9652 -0.4392 -0.2615
 2672WAT     H212494   3.842   4.137   6.891 -1.5929 -1.1708 -1.3821
 2672WAT    EPW12495   3.842   4.083   6.959 -0.4106 -0.1309 -0.5314
 2673WAT      O12496   9.352   5.116   8.393 -0.3422  0.0644  0.6304
 2673WAT     H112497   9.338   5.065   8.313  0.9313  0.5303  0.0865
 2673WAT     H212498   9.290   5.079   8.456 -0.6436 -1.0065 -0.2559
 2673WAT    EPW12499   9.342   5.104   8.391 -0.2141 -0.0153  0.4420
 2674WAT      O12500   4.815   2.628   7.106  0.1571 -0.0610  0.6929
 2674WAT     H112501   4.822   2.538   7.136 -0.0123 -0.3700 -0.1593
 2674WAT     H212502   4.749   2.625   7.037  1.2111  0.4309 -0.3891
 2674WAT    EPW12503   4.807   2.616   7.100  0.2739 -0.0368  0.4377
 2675WAT      O12504   9.238   7.580   0.004 -0.2115 -0.3539 -0.6358
 2675WAT     H112505   9.269   7.670   0.009  0.0266 -0.3110 -2.2616
 2675WAT     H212506   9.315   7.527   0.022 -0.5977 -0.2778  1.5087
 2675WAT    EPW12507   9.252   7.585   0.007 -0.2308 -0.3381 -0.5674
 2676WAT      O12508   7.521   4.900   0.495 -0.4433 -0.1724 -0.9674
 2676WAT     H112509   7.479   4.905   0.581 -0.5998 -0.0903 -1.0487
 2676WAT     H212510   7.580   4.975   0.493 -1.8789  1.0079 -1.6980
 2676WAT    EPW12511   7.523   4.911   0.506 -0.6533 -0.0060 -1.0745
 2677WAT      O12512   2.703   1.760   7.666 -0.3603  1.1757  0.0618
 2677WAT     H112513   2.669   1.766   7.577  2.0091 -0.2396 -1.0181
 2677WAT     H212514   2.797   1.752   7.656 -0.1461 -1.0120  2.5530
 2677WAT    EPW12515   2.711   1.760   7.653 -0.0197  0.7005  0.2480
 2678WAT      O12516   6.174   6.265   0.651 -0.1178 -0.5228 -0.2529
 2678WAT     H112517   6.151   6.195   0.711 -0.8252  1.4502  1.9112
 2678WAT     H212518   6.261   6.294   0.680 -0.8589  1.0641  0.4670
 2678WAT    EPW12519   6.183   6.259   0.662 -0.3090 -0.0534  0.1275
 2679WAT      O12520   5.823   3.949   6.681  0.2277 -0.0275  0.2105
 2679WAT     H112521   5.795   4.014   6.746 -1.9727  0.3865 -1.0741
 2679WAT     H212522   5.919   3.955   6.683  0.2065  0.8846  2.4629
 2679WAT    EPW12523   5.832   3.958   6.690 -0.0651  0.1476  0.3378
 2680WAT      O12524   9.224   7.254   0.552  0.6154 -0.3384  0.4785
 2680WAT     H112525   9.248   7.303   0.473  2.4129 -3.0761 -0.8252
 2680WAT     H212526   9.161   7.188   0.521 -0.5779  0.0828  1.8776
 2680WAT    EPW12527   9.218   7.252   0.537  0.6948 -0.6437  0.4911
 2681WAT      O12528   7.658   5.624   2.837 -0.2404  0.1664  0.2350
 2681WAT     H112529   7.723   5.603   2.903 -0.2978  0.6669  0.4561
 2681WAT     H212530   7.576   5.632   2.886 -0.5664 -0.9686 -0.1107
 2681WAT    EPW12531   7.655   5.623   2.852 -0.2909  0.0827  0.2186
 2682WAT      O12532  10.449  10.203   2.103 -0.8802 -0.2937 -0.1119
 2682WAT     H112533  10.464  10.279   2.046 -0.9448 -0.0422  0.2029
 2682WAT     H212534  10.399  10.142   2.048 -1.2003  0.0723 -0.2329
 2682WAT    EPW12535  10.444  10.205   2.088 -0.9308 -0.2127 -0.0862
 2683WAT      O12536   8.824   2.705   8.438 -0.6352  0.2182 -0.1737
 2683WAT     H112537   8.892   2.640   8.454 -1.5460 -0.1057  3.1205
 2683WAT     H212538   8.849   2.780   8.492 -1.2778  1.3920 -1.4317
 2683WAT    EPW12539   8.836   2.706   8.447 -0.8397  0.3302  0.0949
 2684WAT      O12540   0.768   9.481   0.185 -0.1623  0.0920  0.1021
 2684WAT     H112541   0.845   9.535   0.198  1.1120 -1.5439 -0.3050
 2684WAT     H212542   0.711   9.533   0.129 -0.1253  2.0024  1.7426
 2684WAT    EPW12543   0.770   9.495   0.179  0.0106  0.1283  0.2648
 2685WAT      O12544   6.892   9.923   1.059 -0.0503  0.1027  0.1715
 2685WAT     H112545   6.921   9.840   1.021  3.0243  0.8766  0.5118
 2685WAT     H212546   6.904   9.911   1.153  1.0752  1.0794  0.1825
 2685WAT    EPW12547   6.898   9.911   1.066  0.5038  0.3338  0.2179
 2686WAT      O12548   6.711   3.877   8.021  0.1582  0.3113  0.1075
 2686WAT     H112549   6.753   3.947   7.972  0.4563 -0.7169 -1.1731
 2686WAT     H212550   6.619   3.880   7.994 -0.4807  2.0072  2.2498
 2686WAT    EPW12551   6.704   3.886   8.011  0.1132  0.3994  0.2213
 2687WAT      O12552   6.502   4.212   8.089 -0.4949  0.0521  0.3864
 2687WAT     H112553   6.540   4.201   8.177 -0.0642 -0.4439  0.1434
 2687WAT     H212554   6.495   4.123   8.054  2.2990  0.3692 -1.2954
 2687WAT    EPW12555   6.506   4.199   8.096 -0.0696  0.0284  0.1330
 2688WAT      O12556   6.848   4.208   8.334 -0.0416 -0.0034  0.1663
 2688WAT     H112557   6.800   4.226   8.252  0.1615  1.6413  0.3903
 2688WAT     H212558   6.910   4.139   8.310 -1.8339 -1.5123 -0.3758
 2688WAT    EPW12559   6.850   4.201   8.320 -0.2511  0.0145  0.1245
 2689WAT      O12560   0.719   9.786   0.704  0.2903  0.2622  0.4717
 2689WAT     H112561   0.703   9.708   0.651 -1.8239  0.1179  1.2011
 2689WAT     H212562   0.756   9.752   0.786  1.1349  0.2227  0.0757
 2689WAT    EPW12563   0.722   9.771   0.708  0.1229  0.2379  0.5157
 2690WAT      O12564   9.304   8.244   4.042  0.2513 -0.3568 -0.0251
 2690WAT     H112565   9.231   8.196   4.002  0.0189  0.4465 -0.6042
 2690WAT     H212566   9.347   8.180   4.099  0.3739 -1.4578 -1.2880
 2690WAT    EPW12567   9.300   8.229   4.044  0.2370 -0.3958 -0.2682
 2691WAT      O12568   7.154   3.678   8.358  0.5731 -0.0138 -0.6532
 2691WAT     H112569   7.106   3.732   8.295 -0.4464  0.8454  0.7930
 2691WAT     H212570   7.088   3.655   8.424  2.0904  1.1602  1.3820
 2691WAT    EPW12571   7.139   3.682   8.359  0.6387  0.2544 -0.1941
 2692WAT      O12572   9.794   4.157   8.707 -0.1573  0.2619  0.7030
 2692WAT     H112573   9.788   4.239   8.754  1.4079 -0.4983  2.3428
 2692WAT     H212574   9.761   4.091   8.768  1.2127 -0.6453  0.5311
 2692WAT    EPW12575   9.789   4.159   8.721  0.2303  0.0420  0.8965
 2693WAT      O12576  10.972   7.454   0.944  0.3100 -0.4171  0.0605
 2693WAT     H112577  10.952   7.425   1.033 -1.6975 -0.6390 -0.4120
 2693WAT     H212578  11.043   7.397   0.916  0.8043 -0.5131  1.4192
 2693WAT    EPW12579  10.979   7.443   0.952  0.1101 -0.4592  0.1774
 2694WAT      O12580   9.380   9.072   1.208 -0.4258  0.6852 -0.5540
 2694WAT     H112581   9.457   9.128   1.207 -0.3007  0.5302 -1.7809
 2694WAT     H212582   9.350   9.071   1.117 -0.1690 -1.5690 -0.6811
 2694WAT    EPW12583   9.386   9.079   1.196 -0.3757  0.3676 -0.7325
 2695WAT      O12584   4.820   3.348   7.976  0.1564  0.0786  0.8727
 2695WAT     H112585   4.800   3.297   7.898  1.1449  0.9931 -0.0132
 2695WAT     H212586   4.914   3.367   7.970 -0.2095  2.2230  0.9974
 2695WAT    EPW12587   4.830   3.344   7.965  0.2382  0.4820  0.7722
 2696WAT      O12588   8.909   6.862   0.630 -0.2116 -0.6378 -0.0224
 2696WAT     H112589   8.957   6.900   0.703 -2.0032 -0.2534  1.0160
 2696WAT     H212590   8.862   6.788   0.668 -1.2480 -0.3856 -0.7528
 2696WAT    EPW12591   8.909   6.857   0.644 -0.5851 -0.5538  0.0182
 2697WAT      O12592   8.593   9.867   0.389  0.3853  0.3085  0.1072
 2697WAT     H112593   8.688   9.863   0.403  0.2232  1.5970  1.9064
 2697WAT     H212594   8.564   9.776   0.397  1.2497  0.1212  1.5881
 2697WAT    EPW12595   8.602   9.855   0.392  0.4778  0.4535  0.5398
 2698WAT      O12596   2.850   0.804   3.141 -0.7162 -0.5859 -0.3010
 2698WAT     H112597   2.908   0.819   3.216  2.3765 -0.9736 -2.4184
 2698WAT     H212598   2.820   0.891   3.116 -0.4645 -0.2895  0.4000
 2698WAT    EPW12599   2.853   0.817   3.148 -0.2750 -0.5979 -0.4878
 2699WAT      O12600  10.783   1.968   8.679 -0.0967 -0.0635  0.0323
 2699WAT     H112601  10.751   2.051   8.714 -2.4760 -1.6184  1.8545
 2699WAT     H212602  10.735   1.958   8.596 -1.2300 -0.4589  0.7237
 2699WAT    EPW12603  10.772   1.978   8.672 -0.5598 -0.3208  0.3638
 2700WAT      O12604   5.571   2.929   8.860  0.3463 -0.1259 -0.7196
 2700WAT     H112605   5.514   3.004   8.877 -2.4940 -1.8327 -1.9993
 2700WAT     H212606   5.624   2.956   8.786 -1.3876  0.3319 -1.8571
 2700WAT    EPW12607   5.570   2.943   8.853 -0.2573 -0.2906 -1.0386
 2701WAT      O12608   7.978   5.711   0.303  0.1154  0.2907  0.1759
 2701WAT     H112609   7.966   5.804   0.320 -0.8669 -0.0017  1.1762
 2701WAT     H212610   7.896   5.683   0.262  1.4419  0.4213 -2.8186
 2701WAT    EPW12611   7.965   5.720   0.300  0.1609  0.2697 -0.0871
 2702WAT      O12612   9.029   5.942   8.528 -0.3850 -0.0049  0.4268
 2702WAT     H112613   9.032   5.878   8.457 -1.4023 -0.6140  0.9237
 2702WAT     H212614   8.937   5.966   8.536 -0.2657  0.1670  1.4511
 2702WAT    EPW12615   9.017   5.937   8.519 -0.5035 -0.0627  0.6275
 2703WAT      O12616   4.888   3.106   8.722 -0.3585  0.3224  0.5878
 2703WAT     H112617   4.894   3.180   8.782 -0.2095  0.0303  0.9406
 2703WAT     H212618   4.932   3.035   8.768  2.1011  0.7615 -0.9133
 2703WAT    EPW12619   4.895   3.106   8.736 -0.0143  0.3419  0.4363
 2704WAT      O12620   3.709   2.852   8.069  0.1813 -0.5262 -0.0383
 2704WAT     H112621   3.729   2.916   8.000 -1.4871 -2.0267 -2.0617
 2704WAT     H212622   3.792   2.840   8.115  0.4701  3.3695  0.7724
 2704WAT    EPW12623   3.722   2.859   8.066 -0.0006 -0.2103 -0.1979
 2705WAT      O12624   8.770   8.864   2.476 -0.0658  0.9167 -0.5198
 2705WAT     H112625   8.772   8.902   2.564 -0.2478 -1.1051  0.3972
 2705WAT     H212626   8.677   8.847   2.460  0.2284 -2.8335  0.8360
 2705WAT    EPW12627   8.758   8.867   2.486 -0.0505  0.1554 -0.2199
 2706WAT      O12628   7.845   1.277   6.274  0.3826  0.5373 -0.0916
 2706WAT     H112629   7.910   1.220   6.314  0.6913  1.5907  0.9715
 2706WAT     H212630   7.762   1.251   6.314  0.4918  0.6976  0.2400
 2706WAT    EPW12631   7.843   1.266   6.285  0.4377  0.6974  0.0923
 2707WAT      O12632   4.833   0.840   7.736 -0.4158  0.5240 -0.5686
 2707WAT     H112633   4.885   0.864   7.812 -2.2555 -2.3565  1.8478
 2707WAT     H212634   4.798   0.923   7.703  0.0088  1.8687  2.1120
 2707WAT    EPW12635   4.835   0.854   7.742 -0.6025  0.3214  0.1037
 2708WAT      O12636   0.616   7.111   0.493 -0.5373 -0.5288 -0.3280
 2708WAT     H112637   0.631   7.037   0.551  0.1576 -0.4722 -0.4188
 2708WAT     H212638   0.694   7.114   0.437  0.0060  0.9599  0.4424
 2708WAT    EPW12639   0.629   7.102   0.493 -0.3740 -0.3250 -0.2384
 2709WAT      O12640   9.479   9.527   0.364 -0.2909 -0.1863 -0.4648
 2709WAT     H112641   9.452   9.618   0.369 -0.0632 -0.1353 -0.1308
 2709WAT     H212642   9.405   9.482   0.324 -0.2608  0.2012 -0.9675
 2709WAT    EPW12643   9.466   9.533   0.360 -0.2565 -0.1287 -0.4870
 2710WAT      O12644   9.518   5.871   1.182 -0.1821  0.3375  0.2074
 2710WAT     H112645   9.594   5.844   1.131  0.6778  1.9920  0.5337
 2710WAT     H212646   9.456   5.907   1.118 -0.6771 -0.9370 -0.0491
 2710WAT    EPW12647   9.520   5.873   1.167 -0.1340  0.3877  0.2166
 2711WAT      O12648   0.974   9.032   0.004  0.0520 -0.0596 -0.0752
 2711WAT     H112649   1.027   9.058  -0.071 -0.5384 -0.9465 -0.8252
 2711WAT     H212650   0.884   9.057  -0.020  0.0371  0.9569  0.9580
 2711WAT    EPW12651   0.969   9.038  -0.009 -0.0278 -0.0429 -0.0378
 2712WAT      O12652   8.951  10.328   6.137  0.2570  0.1468 -0.3819
 2712WAT     H112653   8.909  10.309   6.221  1.0483 -1.9393 -0.3944
 2712WAT     H212654   8.914  10.264   6.076  1.1104  0.3514 -1.1476
 2712WAT    EPW12655   8.941  10.317   6.140  0.4740 -0.1012 -0.4847
 2713WAT      O12656   4.866   2.924   1.807 -0.4776 -0.3059 -0.5824
 2713WAT     H112657   4.918   2.846   1.786 -2.0187 -1.3536 -0.7513
 2713WAT     H212658   4.821   2.901   1.888 -0.5361  0.6324 -0.3411
 2713WAT    EPW12659   4.867   2.910   1.815 -0.6888 -0.3203 -0.5729
 2714WAT      O12660   9.375   9.465   1.344 -0.1257  0.3937  0.3603
 2714WAT     H112661   9.308   9.471   1.277 -0.5591  0.6887  0.8135
 2714WAT     H212662   9.439   9.533   1.321  0.3189 -0.2607 -0.3912
 2714WAT    EPW12663   9.375   9.475   1.332 -0.1245  0.3467  0.3209
 2715WAT      O12664   7.667   6.955   0.336 -0.7144 -0.5151  0.2432
 2715WAT     H112665   7.674   6.862   0.315 -0.2360 -0.8824  1.8651
 2715WAT     H212666   7.722   6.966   0.414 -1.8427  0.8473  0.8959
 2715WAT    EPW12667   7.675   6.944   0.344 -0.8001 -0.3839  0.5432
 2716WAT      O12668   3.911   1.269   0.936 -0.0463  0.3051 -0.4966
 2716WAT     H112669   3.823   1.233   0.924 -0.5039  0.9120  0.8307
 2716WAT     H212670   3.912   1.348   0.882 -0.2068  0.1076 -0.7867
 2716WAT    EPW12671   3.899   1.275   0.928 -0.1278  0.3591 -0.3598
 2717WAT      O12672   7.583   9.291   1.372  0.3620  0.0936  0.1640
 2717WAT     H112673   7.647   9.350   1.412 -0.0618  0.1915  0.7240
 2717WAT     H212674   7.633   9.213   1.350  0.5528 -0.0997  1.2182
 2717WAT    EPW12675   7.598   9.289   1.374  0.3314  0.0811  0.3769
 2718WAT      O12676   2.790   3.024   7.674  0.1180 -0.1704 -0.1460
 2718WAT     H112677   2.786   3.044   7.767 -0.6548  1.1567 -0.4423
 2718WAT     H212678   2.884   3.016   7.656  0.3522  1.0529  0.4544
 2718WAT    EPW12679   2.802   3.025   7.684  0.0468  0.1661 -0.1059
 2719WAT      O12680   4.318   4.832   8.222 -0.1688 -0.3047  0.1703
 2719WAT     H112681   4.294   4.833   8.315 -2.3782  2.0544 -0.2995
 2719WAT     H212682   4.389   4.895   8.215 -0.7068  0.3129  0.1455
 2719WAT    EPW12683   4.324   4.840   8.233 -0.5312  0.0880  0.1049
 2720WAT      O12684   8.681   7.725   2.463 -0.1063 -0.6588 -0.5893
 2720WAT     H112685   8.726   7.677   2.533 -1.6377 -1.1820  0.0840
 2720WAT     H212686   8.662   7.658   2.398  1.1382 -0.2097 -1.4378
 2720WAT    EPW12687   8.684   7.710   2.464 -0.1445 -0.6690 -0.6125
 2721WAT      O12688  10.065   5.859   0.730 -0.0424 -0.2035  0.0226
 2721WAT     H112689   9.998   5.856   0.661 -1.9442 -1.0460  1.7815
 2721WAT     H212690  10.077   5.767   0.755  0.4802  0.0948  0.9095
 2721WAT    EPW12691  10.058   5.846   0.724 -0.2236 -0.2751  0.3716
 2722WAT      O12692   7.618   0.646   6.417  0.5280  0.2373  0.0481
 2722WAT     H112693   7.606   0.557   6.382  2.9443 -0.8087  1.5926
 2722WAT     H212694   7.573   0.645   6.501  0.2623  0.6055 -0.0876
 2722WAT    EPW12695   7.611   0.634   6.424  0.8116  0.1479  0.2339
 2723WAT      O12696  10.598   7.931   1.045 -0.2900 -0.1861  0.5097
 2723WAT     H112697  10.570   7.949   1.135 -0.4394 -2.2412  0.9303
 2723WAT     H212698  10.543   7.857   1.018  1.5431 -1.3124 -0.3142
 2723WAT    EPW12699  10.587   7.924   1.054 -0.0687 -0.6056  0.4565
 2724WAT      O12700   9.708   8.298   3.934  0.3338 -0.0486  0.6777
 2724WAT     H112701   9.687   8.306   4.027  1.0718  3.7399  0.6505
 2724WAT     H212702   9.633   8.336   3.889 -1.4830 -4.5693 -0.6734
 2724WAT    EPW12703   9.695   8.304   3.941  0.1912 -0.1450  0.4959
 2725WAT      O12704  10.050   6.713   0.135 -0.3534 -0.3166 -0.0165
 2725WAT     H112705   9.962   6.750   0.141 -0.1752  0.3358 -1.0947
 2725WAT     H212706  10.074   6.723   0.043  1.2085  0.3540  0.4329
 2725WAT    EPW12707  10.041   6.719   0.124 -0.1240 -0.1421 -0.0995
 2726WAT      O12708   6.275   2.788   7.940 -0.8929  0.1718  0.1542
 2726WAT     H112709   6.343   2.851   7.914 -3.9776  3.7475 -0.0262
 2726WAT     H212710   6.281   2.719   7.874  0.9197  1.6527 -1.3525
 2726WAT    EPW12711   6.285   2.787   7.928 -1.0605  0.8389 -0.0682
 2727WAT      O12712  10.900   9.659   4.073 -0.6818  1.0377  0.7321
 2727WAT     H112713  10.922   9.567   4.056 -1.8766  0.9086 -0.2071
 2727WAT     H212714  10.966   9.708   4.024 -0.4684  0.6719  0.6460
 2727WAT    EPW12715  10.912   9.653   4.064 -0.8111  0.9723  0.5972
 2728WAT      O12716   7.320   2.524   7.493 -0.3611 -0.0915 -0.0310
 2728WAT     H112717   7.233   2.517   7.453 -0.2321  1.1668 -0.5816
 2728WAT     H212718   7.305   2.503   7.586 -1.2919  0.3001 -0.0765
 2728WAT    EPW12719   7.306   2.520   7.500 -0.4671  0.1261 -0.1097
 2729WAT      O12720   0.682   9.892   8.663 -1.3777  0.8786 -0.0666
 2729WAT     H112721   0.733   9.955   8.714 -0.5589 -1.7885  2.7769
 2729WAT     H212722   0.712   9.904   8.573  2.8644  0.9193  1.1282
 2729WAT    EPW12723   0.693   9.902   8.658 -0.7102  0.5317  0.4663
 2730WAT      O12724  10.056   1.752   5.899  0.1579 -0.2485  0.4910
 2730WAT     H112725  10.007   1.674   5.875 -2.2083  1.6249 -1.3359
 2730WAT     H212726  10.023   1.776   5.985 -2.2835  0.9232 -0.6697
 2730WAT    EPW12727  10.045   1.745   5.907 -0.4759  0.1531  0.0970
 2731WAT      O12728   5.801   7.151   3.107 -0.8465 -0.7293  0.9154
 2731WAT     H112729   5.742   7.213   3.065 -0.7545 -1.6183 -0.5808
 2731WAT     H212730   5.889   7.182   3.085 -0.7401 -0.1408  2.0654
 2731WAT    EPW12731   5.805   7.164   3.099 -0.8204 -0.7691  0.8698
 2732WAT      O12732   9.891   9.341   1.876 -0.3040  0.1192 -0.7442
 2732WAT     H112733   9.978   9.315   1.845 -0.4220 -3.6397  1.4805
 2732WAT     H212734   9.908   9.403   1.947  0.4659  0.3638 -1.1309
 2732WAT    EPW12735   9.905   9.346   1.881 -0.2179 -0.3448 -0.5018
 2733WAT      O12736   0.744   9.097   2.965  0.3669  0.8315  0.2587
 2733WAT     H112737   0.680   9.041   3.009 -0.6608  2.9819  1.6729
 2733WAT     H212738   0.802   9.036   2.920 -3.6618 -1.2719 -2.7331
 2733WAT    EPW12739   0.743   9.082   2.965 -0.3000  0.8378  0.0505
 2734WAT      O12740   2.621   8.864   6.946 -0.3491 -0.6776 -0.0605
 2734WAT     H112741   2.663   8.813   7.015  0.8969  1.2508  0.6665
 2734WAT     H212742   2.689   8.874   6.879 -1.1194 -1.3602 -0.9703
 2734WAT    EPW12743   2.636   8.859   6.946 -0.2865 -0.5131 -0.0846
 2735WAT      O12744   9.353   9.454   1.027 -0.0872  0.3654  0.2030
 2735WAT     H112745   9.423   9.519   1.020 -0.2837  0.6906  1.1035
 2735WAT     H212746   9.276   9.504   1.054 -0.0720 -0.3048  1.6349
 2735WAT    EPW12747   9.352   9.469   1.030 -0.1111  0.3200  0.5106
 2736WAT      O12748  10.990   0.987   3.148 -0.7649 -0.0430  0.3813
 2736WAT     H112749  11.076   1.028   3.153  0.4241 -2.3027 -0.2962
 2736WAT     H212750  11.008   0.896   3.126 -3.3138 -0.7415  0.8700
 2736WAT    EPW12751  11.004   0.981   3.146 -0.9442 -0.4331  0.3564
 2737WAT      O12752   8.824   8.168   0.906  0.3733 -0.2501  0.4822
 2737WAT     H112753   8.883   8.174   0.831  2.3874 -1.2110  1.9084
 2737WAT     H212754   8.844   8.084   0.946 -0.4326  0.3554  2.2788
 2737WAT    EPW12755   8.834   8.158   0.901  0.5322 -0.2966  0.9073
 2738WAT      O12756  10.282   7.151   2.963  0.0856  0.2720 -0.4999
 2738WAT     H112757  10.271   7.234   2.918  0.6123  0.3721 -0.4409
 2738WAT     H212758  10.275   7.172   3.056  0.1937  0.2456 -0.4856
 2738WAT    EPW12759  10.279   7.165   2.969  0.1698  0.2818 -0.4903
 2739WAT      O12760   8.821   6.172   1.263  0.5923 -0.0857 -0.3174
 2739WAT     H112761   8.759   6.202   1.330 -0.7395  0.6749 -1.8214
 2739WAT     H212762   8.825   6.244   1.200  2.4296 -0.4473 -0.6794
 2739WAT    EPW12763   8.814   6.185   1.264  0.6590 -0.0331 -0.5635
 2740WAT      O12764  10.254   6.525   7.147  0.2049  0.3324  0.4736
 2740WAT     H112765  10.323   6.572   7.192  0.3358 -0.5731  1.2491
 2740WAT     H212766  10.188   6.508   7.215  0.0189 -0.3162  0.1364
 2740WAT    EPW12767  10.254   6.529   7.162  0.1979  0.1273  0.5312
 2741WAT      O12768  10.275   9.617   0.091 -0.6991 -0.4236 -0.0224
 2741WAT     H112769  10.244   9.686   0.032 -1.3625  0.5746  1.4030
 2741WAT     H212770  10.370   9.629   0.095 -0.8605  0.7845  0.6158
 2741WAT    EPW12771  10.283   9.628   0.084 -0.8082 -0.1330  0.2498
 2742WAT      O12772   5.628   5.312   8.536  0.1230  0.4562  0.0341
 2742WAT     H112773   5.709   5.327   8.583  2.7404  0.4304 -3.9887
 2742WAT     H212774   5.613   5.392   8.486 -1.3771 -0.1779 -0.6224
 2742WAT    EPW12775   5.636   5.324   8.535  0.2706  0.3695 -0.5832
 2743WAT      O12776   9.078   9.802   1.766  0.3487 -0.3421  0.3308
 2743WAT     H112777   9.078   9.791   1.671  1.4162 -1.8568  0.4722
 2743WAT     H212778   9.024   9.730   1.799 -0.0143  0.1731  0.8898
 2743WAT    EPW12779   9.071   9.791   1.758  0.4420 -0.4740  0.4233
 2744WAT      O12780   7.361   3.984   7.958  0.1972  0.2654 -0.3566
 2744WAT     H112781   7.271   4.016   7.963 -0.4377 -1.5569  1.3206
 2744WAT     H212782   7.361   3.904   8.011  3.2644  1.2321  1.3938
 2744WAT    EPW12783   7.349   3.977   7.966  0.5183  0.1525  0.0958
 2745WAT      O12784  10.519   9.913   2.771  0.1587 -0.2447  0.2197
 2745WAT     H112785  10.557   9.845   2.715  0.9372 -0.9970  1.5995
 2745WAT     H212786  10.553   9.995   2.735 -1.5917 -0.4007 -2.1036
 2745WAT    EPW12787  10.528   9.915   2.759  0.0310 -0.3643  0.0952
 2746WAT      O12788   6.710   8.827   2.853 -0.5069  0.6247 -0.7701
 2746WAT     H112789   6.707   8.916   2.818 -3.4628 -0.0491 -2.6241
 2746WAT     H212790   6.619   8.796   2.847  0.3429 -2.3892  0.1547
 2746WAT    EPW12791   6.698   8.834   2.848 -0.7846  0.1383 -0.8928
 2747WAT      O12792   5.392   4.928   7.460 -0.6845 -0.3371  0.6232
 2747WAT     H112793   5.348   4.890   7.384 -0.4023  2.2544 -0.9520
 2747WAT     H212794   5.425   5.012   7.429  2.1969 -0.5301  2.7722
 2747WAT    EPW12795   5.391   4.934   7.446 -0.2673 -0.0207  0.6986
 2748WAT      O12796   5.842   2.332   7.997  0.9681 -0.9817 -0.1267
 2748WAT     H112797   5.811   2.361   8.083 -0.8991 -0.5190 -0.9102
 2748WAT     H212798   5.934   2.311   8.011  1.8418  2.8892  1.1094
 2748WAT    EPW12799   5.850   2.333   8.010  0.8373 -0.4102 -0.0668
 2749WAT      O12800   4.366   0.564   7.205 -0.3293 -0.5164 -0.7187
 2749WAT     H112801   4.301   0.616   7.253  0.5252  1.0359 -1.1661
 2749WAT     H212802   4.410   0.513   7.273 -0.4152  0.2244 -0.0868
 2749WAT    EPW12803   4.363   0.564   7.220 -0.2279 -0.2140 -0.6943
 2750WAT      O12804   8.231   6.736   0.004 -0.3430  0.0020  0.5348
 2750WAT     H112805   8.246   6.799  -0.066 -3.6687 -1.2302 -1.5038
 2750WAT     H212806   8.270   6.655  -0.028  1.2921  0.2013  1.8359
 2750WAT    EPW12807   8.238   6.734  -0.009 -0.5660 -0.1342  0.4373
 2751WAT      O12808   9.581   8.481   2.539  0.3688  0.1804 -0.0264
 2751WAT     H112809   9.580   8.392   2.575 -1.9488  1.5005  3.6906
 2751WAT     H212810   9.492   8.495   2.507  0.6722  1.2444 -0.4309
 2751WAT    EPW12811   9.569   8.471   2.540  0.1035  0.4950  0.4104
 2752WAT      O12812   7.986   9.256   0.196  0.2836 -0.7380 -0.0790
 2752WAT     H112813   7.919   9.294   0.139  1.5139  0.6738 -0.6368
 2752WAT     H212814   7.945   9.175   0.230 -1.1152 -0.7159 -1.5824
 2752WAT    EPW12815   7.972   9.250   0.193  0.2618 -0.5488 -0.3509
 2753WAT      O12816   9.282   9.135   1.997  0.1942 -0.4913  0.2496
 2753WAT     H112817   9.200   9.134   2.046  0.4786 -1.6039  0.7342
 2753WAT     H212818   9.274   9.063   1.935  0.4571 -0.0548 -0.3022
 2753WAT    EPW12819   9.270   9.125   1.995  0.2666 -0.5803  0.2407
 2754WAT      O12820   2.322   0.934   3.205 -0.5066  0.0912  0.7409
 2754WAT     H112821   2.258   0.894   3.263 -0.6644 -0.2226  0.3540
 2754WAT     H212822   2.281   1.017   3.178  0.0259  0.7631  1.9217
 2754WAT    EPW12823   2.308   0.940   3.209 -0.4570  0.1384  0.8456
 2755WAT      O12824   8.010   5.927   7.881  0.6996 -0.3543  0.0030
 2755WAT     H112825   7.929   5.973   7.904  0.9507 -0.3253  0.8222
 2755WAT     H212826   8.049   5.903   7.964  0.0371 -3.0411 -0.3680
 2755WAT    EPW12827   8.004   5.930   7.895  0.6456 -0.7048  0.0620
 2756WAT      O12828   0.216   8.240   1.419  0.4369 -0.0121  0.4325
 2756WAT     H112829   0.216   8.288   1.502 -1.3787  0.7773  0.0252
 2756WAT     H212830   0.123   8.225   1.400  0.8542 -0.9924 -1.0070
 2756WAT    EPW12831   0.203   8.244   1.427  0.2525 -0.0372  0.1889
 2757WAT      O12832   0.224   9.528   8.217  0.3060  0.4039 -0.2954
 2757WAT     H112833   0.140   9.562   8.186 -0.1049 -0.0881  0.2649
 2757WAT     H212834   0.209   9.434   8.228  0.9030  0.3288 -0.1072
 2757WAT    EPW12835   0.211   9.520   8.214  0.3306  0.3290 -0.1969
 2758WAT      O12836   9.259   5.858   1.053 -0.2891 -0.3719 -0.6173
 2758WAT     H112837   9.193   5.796   1.085 -1.1253 -0.3280 -2.1793
 2758WAT     H212838   9.211   5.940   1.040  0.4297  0.1133 -0.2349
 2758WAT    EPW12839   9.244   5.860   1.056 -0.3042 -0.3021 -0.7728
 2759WAT      O12840   7.680   5.075   8.374 -0.1590  0.0286  0.2912
 2759WAT     H112841   7.609   5.061   8.310  0.8632 -0.2261 -0.8246
 2759WAT     H212842   7.709   4.986   8.397 -0.0896  0.1342  0.6135
 2759WAT    EPW12843   7.674   5.061   8.369 -0.0150  0.0091  0.1860
 2760WAT      O12844   2.518   0.019   0.881  0.1993  0.1415 -0.0905
 2760WAT     H112845   2.485   0.098   0.925 -1.5380 -1.0236  0.8540
 2760WAT     H212846   2.532   0.046   0.791  2.4203  2.2441  0.7652
 2760WAT    EPW12847   2.515   0.033   0.875  0.2632  0.2651  0.1469
 2761WAT      O12848   8.745   7.742   4.673 -0.0939  0.6500  0.7314
 2761WAT     H112849   8.755   7.690   4.593  1.2347  1.4099  0.3784
 2761WAT     H212850   8.750   7.678   4.744  3.0771  0.3549  0.3957
 2761WAT    EPW12851   8.747   7.727   4.671  0.4997  0.7112  0.6404
 2762WAT      O12852   7.730   4.009   8.208 -0.0446  0.0222  0.1587
 2762WAT     H112853   7.740   3.949   8.134  1.1691  0.8019 -0.3435
 2762WAT     H212854   7.653   4.062   8.186 -0.7974 -0.9664  0.3509
 2762WAT    EPW12855   7.721   4.008   8.196  0.0162 -0.0052  0.1183
 2763WAT      O12856   9.156   9.224   1.313  0.2253  0.4798 -0.0799
 2763WAT     H112857   9.190   9.210   1.401 -0.3382 -1.1711 -0.0963
 2763WAT     H212858   9.232   9.213   1.256  0.2788 -0.0944  0.0981
 2763WAT    EPW12859   9.171   9.221   1.317  0.1583  0.1864 -0.0587
 2764WAT      O12860   7.518   8.567   3.490  0.7242  0.3005 -0.5457
 2764WAT     H112861   7.505   8.494   3.429  1.4581 -0.6527  0.4007
 2764WAT     H212862   7.440   8.622   3.479 -0.2009 -1.0123 -0.7594
 2764WAT    EPW12863   7.506   8.565   3.480  0.6990  0.0014 -0.4491
 2765WAT      O12864   6.306   2.316   7.663  0.6736  0.1689  0.4566
 2765WAT     H112865   6.298   2.323   7.568 -1.9076 -0.7717  0.5223
 2765WAT     H212866   6.284   2.225   7.682  2.7502 -0.0988  1.8872
 2765WAT    EPW12867   6.302   2.305   7.653  0.6070  0.0094  0.6537
 2766WAT      O12868   3.285   5.370   7.952  0.5648 -0.2455  0.1943
 2766WAT     H112869   3.334   5.352   8.033  1.5051 -0.7712 -0.4736
 2766WAT     H212870   3.343   5.424   7.900  0.6139 -1.1939 -0.7748
 2766WAT    EPW12871   3.299   5.375   7.956  0.6953 -0.4399 -0.0217
 2767WAT      O12872   7.425   4.342   7.913 -0.0559  0.3222  0.3528
 2767WAT     H112873   7.444   4.277   7.981 -1.1422  0.1685  0.5229
 2767WAT     H212874   7.487   4.322   7.843 -0.2249 -0.7660  0.4955
 2767WAT    EPW12875   7.436   4.331   7.912 -0.2215  0.1585  0.3941
 2768WAT      O12876   9.182   4.066   8.163  0.3154  0.0168 -0.1332
 2768WAT     H112877   9.205   4.159   8.153  0.6146 -0.0678 -0.2061
 2768WAT     H212878   9.176   4.033   8.073 -0.3132  0.0913 -0.1297
 2768WAT    EPW12879   9.184   4.074   8.150  0.2718  0.0153 -0.1426
 2769WAT      O12880   9.529  10.358   1.050  0.6826  0.0023  0.3231
 2769WAT     H112881   9.453  10.307   1.078  0.7010 -1.0674 -1.3955
 2769WAT     H212882   9.550  10.324   0.963  1.0080  2.6235 -0.7262
 2769WAT    EPW12883   9.522  10.347   1.042  0.7281  0.2069 -0.0419
 2770WAT      O12884  10.977   9.303   1.366  0.4184  0.3813  0.1992
 2770WAT     H112885  10.962   9.254   1.285  0.7191  1.3835 -0.4735
 2770WAT     H212886  10.892   9.340   1.388  0.2590 -0.1787  0.5391
 2770WAT    EPW12887  10.964   9.301   1.359  0.4368  0.4401  0.1553
 2771WAT      O12888   8.321   1.722   7.244  0.8748  0.1557 -0.2269
 2771WAT     H112889   8.373   1.730   7.324 -0.8818  2.9249  0.7929
 2771WAT     H212890   8.255   1.656   7.265  1.6304 -0.6002 -0.1689
 2771WAT    EPW12891   8.319   1.714   7.257  0.7424  0.4213 -0.0846
 2772WAT      O12892   8.029  10.221   1.391  0.1914 -0.1523  0.5488
 2772WAT     H112893   7.949  10.174   1.417  0.4873 -2.8087 -2.7018
 2772WAT     H212894   8.099  10.160   1.412  1.5146  1.9889  2.9684
 2772WAT    EPW12895   8.027  10.207   1.397  0.4048 -0.2203  0.4391
 2773WAT      O12896   0.412   1.995   1.361 -0.0612  0.1804  0.2407
 2773WAT     H112897   0.389   1.931   1.429  2.5692  1.9371  3.0332
 2773WAT     H212898   0.346   2.063   1.369 -1.1666 -0.7411 -0.7178
 2773WAT    EPW12899   0.401   1.995   1.371  0.1399  0.2906  0.4826
 2774WAT      O12900   0.468   0.111   2.200 -0.4457  0.2070  0.2344
 2774WAT     H112901   0.424   0.038   2.245  1.2413 -3.3280 -3.2652
 2774WAT     H212902   0.411   0.131   2.126 -0.0294  1.2466  0.1896
 2774WAT    EPW12903   0.454   0.104   2.196 -0.1683 -0.1221 -0.2331
 2775WAT      O12904   8.770   7.570   7.572 -0.6328 -0.2239 -0.1875
 2775WAT     H112905   8.711   7.549   7.500  0.3783  1.7202 -1.6451
 2775WAT     H212906   8.835   7.630   7.535  1.6057 -1.3423  1.6421
 2775WAT    EPW12907   8.771   7.575   7.558 -0.2041 -0.1149 -0.1383
 2776WAT      O12908   4.512   9.050   1.967  0.1661  0.3756 -0.4320
 2776WAT     H112909   4.520   9.099   2.048  0.9954 -0.8889  0.2795
 2776WAT     H212910   4.459   8.974   1.989  2.1542 -1.1109 -0.4747
 2776WAT    EPW12911   4.506   9.046   1.980  0.5379  0.0134 -0.3437
 2777WAT      O12912   4.532   3.561   7.351  0.2266 -0.2518  0.3208
 2777WAT     H112913   4.494   3.599   7.430  0.1632  1.2480 -0.3985
 2777WAT     H212914   4.539   3.468   7.371 -1.9108 -0.2806  1.2482
 2777WAT    EPW12915   4.528   3.554   7.364 -0.0639 -0.0579  0.3481
 2778WAT      O12916   7.713   9.345   2.483 -0.1543 -0.2012  0.2463
 2778WAT     H112917   7.678   9.269   2.436 -1.8168  0.1902  0.7836
 2778WAT     H212918   7.720   9.413   2.415 -1.3705 -0.0109  0.2847
 2778WAT    EPW12919   7.709   9.344   2.468 -0.5341 -0.1249  0.3223
 2779WAT      O12920   8.202   1.847   8.748  0.7652  0.0136 -0.1541
 2779WAT     H112921   8.173   1.919   8.693  1.5864  0.0060 -0.6221
 2779WAT     H212922   8.131   1.783   8.743  1.5621 -0.7931 -2.7393
 2779WAT    EPW12923   8.189   1.848   8.740  0.9785 -0.0938 -0.5565
 2780WAT      O12924   3.938   0.735   7.961 -0.2601  0.4506  0.2544
 2780WAT     H112925   3.999   0.808   7.960 -1.4965  1.5264  1.0345
 2780WAT     H212926   3.858   0.768   7.921 -0.2697 -1.0381 -1.0709
 2780WAT    EPW12927   3.935   0.749   7.956 -0.4244  0.3962  0.1824
 2781WAT      O12928   9.431   7.813   1.001  0.4508 -0.5772 -0.2853
 2781WAT     H112929   9.438   7.729   1.046  2.8530 -0.1598  0.2566
 2781WAT     H212930   9.491   7.871   1.048 -0.2848  1.1314 -1.3432
 2781WAT    EPW12931   9.440   7.810   1.013  0.6704 -0.2968 -0.3533
 2782WAT      O12932   2.152   7.990   2.745 -0.0882 -0.6666 -0.1611
 2782WAT     H112933   2.131   8.083   2.744  1.5884 -0.2409  0.3654
 2782WAT     H212934   2.105   7.955   2.820 -2.3965 -0.7200 -1.5528
 2782WAT    EPW12935   2.143   7.998   2.755 -0.1715 -0.6173 -0.2753
 2783WAT      O12936   9.291   8.812   2.270  0.0290 -0.4898 -0.1097
 2783WAT     H112937   9.242   8.880   2.316 -0.0337 -0.4518 -0.2325
 2783WAT     H212938   9.224   8.755   2.233  0.0813 -0.7539  0.1939
 2783WAT    EPW12939   9.276   8.814   2.271  0.0277 -0.5193 -0.0859
 2784WAT      O12940   8.855   4.761   8.146 -0.0698  0.0622 -0.0735
 2784WAT     H112941   8.925   4.700   8.123 -0.3159  0.9714 -3.9686
 2784WAT     H212942   8.900   4.842   8.172  0.3285  0.1353 -0.9809
 2784WAT    EPW12943   8.870   4.764   8.147 -0.0501  0.1919 -0.7071
 2785WAT      O12944   8.643   6.270   2.830 -0.3322 -0.3879  0.1626
 2785WAT     H112945   8.579   6.228   2.888 -0.7799 -0.2630 -0.2328
 2785WAT     H212946   8.631   6.364   2.844 -1.0274 -0.3266 -0.7277
 2785WAT    EPW12947   8.633   6.277   2.839 -0.4830 -0.3633 -0.0070
 2786WAT      O12948   7.158   5.118   2.701 -0.0414 -0.1720 -0.4477
 2786WAT     H112949   7.231   5.161   2.746 -0.5680 -0.5771  0.8634
 2786WAT     H212950   7.163   5.027   2.730  0.0283 -0.6176 -1.8153
 2786WAT    EPW12951   7.168   5.112   2.711 -0.1018 -0.2842 -0.4551
 2787WAT      O12952   8.780   7.704   0.613  0.2767 -0.3931  0.8282
 2787WAT     H112953   8.825   7.652   0.680  0.3344 -0.0149  1.0900
 2787WAT     H212954   8.737   7.639   0.557 -0.1788 -0.6988  1.5203
 2787WAT    EPW12955   8.780   7.688   0.614  0.2241 -0.3836  0.9540
 2788WAT      O12956   9.639   7.870   1.822  0.2653 -0.2276 -0.0378
 2788WAT     H112957   9.723   7.915   1.819 -1.1868  2.7566  0.7659
 2788WAT     H212958   9.634   7.833   1.910 -0.4026  2.1325  0.9855
 2788WAT    EPW12959   9.649   7.871   1.833 -0.0148  0.4773  0.2031
 2789WAT      O12960  10.074   7.006   1.292 -0.2610  0.7974  0.4941
 2789WAT     H112961  10.093   7.096   1.319  1.2740 -0.0988  2.5965
 2789WAT     H212962  10.009   6.976   1.354  0.6829 -0.1511  1.0526
 2789WAT    EPW12963  10.068   7.014   1.303  0.0653  0.5543  0.8450
 2790WAT      O12964   9.714   7.651   1.669  1.0321  0.5169 -0.0748
 2790WAT     H112965   9.675   7.678   1.586  2.6764  1.1518 -0.6835
 2790WAT     H212966   9.693   7.723   1.729 -1.5560 -0.6803  0.5652
 2790WAT    EPW12967   9.706   7.664   1.666  0.9079  0.4427 -0.0706
 2791WAT      O12968   8.631   5.919   4.614  0.5226  0.1544 -0.4409
 2791WAT     H112969   8.624   5.969   4.695  1.1730  1.3767 -1.1005
 2791WAT     H212970   8.726   5.912   4.599  0.4153  0.9367 -1.6502
 2791WAT    EPW12971   8.643   5.925   4.623  0.5941  0.4189 -0.6876
 2792WAT      O12972   8.286   6.822   8.547  0.5811 -0.1453  0.1605
 2792WAT     H112973   8.205   6.848   8.504  1.2656  1.5503 -0.1680
 2792WAT     H212974   8.311   6.741   8.503  0.4652  0.7474 -1.6368
 2792WAT    EPW12975   8.279   6.815   8.535  0.6557  0.1960 -0.1197
 2793WAT      O12976   6.581   6.131   0.079 -0.5568  0.3570  0.0402
 2793WAT     H112977   6.663   6.174   0.054 -1.2650  1.5172 -0.3513
 2793WAT     H212978   6.532   6.124  -0.003 -1.4372  0.9780  0.5043
 2793WAT    EPW12979   6.585   6.136   0.065 -0.7663  0.5922  0.0498
 2794WAT      O12980   5.133   8.501   0.251  0.1955 -0.0845  0.1416
 2794WAT     H112981   5.123   8.586   0.293 -0.8177  0.4425 -1.1043
 2794WAT     H212982   5.077   8.442   0.303  0.5298  0.0992  0.7206
 2794WAT    EPW12983   5.124   8.504   0.263  0.1059  0.0095  0.0536
 2795WAT      O12984   9.028   9.818   1.486  0.1682  0.1536 -0.0526
 2795WAT     H112985   8.979   9.741   1.457 -2.7366  1.8525 -0.0956
 2795WAT     H212986   9.120   9.793   1.478 -0.6089 -2.4326 -2.3726
 2795WAT    EPW12987   9.034   9.805   1.481 -0.3176  0.0367 -0.3643
 2796WAT      O12988   5.646   5.034   8.332  0.3478 -0.4877 -0.0430
 2796WAT     H112989   5.642   4.992   8.246  0.6103  0.5733 -0.6017
 2796WAT     H212990   5.720   5.094   8.326 -0.8101  1.0307  0.2296
 2796WAT    EPW12991   5.655   5.037   8.320  0.2298 -0.1473 -0.0806
 2797WAT      O12992   9.597   7.961   0.298  0.2765  0.2754  0.6193
 2797WAT     H112993   9.591   7.950   0.392  2.7553  0.3932  0.8661
 2797WAT     H212994   9.651   8.040   0.286  3.5010 -1.9268 -0.7370
 2797WAT    EPW12995   9.604   7.970   0.309  1.0285  0.0005  0.4729
 2798WAT      O12996   1.696   8.349   1.504 -0.5818  0.6665  0.2141
 2798WAT     H112997   1.740   8.426   1.541 -2.1695  1.1826  1.0930
 2798WAT     H212998   1.736   8.339   1.417  0.6742  1.5952  0.6550
 2798WAT    EPW12999   1.707   8.358   1.497 -0.6255  0.8569  0.3882
 2799WAT      O13000   6.421   8.404   3.830 -0.5307 -0.0918 -0.1652
 2799WAT     H113001   6.336   8.428   3.793 -1.1044 -0.6931  0.7352
 2799WAT     H213002   6.485   8.443   3.770 -1.4143 -1.1467 -1.8533
 2799WAT    EPW13003   6.418   8.413   3.817 -0.7231 -0.3099 -0.2693
 2800WAT      O13004   7.833   3.857   8.842 -0.1352 -0.1123 -0.4402
 2800WAT     H113005   7.911   3.897   8.881 -1.4120  1.9808  0.0947
 2800WAT     H213006   7.868   3.799   8.774  2.2383 -3.9060  3.4809
 2800WAT    EPW13007   7.848   3.854   8.838  0.0093 -0.3366  0.1473
 2801WAT      O13008   8.551   5.995   1.498 -0.1458  0.4512  0.7875
 2801WAT     H113009   8.479   5.947   1.539 -1.9732  2.1669 -0.1980
 2801WAT     H213010   8.521   6.011   1.408  1.6715  0.8674  0.2063
 2801WAT    EPW13011   8.538   5.991   1.492 -0.1473  0.7322  0.5808
 2802WAT      O13012   0.560   9.953   3.150  0.3576 -0.1419 -0.5757
 2802WAT     H113013   0.553  10.013   3.225 -2.5438  0.6657 -1.3667
 2802WAT     H213014   0.653   9.950   3.130  1.2712 -0.3629  3.0147
 2802WAT    EPW13015   0.571   9.960   3.158  0.0954 -0.0644 -0.2065
 2803WAT      O13016   2.629   0.548   0.940  0.3050  0.1861  0.0787
 2803WAT     H113017   2.701   0.503   0.896  0.1952  1.0656 -1.0498
 2803WAT     H213018   2.578   0.586   0.869 -1.3073 -0.4388  0.8519
 2803WAT    EPW13019   2.632   0.547   0.925  0.0778  0.2197  0.0319
 2804WAT      O13020   0.619   6.241   2.222  0.5873  0.2525  0.0815
 2804WAT     H113021   0.710   6.223   2.246  0.5016 -1.4138 -0.7199
 2804WAT     H213022   0.605   6.190   2.142 -1.0312  0.5437  0.1511
 2804WAT    EPW13023   0.629   6.232   2.215  0.3625  0.0710 -0.0149
 2805WAT      O13024   7.208   7.294   2.513  0.0326 -0.1619  0.2752
 2805WAT     H113025   7.297   7.278   2.483  1.1211 -0.1963  3.2075
 2805WAT     H213026   7.167   7.208   2.513  0.4470 -0.3634  0.2133
 2805WAT    EPW13027   7.214   7.281   2.509  0.2306 -0.1931  0.6537
 2806WAT      O13028   9.237   6.162   3.011  0.9152  0.1439  0.1067
 2806WAT     H113029   9.261   6.076   3.045  0.4458 -2.0708 -4.4232
 2806WAT     H213030   9.145   6.155   2.988  1.2358  1.2890 -1.7400
 2806WAT    EPW13031   9.228   6.150   3.012  0.8960  0.0031 -0.7343
 2807WAT      O13032   9.094   9.300   0.502  0.0373 -0.1911 -0.1795
 2807WAT     H113033   9.000   9.288   0.494  0.0595 -2.0144  1.6574
 2807WAT     H213034   9.107   9.326   0.593  1.3799 -0.8840 -0.1514
 2807WAT    EPW13035   9.083   9.302   0.513  0.2179 -0.5226  0.0665
 2808WAT      O13036   0.342   0.702   2.805 -0.1464 -0.2775 -0.4249
 2808WAT     H113037   0.408   0.738   2.746  0.1733  1.0933  0.7307
 2808WAT     H213038   0.382   0.708   2.892 -2.3684  2.1699  0.5622
 2808WAT    EPW13039   0.356   0.707   2.808 -0.3973  0.2261 -0.1422
 2809WAT      O13040   4.038   0.876   2.057 -0.0450  0.3952 -0.0754
 2809WAT     H113041   4.074   0.806   2.111  0.3674  1.6336  1.3363
 2809WAT     H213042   4.088   0.871   1.976  2.5287  1.2317  1.3420
 2809WAT    EPW13043   4.050   0.866   2.054  0.3490  0.6689  0.2977
 2810WAT      O13044   9.303   7.839   2.194 -0.4414 -0.5938  0.1462
 2810WAT     H113045   9.225   7.887   2.166 -0.1362 -1.2675 -2.0925
 2810WAT     H213046   9.270   7.751   2.213 -0.2658 -0.8790 -0.8027
 2810WAT    EPW13047   9.288   7.833   2.192 -0.3781 -0.7200 -0.2742
 2811WAT      O13048   9.597  10.339   0.008  0.4848  0.4357  0.4860
 2811WAT     H113049   9.558  10.415   0.051  2.5924  2.1906 -0.5022
 2811WAT     H213050   9.522  10.284  -0.015 -1.1788  2.3844  0.9000
 2811WAT    EPW13051   9.582  10.342   0.010  0.5434  0.9239  0.4106
 2812WAT      O13052   5.502   2.673   7.639 -0.1764 -0.3525 -0.1903
 2812WAT     H113053   5.545   2.651   7.556  0.1125 -1.1404  0.1480
 2812WAT     H213054   5.416   2.632   7.633 -0.4588  0.2637 -0.4126
 2812WAT    EPW13055   5.496   2.664   7.628 -0.1757 -0.3752 -0.1750
 2813WAT      O13056   3.729   1.738   6.031  0.1996 -0.1715  0.2236
 2813WAT     H113057   3.769   1.770   5.950 -1.5429  0.9089 -0.2593
 2813WAT     H213058   3.752   1.645   6.034  0.1870 -0.2646 -1.5817
 2813WAT    EPW13059   3.737   1.730   6.020 -0.0318 -0.0413 -0.0782
 2814WAT      O13060  10.887   9.846   1.967  0.1794 -0.0614 -0.1526
 2814WAT     H113061  10.880   9.787   1.893 -2.5591 -0.3430  0.2170
 2814WAT     H213062  10.895   9.933   1.929  2.7894 -0.4718 -0.6983
 2814WAT    EPW13063  10.887   9.850   1.952  0.1621 -0.1531 -0.1758
 2815WAT      O13064   5.414   3.943   7.159 -0.2212 -0.1061 -0.3150
 2815WAT     H113065   5.333   3.945   7.108 -1.7719  2.2575  2.0106
 2815WAT     H213066   5.385   3.936   7.250  2.0442  2.5373  0.7427
 2815WAT    EPW13067   5.399   3.942   7.165 -0.1268  0.5542  0.1311
 2816WAT      O13068   6.625   3.425   2.184  0.1242 -0.4155  0.1154
 2816WAT     H113069   6.541   3.470   2.178 -0.2899 -1.3119 -1.4711
 2816WAT     H213070   6.628   3.370   2.106  0.7598 -2.8692  1.7430
 2816WAT    EPW13071   6.614   3.424   2.173  0.1535 -0.8574  0.1205
 2817WAT      O13072   4.986   2.512   8.639  0.0922  0.4247  0.6424
 2817WAT     H113073   5.025   2.427   8.664 -2.7300 -0.9318  0.8160
 2817WAT     H213074   4.898   2.509   8.676 -0.9236  2.4511 -1.4138
 2817WAT    EPW13075   4.980   2.500   8.647 -0.4141  0.5131  0.3943
 2818WAT      O13076   7.415   5.569   2.278 -0.1423 -0.3903 -0.3905
 2818WAT     H113077   7.509   5.554   2.288  0.2598  0.1890 -2.7139
 2818WAT     H213078   7.374   5.502   2.333  1.6258 -1.6609 -0.5418
 2818WAT    EPW13079   7.422   5.558   2.286  0.1440 -0.4816 -0.7169
 2819WAT      O13080   5.079   3.847   8.065  0.0977 -0.1255  0.1166
 2819WAT     H113081   4.992   3.839   8.025  0.5395  1.4278 -1.2692
 2819WAT     H213082   5.124   3.766   8.039 -0.4936 -0.3252 -0.3257
 2819WAT    EPW13083   5.073   3.835   8.056  0.0780  0.0532 -0.1249
 2820WAT      O13084   6.364   2.961   8.612 -0.8356 -0.1248  0.1730
 2820WAT     H113085   6.379   2.954   8.706  3.4396  1.9351 -0.1337
 2820WAT     H213086   6.301   3.033   8.603  0.8417  1.5922  1.4747
 2820WAT    EPW13087   6.357   2.970   8.623 -0.0508  0.3734  0.3042
 2821WAT      O13088   5.373   4.332   8.172  0.3798  0.0552 -0.5216
 2821WAT     H113089   5.295   4.360   8.123  0.7836  1.0326 -0.6272
 2821WAT     H213090   5.386   4.400   8.238  3.2224  1.9387 -2.7786
 2821WAT    EPW13091   5.364   4.345   8.174  0.8082  0.4325 -0.8335
 2822WAT      O13092   2.926   2.011   8.826  0.3244  0.0203  0.3180
 2822WAT     H113093   2.832   2.002   8.814  0.2687  1.4709 -0.5812
 2822WAT     H213094   2.952   2.077   8.763  2.0064 -0.5481  0.3577
 2822WAT    EPW13095   2.917   2.018   8.816  0.5389  0.1366  0.2046
 2823WAT      O13096  10.094   9.510   0.271  0.8366  0.6147 -0.3356
 2823WAT     H113097  10.129   9.581   0.218 -3.5972  3.2037 -0.3209
 2823WAT     H213098  10.056   9.449   0.208  1.1631  0.3258 -0.2551
 2823WAT    EPW13099  10.093   9.511   0.256  0.2956  0.9179 -0.3231
 2824WAT      O13100   2.279   2.023   7.422 -0.0998  0.0179 -0.1868
 2824WAT     H113101   2.199   2.015   7.370 -0.1564  1.3622 -0.3360
 2824WAT     H213102   2.281   2.114   7.449  1.0570 -0.1537  0.3686
 2824WAT    EPW13103   2.269   2.034   7.419  0.0453  0.1725 -0.1330
 2825WAT      O13104   0.662   8.876   1.895 -1.5836 -0.4693 -0.3856
 2825WAT     H113105   0.673   8.860   1.801  2.5973  0.9423 -0.3551
 2825WAT     H213106   0.706   8.802   1.937 -2.7732 -0.7092  0.4719
 2825WAT    EPW13107   0.669   8.864   1.888 -1.1891 -0.3147 -0.2685
 2826WAT      O13108   6.195   9.463   0.656  0.0452 -0.4184 -0.3947
 2826WAT     H113109   6.135   9.404   0.612 -0.7546 -0.9430  1.3134
 2826WAT     H213110   6.183   9.445   0.749  2.1656  0.1400  0.0507
 2826WAT    EPW13111   6.185   9.453   0.662  0.2193 -0.4139 -0.1107
 2827WAT      O13112   7.278  10.237   1.977 -0.3293  0.3624 -0.1161
 2827WAT     H113113   7.211  10.170   1.965 -0.2118  0.3625 -0.7680
 2827WAT     H213114   7.324  10.241   1.894  0.7164  0.1080  0.4265
 2827WAT    EPW13115   7.275  10.229   1.965 -0.1757  0.3285 -0.1305
 2828WAT      O13116   1.255  10.367   5.337  0.2842 -0.8282  0.3622
 2828WAT     H113117   1.317  10.384   5.407  2.3000 -2.2551 -0.9756
 2828WAT     H213118   1.266  10.274   5.317 -2.8909 -1.3918  0.5529
 2828WAT    EPW13119   1.264  10.357   5.344  0.1311 -1.0910  0.2108
 2829WAT      O13120  10.847   6.773   1.510 -0.7356  0.0617 -0.8457
 2829WAT     H113121  10.926   6.732   1.475 -0.7991 -0.4012 -0.4678
 2829WAT     H213122  10.806   6.816   1.435  1.1304  2.4368 -0.6158
 2829WAT    EPW13123  10.852   6.773   1.496 -0.4973  0.3140 -0.7655
 2830WAT      O13124   7.537   9.369   1.851 -0.6441  0.4908 -0.4119
 2830WAT     H113125   7.589   9.291   1.869 -1.4181 -0.0677 -0.5638
 2830WAT     H213126   7.510   9.358   1.760 -1.2826  0.6311 -0.2381
 2830WAT    EPW13127   7.541   9.358   1.841 -0.8304  0.4354 -0.4091
 2831WAT      O13128   7.277   5.536   0.353  0.0603  0.8449 -0.3974
 2831WAT     H113129   7.275   5.458   0.298  1.0038  1.5594 -1.4836
 2831WAT     H213130   7.206   5.523   0.416 -0.2938 -0.5201 -1.0510
 2831WAT    EPW13131   7.267   5.524   0.354  0.1380  0.7591 -0.6269
 2832WAT      O13132   9.914   9.002   3.770 -0.1236 -0.2894 -0.0454
 2832WAT     H113133   9.827   8.990   3.808 -1.0213  1.3493 -1.4348
 2832WAT     H213134   9.929   9.096   3.775  2.1316 -0.6557  1.2271
 2832WAT    EPW13135   9.904   9.013   3.776  0.0553 -0.1216 -0.0608
 2833WAT      O13136   6.804   3.577   8.815  0.0377 -0.0596 -0.0163
 2833WAT     H113137   6.803   3.667   8.783 -0.9596 -0.1916 -0.3926
 2833WAT     H213138   6.897   3.554   8.821  0.3773  1.4557  1.4206
 2833WAT    EPW13139   6.816   3.585   8.812 -0.0489  0.1229  0.1230
 2834WAT      O13140   2.691   4.166   7.779  0.3784 -0.2403 -0.2488
 2834WAT     H113141   2.761   4.123   7.731  0.4005  0.0021 -0.4294
 2834WAT     H213142   2.734   4.237   7.826  0.1324  0.3858 -0.9586
 2834WAT    EPW13143   2.706   4.170   7.779  0.3488 -0.1259 -0.3662
 2835WAT      O13144   3.342   0.224   4.687 -0.1968  0.1088  0.3750
 2835WAT     H113145   3.391   0.301   4.713  0.6972 -0.2866 -0.1058
 2835WAT     H213146   3.369   0.156   4.748 -2.3343  0.5794  1.9731
 2835WAT    EPW13147   3.352   0.225   4.698 -0.3607  0.1187  0.5224
 2836WAT      O13148  10.147   8.817   0.080  0.5151 -0.4165  0.2153
 2836WAT     H113149  10.229   8.863   0.096  0.3785 -0.5462  1.3674
 2836WAT     H213150  10.155   8.735   0.129  0.7324 -1.6246 -1.7493
 2836WAT    EPW13151  10.158   8.812   0.089  0.5255 -0.5927  0.1081
 2837WAT      O13152   0.939   0.194   0.547  0.5967  0.0267 -0.6902
 2837WAT     H113153   0.901   0.271   0.504  0.4134  0.8240  0.8252
 2837WAT     H213154   0.867   0.132   0.553 -0.3343  1.1901  1.3742
 2837WAT    EPW13155   0.925   0.196   0.542  0.4497  0.2853 -0.2180
 2838WAT      O13156   9.173   6.728   5.464  0.1202  0.2867 -0.1315
 2838WAT     H113157   9.222   6.653   5.432 -1.2584 -0.5047 -0.4791
 2838WAT     H213158   9.086   6.693   5.485 -0.0544  1.4577  1.2762
 2838WAT    EPW13159   9.168   6.714   5.463 -0.0849  0.3364  0.0086
 2839WAT      O13160   2.720   2.595   2.854  0.1382  0.6762  0.1630
 2839WAT     H113161   2.692   2.627   2.768 -0.0965  0.5132  0.1766
 2839WAT     H213162   2.765   2.669   2.894 -0.2539  0.9390  0.1275
 2839WAT    EPW13163   2.722   2.609   2.848  0.0554  0.6893  0.1601
 2840WAT      O13164   3.343   1.048   8.827  0.1835 -0.1209  0.0075
 2840WAT     H113165   3.276   0.990   8.789 -2.5246  3.4679 -1.2672
 2840WAT     H213166   3.370   1.104   8.754  0.5732  2.0021  1.6874
 2840WAT    EPW13167   3.337   1.048   8.813 -0.1223  0.6323  0.0606
 2841WAT      O13168   8.327   5.572   1.291  0.2359 -0.2289  0.8819
 2841WAT     H113169   8.313   5.477   1.290  2.2880 -0.5736 -0.2580
 2841WAT     H213170   8.239   5.609   1.286 -0.5173 -2.0935 -1.1779
 2841WAT    EPW13171   8.313   5.564   1.290  0.4072 -0.5202  0.4598
 2842WAT      O13172   9.377   9.973   2.328  0.1594 -0.8792  0.0261
 2842WAT     H113173   9.290  10.010   2.313 -0.3543 -1.8682  0.4831
 2842WAT     H213174   9.421  10.038   2.383 -0.5237 -0.6672  0.3324
 2842WAT    EPW13175   9.371   9.986   2.333  0.0019 -0.9818  0.1267
 2843WAT      O13176   2.211   1.158   8.968  0.1563  0.1427 -0.8830
 2843WAT     H113177   2.148   1.218   9.009  2.9064  3.2907 -0.8843
 2843WAT     H213178   2.224   1.090   9.034  1.3260  2.8332  1.9060
 2843WAT    EPW13179   2.204   1.157   8.982  0.6733  0.9127 -0.5153
 2844WAT      O13180   3.419   1.495   7.503  0.1163  0.2078  0.1233
 2844WAT     H113181   3.327   1.492   7.478  0.1871 -1.2838 -0.0199
 2844WAT     H213182   3.424   1.439   7.580  0.1124  3.7792  2.9735
 2844WAT    EPW13183   3.407   1.487   7.510  0.1251  0.4821  0.4804
 2845WAT      O13184  10.041   4.066   8.915 -0.5318  0.3018  0.0066
 2845WAT     H113185   9.990   4.009   8.972  2.0937 -1.4897  0.7472
 2845WAT     H213186  10.005   4.049   8.827 -0.7613 -1.4491  0.3922
 2845WAT    EPW13187  10.029   4.056   8.911 -0.2155 -0.1655  0.1550
 2846WAT      O13188   8.656   8.352   1.057 -0.0621 -0.7986  0.3350
 2846WAT     H113189   8.713   8.279   1.032  1.0934  0.2417 -0.2115
 2846WAT     H213190   8.590   8.356   0.987  1.1133 -0.0537 -0.7908
 2846WAT    EPW13191   8.655   8.343   1.044  0.2446 -0.5631  0.1144
 2847WAT      O13192  10.016   8.484   8.585 -0.4053  0.1848  0.2354
 2847WAT     H113193   9.934   8.457   8.627  0.2071  1.3608  2.3447
 2847WAT     H213194  10.005   8.460   8.493 -2.9048 -0.1368  0.5448
 2847WAT    EPW13195  10.004   8.477   8.579 -0.6537  0.2975  0.5546
 2848WAT      O13196   6.193   3.782   8.693  0.3140 -0.1905 -0.2356
 2848WAT     H113197   6.153   3.731   8.763 -3.8598  1.3002 -1.2782
 2848WAT     H213198   6.227   3.861   8.736  2.2344 -1.4374  0.6544
 2848WAT    EPW13199   6.192   3.786   8.708  0.0169 -0.1583 -0.2551
 2849WAT      O13200   2.646   8.916   8.254 -0.4355  0.2517 -0.4429
 2849WAT     H113201   2.678   8.926   8.343 -1.1804  1.7598 -0.3077
 2849WAT     H213202   2.562   8.871   8.264 -0.1613 -0.2542 -0.4443
 2849WAT    EPW13203   2.639   8.912   8.267 -0.4975  0.3839 -0.4258
 2850WAT      O13204   0.484   1.775   4.191  0.1388  0.3087  0.0505
 2850WAT     H113205   0.439   1.779   4.106  0.9660  1.0535 -0.3731
 2850WAT     H213206   0.456   1.854   4.237 -1.6097 -0.8893  1.1933
 2850WAT    EPW13207   0.474   1.786   4.186  0.0173  0.2488  0.1454
 2851WAT      O13208   3.505   3.591   7.666  0.1326  0.5112  0.2213
 2851WAT     H113209   3.412   3.608   7.682 -0.1714 -0.6662 -0.2205
 2851WAT     H213210   3.508   3.505   7.625  1.5404 -0.2935  1.8433
 2851WAT    EPW13211   3.493   3.582   7.663  0.2782  0.2496  0.3769
 2852WAT      O13212   6.863   1.711   8.723 -0.5310 -0.3964  0.0352
 2852WAT     H113213   6.893   1.707   8.632 -0.9368  0.7139 -0.1588
 2852WAT     H213214   6.942   1.724   8.774 -0.4860  0.8169 -0.3268
 2852WAT    EPW13215   6.877   1.712   8.717 -0.5784 -0.0899 -0.0386
 2853WAT      O13216  10.709   9.939   3.894  0.4571 -0.2350 -0.6793
 2853WAT     H113217  10.774   9.981   3.951  1.4703  0.2520 -2.1362
 2853WAT     H213218  10.636   9.919   3.952  0.7794  1.6921  0.4935
 2853WAT    EPW13219  10.708   9.942   3.909  0.6337  0.0834 -0.7168
 2854WAT      O13220   5.835   7.496   5.178 -0.0724 -0.0609 -0.4060
 2854WAT     H113221   5.753   7.454   5.151 -1.1554  1.4048  0.4520
 2854WAT     H213222   5.898   7.424   5.184 -1.1502 -1.1530 -1.5777
 2854WAT    EPW13223   5.832   7.481   5.176 -0.3572 -0.0117 -0.4473
 2855WAT      O13224   2.449  10.300   2.929 -0.6008 -0.0619  0.0511
 2855WAT     H113225   2.372  10.253   2.898  1.4700 -1.6391 -3.2017
 2855WAT     H213226   2.508  10.231   2.961  0.7172  0.7074 -0.6183
 2855WAT    EPW13227   2.447  10.285   2.929 -0.1537 -0.1683 -0.4662
 2856WAT      O13228   4.532   1.055   8.655  0.1724  0.6230  0.0062
 2856WAT     H113229   4.584   1.001   8.595 -2.3995 -1.0563 -0.8959
 2856WAT     H213230   4.481   1.113   8.598 -1.1809  0.0747  0.6088
 2856WAT    EPW13231   4.532   1.055   8.639 -0.3455  0.3293 -0.0334
 2857WAT      O13232   6.963   6.401   1.988 -0.0578 -0.5836  0.2678
 2857WAT     H113233   6.982   6.347   2.065  2.2858  1.1283  1.0032
 2857WAT     H213234   6.895   6.462   2.017 -1.4833 -1.9630 -0.0527
 2857WAT    EPW13235   6.957   6.402   2.002  0.0632 -0.5398  0.3225
 2858WAT      O13236   0.489   1.494   0.214 -0.0623 -0.5012 -0.3442
 2858WAT     H113237   0.578   1.463   0.229 -0.3469 -1.0524  0.3140
 2858WAT     H213238   0.486   1.581   0.254  0.6053  0.1854 -1.7513
 2858WAT    EPW13239   0.500   1.501   0.222 -0.0118 -0.4833 -0.4430
 2859WAT      O13240   1.330   3.359   8.259 -0.0447  0.0442 -0.0294
 2859WAT     H113241   1.308   3.321   8.174 -2.0437 -0.5006  0.6892
 2859WAT     H213242   1.278   3.439   8.265  1.3388  0.9696  0.0181
 2859WAT    EPW13243   1.320   3.364   8.249 -0.1259  0.0944  0.0715
 2860WAT      O13244   4.095   6.175   1.296  0.0158 -0.4982 -0.2277
 2860WAT     H113245   4.089   6.233   1.372 -0.4368  0.0994 -0.7039
 2860WAT     H213246   4.092   6.086   1.333  0.7634 -0.2234  0.5137
 2860WAT    EPW13247   4.094   6.171   1.311  0.0546 -0.3831 -0.1928
 2861WAT      O13248  10.904   9.756   1.503 -0.5670 -0.4912  0.0007
 2861WAT     H113249  10.856   9.756   1.421  0.4767  0.7427 -0.6376
 2861WAT     H213250  10.866   9.683   1.553 -1.8584 -0.6576 -1.1728
 2861WAT    EPW13251  10.893   9.746   1.499 -0.5999 -0.3500 -0.2382
 2862WAT      O13252   9.547   7.189   0.150 -0.3252 -0.0782  0.5914
 2862WAT     H113253   9.636   7.177   0.183 -0.6069 -0.5587  1.1874
 2862WAT     H213254   9.552   7.159   0.059  0.8609  2.8600 -0.4281
 2862WAT    EPW13255   9.559   7.184   0.142 -0.2055  0.2460  0.5355
 2863WAT      O13256   6.807   3.862   8.295  0.5477  0.7478  0.1792
 2863WAT     H113257   6.795   3.774   8.332  0.1890  1.4149  1.7127
 2863WAT     H213258   6.778   3.854   8.204 -1.0730 -0.3328  0.7434
 2863WAT    EPW13259   6.802   3.849   8.288  0.2866  0.6933  0.4559
 2864WAT      O13260   9.440   6.613   1.929 -0.1156  0.2561  0.6223
 2864WAT     H113261   9.364   6.623   1.872  0.0081  1.1132  0.6013
 2864WAT     H213262   9.509   6.665   1.886  0.8096 -1.3475  0.0624
 2864WAT    EPW13263   9.439   6.621   1.916  0.0229  0.1576  0.5457
 2865WAT      O13264   2.612   1.507   5.644  0.6907  0.1177  0.0651
 2865WAT     H113265   2.609   1.538   5.734 -1.6162 -0.0705  0.1209
 2865WAT     H213266   2.523   1.477   5.626  0.9841  0.4784 -2.4013
 2865WAT    EPW13267   2.600   1.507   5.653  0.4250  0.1404 -0.2527
 2866WAT      O13268   8.922   8.225   2.878 -0.0620  0.3583  0.0792
 2866WAT     H113269   8.853   8.283   2.909  1.4535  2.0715  0.3966
 2866WAT     H213270   8.995   8.283   2.856  0.9571 -1.2947 -1.1870
 2866WAT    EPW13271   8.923   8.240   2.879  0.2718  0.3667 -0.0459
 2867WAT      O13272   5.898   3.593   8.694  0.0716 -0.9909  0.7257
 2867WAT     H113273   5.827   3.532   8.673 -0.7176  0.4570 -1.1702
 2867WAT     H213274   5.854   3.663   8.742 -0.1038  0.4549 -1.3993
 2867WAT    EPW13275   5.883   3.594   8.698 -0.0558 -0.6092  0.1955
 2868WAT      O13276   6.989   8.166   3.680  0.1850  1.0255 -0.2024
 2868WAT     H113277   7.078   8.199   3.667 -0.5364  2.7156 -1.2037
 2868WAT     H213278   6.941   8.240   3.717 -0.4429 -0.3880  1.9878
 2868WAT    EPW13279   6.995   8.181   3.683  0.0072  1.0624 -0.0457
 2869WAT      O13280   5.659   1.935   6.418 -0.7552  0.0336 -0.2579
 2869WAT     H113281   5.566   1.945   6.398 -0.6550  1.9143  0.0130
 2869WAT     H213282   5.686   2.022   6.446  0.1248 -1.3136  3.7804
 2869WAT    EPW13283   5.650   1.948   6.419 -0.6258  0.1040  0.3104
 2870WAT      O13284   3.258   0.982   1.628  0.1311 -0.1588  0.1525
 2870WAT     H113285   3.164   0.973   1.647  0.2347 -2.2514 -0.1598
 2870WAT     H213286   3.263   1.057   1.569 -1.1640  0.8958  1.2912
 2870WAT    EPW13287   3.246   0.991   1.623 -0.0260 -0.2958  0.2614
 2871WAT      O13288   8.217  10.355   1.089 -0.0878 -0.1781  0.2236
 2871WAT     H113289   8.136  10.403   1.070  1.1529  1.0392 -2.4704
 2871WAT     H213290   8.278  10.423   1.120  1.2218 -0.2003 -2.1201
 2871WAT    EPW13291   8.214  10.371   1.091  0.2486 -0.0205 -0.4410
 2872WAT      O13292   7.555   1.846   5.170 -0.2711 -0.0553 -0.1867
 2872WAT     H113293   7.529   1.927   5.128  1.4636 -0.1155 -1.4447
 2872WAT     H213294   7.539   1.778   5.104  1.3032 -0.3062 -0.3414
 2872WAT    EPW13295   7.549   1.848   5.156  0.1655 -0.0963 -0.3731
 2873WAT      O13296   0.150   8.097   0.007  0.2545  0.6734 -0.0132
 2873WAT     H113297   0.193   8.053  -0.066 -1.1992  0.4797 -0.7825
 2873WAT     H213298   0.222   8.122   0.065  1.2399 -1.2630 -0.3322
 2873WAT    EPW13299   0.165   8.095   0.005  0.1928  0.3920 -0.1567
 2874WAT      O13300   7.119   4.234   7.171 -0.0350  0.1940 -0.8176
 2874WAT     H113301   7.101   4.146   7.206 -1.2315 -1.2691 -4.5805
 2874WAT     H213302   7.145   4.285   7.247 -0.5978 -3.0543  1.7957
 2874WAT    EPW13303   7.120   4.229   7.185 -0.2670 -0.4275 -0.9692
 2875WAT      O13304   0.808   0.091   0.121  0.0862  0.0306  0.1055
 2875WAT     H113305   0.769   0.170   0.159  0.1105  0.8559 -1.4805
 2875WAT     H213306   0.733   0.042   0.088  0.2150  1.0351 -1.8599
 2875WAT    EPW13307   0.793   0.095   0.122  0.1064  0.2720 -0.3629
 2876WAT      O13308   8.066   7.900   1.517 -0.1029 -0.5696 -0.5729
 2876WAT     H113309   8.033   7.837   1.580  3.4106 -1.0482  1.0178
 2876WAT     H213310   8.078   7.849   1.436 -0.4090 -1.0941 -0.2925
 2876WAT    EPW13311   8.063   7.885   1.514  0.3200 -0.7019 -0.3261
 2877WAT      O13312   8.378   7.021   1.553 -0.6001  0.1392 -0.7595
 2877WAT     H113313   8.359   6.985   1.640 -0.4925 -0.9237 -1.1594
 2877WAT     H213314   8.456   7.075   1.565 -1.8035  1.7472  0.2195
 2877WAT    EPW13315   8.386   7.023   1.566 -0.7443  0.2112 -0.6832
 2878WAT      O13316   9.675   7.269   3.398 -0.0332 -0.1954  0.6962
 2878WAT     H113317   9.654   7.362   3.402 -0.3355 -0.3028  1.8623
 2878WAT     H213318   9.666   7.247   3.305 -0.5778  0.7958  0.4999
 2878WAT    EPW13319   9.671   7.278   3.386 -0.1450 -0.0789  0.8241
 2879WAT      O13320   6.218   2.643   8.535  0.0650  0.7870 -0.0492
 2879WAT     H113321   6.192   2.554   8.559 -0.0880  0.8027 -0.1629
 2879WAT     H213322   6.253   2.635   8.446  1.7620  0.5064  0.5943
 2879WAT    EPW13323   6.219   2.630   8.526  0.2685  0.7521  0.0205
 2880WAT      O13324   8.284  10.069   0.536 -0.0477  0.3661 -0.2210
 2880WAT     H113325   8.232  10.063   0.617 -0.2204  1.1577 -0.2700
 2880WAT     H213326   8.273   9.983   0.495  1.5375 -0.7352  1.4871
 2880WAT    EPW13327   8.275  10.057   0.542  0.1388  0.3257 -0.0022
 2881WAT      O13328   8.570   8.379   1.994  0.2700 -0.5903  0.2810
 2881WAT     H113329   8.644   8.327   1.964 -0.8774 -1.0284 -2.0297
 2881WAT     H213330   8.543   8.429   1.918 -3.7615 -2.8456 -0.0706
 2881WAT    EPW13331   8.576   8.379   1.980 -0.4134 -0.9456 -0.0702
 2882WAT      O13332   8.835   8.402   0.573  0.8668 -0.4420  0.1099
 2882WAT     H113333   8.925   8.373   0.559  0.1809 -2.7453 -0.0524
 2882WAT     H213334   8.837   8.447   0.658  2.5907  1.9193 -1.0838
 2882WAT    EPW13335   8.847   8.404   0.583  1.0033 -0.4339 -0.0690
 2883WAT      O13336   8.675   5.812   2.174  0.1378 -0.0955  0.6345
 2883WAT     H113337   8.622   5.783   2.100 -3.9559  2.9015  2.0546
 2883WAT     H213338   8.701   5.901   2.151 -2.2722  1.3747  3.0906
 2883WAT    EPW13339   8.672   5.820   2.161 -0.7195  0.4938  1.1458
 2884WAT      O13340   8.713   8.993   0.950 -0.8897 -0.3174 -0.5545
 2884WAT     H113341   8.724   8.901   0.925 -0.1216 -0.7362  1.2084
 2884WAT     H213342   8.664   9.031   0.877  2.0808 -1.1802 -3.2829
 2884WAT    EPW13343   8.708   8.986   0.937 -0.3967 -0.4864 -0.6819
 2885WAT      O13344   4.559   2.274   5.519 -0.1131  0.7917 -0.4497
 2885WAT     H113345   4.612   2.200   5.549 -1.6205 -0.0209  0.3054
 2885WAT     H213346   4.581   2.283   5.426  0.9815  0.1881 -0.2751
 2885WAT    EPW13347   4.569   2.265   5.511 -0.1676  0.6049 -0.3271
 2886WAT      O13348   1.929   1.896   3.364 -0.1225 -0.1845  0.2195
 2886WAT     H113349   1.984   1.875   3.288 -0.9012 -2.7663  0.2800
 2886WAT     H213350   1.977   1.859   3.439 -0.8256 -0.4129  0.5671
 2886WAT    EPW13351   1.943   1.888   3.364 -0.3179 -0.5552  0.2733
 2887WAT      O13352  10.071   8.406   3.160 -0.1159  1.3098 -0.6946
 2887WAT     H113353  10.047   8.475   3.098  1.0529  1.2610 -1.2392
 2887WAT     H213354  10.064   8.325   3.109  0.9005  1.2725 -0.8086
 2887WAT    EPW13355  10.067   8.404   3.145  0.1726  1.2984 -0.7814
 2888WAT      O13356   7.653   7.343   0.391 -0.3701  0.2314 -0.3563
 2888WAT     H113357   7.676   7.389   0.472 -0.2323 -0.0398 -0.2399
 2888WAT     H213358   7.726   7.283   0.376 -0.5318  0.0753 -0.5234
 2888WAT    EPW13359   7.666   7.341   0.400 -0.3731  0.1750 -0.3630
 2889WAT      O13360  10.386   7.437   1.492 -0.0163 -0.0684  0.1431
 2889WAT     H113361  10.402   7.484   1.574  1.2473 -0.9753  0.4353
 2889WAT     H213362  10.465   7.450   1.440 -0.4566 -0.2221 -0.5810
 2889WAT    EPW13363  10.398   7.445   1.496  0.0925 -0.2084  0.0861
 2890WAT      O13364   4.596   0.460   7.632 -0.7985 -0.6189  0.2441
 2890WAT     H113365   4.626   0.528   7.572  1.6176 -0.6117  1.3642
 2890WAT     H213366   4.501   0.467   7.630 -0.7009  1.1397 -1.5202
 2890WAT    EPW13367   4.588   0.470   7.624 -0.4671 -0.3860  0.1590
 2891WAT      O13368   1.525   9.153   2.894 -0.4007  0.1525  0.0760
 2891WAT     H113369   1.585   9.214   2.852 -0.1084  0.0189  0.3035
 2891WAT     H213370   1.581   9.094   2.945 -0.8649  1.8918  2.7933
 2891WAT    EPW13371   1.540   9.153   2.895 -0.4234  0.3643  0.4644
 2892WAT      O13372   9.061   6.788   0.863 -0.7431  0.1688  0.2253
 2892WAT     H113373   9.066   6.858   0.928 -2.3841  0.9863 -0.4624
 2892WAT     H213374   9.135   6.804   0.804 -0.6017  0.8105  0.5739
 2892WAT    EPW13375   9.071   6.799   0.864 -0.9408  0.3614  0.1806
 2893WAT      O13376  10.247   6.573   0.830  0.0079  0.3000 -0.9235
 2893WAT     H113377  10.207   6.659   0.823 -0.3610  0.0434 -2.2977
 2893WAT     H213378  10.209   6.523   0.757  0.6343 -0.8443 -0.4889
 2893WAT    EPW13379  10.237   6.577   0.819  0.0420  0.1152 -1.0474
 2894WAT      O13380   0.114  10.062   2.264 -0.3124  0.4451 -0.4386
 2894WAT     H113381   0.103   9.973   2.230 -0.2963 -0.1289  0.9664
 2894WAT     H213382   0.093  10.054   2.357  0.9042  1.6535 -0.0310
 2894WAT    EPW13383   0.110  10.049   2.272 -0.1498  0.5283 -0.1996
 2895WAT      O13384   8.831  10.311   4.356 -0.6712  0.1596 -0.1568
 2895WAT     H113385   8.785  10.246   4.304 -1.2087  1.3953 -1.2663
 2895WAT     H213386   8.829  10.391   4.303 -0.7053  1.3039  1.4789
 2895WAT    EPW13387   8.825  10.313   4.342 -0.7467  0.4735 -0.0873
 2896WAT      O13388  10.393   8.259   1.099  0.8386 -1.5123  0.4520
 2896WAT     H113389  10.321   8.201   1.124  1.6580 -1.9607  1.8664
 2896WAT     H213390  10.460   8.244   1.165  0.6915  1.8776  1.5319
 2896WAT    EPW13391  10.392   8.249   1.111  0.9274 -1.1244  0.7809
 2897WAT      O13392   7.628   7.538   1.258 -0.1931 -0.8697  0.2462
 2897WAT     H113393   7.666   7.462   1.212  1.3128  1.3040 -2.4277
 2897WAT     H213394   7.690   7.608   1.243 -2.7998  1.6146  0.2416
 2897WAT    EPW13395   7.641   7.537   1.250 -0.3383 -0.2553 -0.1070
 2898WAT      O13396   0.173   8.644   1.253 -0.0949 -0.1040  0.2841
 2898WAT     H113397   0.145   8.581   1.186  2.4170  1.2046 -2.1869
 2898WAT     H213398   0.122   8.620   1.330 -1.0053 -3.6212 -1.1929
 2898WAT    EPW13399   0.162   8.633   1.254  0.1163 -0.3958 -0.2366
 2899WAT      O13400   3.821   3.146   4.737  0.7387 -0.4783 -0.0379
 2899WAT     H113401   3.756   3.084   4.703  0.1208 -1.1702  2.2341
 2899WAT     H213402   3.893   3.141   4.674 -0.1234 -2.0099 -0.9930
 2899WAT    EPW13403   3.822   3.137   4.724  0.5436 -0.7715  0.1359
 2900WAT      O13404  10.400   6.131   1.429  0.4178  0.3284 -0.6703
 2900WAT     H113405  10.313   6.161   1.455 -0.2703 -1.6405 -0.5114
 2900WAT     H213406  10.400   6.037   1.451  2.1581  0.0353 -1.7665
 2900WAT    EPW13407  10.389   6.122   1.436  0.5569  0.0300 -0.7940
 2901WAT      O13408   1.201   8.866   1.544 -0.0307 -0.2872 -0.2752
 2901WAT     H113409   1.284   8.839   1.505 -0.5205  0.8732 -2.1963
 2901WAT     H213410   1.177   8.946   1.499 -1.8511 -0.1882  0.7640
 2901WAT    EPW13411   1.209   8.873   1.533 -0.3353 -0.1211 -0.3914
 2902WAT      O13412   5.715   7.230   6.364  0.2167 -0.2188 -0.4678
 2902WAT     H113413   5.798   7.201   6.402 -0.2426 -2.7988 -1.2415
 2902WAT     H213414   5.725   7.215   6.270 -0.7050  0.5968 -0.7160
 2902WAT    EPW13415   5.727   7.224   6.357  0.0343 -0.4513 -0.6025
 2903WAT      O13416   7.672  10.058   3.227  0.1045  0.0147 -0.2068
 2903WAT     H113417   7.637  10.134   3.181 -0.9364  0.5455  1.3833
 2903WAT     H213418   7.694   9.996   3.157 -1.2421  0.8339 -1.4177
 2903WAT    EPW13419   7.670  10.060   3.212 -0.2105  0.1931 -0.1569
 2904WAT      O13420   2.112  10.133   0.053 -0.4933  0.3249 -0.3305
 2904WAT     H113421   2.107  10.052   0.004 -1.4742  0.1392  0.0588
 2904WAT     H213422   2.194  10.127   0.102 -0.3001 -0.1857 -0.7150
 2904WAT    EPW13423   2.122  10.122   0.053 -0.5974  0.2332 -0.3299
 2905WAT      O13424   7.588   7.799   1.893  0.9519  0.8373 -0.0917
 2905WAT     H113425   7.613   7.882   1.934  2.1023  0.2658  0.4136
 2905WAT     H213426   7.573   7.822   1.801 -1.4037  2.0793  0.5325
 2905WAT    EPW13427   7.590   7.813   1.886  0.7930  0.9258  0.0572
 2906WAT      O13428   6.192   5.164   8.186 -0.2537 -0.0116  1.2874
 2906WAT     H113429   6.159   5.253   8.199 -0.4220 -0.2683  2.7272
 2906WAT     H213430   6.121   5.107   8.218  0.5761 -0.6154  2.0946
 2906WAT    EPW13431   6.178   5.168   8.192 -0.1662 -0.1252  1.5836
 2907WAT      O13432  10.159   3.432   8.105  1.0775 -0.4407 -0.0677
 2907WAT     H113433  10.073   3.414   8.068  1.2789 -1.3710 -0.1327
 2907WAT     H213434  10.181   3.351   8.152  0.7401  0.7434  2.2617
 2907WAT    EPW13435  10.151   3.419   8.107  1.0591 -0.4071  0.2308
 2908WAT      O13436   5.869   5.376   8.727  0.4440  0.0930 -0.6677
 2908WAT     H113437   5.920   5.408   8.653  1.0588  0.5557 -0.0631
 2908WAT     H213438   5.910   5.293   8.749  1.1170  0.5711 -0.0384
 2908WAT    EPW13439   5.881   5.370   8.720  0.6139  0.2170 -0.5050
 2909WAT      O13440  10.996   8.558   2.004 -0.2725  0.1135  0.0755
 2909WAT     H113441  11.053   8.634   1.992 -0.3328  0.6267  2.5377
 2909WAT     H213442  10.915   8.595   2.039 -0.7857 -0.9740  0.0554
 2909WAT    EPW13443  10.993   8.573   2.007 -0.3486  0.0377  0.3976
 2910WAT      O13444   0.586   9.536   0.594 -0.1804  0.1947  0.5753
 2910WAT     H113445   0.528   9.467   0.626  0.5650 -0.1361  1.2260
 2910WAT     H213446   0.673   9.510   0.622  0.6048 -0.3563 -2.1521
 2910WAT    EPW13447   0.590   9.524   0.602  0.0214  0.0782  0.3014
 2911WAT      O13448   8.240   8.060   1.170 -0.2240 -0.5773 -0.1725
 2911WAT     H113449   8.313   8.035   1.114  0.8965  1.6125  0.2071
 2911WAT     H213450   8.181   7.985   1.168  2.6815 -3.0508  0.6625
 2911WAT    EPW13451   8.242   8.047   1.163  0.3076 -0.6151 -0.0123
 2912WAT      O13452   9.717   5.450   8.083  0.0140  0.2565 -0.3536
 2912WAT     H113453   9.810   5.459   8.106 -0.3042  2.8251  0.2237
 2912WAT     H213454   9.686   5.381   8.141  0.8509  1.7381  2.0256
 2912WAT    EPW13455   9.725   5.442   8.094  0.0820  0.7908  0.0367
 2913WAT      O13456   5.609   0.981   1.191  0.3229  0.3013 -0.0038
 2913WAT     H113457   5.671   0.967   1.262  1.6095  1.8899 -0.7449
 2913WAT     H213458   5.576   1.070   1.205 -0.7577 -0.0091 -0.4163
 2913WAT    EPW13459   5.613   0.991   1.202  0.3500  0.4699 -0.1559
 2914WAT      O13460   5.170   5.427   8.740 -0.4327  0.5827 -0.6148
 2914WAT     H113461   5.149   5.336   8.721  2.7343 -0.5373  0.5428
 2914WAT     H213462   5.089   5.464   8.775 -0.5710 -3.4255  4.4136
 2914WAT    EPW13463   5.157   5.420   8.742 -0.0334 -0.0937  0.2007
 2915WAT      O13464   1.349  10.093   4.243 -0.6424  0.1274  0.2713
 2915WAT     H113465   1.351  10.125   4.153 -3.1550 -0.1429  0.0393
 2915WAT     H213466   1.338  10.172   4.296  3.1521  0.5690  0.6745
 2915WAT    EPW13467   1.348  10.108   4.238 -0.4733  0.1502  0.2937
 2916WAT      O13468   2.595   0.526   1.686  0.0026 -0.0728 -0.7059
 2916WAT     H113469   2.679   0.503   1.645 -1.0181 -2.0176 -1.7912
 2916WAT     H213470   2.529   0.498   1.623 -1.5571 -0.9052  1.2275
 2916WAT    EPW13471   2.598   0.519   1.672 -0.3380 -0.4390 -0.5941
 2917WAT      O13472  10.989   8.349   0.039  0.3407  0.4251 -0.5689
 2917WAT     H113473  11.012   8.414   0.105 -0.4694  1.4140 -1.2251
 2917WAT     H213474  11.065   8.292   0.034  0.2264 -0.0092  1.5928
 2917WAT    EPW13475  11.002   8.350   0.047  0.2186  0.4983 -0.3700
 2918WAT      O13476   8.480   6.206   8.188  0.1488 -0.4779  0.4965
 2918WAT     H113477   8.460   6.112   8.182 -0.8090 -0.3417  1.3036
 2918WAT     H213478   8.445   6.232   8.273 -0.5669  0.8354 -0.1755
 2918WAT    EPW13479   8.473   6.197   8.198 -0.0720 -0.2866  0.5140
 2919WAT      O13480   6.142   3.078   8.462  0.5507  0.1762  0.0935
 2919WAT     H113481   6.119   3.148   8.523 -1.2512 -0.6117  0.3628
 2919WAT     H213482   6.068   3.072   8.402  1.2820 -0.6063 -0.7642
 2919WAT    EPW13483   6.129   3.086   8.463  0.4096 -0.0309  0.0157
 2920WAT      O13484   4.944   2.956   7.894 -0.0068  0.0476  0.2470
 2920WAT     H113485   4.850   2.953   7.877 -0.5097  1.2746  2.3659
 2920WAT     H213486   4.969   3.046   7.874  0.5082 -0.0164  0.5804
 2920WAT    EPW13487   4.935   2.968   7.889 -0.0050  0.2010  0.5703
 2921WAT      O13488   2.252   8.614   2.170 -0.1101 -0.2371  0.4247
 2921WAT     H113489   2.324   8.677   2.165 -0.3551  0.0236  0.0641
 2921WAT     H213490   2.287   8.534   2.132 -0.8293  0.6749 -2.4496
 2921WAT    EPW13491   2.266   8.612   2.164 -0.2371 -0.0825 -0.0020
 2922WAT      O13492   6.431   3.866   7.010  0.1907  0.2806  0.3621
 2922WAT     H113493   6.483   3.791   7.039 -1.7501 -1.6031 -0.7138
 2922WAT     H213494   6.396   3.903   7.091  0.2545 -0.6967  0.8457
 2922WAT    EPW13495   6.433   3.861   7.025 -0.0565 -0.0966  0.2840
 2923WAT      O13496   0.484   1.638   1.479 -0.0774  0.2007 -0.0539
 2923WAT     H113497   0.414   1.631   1.414 -0.3487  0.7509  0.1727
 2923WAT     H213498   0.565   1.625   1.429 -0.2846  0.5658 -0.4901
 2923WAT    EPW13499   0.485   1.635   1.464 -0.1405  0.3214 -0.0815
 2924WAT      O13500   9.764   6.513   6.934  0.6956  0.3056 -0.0389
 2924WAT     H113501   9.774   6.592   6.881 -0.6429  0.1814 -0.5161
 2924WAT     H213502   9.766   6.544   7.024 -0.9056  1.0706 -0.2250
 2924WAT    EPW13503   9.765   6.527   6.939  0.3076  0.3901 -0.1264
 2925WAT      O13504   5.626   3.455   7.419 -0.4117  0.4883 -0.1216
 2925WAT     H113505   5.644   3.457   7.325  2.3667  0.9490  0.3330
 2925WAT     H213506   5.564   3.382   7.430 -1.2841  0.8180 -2.3307
 2925WAT    EPW13507   5.620   3.446   7.408 -0.1602  0.5925 -0.3531
 2926WAT      O13508  10.401   9.248   4.929  0.5314 -0.5863  0.1227
 2926WAT     H113509  10.407   9.323   4.989  1.7613  0.7003 -1.5182
 2926WAT     H213510  10.422   9.172   4.983  1.6372  0.5320  1.3313
 2926WAT    EPW13511  10.404   9.248   4.944  0.8392 -0.2689  0.0658
 2927WAT      O13512   7.908   6.466   2.936 -0.3585 -0.3250  0.4670
 2927WAT     H113513   7.873   6.421   3.013 -0.6274 -1.9231 -0.5429
 2927WAT     H213514   7.831   6.500   2.891 -0.1549  1.2603  1.2432
 2927WAT    EPW13515   7.894   6.465   2.940 -0.3669 -0.3266  0.4362
 2928WAT      O13516   6.862   4.161   6.793  1.0179 -0.4868  0.6817
 2928WAT     H113517   6.922   4.217   6.843  1.8230 -0.3276 -0.4153
 2928WAT     H213518   6.793   4.138   6.855  1.5078  0.4337  1.6022
 2928WAT    EPW13519   6.861   4.166   6.807  1.1885 -0.3445  0.6583
 2929WAT      O13520   0.521   1.346   3.149  0.0791 -0.1337  0.2243
 2929WAT     H113521   0.564   1.265   3.120  0.2268 -0.6646  1.8038
 2929WAT     H213522   0.436   1.345   3.105  0.9071 -0.0220 -1.4695
 2929WAT    EPW13523   0.515   1.335   3.140  0.2078 -0.1890  0.2091
 2930WAT      O13524   1.885   3.242   8.973  0.2076  0.0969 -0.4851
 2930WAT     H113525   1.841   3.201   8.898 -0.6653  4.6282 -2.7521
 2930WAT     H213526   1.827   3.314   8.997  1.4907  0.0252  3.3880
 2930WAT    EPW13527   1.871   3.246   8.966  0.2615  0.6852 -0.2733
 2931WAT      O13528   0.384   9.494   0.078  0.0340  0.5055 -0.4390
 2931WAT     H113529   0.463   9.535   0.112  0.2658  0.8275 -1.3242
 2931WAT     H213530   0.336   9.566   0.036  0.4185 -0.0982 -1.9674
 2931WAT    EPW13531   0.388   9.509   0.077  0.1153  0.4683 -0.7573
 2932WAT      O13532  10.602   8.905   2.842 -0.5595  0.4076  0.5213
 2932WAT     H113533  10.630   8.851   2.915 -0.6916  0.8026  0.8684
 2932WAT     H213534  10.573   8.843   2.775 -2.2140  0.0637  1.5073
 2932WAT    EPW13535  10.602   8.890   2.843 -0.7949  0.4144  0.6971
 2933WAT      O13536   7.189   4.624   6.164 -0.0164 -0.2561  0.3586
 2933WAT     H113537   7.250   4.652   6.095  0.4374 -0.2133  0.7736
 2933WAT     H213538   7.104   4.656   6.134  0.0797 -0.7354 -0.4671
 2933WAT    EPW13539   7.186   4.632   6.151  0.0563 -0.3138  0.3045
 2934WAT      O13540   8.475   5.815   8.453 -0.3889 -0.0109 -0.1339
 2934WAT     H113541   8.460   5.906   8.479  0.1148  0.5351 -1.6524
 2934WAT     H213542   8.563   5.796   8.485 -0.6979 -0.1559  0.6537
 2934WAT    EPW13543   8.485   5.825   8.461 -0.3633  0.0420 -0.2303
 2935WAT      O13544   9.919   8.120   1.439  0.0756 -0.0213 -0.5699
 2935WAT     H113545   9.825   8.137   1.444  0.2664  1.2528 -0.9538
 2935WAT     H213546   9.926   8.032   1.404 -0.9774 -0.3711  0.0553
 2935WAT    EPW13547   9.908   8.111   1.435 -0.0386  0.1006 -0.5380
 2936WAT      O13548   9.245   5.540   3.448 -0.7444  0.2367  0.8316
 2936WAT     H113549   9.327   5.587   3.432 -1.9187  3.0676  2.3252
 2936WAT     H213550   9.233   5.486   3.371  0.7218  2.5533 -1.1672
 2936WAT    EPW13551   9.254   5.539   3.436 -0.7057  0.9158  0.7650
 2937WAT      O13552   0.943   9.356   4.795  0.5263 -0.2703  0.3460
 2937WAT     H113553   1.019   9.411   4.775 -1.3829  1.5914 -2.5020
 2937WAT     H213554   0.873   9.418   4.814 -1.0909 -1.7871 -0.3793
 2937WAT    EPW13555   0.944   9.372   4.795  0.0612 -0.2246 -0.1254
 2938WAT      O13556   4.403   2.412   3.521  0.4473  0.0965  0.1697
 2938WAT     H113557   4.497   2.399   3.518  0.8063  2.3348 -0.4962
 2938WAT     H213558   4.391   2.484   3.584 -0.9073 -0.7778  0.9587
 2938WAT    EPW13559   4.414   2.420   3.529  0.3157  0.2764  0.1860
 2939WAT      O13560   5.004   1.121   2.301 -0.5907  0.3846 -0.5377
 2939WAT     H113561   5.021   1.214   2.315  1.2210  0.1912 -1.2267
 2939WAT     H213562   5.069   1.094   2.236 -0.6784 -1.5049  0.1062
 2939WAT    EPW13563   5.015   1.129   2.294 -0.3633  0.1099 -0.5436
 2940WAT      O13564   5.494   0.317   1.353  0.1276 -0.3504  0.2673
 2940WAT     H113565   5.501   0.410   1.331 -2.1282 -0.3142 -0.4874
 2940WAT     H213566   5.430   0.314   1.425  0.4486 -1.2970  0.5299
 2940WAT    EPW13567   5.487   0.329   1.360 -0.1276 -0.4705  0.2024
 2941WAT      O13568  10.911   7.236   4.188 -0.0685 -0.6806 -0.1441
 2941WAT     H113569  10.920   7.177   4.113 -2.9422 -2.0420  0.4734
 2941WAT     H213570  10.894   7.322   4.149  0.3149 -0.9908 -1.0194
 2941WAT    EPW13571  10.910   7.240   4.173 -0.3967 -0.9012 -0.1779
 2942WAT      O13572   7.325   9.628   0.658 -0.1025 -0.0384  0.1915
 2942WAT     H113573   7.293   9.667   0.577  2.9021  0.6940 -0.7666
 2942WAT     H213574   7.326   9.534   0.640  0.5160  0.1172 -0.6593
 2942WAT    EPW13575   7.321   9.621   0.645  0.3755  0.0787 -0.0471
 2943WAT      O13576   4.944   4.999   6.956  0.1303  0.4220 -0.0386
 2943WAT     H113577   4.881   4.935   6.989  0.2852 -0.5956 -1.6057
 2943WAT     H213578   4.930   5.000   6.861  0.4117  2.4344 -0.1085
 2943WAT    EPW13579   4.934   4.991   6.948  0.1874  0.5531 -0.2546
 2944WAT      O13580   0.011   5.230   6.633  0.5870 -0.3099 -0.1441
 2944WAT     H113581  -0.075   5.272   6.632  1.5328  2.0962  2.7451
 2944WAT     H213582   0.001   5.154   6.691  0.5124  0.4366  0.8577
 2944WAT    EPW13583  -0.001   5.226   6.641  0.7014  0.1061  0.3693
 2945WAT      O13584   5.283   0.322   0.947  0.7521 -0.5894 -0.6239
 2945WAT     H113585   5.270   0.235   0.909 -1.3831 -0.4682 -0.3217
 2945WAT     H213586   5.281   0.382   0.872 -0.0851 -0.6373 -0.6554
 2945WAT    EPW13587   5.281   0.319   0.932  0.3598 -0.5798 -0.5882
 2946WAT      O13588  10.670   8.025   0.774  0.5890 -0.7503 -0.1385
 2946WAT     H113589  10.590   8.045   0.726  0.8173 -4.9986 -2.8558
 2946WAT     H213590  10.639   7.976   0.851  0.4939  1.2767  1.1758
 2946WAT    EPW13591  10.655   8.021   0.778  0.6065 -1.0433 -0.3236
 2947WAT      O13592   2.436   7.140   0.645  0.2447  1.0377 -0.0212
 2947WAT     H113593   2.353   7.104   0.679 -0.1309  3.5077  2.0131
 2947WAT     H213594   2.503   7.088   0.688 -0.1130 -1.4239 -2.1756
 2947WAT    EPW13595   2.434   7.129   0.655  0.1478  1.0388 -0.0370
 2948WAT      O13596   6.631   7.421   8.118  0.0224  0.0557  0.0326
 2948WAT     H113597   6.544   7.401   8.084  0.3667 -0.2471 -0.6711
 2948WAT     H213598   6.690   7.408   8.044  0.5737  1.1138  0.2566
 2948WAT    EPW13599   6.627   7.417   8.104  0.1404  0.1552 -0.0305
 2949WAT      O13600   7.126   0.299   5.558 -0.2371 -0.1703 -0.1782
 2949WAT     H113601   7.048   0.308   5.613 -0.5920 -2.7069 -0.1486
 2949WAT     H213602   7.197   0.331   5.613 -1.1393  1.6868 -0.0094
 2949WAT    EPW13603   7.125   0.304   5.573 -0.4032 -0.2600 -0.1523
 2950WAT      O13604   9.115   7.650   3.647  0.6582 -0.0366  0.6799
 2950WAT     H113605   9.068   7.625   3.727 -1.9269  0.1562 -0.7060
 2950WAT     H213606   9.186   7.706   3.679 -2.3040  2.9728  2.7194
 2950WAT    EPW13607   9.118   7.654   3.662 -0.0734  0.3855  0.7662
 2951WAT      O13608   3.535   9.856   1.634 -0.5649 -0.0903  0.0414
 2951WAT     H113609   3.486   9.899   1.564 -1.8104  0.6445  1.3179
 2951WAT     H213610   3.475   9.792   1.671 -0.2893  0.2205  1.0748
 2951WAT    EPW13611   3.521   9.853   1.630 -0.6928  0.0477  0.3461
 2952WAT      O13612   6.881   6.913   7.506  0.1368 -0.2810  0.0256
 2952WAT     H113613   6.923   6.902   7.591 -0.4517 -1.4264  0.1824
 2952WAT     H213614   6.793   6.876   7.517 -0.1652  0.1093 -0.9052
 2952WAT    EPW13615   6.875   6.907   7.518  0.0193 -0.3805 -0.0765
 2953WAT      O13616   4.135   1.622   3.036  0.6447  0.4629 -0.5808
 2953WAT     H113617   4.161   1.703   3.079 -0.5804  1.3297 -1.3940
 2953WAT     H213618   4.193   1.556   3.072  0.1325  1.2533  1.8797
 2953WAT    EPW13619   4.146   1.624   3.046  0.4156  0.6815 -0.3636
 2954WAT      O13620   8.733   6.555   6.876 -0.1694 -0.0429 -0.5094
 2954WAT     H113621   8.726   6.523   6.966 -0.2447 -1.1063 -0.8817
 2954WAT     H213622   8.792   6.494   6.833 -1.9721 -0.9774 -1.7987
 2954WAT    EPW13623   8.740   6.543   6.882 -0.4172 -0.3064 -0.7286
 2955WAT      O13624   6.553   3.478   8.850  0.0615  0.3644  1.0214
 2955WAT     H113625   6.509   3.532   8.915  1.8409  1.2535  1.5437
 2955WAT     H213626   6.641   3.513   8.845  0.7229 -1.3157 -0.0175
 2955WAT    EPW13627   6.558   3.489   8.858  0.3834  0.2601  0.9537
 2956WAT      O13628   1.408   1.253   1.323  0.0800 -0.3092  0.2100
 2956WAT     H113629   1.333   1.258   1.264  0.3182 -0.9498 -0.1600
 2956WAT     H213630   1.372   1.271   1.409 -0.8209 -2.2308  0.2758
 2956WAT    EPW13631   1.393   1.256   1.326 -0.0073 -0.6471  0.1699
 2957WAT      O13632   6.870   3.249   8.064 -0.1382  0.0456 -0.7383
 2957WAT     H113633   6.871   3.270   7.971 -2.1940  1.8485 -0.4410
 2957WAT     H213634   6.807   3.178   8.072  2.1146 -2.1121 -0.9721
 2957WAT    EPW13635   6.862   3.243   8.053 -0.1123 -0.0012 -0.7300
 2958WAT      O13636   2.019   0.489   3.222  0.0838  0.5994 -0.2143
 2958WAT     H113637   2.073   0.533   3.156  2.9409  1.4744  2.4440
 2958WAT     H213638   2.073   0.416   3.252 -0.0026  1.6096  2.7152
 2958WAT    EPW13639   2.033   0.485   3.217  0.4492  0.8481  0.5227
 2959WAT      O13640   0.148   9.675   0.263  0.7107 -0.2618  0.3875
 2959WAT     H113641   0.059   9.669   0.300  0.2342  1.4229 -0.3581
 2959WAT     H213642   0.170   9.768   0.271  1.3545 -0.1845 -1.8140
 2959WAT    EPW13643   0.139   9.687   0.269  0.7327 -0.0296 -0.0012
 2960WAT      O13644   0.944   8.796   1.391  0.1108 -0.2254  0.1103
 2960WAT     H113645   0.960   8.862   1.324 -0.2029  1.5899  1.7203
 2960WAT     H213646   1.027   8.789   1.438 -0.4361  0.6593  1.2715
 2960WAT    EPW13647   0.957   8.804   1.388 -0.0027  0.1311  0.4758
 2961WAT      O13648   4.617   4.625   8.420 -0.3861 -0.0890 -0.7305
 2961WAT     H113649   4.619   4.719   8.441  2.5603 -0.0415 -0.8047
 2961WAT     H213650   4.557   4.620   8.345 -0.2061  1.8271 -1.0743
 2961WAT    EPW13651   4.609   4.637   8.413  0.0262  0.1702 -0.7858
 2962WAT      O13652   7.889   5.846   0.897  0.0637  0.0796  0.2372
 2962WAT     H113653   7.984   5.860   0.896 -0.0895  1.2347 -0.3390
 2962WAT     H213654   7.864   5.852   0.989  0.8832 -3.0625  0.7759
 2962WAT    EPW13655   7.898   5.849   0.909  0.1516 -0.1824  0.2322
 2963WAT      O13656   9.370   2.346   8.167 -0.0733 -0.0936 -0.0071
 2963WAT     H113657   9.424   2.324   8.091  1.5835 -1.8777  1.5792
 2963WAT     H213658   9.288   2.299   8.153  0.6758 -1.4010 -0.1526
 2963WAT    EPW13659   9.366   2.337   8.155  0.2441 -0.5014  0.1831
 2964WAT      O13660   9.354   3.196   6.624  0.5042  0.2760 -0.5329
 2964WAT     H113661   9.305   3.114   6.633  0.9321 -0.1376 -1.8290
 2964WAT     H213662   9.396   3.190   6.538  1.4904  1.3444 -0.1509
 2964WAT    EPW13663   9.353   3.184   6.614  0.6909  0.3624 -0.6535
 2965WAT      O13664   4.790   0.023   2.226  0.4333 -0.1409  0.6107
 2965WAT     H113665   4.820   0.002   2.137 -0.0990  2.9268 -0.3904
 2965WAT     H213666   4.867   0.007   2.281  1.5116  0.0976 -0.7635
 2965WAT    EPW13667   4.804   0.018   2.222  0.5054  0.2952  0.2974
 2966WAT      O13668   7.548   3.797   6.123 -0.2256 -0.7388  0.0199
 2966WAT     H113669   7.468   3.770   6.167  0.4994 -2.7920  0.2172
 2966WAT     H213670   7.579   3.717   6.080  2.9994 -0.7082  1.9769
 2966WAT    EPW13671   7.542   3.783   6.123  0.2954 -1.0055  0.3042
 2967WAT      O13672   7.095   7.712   3.133  0.1584  0.0666  0.4430
 2967WAT     H113673   7.124   7.621   3.137  1.4668  0.3893 -1.0033
 2967WAT     H213674   7.132   7.746   3.052 -2.6750  1.0940 -0.5506
 2967WAT    EPW13675   7.104   7.705   3.123 -0.0429  0.2446  0.1212
 2968WAT      O13676   6.918   5.279   5.767 -0.5621 -0.6118 -0.0524
 2968WAT     H113677   7.006   5.316   5.758 -1.1988  0.7976 -0.8116
 2968WAT     H213678   6.871   5.310   5.689 -1.9391 -0.7402  0.6912
 2968WAT    EPW13679   6.923   5.288   5.755 -0.8278 -0.4427 -0.0544
 2969WAT      O13680   1.431   9.622   3.290 -0.4707 -0.5304 -0.1528
 2969WAT     H113681   1.441   9.692   3.225 -2.1009  0.1620  0.2846
 2969WAT     H213682   1.453   9.664   3.373  1.0029 -1.2513 -0.1374
 2969WAT    EPW13683   1.436   9.637   3.292 -0.4914 -0.5341 -0.0931
 2970WAT      O13684   8.670   9.331   2.001  0.5894  0.2409 -0.3138
 2970WAT     H113685   8.642   9.289   2.082  0.0256 -2.3133 -1.6951
 2970WAT     H213686   8.738   9.392   2.027  0.7998 -0.8904  2.0206
 2970WAT    EPW13687   8.675   9.333   2.015  0.5431 -0.2446 -0.1882
 2971WAT      O13688  10.184   1.227   2.836  0.1244 -0.2801  0.2735
 2971WAT     H113689  10.211   1.172   2.910  0.7951 -1.9865 -1.1607
 2971WAT     H213690  10.115   1.177   2.794  1.2771 -0.4601 -1.5192
 2971WAT    EPW13691  10.179   1.213   2.840  0.3653 -0.5290 -0.1521
 2972WAT      O13692   9.389   8.129   1.113 -0.6700  0.4590 -0.3019
 2972WAT     H113693   9.468   8.174   1.144 -0.2834 -0.9955  0.9348
 2972WAT     H213694   9.322   8.149   1.178 -0.4529 -0.7973  0.3545
 2972WAT    EPW13695   9.391   8.137   1.125 -0.5903  0.1011 -0.0523
 2973WAT      O13696   7.710   1.789   7.696 -0.0665 -0.1324  0.6453
 2973WAT     H113697   7.673   1.877   7.687 -1.9433 -1.0670 -2.1334
 2973WAT     H213698   7.637   1.736   7.729  0.4808 -0.9791  0.5304
 2973WAT    EPW13699   7.695   1.793   7.699 -0.2422 -0.3675  0.2637
 2974WAT      O13700   0.945   1.318   1.261  0.2892  0.4250 -0.0197
 2974WAT     H113701   0.962   1.395   1.316 -2.0524  1.4617 -0.6254
 2974WAT     H213702   0.871   1.274   1.304 -0.6031  0.4297 -1.5119
 2974WAT    EPW13703   0.938   1.322   1.274 -0.1374  0.5624 -0.2963
 2975WAT      O13704   4.655   2.494   5.627  0.0472 -0.6889 -0.1990
 2975WAT     H113705   4.606   2.424   5.583  1.3493 -1.3400 -0.7057
 2975WAT     H213706   4.744   2.484   5.593  1.2556 -1.4741  2.8566
 2975WAT    EPW13707   4.661   2.483   5.617  0.3784 -0.8783  0.1371
 2976WAT      O13708   0.220   1.268   8.534  0.1139  0.4071 -0.4839
 2976WAT     H113709   0.244   1.301   8.621  0.1944 -2.9512  0.9320
 2976WAT     H213710   0.303   1.249   8.492  0.1769 -2.2915  0.6528
 2976WAT    EPW13711   0.234   1.270   8.540  0.1328 -0.3918 -0.1478
 2977WAT      O13712   8.367   5.075   8.549  0.4191 -0.6501  0.0111
 2977WAT     H113713   8.380   5.002   8.489 -3.3365 -0.2039 -1.5829
 2977WAT     H213714   8.329   5.144   8.495 -4.5551 -0.6938  2.9197
 2977WAT    EPW13715   8.364   5.075   8.534 -0.7324 -0.5968  0.1845
 2978WAT      O13716   0.844   3.871   1.414  0.6090 -1.0594 -0.2580
 2978WAT     H113717   0.805   3.956   1.436  0.4275 -0.1647 -3.5552
 2978WAT     H213718   0.863   3.876   1.321  5.2106 -2.8812  0.3249
 2978WAT    EPW13719   0.841   3.883   1.405  1.1920 -1.1817 -0.6160
 2979WAT      O13720   7.860   5.670   7.875 -0.9213  0.0927 -0.0281
 2979WAT     H113721   7.902   5.756   7.875 -2.4069  0.8526 -0.3794
 2979WAT     H213722   7.933   5.608   7.873  0.1926  1.3160  1.0348
 2979WAT    EPW13723   7.875   5.673   7.874 -0.9706  0.3545  0.0658
 2980WAT      O13724   3.573   3.855   7.548  0.2544  0.5883 -0.2479
 2980WAT     H113725   3.522   3.792   7.598 -0.5213  0.8677 -0.6760
 2980WAT     H213726   3.580   3.817   7.460  0.6498  0.6254 -0.2340
 2980WAT    EPW13727   3.567   3.842   7.543  0.2042  0.6301 -0.3026
 2981WAT      O13728   5.865   6.108   6.810 -0.5349 -0.6090  0.0447
 2981WAT     H113729   5.860   6.076   6.720  3.3744  0.9997 -0.9648
 2981WAT     H213730   5.855   6.029   6.863 -1.0113 -1.9224 -1.8728
 2981WAT    EPW13731   5.863   6.093   6.805 -0.0820 -0.5701 -0.3409
 2982WAT      O13732   2.452   8.190   0.228  0.0071  0.0493  0.6074
 2982WAT     H113733   2.398   8.267   0.213  1.0459  0.3548 -2.1602
 2982WAT     H213734   2.530   8.223   0.272  1.8304  1.3263 -3.1415
 2982WAT    EPW13735   2.455   8.204   0.231  0.3846  0.2580 -0.2521
 2983WAT      O13736   2.560   2.699   0.360 -0.5907 -0.0316  0.2203
 2983WAT     H113737   2.523   2.763   0.420  0.8282 -0.2154  1.3186
 2983WAT     H213738   2.590   2.627   0.416 -0.0024 -0.5907 -0.7810
 2983WAT    EPW13739   2.559   2.698   0.375 -0.3260 -0.1296  0.2331
 2984WAT      O13740   0.454   8.528   5.080  0.3610  0.2050 -0.7154
 2984WAT     H113741   0.481   8.451   5.030 -0.9043 -0.5475 -0.2931
 2984WAT     H213742   0.434   8.494   5.167 -0.1388  1.0332 -0.4978
 2984WAT    EPW13743   0.455   8.513   5.085  0.1282  0.2151 -0.6311
 2985WAT      O13744   6.881   6.003   8.932 -0.0516 -0.3874 -0.1958
 2985WAT     H113745   6.915   5.920   8.897 -0.1014 -0.4388 -0.1231
 2985WAT     H213746   6.810   5.976   8.991 -0.1051 -0.2901 -0.2156
 2985WAT    EPW13747   6.876   5.988   8.935 -0.0653 -0.3815 -0.1888
 2986WAT      O13748   3.778   5.734   8.353 -0.3900 -0.5739  0.1833
 2986WAT     H113749   3.772   5.768   8.263  3.1258  0.0498  0.0489
 2986WAT     H213750   3.775   5.639   8.342  0.3757 -0.5147 -0.6444
 2986WAT    EPW13751   3.777   5.726   8.339  0.1746 -0.4838  0.0567
 2987WAT      O13752   7.373   8.801   3.092 -0.2640  0.0911 -0.0061
 2987WAT     H113753   7.413   8.862   3.031  0.1007 -0.1010  0.0413
 2987WAT     H213754   7.352   8.854   3.169  1.5763 -0.1516  0.7160
 2987WAT    EPW13755   7.375   8.816   3.094  0.0267  0.0339  0.0955
 2988WAT      O13756   9.665   9.201   1.793  0.4835  0.1192  0.4237
 2988WAT     H113757   9.587   9.254   1.776 -1.3829 -1.4039  3.4835
 2988WAT     H213758   9.730   9.263   1.825 -0.5113  1.0053  0.7660
 2988WAT    EPW13759   9.663   9.216   1.795  0.1059  0.0353  0.8724
 2989WAT      O13760   4.010   7.990   1.309 -0.3712 -0.3910 -0.5208
 2989WAT     H113761   3.915   7.996   1.308 -0.3501  0.9737  1.4492
 2989WAT     H213762   4.036   8.000   1.217 -2.0780 -0.1867 -1.0035
 2989WAT    EPW13763   4.001   7.992   1.297 -0.5934 -0.1841 -0.3246
 2990WAT      O13764   4.082   4.007   8.775  0.5988  0.3662 -0.2333
 2990WAT     H113765   4.020   4.032   8.706  0.2848  1.4670  0.4365
 2990WAT     H213766   4.168   4.010   8.732  0.2323 -1.2039 -1.1790
 2990WAT    EPW13767   4.085   4.010   8.760  0.5090  0.3040 -0.2699
 2991WAT      O13768   2.241   1.641   1.738  0.7010  0.0537 -0.1015
 2991WAT     H113769   2.240   1.549   1.763 -1.1738 -0.2058 -0.9340
 2991WAT     H213770   2.316   1.649   1.679  0.2738 -1.1920 -0.8424
 2991WAT    EPW13771   2.251   1.630   1.733  0.3973 -0.1448 -0.3091
 2992WAT      O13772   3.653   4.058   7.894 -0.8799 -0.6147  1.2662
 2992WAT     H113773   3.717   3.988   7.908  3.2924  2.6265  0.2090
 2992WAT     H213774   3.649   4.104   7.978  0.4397  0.8379  0.5655
 2992WAT    EPW13775   3.661   4.055   7.907 -0.1556  0.0048  1.0345
 2993WAT      O13776   9.054   7.866   5.033  0.2563  0.1955 -0.9910
 2993WAT     H113777   8.960   7.855   5.022  0.1616 -0.1848  0.0455
 2993WAT     H213778   9.067   7.961   5.037 -0.5403  0.2675  2.0811
 2993WAT    EPW13779   9.044   7.877   5.032  0.1378  0.1547 -0.4489
 2994WAT      O13780  10.294   3.833   8.833 -0.2786 -0.0052  0.5976
 2994WAT     H113781  10.263   3.888   8.905 -2.3241 -0.7363  0.3447
 2994WAT     H213782  10.320   3.895   8.765 -0.0050  0.6675  1.3031
 2994WAT    EPW13783  10.294   3.849   8.834 -0.5121 -0.0130  0.6571
 2995WAT      O13784  10.235   7.582   1.033  0.2103 -0.0500  0.4691
 2995WAT     H113785  10.150   7.605   0.997  2.2559  1.8897 -3.8628
 2995WAT     H213786  10.241   7.487   1.023 -1.4815 -0.2792  1.2508
 2995WAT    EPW13787  10.225   7.572   1.027  0.2565  0.1755  0.0009
 2996WAT      O13788   5.835   6.228   8.955 -0.0211 -0.2295 -0.0443
 2996WAT     H113789   5.858   6.321   8.953 -0.1728 -0.2037 -0.6903
 2996WAT     H213790   5.919   6.183   8.960  0.0126 -0.0305  1.7276
 2996WAT    EPW13791   5.849   6.234   8.955 -0.0367 -0.1998  0.1044
 2997WAT      O13792   5.974   3.260   7.798  1.0384  0.0212 -0.8011
 2997WAT     H113793   6.049   3.200   7.796  0.5517 -0.7786  1.3451
 2997WAT     H213794   5.898   3.203   7.807  0.5344  0.8969  1.0639
 2997WAT    EPW13795   5.974   3.245   7.799  0.9077  0.0311 -0.2718
 2998WAT      O13796  10.145   8.642   1.056  0.4381  0.1131  0.0682
 2998WAT     H113797  10.072   8.629   1.117 -0.7624  1.2986 -1.0315
 2998WAT     H213798  10.154   8.737   1.049  4.2758  0.1081  2.5888
 2998WAT    EPW13799  10.136   8.653   1.063  0.7863  0.2689  0.2556
 2999WAT      O13800   9.539  10.071   0.211 -0.0375 -0.7281  0.2557
 2999WAT     H113801   9.619  10.051   0.260  0.0399 -1.0999 -0.0134
 2999WAT     H213802   9.498  10.141   0.260  0.0842 -1.0335  0.8068
 2999WAT    EPW13803   9.544  10.077   0.224 -0.0114 -0.8168  0.2929
 3000WAT      O13804   2.139   4.040   1.959 -0.2116  0.6096  0.0643
 3000WAT     H113805   2.136   4.049   2.054  0.3542 -1.6696  0.3533
 3000WAT     H213806   2.050   4.012   1.936 -0.9129  2.9348 -0.3829
 3000WAT    EPW13807   2.127   4.038   1.969 -0.2295  0.6156  0.0435
 3001WAT      O13808   4.206   0.249   0.198 -0.3907  0.3606 -0.0771
 3001WAT     H113809   4.274   0.317   0.202  1.7740 -1.1350 -4.3874
 3001WAT     H213810   4.124   0.298   0.190  0.7757  2.4086 -0.3719
 3001WAT    EPW13811   4.204   0.265   0.197  0.0486  0.4335 -0.6845
 3002WAT      O13812   5.356   9.389   0.641 -0.0876 -0.4288 -0.1086
 3002WAT     H113813   5.366   9.401   0.546 -1.5631  1.9610 -0.0453
 3002WAT     H213814   5.264   9.366   0.652  0.3021 -1.7136  0.7231
 3002WAT    EPW13815   5.345   9.387   0.630 -0.2306 -0.2828  0.0094
 3003WAT      O13816  10.675   5.814   1.132  0.3535  0.7614 -0.0200
 3003WAT     H113817  10.612   5.752   1.097 -0.3890 -0.8039  3.5966
 3003WAT     H213818  10.662   5.893   1.080 -2.0287 -0.6155 -1.7444
 3003WAT    EPW13819  10.665   5.816   1.121 -0.0582  0.3734  0.2295
 3004WAT      O13820   3.150   1.895   1.756 -0.1198 -0.3140  0.2248
 3004WAT     H113821   3.240   1.881   1.787  0.7822  0.9264 -1.5895
 3004WAT     H213822   3.128   1.983   1.786 -0.0990 -0.0006 -0.6438
 3004WAT    EPW13823   3.159   1.905   1.764  0.0019 -0.1091 -0.1290
 3005WAT      O13824   6.306   8.284   1.434 -0.1742  0.4851 -0.3976
 3005WAT     H113825   6.273   8.210   1.486 -0.4731  0.8109 -0.1176
 3005WAT     H213826   6.228   8.317   1.387  0.4112 -1.0126 -2.6000
 3005WAT    EPW13827   6.291   8.278   1.434 -0.1364  0.3309 -0.6512
 3006WAT      O13828   2.201   9.189   3.517  0.2850 -0.4656 -0.0396
 3006WAT     H113829   2.258   9.139   3.576  1.5503  1.7638  0.7559
 3006WAT     H213830   2.116   9.146   3.524  0.9419 -1.5972  1.7445
 3006WAT    EPW13831   2.197   9.177   3.526  0.5386 -0.3209  0.3006
 3007WAT      O13832   0.626   0.594   1.822 -0.3937  0.4507 -0.1138
 3007WAT     H113833   0.571   0.603   1.900  3.8236 -2.8482  3.8336
 3007WAT     H213834   0.600   0.510   1.784  0.9043 -0.5595  1.0940
 3007WAT    EPW13835   0.616   0.584   1.828  0.3338 -0.1176  0.5662
 3008WAT      O13836  10.845   8.537   0.732 -0.2516  0.0559  0.8459
 3008WAT     H113837  10.801   8.569   0.811  1.3875 -1.4586  2.4654
 3008WAT     H213838  10.886   8.614   0.694 -1.5228  0.9053  1.1488
 3008WAT    EPW13839  10.845   8.551   0.737 -0.2031 -0.0319  1.0995
 3009WAT      O13840   9.090   2.942   7.891  0.0256 -0.3445 -0.1083
 3009WAT     H113841   9.125   2.854   7.873  0.6339 -0.1696  0.1764
 3009WAT     H213842   9.081   2.946   7.986 -1.3890 -0.6018 -0.2165
 3009WAT    EPW13843   9.094   2.931   7.901 -0.0811 -0.3555 -0.0849
 3010WAT      O13844   2.579   0.966   1.945  0.7654 -0.1923  0.3935
 3010WAT     H113845   2.554   0.877   1.921 -1.5859 -0.3241  2.8816
 3010WAT     H213846   2.573   1.015   1.863  0.8628 -2.0512 -0.7839
 3010WAT    EPW13847   2.575   0.961   1.931  0.4680 -0.4549  0.5664
 3011WAT      O13848   2.416   9.259   0.315  0.6178  0.4055 -0.2448
 3011WAT     H113849   2.324   9.257   0.286  0.7768 -0.0202 -0.7454
 3011WAT     H213850   2.416   9.212   0.398  0.7748 -1.9497 -1.4845
 3011WAT    EPW13851   2.404   9.253   0.322  0.6595  0.0381 -0.4743
 3012WAT      O13852   7.608   3.140   7.290 -0.4875 -0.3387 -0.6403
 3012WAT     H113853   7.629   3.196   7.365 -0.7037  0.0720 -0.8805
 3012WAT     H213854   7.619   3.197   7.214 -1.3042 -0.4486 -0.8516
 3012WAT    EPW13855   7.612   3.155   7.290 -0.6239 -0.2991 -0.6998
 3013WAT      O13856   1.611  10.083   0.513  0.0915  0.1634  0.0906
 3013WAT     H113857   1.548  10.037   0.569  0.1871  0.7297  0.6661
 3013WAT     H213858   1.687  10.024   0.511  0.4865  0.5862  1.3961
 3013WAT    EPW13859   1.612  10.069   0.520  0.1562  0.2942  0.3386
 3014WAT      O13860   7.212   8.004   0.987  0.1320  0.0441  0.0716
 3014WAT     H113861   7.246   7.916   1.000  3.9289  1.4873  0.9901
 3014WAT     H213862   7.202   8.012   0.892  0.6980 -1.0527 -0.0948
 3014WAT    EPW13863   7.215   7.994   0.976  0.7076  0.0896  0.1708
 3015WAT      O13864   7.030   3.604   6.158 -0.2270 -0.0340  0.3856
 3015WAT     H113865   7.029   3.617   6.253 -0.0189  1.2885  0.2254
 3015WAT     H213866   7.092   3.532   6.145  1.3748  1.1624  1.1129
 3015WAT    EPW13867   7.038   3.596   6.169  0.0117  0.2981  0.4604
 3016WAT      O13868   8.845  10.146   1.021 -0.0499 -0.5451  0.2303
 3016WAT     H113869   8.822  10.056   1.043  1.5241 -1.5048 -1.6878
 3016WAT     H213870   8.801  10.162   0.937  2.0341 -0.6660 -0.9579
 3016WAT    EPW13871   8.836  10.136   1.013  0.4320 -0.6881 -0.1794
 3017WAT      O13872   9.014  10.147   4.499 -0.0900  0.0310  0.4340
 3017WAT     H113873   8.943  10.210   4.484  0.0343 -0.2776 -1.8473
 3017WAT     H213874   9.081  10.170   4.434  2.2158  0.6394  2.8514
 3017WAT    EPW13875   9.013  10.158   4.489  0.2303  0.0701  0.4518
 3018WAT      O13876   2.771   2.391   0.654  1.0184  0.1076  0.3108
 3018WAT     H113877   2.764   2.484   0.631 -0.1295 -0.1839 -0.6235
 3018WAT     H213878   2.779   2.346   0.569 -4.3412 -1.0939  0.0963
 3018WAT    EPW13879   2.771   2.397   0.640  0.1601 -0.0894  0.1592
 3019WAT      O13880   9.361   9.683   1.746  0.8799 -0.2131 -1.1500
 3019WAT     H113881   9.283   9.735   1.762  0.6756  0.1041 -2.9534
 3019WAT     H213882   9.334   9.593   1.765  0.3508 -0.0096 -0.9294
 3019WAT    EPW13883   9.347   9.678   1.751  0.7830 -0.1440 -1.3588
 3020WAT      O13884   8.393   3.648   8.776  0.0407 -0.1114 -0.6653
 3020WAT     H113885   8.348   3.649   8.861  0.1101 -1.2932 -0.6021
 3020WAT     H213886   8.484   3.631   8.797  0.0310 -0.5699 -0.9911
 3020WAT    EPW13887   8.399   3.646   8.790  0.0482 -0.3278 -0.7000
 3021WAT      O13888  10.696   9.036   1.923 -0.0893 -0.3590  0.1669
 3021WAT     H113889  10.607   9.019   1.890 -0.2469  0.3359  0.2061
 3021WAT     H213890  10.751   8.974   1.876 -0.1643  1.2220 -2.2175
 3021WAT    EPW13891  10.691   9.026   1.912 -0.1206 -0.0587 -0.1424
 3022WAT      O13892   6.907   5.423   8.805  0.0087  0.3151  0.5674
 3022WAT     H113893   6.842   5.482   8.843 -0.6410 -0.1433  0.1840
 3022WAT     H213894   6.862   5.339   8.798  0.1815  0.3236 -0.9753
 3022WAT    EPW13895   6.893   5.420   8.809 -0.0541  0.2556  0.3138
 3023WAT      O13896   7.115   2.210   3.969 -0.2920 -0.6156  0.0684
 3023WAT     H113897   7.091   2.212   4.061 -0.0293  2.4775  0.1819
 3023WAT     H213898   7.211   2.203   3.970 -0.1517  0.9887  0.1368
 3023WAT    EPW13899   7.125   2.209   3.981 -0.2389  0.0039  0.0924
 3024WAT      O13900   0.250   8.104   1.033 -0.0980  0.7392 -0.8020
 3024WAT     H113901   0.273   8.043   1.104 -0.8757  2.1629  0.7584
 3024WAT     H213902   0.261   8.053   0.953 -2.3899 -2.0161  0.4683
 3024WAT    EPW13903   0.255   8.090   1.032 -0.5029  0.5641 -0.4286
 3025WAT      O13904   7.393   5.704   8.909  0.0352 -0.7714 -0.2478
 3025WAT     H113905   7.473   5.710   8.962  1.4034  0.9755 -2.3252
 3025WAT     H213906   7.381   5.611   8.895  1.1089 -1.1309  0.9656
 3025WAT    EPW13907   7.402   5.693   8.914  0.3574 -0.5884 -0.3619
 3026WAT      O13908   6.579   5.779   7.444  0.3967 -0.4172  0.1989
 3026WAT     H113909   6.595   5.775   7.350  0.3556  0.6459  0.1343
 3026WAT     H213910   6.493   5.738   7.456  0.4639 -0.6785 -0.1991
 3026WAT    EPW13911   6.570   5.773   7.434  0.4005 -0.3114  0.1380
 3027WAT      O13912   2.396   7.822   0.292  0.8007  0.2181  0.9525
 3027WAT     H113913   2.418   7.896   0.235  2.0108  2.0889  3.6202
 3027WAT     H213914   2.473   7.767   0.291 -0.6149 -1.9594 -2.1641
 3027WAT    EPW13915   2.409   7.825   0.285  0.7735  0.1779  0.8933
 3028WAT      O13916   7.126   9.817   1.226 -0.0109 -0.0425  0.4799
 3028WAT     H113917   7.165   9.877   1.164 -0.8811 -0.9786 -1.0280
 3028WAT     H213918   7.200   9.775   1.269  0.6632 -0.8188 -1.3687
 3028WAT    EPW13919   7.141   9.819   1.224 -0.0370 -0.2685  0.0373
 3029WAT      O13920   5.658   2.905   5.212  0.2098  0.1823  0.3190
 3029WAT     H113921   5.700   2.931   5.294 -0.2056  0.2725  0.5045
 3029WAT     H213922   5.729   2.905   5.148  0.7565 -0.9245  0.8927
 3029WAT    EPW13923   5.673   2.908   5.214  0.2272  0.0484  0.4191
 3030WAT      O13924   7.583   6.124   6.991 -0.3483  0.0553  0.1995
 3030WAT     H113925   7.516   6.062   6.963 -1.7975  2.1385 -1.1172
 3030WAT     H213926   7.660   6.101   6.939 -1.3086  0.2393 -1.3686
 3030WAT    EPW13927   7.585   6.113   6.981 -0.6661  0.3543 -0.1807
 3031WAT      O13928   7.296   1.819   6.599 -0.9388  0.4245  0.1275
 3031WAT     H113929   7.374   1.852   6.644 -0.0015  0.5935 -1.5329
 3031WAT     H213930   7.285   1.877   6.524 -0.2749 -1.9194 -1.9150
 3031WAT    EPW13931   7.305   1.831   6.595 -0.7274  0.1376 -0.3610
 3032WAT      O13932   8.596   3.701   8.423  0.2855  0.5252  0.3016
 3032WAT     H113933   8.689   3.683   8.432  0.0962 -0.7146 -0.0595
 3032WAT     H213934   8.577   3.690   8.330 -0.0653  1.6386  0.2207
 3032WAT    EPW13935   8.606   3.697   8.412  0.2141  0.5085  0.2432
 3033WAT      O13936  10.540   1.698   2.935 -0.5462  0.1631 -0.1834
 3033WAT     H113937  10.464   1.754   2.946 -0.1398  0.4011  1.5941
 3033WAT     H213938  10.508   1.609   2.953 -0.1540  0.4119  1.9295
 3033WAT    EPW13939  10.526   1.693   2.939 -0.4406  0.2273  0.3297
 3034WAT      O13940   9.738   8.576   0.689 -0.0357  0.1484  0.4055
 3034WAT     H113941   9.799   8.514   0.649 -0.4138  1.1480 -1.8618
 3034WAT     H213942   9.793   8.647   0.721  0.0673  0.8969 -1.3498
 3034WAT    EPW13943   9.753   8.577   0.688 -0.0725  0.3786 -0.1251
 3035WAT      O13944  10.297  10.176   1.179 -0.0196 -0.6413  0.5212
 3035WAT     H113945  10.324  10.200   1.091  2.5810 -1.5131  0.9896
 3035WAT     H213946  10.339  10.091   1.194 -1.7999 -1.3186  1.9978
 3035WAT    EPW13947  10.306  10.168   1.170  0.0887 -0.8459  0.7777
 3036WAT      O13948   7.980   9.797   3.737 -0.6328  0.3910 -0.1368
 3036WAT     H113949   7.923   9.721   3.743 -0.0473 -0.0238  0.1323
 3036WAT     H213950   7.920   9.869   3.712 -1.3797  0.1014  0.7608
 3036WAT    EPW13951   7.964   9.797   3.734 -0.6542  0.2980  0.0170
 3037WAT      O13952   2.764   1.981   4.532  0.2065 -0.4717 -0.1274
 3037WAT     H113953   2.792   1.891   4.513 -2.5078 -1.4856  0.2436
 3037WAT     H213954   2.797   1.999   4.620 -2.1392 -2.5462  1.3199
 3037WAT    EPW13955   2.772   1.972   4.541 -0.4610 -0.8790  0.1123
 3038WAT      O13956   0.252   7.802   3.911 -0.1324 -0.6649  0.0484
 3038WAT     H113957   0.220   7.823   3.823 -0.0381 -0.8450 -0.0313
 3038WAT     H213958   0.273   7.709   3.906  2.1907 -0.1819 -0.4667
 3038WAT    EPW13959   0.251   7.792   3.898  0.1865 -0.6249 -0.0300
 3039WAT      O13960   0.339   8.274   0.698 -0.7218  0.9165  0.6612
 3039WAT     H113961   0.431   8.255   0.716 -0.2511  0.7455 -1.5267
 3039WAT     H213962   0.342   8.327   0.618 -2.5551 -0.0045 -0.0766
 3039WAT    EPW13963   0.351   8.278   0.690 -0.9015  0.7730  0.2753
 3040WAT      O13964   7.673   2.357   8.609  0.3885 -0.8908 -0.0766
 3040WAT     H113965   7.701   2.272   8.575 -1.2903 -1.2335 -0.7480
 3040WAT     H213966   7.708   2.360   8.698  0.2209 -2.4547  0.0797
 3040WAT    EPW13967   7.681   2.346   8.616  0.1450 -1.1424 -0.1450
 3041WAT      O13968   9.365   8.830   0.461 -0.2793 -0.5651  0.4315
 3041WAT     H113969   9.311   8.767   0.509 -0.0854 -2.1125 -1.2702
 3041WAT     H213970   9.333   8.826   0.371  1.1890  0.1548 -0.1611
 3041WAT    EPW13971   9.354   8.821   0.456 -0.0601 -0.6747  0.1289
 3042WAT      O13972   7.564   8.944   1.149 -0.3823  0.2244 -1.3168
 3042WAT     H113973   7.508   8.887   1.202  0.0406  0.1774 -0.9124
 3042WAT     H213974   7.523   8.943   1.062  0.6462 -2.2321 -1.8515
 3042WAT    EPW13975   7.551   8.936   1.144 -0.1910 -0.1059 -1.3341
 3043WAT      O13976   5.877   2.433   8.640  0.0778  0.0755  0.0231
 3043WAT     H113977   5.951   2.402   8.587  0.5234  0.8535  0.1665
 3043WAT     H213978   5.822   2.356   8.652  0.9150 -0.5448 -0.0119
 3043WAT    EPW13979   5.880   2.419   8.634  0.2470  0.0963  0.0367
 3044WAT      O13980   6.217   5.404   6.703 -0.0827  0.0436 -0.4608
 3044WAT     H113981   6.149   5.374   6.642 -0.4816  0.7415 -0.3808
 3044WAT     H213982   6.297   5.362   6.672  0.0048  1.4690 -2.3789
 3044WAT    EPW13983   6.218   5.395   6.691 -0.1237  0.3238 -0.7033
 3045WAT      O13984   0.844   8.427   3.418 -0.2454 -0.3886 -0.3655
 3045WAT     H113985   0.781   8.379   3.365 -0.6607  0.7833 -0.9703
 3045WAT     H213986   0.928   8.387   3.397 -0.7389 -1.9217  0.3857
 3045WAT    EPW13987   0.847   8.415   3.408 -0.3653 -0.4363 -0.3462
 3046WAT      O13988   5.838   4.349   8.441 -0.3019 -0.2179 -0.4028
 3046WAT     H113989   5.923   4.383   8.413  0.1662 -0.0750  1.1467
 3046WAT     H213990   5.834   4.261   8.402 -0.5580  0.6662 -2.5526
 3046WAT    EPW13991   5.849   4.342   8.432 -0.2739 -0.0825 -0.4821
 3047WAT      O13992   6.211   1.960   8.499 -0.4768 -0.6937 -0.1498
 3047WAT     H113993   6.288   2.009   8.468  0.7155 -2.4677 -0.1421
 3047WAT     H213994   6.248   1.886   8.547 -2.2368 -0.9328  0.9064
 3047WAT    EPW13995   6.226   1.957   8.501 -0.5522 -0.9592 -0.0095
 3048WAT      O13996   2.432   3.052   5.497 -0.7359 -0.0970 -0.3324
 3048WAT     H113997   2.348   3.062   5.543 -1.7324  1.6151 -2.3218
 3048WAT     H213998   2.489   3.117   5.539 -0.9784  0.0069 -0.1552
 3048WAT    EPW13999   2.429   3.062   5.509 -0.8992  0.1426 -0.5715
 3049WAT      O14000   9.747   3.825   8.126  0.9729 -0.5186 -0.2354
 3049WAT     H114001   9.672   3.884   8.128 -1.0885 -2.9270 -0.9217
 3049WAT     H214002   9.816   3.876   8.083 -1.0663  1.0016 -1.9684
 3049WAT    EPW14003   9.746   3.839   8.120  0.4325 -0.6357 -0.5546
 3050WAT      O14004   8.092   5.504   7.442 -0.6284 -0.0452  0.1797
 3050WAT     H114005   8.068   5.516   7.534  0.3263  4.1629  0.0748
 3050WAT     H214006   8.188   5.500   7.443 -0.6571 -2.3257 -0.5458
 3050WAT    EPW14007   8.101   5.505   7.454 -0.5064  0.2091  0.0703
 3051WAT      O14008   1.171   8.480   1.539  0.5495 -0.6923  0.2800
 3051WAT     H114009   1.262   8.476   1.509  0.7334  2.3549  0.0616
 3051WAT     H214010   1.128   8.540   1.478 -1.4374 -1.5041  0.8037
 3051WAT    EPW14011   1.178   8.488   1.527  0.3117 -0.3977  0.3203
 3052WAT      O14012   7.664   5.212   7.950  0.3568 -0.3713 -0.3808
 3052WAT     H114013   7.712   5.213   8.033  2.1435 -1.1966 -1.3344
 3052WAT     H214014   7.683   5.125   7.913 -2.2767 -0.9123 -0.6363
 3052WAT    EPW14015   7.673   5.201   7.956  0.2451 -0.5515 -0.5400
 3053WAT      O14016   8.745   2.455   7.384 -0.4432 -0.1326 -0.2297
 3053WAT     H114017   8.786   2.524   7.435 -0.5207  0.6120 -1.1497
 3053WAT     H214018   8.818   2.409   7.342 -0.4345 -0.0653 -0.2896
 3053WAT    EPW14019   8.760   2.458   7.385 -0.4525 -0.0255 -0.3591
 3054WAT      O14020   1.392   0.812   4.290 -0.1938  0.1213 -0.1199
 3054WAT     H114021   1.298   0.812   4.270 -0.2481  2.3616 -0.1719
 3054WAT     H214022   1.433   0.848   4.212  0.1813  3.3497  1.3913
 3054WAT    EPW14023   1.385   0.817   4.277 -0.1515  0.8426  0.0722
 3055WAT      O14024   0.752   7.667   1.669 -0.0273 -0.3432  0.2134
 3055WAT     H114025   0.715   7.634   1.751 -4.3231 -1.1673 -1.7883
 3055WAT     H214026   0.730   7.760   1.669  1.4833  0.0384  0.6584
 3055WAT    EPW14027   0.744   7.675   1.680 -0.3947 -0.4015  0.0082
 3056WAT      O14028   5.460   4.737   7.131  0.3563 -0.3620  0.2365
 3056WAT     H114029   5.403   4.716   7.205  0.3563  0.9673  0.6359
 3056WAT     H214030   5.409   4.798   7.078  0.3446 -1.3325 -0.9047
 3056WAT    EPW14031   5.446   4.742   7.134  0.3550 -0.3147  0.1383
 3057WAT      O14032   8.769   3.006   8.111  0.0879 -0.0240  0.1502
 3057WAT     H114033   8.830   3.079   8.123  1.1418 -0.7111 -0.8438
 3057WAT     H214034   8.688   3.048   8.079  0.8315  0.6935 -0.8832
 3057WAT    EPW14035   8.766   3.021   8.108  0.3252 -0.0200 -0.1173
 3058WAT      O14036   8.425   8.276   0.615  0.5982  0.6296  0.5069
 3058WAT     H114037   8.503   8.248   0.568  2.4179  1.3373  2.8919
 3058WAT     H214038   8.354   8.225   0.577  2.2133 -0.1670 -1.6532
 3058WAT    EPW14039   8.426   8.266   0.604  1.0509  0.6175  0.5365
 3059WAT      O14040   0.529   9.011   0.459 -0.4666 -0.1377 -0.4677
 3059WAT     H114041   0.484   8.955   0.395 -0.6199 -0.2911 -0.2246
 3059WAT     H214042   0.510   9.100   0.429 -0.7781 -0.2043 -0.4756
 3059WAT    EPW14043   0.520   9.015   0.446 -0.5279 -0.1669 -0.4367
 3060WAT      O14044  10.758   4.094   5.289 -0.1683  0.3535  0.6963
 3060WAT     H114045  10.780   4.133   5.205 -4.2307 -0.1657 -0.8048
 3060WAT     H214046  10.762   4.166   5.352  1.1672  1.1349 -0.2512
 3060WAT    EPW14047  10.762   4.108   5.286 -0.5279  0.3881  0.3734
 3061WAT      O14048   0.149   8.478   0.232  0.9825  0.1413 -0.4050
 3061WAT     H114049   0.137   8.421   0.308  2.1535 -1.5645 -1.4368
 3061WAT     H214050   0.119   8.564   0.262  1.0908 -0.5440  1.8590
 3061WAT    EPW14051   0.143   8.482   0.246  1.1513 -0.1740 -0.2425
 3062WAT      O14052   9.215   8.469   5.513 -0.1517  0.4188  0.7271
 3062WAT     H114053   9.181   8.554   5.485 -1.5689  0.0037  1.0962
 3062WAT     H214054   9.309   8.474   5.494 -0.3375  1.7468 -0.0383
 3062WAT    EPW14055   9.223   8.481   5.507 -0.3629  0.5393  0.6750
 3063WAT      O14056   0.765   8.894   2.231 -0.4178  0.2068  0.4605
 3063WAT     H114057   0.710   8.968   2.257  0.3908  0.8499  0.3693
 3063WAT     H214058   0.792   8.854   2.313 -0.6036  0.1932  0.5163
 3063WAT    EPW14059   0.761   8.898   2.245 -0.3357  0.2899  0.4557
 3064WAT      O14060   3.089   7.789   3.506  0.2985 -0.2667 -0.1558
 3064WAT     H114061   3.063   7.754   3.421 -0.6991 -2.5598  0.9911
 3064WAT     H214062   3.013   7.773   3.563  0.3107  2.6429  0.8614
 3064WAT    EPW14063   3.076   7.782   3.503  0.1684 -0.1855  0.1296
 3065WAT      O14064   3.924   0.617   3.895  0.2065 -0.5999  0.1397
 3065WAT     H114065   3.901   0.530   3.862 -0.0986 -0.2895 -0.4818
 3065WAT     H214066   3.984   0.652   3.828 -1.1094  0.3876 -0.5607
 3065WAT    EPW14067   3.929   0.610   3.882 -0.0073 -0.4287 -0.0347
 3066WAT      O14068   4.786   1.587   8.717 -0.5984 -0.1171  0.2851
 3066WAT     H114069   4.821   1.523   8.779  0.8123  0.3758  0.0362
 3066WAT     H214070   4.704   1.548   8.687 -0.4484 -1.1673  1.1576
 3066WAT    EPW14071   4.780   1.573   8.721 -0.3922 -0.1906  0.3676
 3067WAT      O14072   4.731   0.140   0.726 -0.1890 -0.6968  0.6780
 3067WAT     H114073   4.679   0.178   0.656 -1.6895 -3.2016  0.2918
 3067WAT     H214074   4.685   0.166   0.806 -0.6664 -0.9117  0.4789
 3067WAT    EPW14075   4.718   0.148   0.728 -0.4499 -1.0555  0.6008
 3068WAT      O14076   1.592   0.231   2.207 -0.0085  0.2098 -0.2374
 3068WAT     H114077   1.500   0.212   2.227 -0.4645  1.4213 -1.0431
 3068WAT     H214078   1.591   0.322   2.176  1.3926  0.0858 -0.7029
 3068WAT    EPW14079   1.579   0.241   2.206  0.1162  0.3532 -0.4050
 3069WAT      O14080   2.312   8.928   1.101  0.2351 -0.4713 -0.0842
 3069WAT     H114081   2.325   8.982   1.179  1.8171  0.7328 -1.1199
 3069WAT     H214082   2.219   8.906   1.103 -0.0138  0.5145  1.5030
 3069WAT    EPW14083   2.301   8.932   1.112  0.4109 -0.1826 -0.0115
 3070WAT      O14084   0.601   9.123   2.268  0.2783  1.1886  0.2260
 3070WAT     H114085   0.617   9.138   2.174  2.6380  1.3016  0.5872
 3070WAT     H214086   0.599   9.210   2.306 -1.0543  1.1595  0.2529
 3070WAT    EPW14087   0.603   9.136   2.260  0.4138  1.1997  0.2772
 3071WAT      O14088   4.773   1.060   3.041 -0.2062  0.3696  0.1451
 3071WAT     H114089   4.722   1.017   3.109  0.5927 -1.3601 -0.2942
 3071WAT     H214090   4.823   0.989   3.000  1.2691  1.7363 -0.5423
 3071WAT    EPW14091   4.773   1.045   3.045  0.0935  0.3217 -0.0035
 3072WAT      O14092   7.346  10.010   1.068 -0.4486  0.4551 -0.1985
 3072WAT     H114093   7.428   9.996   1.116  0.3066 -0.0039 -1.5608
 3072WAT     H214094   7.324  10.102   1.085 -1.7585 -0.3278  3.2788
 3072WAT    EPW14095   7.354  10.020   1.077 -0.5219  0.2918  0.0805
 3073WAT      O14096   9.903   8.693   1.211  0.6716  0.2846 -0.3970
 3073WAT     H114097   9.904   8.618   1.270 -1.7790 -0.7602 -1.5057
 3073WAT     H214098   9.879   8.767   1.266 -2.5654 -0.8369 -0.0680
 3073WAT    EPW14099   9.900   8.693   1.226 -0.0782 -0.0014 -0.4998
 3074WAT      O14100   0.095   7.808   0.114  0.2135 -0.3425  0.2937
 3074WAT     H114101   0.181   7.850   0.106 -0.4860  0.8764 -1.6854
 3074WAT     H214102   0.069   7.824   0.204  1.7234 -0.0911  0.7242
 3074WAT    EPW14103   0.103   7.815   0.125  0.3204 -0.1485  0.0895
 3075WAT      O14104   8.642   3.616   6.515  0.4403 -0.2373 -0.1182
 3075WAT     H114105   8.664   3.524   6.529 -0.5601 -0.4823 -0.0660
 3075WAT     H214106   8.726   3.661   6.518  0.7633 -0.8518  2.2190
 3075WAT    EPW14107   8.656   3.610   6.517  0.3514 -0.3507  0.1969
 3076WAT      O14108  10.980   8.402   1.785  0.2767  0.4765 -0.1831
 3076WAT     H114109  11.070   8.412   1.753  0.8551  0.2303  1.3250
 3076WAT     H214110  10.981   8.438   1.874 -0.8088 -0.7059  0.3400
 3076WAT    EPW14111  10.992   8.408   1.792  0.2099  0.2880  0.0849
 3077WAT      O14112   1.320   0.452   4.280  0.5219  0.1547  0.2461
 3077WAT     H114113   1.285   0.425   4.195  0.5136 -0.9949  0.5901
 3077WAT     H214114   1.354   0.540   4.266  0.1129  0.1468 -0.8335
 3077WAT    EPW14115   1.320   0.460   4.267  0.4668  0.0020  0.1490
 3078WAT      O14116   6.320   2.979   6.570  0.2624  0.1362  0.3007
 3078WAT     H114117   6.255   2.967   6.501  0.3170  0.4685  0.1903
 3078WAT     H214118   6.315   2.898   6.622 -0.1603  0.1121  0.2271
 3078WAT    EPW14119   6.310   2.966   6.568  0.2139  0.1767  0.2763
 3079WAT      O14120   6.981   4.782   8.528 -0.0489 -0.0982  0.2020
 3079WAT     H114121   7.010   4.856   8.475  2.1363 -2.2236 -1.7570
 3079WAT     H214122   6.915   4.738   8.474  1.1240 -1.4495 -0.1719
 3079WAT    EPW14123   6.976   4.786   8.514  0.3941 -0.5565 -0.1054
 3080WAT      O14124   1.260  10.247   1.321 -0.0333  0.3348 -0.4109
 3080WAT     H114125   1.212  10.224   1.241 -0.1659 -1.0517  0.0267
 3080WAT     H214126   1.246  10.341   1.332 -3.3247 -0.0862  0.0844
 3080WAT    EPW14127   1.252  10.256   1.312 -0.4849  0.0963 -0.2878
 3081WAT      O14128   8.895   8.106   0.415 -0.7555  0.9909 -0.1073
 3081WAT     H114129   8.823   8.049   0.387 -0.0730  0.5531 -1.0407
 3081WAT     H214130   8.974   8.059   0.388  0.0483  0.1498  3.3047
 3081WAT    EPW14131   8.896   8.092   0.408 -0.5593  0.8221  0.2197
 3082WAT      O14132   8.238   7.927   0.769  0.1016  0.3004 -0.1999
 3082WAT     H114133   8.321   7.974   0.758 -0.7079  1.6540 -0.7460
 3082WAT     H214134   8.260   7.854   0.827  1.8627  0.1036 -1.0441
 3082WAT    EPW14135   8.252   7.924   0.775  0.2275  0.4528 -0.3833
 3083WAT      O14136   9.575   6.498   0.045  0.7724  0.1293  0.1779
 3083WAT     H114137   9.579   6.574   0.104  0.0740  0.0776  0.2987
 3083WAT     H214138   9.482   6.475   0.042  0.1299  2.3923 -3.8242
 3083WAT    EPW14139   9.563   6.505   0.053  0.5956  0.4208 -0.3340
 3084WAT      O14140   7.677   8.990   2.677  0.0707  0.2559 -0.1524
 3084WAT     H114141   7.677   9.076   2.720 -2.6872  1.3328 -2.0509
 3084WAT     H214142   7.700   8.929   2.747 -0.6551  2.2583  1.9807
 3084WAT    EPW14143   7.680   8.993   2.692 -0.3886  0.6618 -0.1215
 3085WAT      O14144   5.879   7.077   7.835 -0.7414  0.0426 -0.2760
 3085WAT     H114145   5.851   7.118   7.917  0.7924 -1.0228  0.8363
 3085WAT     H214146   5.808   7.018   7.812 -1.2329  0.4318  0.2223
 3085WAT    EPW14147   5.866   7.075   7.843 -0.6042 -0.0465 -0.0637
 3086WAT      O14148   8.825   9.307   2.411 -0.2170  0.4123 -0.5759
 3086WAT     H114149   8.731   9.318   2.396 -0.3663 -0.8444 -0.6890
 3086WAT     H214150   8.864   9.388   2.379 -1.2174  0.7482 -0.9931
 3086WAT    EPW14151   8.818   9.319   2.405 -0.3676  0.2909 -0.6459
 3087WAT      O14152   3.218   0.200   0.975  0.0308 -0.5454 -0.3037
 3087WAT     H114153   3.230   0.213   1.069 -1.6150 -0.3413 -0.1020
 3087WAT     H214154   3.125   0.213   0.960 -0.0607 -2.3627 -1.6760
 3087WAT    EPW14155   3.207   0.203   0.986 -0.1984 -0.7582 -0.4581
 3088WAT      O14156   8.028   5.801   7.411 -0.0024 -0.4145 -0.4302
 3088WAT     H114157   7.960   5.759   7.463 -0.2031  1.1955  0.6755
 3088WAT     H214158   8.092   5.731   7.395 -1.1543 -1.5670 -0.1883
 3088WAT    EPW14159   8.028   5.786   7.416 -0.1812 -0.3541 -0.2527
 3089WAT      O14160   6.459   1.799   2.430 -0.2951 -0.2920 -0.0618
 3089WAT     H114161   6.519   1.835   2.364 -3.1165  0.6770 -2.3014
 3089WAT     H214162   6.462   1.705   2.416  0.0632 -0.1918 -0.7269
 3089WAT    EPW14163   6.467   1.792   2.420 -0.6199 -0.1510 -0.4450
 3090WAT      O14164   6.449   4.146   6.262 -0.5825 -0.0479 -0.6707
 3090WAT     H114165   6.517   4.178   6.203  1.0309 -0.4885  0.8625
 3090WAT     H214166   6.449   4.051   6.249 -0.7568 -0.0698 -0.5142
 3090WAT    EPW14167   6.458   4.137   6.252 -0.3929 -0.1090 -0.4478
 3091WAT      O14168   3.339   7.123   0.605  0.3291  0.1164 -0.5927
 3091WAT     H114169   3.431   7.116   0.630  0.6517  0.6487 -1.5761
 3091WAT     H214170   3.341   7.137   0.510 -0.7840 -0.2817 -0.6855
 3091WAT    EPW14171   3.352   7.124   0.596  0.2247  0.1340 -0.7346
 3092WAT      O14172   9.478   8.039   1.573 -0.2477 -0.0087 -0.1477
 3092WAT     H114173   9.512   8.014   1.659 -0.3027 -0.4142 -0.2421
 3092WAT     H214174   9.385   8.055   1.589 -0.4101 -0.8046 -0.2758
 3092WAT    EPW14175   9.470   8.038   1.587 -0.2761 -0.1669 -0.1770
 3093WAT      O14176   2.267   1.120   0.676 -0.1047  0.3306 -0.0219
 3093WAT     H114177   2.296   1.118   0.585  0.5797  1.6939  0.1309
 3093WAT     H214178   2.337   1.076   0.725 -0.4230 -0.3085 -0.1288
 3093WAT    EPW14179   2.280   1.114   0.671 -0.0564  0.4261 -0.0158
 3094WAT      O14180   9.889   7.040   1.105  0.1451  0.1308  0.3708
 3094WAT     H114181   9.958   7.047   1.171  1.3941 -0.1536 -0.8619
 3094WAT     H214182   9.845   6.957   1.125  1.5317 -0.7328 -0.0863
 3094WAT    EPW14183   9.892   7.030   1.117  0.4930 -0.0207  0.1478
 3095WAT      O14184   5.014   0.908   1.356  0.4142  0.2720  0.4871
 3095WAT     H114185   5.024   0.975   1.424 -0.5273  0.5882  0.3283
 3095WAT     H214186   4.947   0.849   1.390  0.8625 -0.2989  0.3896
 3095WAT    EPW14187   5.007   0.909   1.369  0.3490  0.2384  0.4532
 3096WAT      O14188   7.245   4.722   8.658  0.3548 -0.8862 -0.0087
 3096WAT     H114189   7.167   4.749   8.608  0.1490 -1.8181 -0.2002
 3096WAT     H214190   7.311   4.787   8.634 -0.9527  1.3186  1.8911
 3096WAT    EPW14191   7.243   4.734   8.648  0.1552 -0.7181  0.2165
 3097WAT      O14192   7.734   1.686   8.543  0.4455  0.3941 -0.2662
 3097WAT     H114193   7.770   1.773   8.558 -0.2274  1.1384 -2.5794
 3097WAT     H214194   7.653   1.685   8.594 -1.7707  2.8093 -3.3437
 3097WAT    EPW14195   7.728   1.698   8.552  0.0646  0.8109 -0.9770
 3098WAT      O14196   4.019   1.970   1.727 -0.2594  0.3294 -0.1434
 3098WAT     H114197   3.927   1.955   1.749  0.1862 -1.7656  0.4845
 3098WAT     H214198   4.031   1.926   1.643  0.2167  0.3763 -0.1013
 3098WAT    EPW14199   4.009   1.962   1.719 -0.1378  0.0592 -0.0550
 3099WAT      O14200   7.020   3.471   7.890  0.2744 -1.1991  0.3208
 3099WAT     H114201   6.944   3.511   7.932  0.1228  0.0362 -1.0381
 3099WAT     H214202   7.052   3.407   7.953 -1.0114 -0.6971  1.5247
 3099WAT    EPW14203   7.014   3.468   7.904  0.0849 -0.9701  0.3002
 3100WAT      O14204  10.643   8.864   1.387  0.0692  0.3789  0.5263
 3100WAT     H114205  10.685   8.808   1.452 -1.5979 -1.5625  0.0181
 3100WAT     H214206  10.702   8.939   1.379  1.9721 -0.8787  1.8568
 3100WAT    EPW14207  10.656   8.866   1.394  0.1001 -0.0429  0.6347
 3101WAT      O14208   2.180   0.330   0.460 -0.8954 -0.1811 -0.0480
 3101WAT     H114209   2.227   0.357   0.539  1.8449 -2.7932 -0.5625
 3101WAT     H214210   2.184   0.406   0.402 -0.7752  0.9630  1.4056
 3101WAT    EPW14211   2.187   0.343   0.462 -0.5181 -0.3747  0.0759
 3102WAT      O14212   4.988   4.097   8.145  0.4292 -0.6406  0.0608
 3102WAT     H114213   5.020   4.186   8.135 -1.1796 -0.1579 -1.3069
 3102WAT     H214214   5.053   4.043   8.100  1.2331 -0.1467  0.5951
 3102WAT    EPW14215   5.001   4.101   8.137  0.3228 -0.5116 -0.0491
 3103WAT      O14216  10.893   6.623   0.389  0.0578 -0.1749 -0.2257
 3103WAT     H114217  10.955   6.593   0.456 -1.8106 -1.0965  1.2052
 3103WAT     H214218  10.900   6.718   0.390  2.4649 -0.2647 -1.2028
 3103WAT    EPW14219  10.902   6.632   0.398  0.1287 -0.3083 -0.1659
 3104WAT      O14220   8.398   2.413   8.075 -0.7456 -0.0184 -0.4817
 3104WAT     H114221   8.461   2.480   8.049  0.0244 -0.5839 -0.0947
 3104WAT     H214222   8.341   2.457   8.138  0.2893  0.0476  0.4261
 3104WAT    EPW14223   8.399   2.428   8.080 -0.5069 -0.0843 -0.3109
 3105WAT      O14224  10.077  10.281   1.272 -0.2254 -0.1154 -0.2142
 3105WAT     H114225  10.008  10.216   1.275  0.6298 -1.1301  3.9017
 3105WAT     H214226  10.153  10.234   1.237 -0.2460 -0.6316  0.4201
 3105WAT    EPW14227  10.078  10.266   1.267 -0.1149 -0.3171  0.4123
 3106WAT      O14228   6.855   2.739   8.748  0.4121  0.4622  0.0097
 3106WAT     H114229   6.819   2.817   8.791  0.4175 -0.1517  1.1685
 3106WAT     H214230   6.855   2.761   8.655  1.1511  2.1509  0.3689
 3106WAT    EPW14231   6.850   2.752   8.742  0.5102  0.6040  0.2098
 3107WAT      O14232  10.148   7.974   0.161 -0.2333 -0.4102  0.2317
 3107WAT     H114233  10.092   7.964   0.084  0.8297 -0.9934 -0.4813
 3107WAT     H214234  10.177   8.066   0.157 -0.3195 -0.3898  0.0375
 3107WAT    EPW14235  10.144   7.985   0.150 -0.1044 -0.4842  0.1120
 3108WAT      O14236   0.013  10.074   1.807 -0.0978 -1.0502 -0.0540
 3108WAT     H114237   0.087  10.017   1.788  0.2193 -0.3281 -1.1025
 3108WAT     H214238  -0.003  10.120   1.725  0.3115  1.0857  0.9820
 3108WAT    EPW14239   0.021  10.073   1.794 -0.0020 -0.6733 -0.0556
 3109WAT      O14240   5.620   5.684   8.937 -0.0137  0.3411 -0.3055
 3109WAT     H114241   5.608   5.697   9.031  1.5069 -2.8625  0.4598
 3109WAT     H214242   5.606   5.590   8.923  1.3500  0.4253 -2.9880
 3109WAT    EPW14243   5.617   5.673   8.947  0.3667 -0.0701 -0.5584
 3110WAT      O14244   5.716   5.702   5.948 -0.0384 -0.1630 -0.2456
 3110WAT     H114245   5.644   5.748   5.905  0.5635  1.7245  0.6648
 3110WAT     H214246   5.703   5.718   6.042  1.9142  0.8619 -0.0812
 3110WAT    EPW14247   5.705   5.710   5.955  0.2985  0.2210 -0.1040
 3111WAT      O14248   4.370   0.211   0.791  0.3131  0.4563  0.4958
 3111WAT     H114249   4.376   0.298   0.831  1.4106  0.8893 -0.5450
 3111WAT     H214250   4.374   0.228   0.697  0.6999 -0.7289  0.2860
 3111WAT    EPW14251   4.372   0.225   0.784  0.5085  0.3571  0.3308
 3112WAT      O14252   7.816   8.204   8.973 -0.5116 -0.9037 -0.5398
 3112WAT     H114253   7.762   8.262   9.026  1.4482  1.8436 -1.3101
 3112WAT     H214254   7.768   8.197   8.890 -1.1321 -1.0122 -0.1789
 3112WAT    EPW14255   7.803   8.211   8.969 -0.3350 -0.5556 -0.5938
 3113WAT      O14256   8.756   5.809   6.590 -0.2414  0.0552  0.0351
 3113WAT     H114257   8.754   5.839   6.681  2.0379  0.8885 -0.1137
 3113WAT     H214258   8.728   5.718   6.594  0.5592 -0.1641  1.7099
 3113WAT    EPW14259   8.752   5.801   6.603  0.1650  0.1361  0.2365
 3114WAT      O14260   9.226   9.106   0.966 -0.0744 -0.0160 -0.0359
 3114WAT     H114261   9.260   9.194   0.951  0.7273 -0.7866 -3.5365
 3114WAT     H214262   9.137   9.107   0.930  0.6054 -1.0485 -1.8687
 3114WAT    EPW14263   9.219   9.118   0.959  0.1206 -0.2542 -0.7393
 3115WAT      O14264   3.128   1.231   0.635 -0.6073 -0.6884  0.4810
 3115WAT     H114265   3.119   1.142   0.600  0.1588 -0.2193 -0.9718
 3115WAT     H214266   3.209   1.264   0.597 -0.0486  0.1041  2.2390
 3115WAT    EPW14267   3.137   1.224   0.626 -0.4326 -0.5220  0.5213
 3116WAT      O14268   6.074   1.859   1.830 -0.3339  0.2490 -0.1183
 3116WAT     H114269   5.986   1.842   1.797 -1.6286  4.9000  0.2247
 3116WAT     H214270   6.124   1.886   1.752  0.3860 -0.8607 -0.0670
 3116WAT    EPW14271   6.069   1.860   1.815 -0.4098  0.7161 -0.0662
 3117WAT      O14272  10.885   1.693   1.976 -0.9360  0.1648 -0.9313
 3117WAT     H114273  10.975   1.698   2.008 -1.1070  1.9488 -0.6539
 3117WAT     H214274  10.831   1.699   2.055 -1.3171  0.2467 -1.1927
 3117WAT    EPW14275  10.889   1.694   1.991 -1.0090  0.4109 -0.9291
 3118WAT      O14276   0.915   2.164   1.640  0.4528  0.1610  0.2440
 3118WAT     H114277   0.912   2.069   1.650 -1.2293  0.3460  1.8839
 3118WAT     H214278   1.005   2.188   1.663  0.6197 -0.9292  0.7797
 3118WAT    EPW14279   0.926   2.154   1.644  0.2529  0.0416  0.5310
 3119WAT      O14280   8.631   5.789   8.221  0.0896  0.0415 -0.1159
 3119WAT     H114281   8.684   5.710   8.209  2.6661  1.0166  3.1675
 3119WAT     H214282   8.557   5.759   8.274  0.2041 -0.4464 -0.2208
 3119WAT    EPW14283   8.628   5.775   8.227  0.4449  0.1056  0.3033
 3120WAT      O14284   3.726   1.732   2.862 -0.1540 -0.3608 -0.4297
 3120WAT     H114285   3.674   1.806   2.894  1.4725 -0.5626  3.1471
 3120WAT     H214286   3.719   1.738   2.766 -1.6166  3.2568 -0.2763
 3120WAT    EPW14287   3.718   1.743   2.853 -0.1323  0.0898  0.0625
 3121WAT      O14288   8.837   5.977   8.240  0.2164  0.4845 -0.4723
 3121WAT     H114289   8.783   5.900   8.260  0.2836  0.2589 -1.1424
 3121WAT     H214290   8.829   6.032   8.318  0.2770 -0.2595  0.0804
 3121WAT    EPW14291   8.829   5.974   8.253  0.2332  0.3567 -0.4878
 3122WAT      O14292   0.430   8.512   4.398 -0.5656  1.1260  0.4328
 3122WAT     H114293   0.413   8.606   4.392  1.3657  1.5039  0.2770
 3122WAT     H214294   0.522   8.505   4.424 -0.7261 -0.7281  0.7032
 3122WAT    EPW14295   0.440   8.523   4.401 -0.3320  0.9308  0.4480
 3123WAT      O14296   4.938   5.665   7.941  0.4660  0.1709  0.6300
 3123WAT     H114297   4.850   5.690   7.916  0.1970 -1.8442 -0.6483
 3123WAT     H214298   4.982   5.748   7.961 -1.2482  1.3275 -0.1775
 3123WAT    EPW14299   4.932   5.679   7.940  0.2043  0.0575  0.3550
 3124WAT      O14300   0.323   8.736   0.503  0.1310  0.2340 -0.1416
 3124WAT     H114301   0.387   8.788   0.454  0.1086  1.4877  1.0576
 3124WAT     H214302   0.375   8.695   0.572  0.0076 -0.6773 -0.5862
 3124WAT    EPW14303   0.338   8.738   0.506  0.1118  0.2794 -0.0421
 3125WAT      O14304   5.360   9.587   8.572  0.2010 -0.0700 -0.7379
 3125WAT     H114305   5.331   9.515   8.629 -1.8870 -0.0924 -1.7220
 3125WAT     H214306   5.279   9.626   8.540  1.1454 -0.8388 -4.6934
 3125WAT    EPW14307   5.345   9.582   8.575  0.0501 -0.1750 -1.3890
 3126WAT      O14308   3.960  10.247   0.911  0.0833  0.4193 -0.0654
 3126WAT     H114309   3.949  10.153   0.898 -4.5134  0.5758  0.7151
 3126WAT     H214310   4.000  10.278   0.831  3.1765 -2.2570  0.2391
 3126WAT    EPW14311   3.964  10.239   0.899 -0.1148  0.0873  0.0777
 3127WAT      O14312   1.361   9.358   4.187 -0.0735 -0.1132 -0.4706
 3127WAT     H114313   1.358   9.450   4.215 -2.6784  0.5027 -2.4210
 3127WAT     H214314   1.276   9.322   4.214  0.7163 -1.8570 -0.1649
 3127WAT    EPW14315   1.350   9.365   4.194 -0.3129 -0.2623 -0.6876
 3128WAT      O14316   5.116   3.069   3.232  0.1818  0.2418 -0.3462
 3128WAT     H114317   5.079   2.996   3.282  1.5669 -0.3054 -0.0685
 3128WAT     H214318   5.047   3.135   3.230 -1.3896 -1.3429 -1.2240
 3128WAT    EPW14319   5.102   3.068   3.238  0.1571 -0.0395 -0.4253
 3129WAT      O14320   5.751   0.701   8.949 -0.0273 -0.5990 -0.3827
 3129WAT     H114321   5.838   0.699   8.908  0.2232  1.1348 -0.0051
 3129WAT     H214322   5.769   0.690   9.042 -0.2288 -0.3886 -0.3200
 3129WAT    EPW14323   5.765   0.699   8.956 -0.0210 -0.3426 -0.3247
 3130WAT      O14324   7.718   8.300   8.507  0.3003 -0.4190 -0.2077
 3130WAT     H114325   7.713   8.390   8.474 -0.5062  0.0155  1.0178
 3130WAT     H214326   7.668   8.302   8.589 -0.2653 -2.1306 -0.4653
 3130WAT    EPW14327   7.711   8.312   8.513  0.1192 -0.5875 -0.0801
 3131WAT      O14328  10.093   9.965   0.635 -0.1866  0.7601  0.0842
 3131WAT     H114329  10.006   9.925   0.642  0.1644  0.1660  1.3790
 3131WAT     H214330  10.095  10.004   0.548 -1.3213 -0.2325 -0.4068
 3131WAT    EPW14331  10.082   9.965   0.625 -0.2904  0.5507  0.1903
 3132WAT      O14332   6.599   3.228   3.506 -0.3878 -0.9104  0.3433
 3132WAT     H114333   6.513   3.266   3.525 -1.6284 -3.2906 -0.1151
 3132WAT     H214334   6.660   3.302   3.511 -2.8200  1.5034 -2.4337
 3132WAT    EPW14335   6.596   3.243   3.509 -0.8721 -0.9059 -0.0834
 3133WAT      O14336   1.992   1.076   1.993  0.4082 -0.2459  0.0958
 3133WAT     H114337   1.924   1.037   1.938  1.2705 -0.8423 -0.5689
 3133WAT     H214338   1.946   1.103   2.073 -1.5399  3.4158 -1.9869
 3133WAT    EPW14339   1.977   1.074   1.997  0.2649  0.1583 -0.2666
 3134WAT      O14340   8.970   4.278   7.899  1.0491 -0.3648  0.1025
 3134WAT     H114341   9.030   4.336   7.852  1.8703  0.6913  2.2807
 3134WAT     H214342   8.904   4.336   7.936 -1.0796 -1.4429 -1.7182
 3134WAT    EPW14343   8.969   4.293   7.898  0.8764 -0.3679  0.1497
 3135WAT      O14344   5.007   3.327   0.123 -0.1628 -0.0488  0.2297
 3135WAT     H114345   4.992   3.303   0.032  3.0176 -0.0517 -0.4137
 3135WAT     H214346   5.010   3.423   0.122  1.3150 -0.0771 -0.0003
 3135WAT    EPW14347   5.005   3.337   0.111  0.4518 -0.0529  0.1145
 3136WAT      O14348   5.581   5.428   6.852 -1.0697 -0.1181 -0.8167
 3136WAT     H114349   5.642   5.363   6.817 -0.9081 -0.3813 -0.0763
 3136WAT     H214350   5.627   5.511   6.843 -0.7133 -0.2792 -0.5332
 3136WAT    EPW14351   5.595   5.430   6.846 -1.0014 -0.1743 -0.6816
 3137WAT      O14352   2.034   0.729   0.442  0.4861 -1.2989  0.7931
 3137WAT     H114353   2.028   0.817   0.407 -2.1021 -1.2443  1.2065
 3137WAT     H214354   1.963   0.681   0.400 -0.6581 -2.1019  3.3922
 3137WAT    EPW14355   2.024   0.734   0.432 -0.0062 -1.3976  1.1904
 3138WAT      O14356   0.141   9.623   3.247 -0.2641 -0.3608  0.3320
 3138WAT     H114357   0.158   9.549   3.188  3.1698  0.4903  0.0240
 3138WAT     H214358   0.166   9.700   3.197  0.2214  0.6227  1.9884
 3138WAT    EPW14359   0.147   9.623   3.233  0.2529 -0.1187  0.5099
 3139WAT      O14360   9.224   5.828   5.834 -0.4057 -0.3754  0.0290
 3139WAT     H114361   9.136   5.851   5.805  0.9113  2.0342 -2.4670
 3139WAT     H214362   9.251   5.901   5.889  0.3154 -0.7800  0.2251
 3139WAT    EPW14363   9.216   5.841   5.838 -0.1369 -0.1111 -0.2747
 3140WAT      O14364   6.476   6.139   8.681 -0.2639 -0.5348 -0.3640
 3140WAT     H114365   6.420   6.093   8.619 -0.4850  1.5903 -1.8685
 3140WAT     H214366   6.551   6.168   8.629 -0.8858  2.0913  0.0379
 3140WAT    EPW14367   6.479   6.137   8.666 -0.3753  0.0918 -0.5097
 3141WAT      O14368   1.849   0.037   1.393  0.3143  0.0921 -0.0402
 3141WAT     H114369   1.881  -0.054   1.388  0.9425  0.3667 -1.8773
 3141WAT     H214370   1.904   0.078   1.459  0.1546 -0.8112  0.6717
 3141WAT    EPW14371   1.860   0.030   1.401  0.3761  0.0092 -0.1886
 3142WAT      O14372   0.924   3.428   0.295 -0.0524  0.0345 -0.0848
 3142WAT     H114373   1.004   3.430   0.348 -0.0627 -2.2459  0.1185
 3142WAT     H214374   0.853   3.445   0.357  0.2604  2.8401 -0.3981
 3142WAT    EPW14375   0.925   3.430   0.310 -0.0125  0.1038 -0.0993
 3143WAT      O14376   7.098   0.010   2.366 -0.1660  0.3148  0.4913
 3143WAT     H114377   7.153   0.021   2.443 -1.5922 -0.1478  1.6230
 3143WAT     H214378   7.105   0.093   2.319  1.0834  0.4368  0.8678
 3143WAT    EPW14379   7.106   0.022   2.370 -0.1894  0.2694  0.6903
 3144WAT      O14380   0.738   0.113   1.575 -0.4179  0.6611 -0.5671
 3144WAT     H114381   0.804   0.091   1.641 -1.2904  0.9586  0.4171
 3144WAT     H214382   0.736   0.037   1.518 -1.5599 -0.7942  1.3042
 3144WAT    EPW14383   0.747   0.100   1.576 -0.6843  0.5083 -0.1904
 3145WAT      O14384   1.065   1.169   1.529  0.0051 -0.1861  0.3178
 3145WAT     H114385   0.996   1.103   1.528  1.0349 -1.4247  2.7942
 3145WAT     H214386   1.020   1.249   1.558 -0.9231 -0.1766 -1.0461
 3145WAT    EPW14387   1.050   1.171   1.533  0.0185 -0.3482  0.4646
 3146WAT      O14388   7.519  10.156   1.443  0.3201 -0.4883 -0.7322
 3146WAT     H114389   7.457  10.219   1.406  1.8550  0.6287 -1.4984
 3146WAT     H214390   7.540  10.097   1.370  0.1605 -0.8792 -0.4685
 3146WAT    EPW14391   7.513  10.156   1.428  0.5016 -0.3924 -0.7984
 3147WAT      O14392   9.631   7.443   5.965 -0.0385  0.0009 -1.3152
 3147WAT     H114393   9.611   7.370   5.907  1.8740 -0.7072 -1.1469
 3147WAT     H214394   9.634   7.519   5.907 -1.2175 -0.1472 -1.6153
 3147WAT    EPW14395   9.628   7.443   5.950  0.0582 -0.1121 -1.3328
 3148WAT      O14396   9.967   0.376   1.612  0.2969 -0.1512 -0.2665
 3148WAT     H114397   9.915   0.380   1.693  0.8049 -1.0723  0.1191
 3148WAT     H214398  10.055   0.353   1.641  0.3860 -0.9331 -1.1245
 3148WAT    EPW14399   9.971   0.374   1.626  0.3757 -0.3758 -0.3288
 3149WAT      O14400   2.597   3.171   1.475  0.1980 -0.6439  0.0623
 3149WAT     H114401   2.600   3.267   1.475 -1.2180 -0.5737 -0.5553
 3149WAT     H214402   2.561   3.148   1.561 -1.1437 -0.5143 -0.4395
 3149WAT    EPW14403   2.592   3.181   1.486 -0.1657 -0.6176 -0.0854
 3150WAT      O14404   6.183   3.156   8.734  0.1318 -0.0442  0.2339
 3150WAT     H114405   6.139   3.234   8.768 -1.0683  0.3480 -2.0153
 3150WAT     H214406   6.172   3.090   8.802  3.3652  2.3127  3.3905
 3150WAT    EPW14407   6.176   3.158   8.747  0.4001  0.3183  0.3533
 3151WAT      O14408   3.445   4.089   1.828  0.2919  0.7426  0.3692
 3151WAT     H114409   3.365   4.104   1.878 -1.4463  2.5842 -2.6390
 3151WAT     H214410   3.452   3.994   1.821 -1.9708  0.5286  0.3094
 3151WAT    EPW14411   3.436   4.079   1.834 -0.2358  0.9575 -0.0354
 3152WAT      O14412   9.358   4.052   8.492  0.2330 -0.4196  0.2339
 3152WAT     H114413   9.421   4.081   8.558  4.2083  1.6456 -3.8332
 3152WAT     H214414   9.309   4.131   8.470  0.5204 -0.4856 -0.6981
 3152WAT    EPW14415   9.360   4.067   8.498  0.7954 -0.1559 -0.4253
 3153WAT      O14416   9.012   8.944   8.926  0.1204 -0.3006 -0.0080
 3153WAT     H114417   9.094   8.978   8.961 -0.0024 -2.1994  2.3968
 3153WAT     H214418   8.950   9.016   8.936  0.4899 -0.2243  2.3949
 3153WAT    EPW14419   9.014   8.958   8.932  0.1531 -0.5412  0.6261
 3154WAT      O14420   5.917   0.077   1.146  0.2434 -0.2285  0.3062
 3154WAT     H114421   5.840   0.062   1.091  1.2593 -0.7393 -1.0286
 3154WAT     H214422   5.986   0.024   1.106  2.0097  2.2413 -0.1678
 3154WAT    EPW14423   5.916   0.068   1.133  0.6104  0.0296  0.0677
 3155WAT      O14424   2.663   1.237   0.798 -0.1834 -0.0588  0.3160
 3155WAT     H114425   2.658   1.166   0.734 -1.3389 -0.0888  0.4149
 3155WAT     H214426   2.757   1.249   0.813  0.0947 -0.3038 -1.0916
 3155WAT    EPW14427   2.675   1.229   0.791 -0.2990 -0.0951  0.1433
 3156WAT      O14428   8.368   5.732   4.631  0.1774  0.3616 -0.5885
 3156WAT     H114429   8.451   5.769   4.662 -0.3276  0.0314  1.3312
 3156WAT     H214430   8.383   5.638   4.629 -0.9120 -0.0381  2.7379
 3156WAT    EPW14431   8.381   5.724   4.635 -0.0329  0.2656  0.1032
 3157WAT      O14432   6.792   0.655   7.629 -0.3568  0.4901  0.8450
 3157WAT     H114433   6.808   0.645   7.536 -1.2512  0.3962  0.6917
 3157WAT     H214434   6.870   0.619   7.671 -0.4444 -0.5470  0.1477
 3157WAT    EPW14435   6.805   0.649   7.623 -0.4864  0.3409  0.7329
 3158WAT      O14436   8.452   5.443   7.524  0.3486 -0.1890 -0.0921
 3158WAT     H114437   8.452   5.481   7.612 -0.1304 -3.9405  1.7014
 3158WAT     H214438   8.479   5.353   7.536 -0.3706 -1.0742 -3.7497
 3158WAT    EPW14439   8.455   5.436   7.537  0.1907 -0.8004 -0.3378
 3159WAT      O14440   0.968   7.863   8.524  0.0956  0.8073  0.4005
 3159WAT     H114441   0.931   7.833   8.607 -2.8157  3.2833  0.1695
 3159WAT     H214442   1.062   7.872   8.541  0.1631 -2.0420  2.2860
 3159WAT    EPW14443   0.975   7.860   8.537 -0.2795  0.7579  0.6185
 3160WAT      O14444   6.386   0.140   2.631 -0.3324 -0.1846 -1.2870
 3160WAT     H114445   6.453   0.206   2.610 -1.0925  0.8600 -0.5475
 3160WAT     H214446   6.356   0.107   2.547 -0.2991  0.8005 -1.6927
 3160WAT    EPW14447   6.391   0.145   2.617 -0.4282  0.0831 -1.2430
 3161WAT      O14448   4.372   8.447   2.222 -0.0851 -0.0605 -0.4203
 3161WAT     H114449   4.464   8.450   2.248 -0.3179  1.0330  0.3141
 3161WAT     H214450   4.351   8.353   2.219  1.2904 -0.3717 -1.5099
 3161WAT    EPW14451   4.381   8.435   2.225  0.0656  0.0424 -0.4671
 3162WAT      O14452  10.167   7.100   0.167 -0.7589 -0.7109  0.4981
 3162WAT     H114453  10.112   7.114   0.244 -2.1680 -1.7318 -0.2556
 3162WAT     H214454  10.108   7.116   0.093  0.6912  0.7560 -0.4036
 3162WAT    EPW14455  10.152   7.104   0.167 -0.7539 -0.6521  0.2798
 3163WAT      O14456  10.427   4.403   8.278  0.1569  0.0032 -0.1497
 3163WAT     H114457  10.522   4.416   8.275  0.3726 -1.5863 -1.8249
 3163WAT     H214458  10.414   4.341   8.349  0.3640  0.1545  0.0251
 3163WAT    EPW14459  10.438   4.397   8.287  0.2131 -0.1864 -0.3481
 3164WAT      O14460   8.766   4.384   8.053  0.1321  0.7200  0.3488
 3164WAT     H114461   8.690   4.336   8.085  0.4330 -0.2716 -0.3919
 3164WAT     H214462   8.824   4.390   8.129 -0.2160  0.5474  0.6323
 3164WAT    EPW14463   8.764   4.379   8.067  0.1254  0.5667  0.2885
 3165WAT      O14464   8.528   2.233   7.632  0.2310  0.0600 -0.4876
 3165WAT     H114465   8.457   2.183   7.673  0.7511 -0.1599  0.1535
 3165WAT     H214466   8.597   2.169   7.615 -0.0403  0.1095 -1.8949
 3165WAT    EPW14467   8.528   2.218   7.635  0.2642  0.0376 -0.5884
 3166WAT      O14468  10.293   7.085   6.839 -0.6700  0.6949  0.0648
 3166WAT     H114469  10.319   7.162   6.888 -0.6769  1.2277 -0.7557
 3166WAT     H214470  10.374   7.037   6.823 -0.5834  0.8595  0.0169
 3166WAT    EPW14471  10.307   7.089   6.844 -0.6595  0.7870 -0.0498
 3167WAT      O14472   4.212   1.849   2.637  0.2482 -0.8238  0.0385
 3167WAT     H114473   4.237   1.769   2.683 -0.6801 -1.2112 -0.1112
 3167WAT     H214474   4.293   1.899   2.631  0.5690 -1.1405  1.3331
 3167WAT    EPW14475   4.226   1.845   2.642  0.1683 -0.9166  0.1895
 3168WAT      O14476   8.646   3.954   6.450  0.2369 -0.7695  0.4200
 3168WAT     H114477   8.619   3.937   6.540 -0.2990  2.1816  0.9019
 3168WAT     H214478   8.564   3.962   6.402  0.4822 -0.2654  0.0878
 3168WAT    EPW14479   8.631   3.953   6.456  0.1988 -0.3138  0.4396
 3169WAT      O14480   9.421   7.890   5.141  0.0004 -0.2919  0.0014
 3169WAT     H114481   9.414   7.798   5.115  1.4650  0.2398 -2.6312
 3169WAT     H214482   9.506   7.896   5.185 -1.0523 -0.5346  2.2318
 3169WAT    EPW14483   9.432   7.878   5.143  0.0548 -0.2539 -0.0517
 3170WAT      O14484   9.979   9.220   6.018  0.0558  0.3606 -0.9119
 3170WAT     H114485  10.072   9.197   6.018  0.3071  0.9287  2.0681
 3170WAT     H214486   9.963   9.254   5.930  2.8178  0.8879 -1.3210
 3170WAT    EPW14487   9.989   9.221   6.007  0.4535  0.5054 -0.5727
 3171WAT      O14488   1.567   9.179   1.322 -0.0990 -0.3850 -1.0600
 3171WAT     H114489   1.633   9.116   1.353  0.1977 -0.7649 -2.3815
 3171WAT     H214490   1.610   9.264   1.330 -0.3281 -0.3816  0.2999
 3171WAT    EPW14491   1.582   9.182   1.327 -0.0901 -0.4344 -1.0550
 3172WAT      O14492   4.323   2.891   0.960 -0.5595 -0.1832 -0.4970
 3172WAT     H114493   4.343   2.953   1.031 -0.0707  0.7259 -1.4057
 3172WAT     H214494   4.263   2.829   1.000  0.7842 -0.5240  1.1344
 3172WAT    EPW14495   4.318   2.891   0.975 -0.3176 -0.1082 -0.4017
 3173WAT      O14496   5.075   0.791   3.480  0.5008  0.3982  0.9449
 3173WAT     H114497   5.040   0.706   3.453 -0.4242  0.5400  1.6596
 3173WAT     H214498   5.120   0.773   3.563 -0.7813  0.8109  1.7560
 3173WAT    EPW14499   5.076   0.777   3.487  0.2100  0.4713  1.1458
 3174WAT      O14500  10.054  10.037   2.355  0.4728 -0.1262 -0.7468
 3174WAT     H114501  10.066  10.055   2.448 -0.5806  0.7916 -0.7657
 3174WAT     H214502  10.096  10.112   2.311 -1.4052  0.8812 -0.9099
 3174WAT    EPW14503  10.061  10.050   2.361  0.0854  0.1273 -0.7707
 3175WAT      O14504   0.226   9.082   0.250 -0.1624  0.6566 -0.3696
 3175WAT     H114505   0.282   9.011   0.218  0.4669  0.2508  1.4979
 3175WAT     H214506   0.161   9.038   0.305 -1.8313  1.2245 -1.7938
 3175WAT    EPW14507   0.225   9.067   0.253 -0.2996  0.6776 -0.3111
 3176WAT      O14508   9.108   8.496   1.481 -0.0892  0.4393 -0.2025
 3176WAT     H114509   9.069   8.583   1.494 -2.2222 -0.3119 -1.1672
 3176WAT     H214510   9.112   8.459   1.569  1.4206  1.6717  0.3172
 3176WAT    EPW14511   9.104   8.503   1.494 -0.1717  0.5031 -0.2612
 3177WAT      O14512   1.749   3.701   2.436  1.0775  0.6612 -0.1765
 3177WAT     H114513   1.656   3.683   2.448  0.6203  3.9677  2.8431
 3177WAT     H214514   1.753   3.752   2.355  0.0762  1.3674  0.2008
 3177WAT    EPW14515   1.737   3.705   2.427  0.8851  1.1904  0.2714
 3178WAT      O14516   0.820   9.320   2.393  0.3336  0.0954  0.7673
 3178WAT     H114517   0.858   9.274   2.468  0.6700 -1.5622 -0.3560
 3178WAT     H214518   0.852   9.271   2.317 -0.2445  1.5444 -0.4451
 3178WAT    EPW14519   0.829   9.307   2.393  0.3017  0.0682  0.4593
 3179WAT      O14520   5.482   0.779   1.818  0.0876 -0.0697 -0.1434
 3179WAT     H114521   5.427   0.763   1.741  0.9937  1.0794 -1.0674
 3179WAT     H214522   5.553   0.715   1.810  0.4298  0.3489 -0.5331
 3179WAT    EPW14523   5.484   0.769   1.807  0.2522  0.1371 -0.3166
 3180WAT      O14524  10.646   9.388   0.751 -0.0314 -0.1339 -0.5074
 3180WAT     H114525  10.582   9.416   0.685  0.0782 -2.9818 -1.9558
 3180WAT     H214526  10.626   9.296   0.767  1.3804 -0.1224  1.8328
 3180WAT    EPW14527  10.635   9.380   0.745  0.1698 -0.5083 -0.3898
 3181WAT      O14528   3.109   4.200   0.306 -0.0831 -0.0159 -0.5500
 3181WAT     H114529   3.092   4.119   0.259  0.3558  0.0778 -0.8802
 3181WAT     H214530   3.195   4.229   0.274 -1.3211  1.9369 -2.3915
 3181WAT    EPW14531   3.118   4.193   0.295 -0.1885  0.2544 -0.8365
 3182WAT      O14532   8.223   7.436   7.383  0.6435  0.4690  0.0160
 3182WAT     H114533   8.246   7.404   7.295  0.0586 -0.0215  0.0329
 3182WAT     H214534   8.307   7.441   7.429  0.8177 -0.5408 -0.1611
 3182WAT    EPW14535   8.237   7.432   7.377  0.5894  0.2708 -0.0052
 3183WAT      O14536   2.874   0.604   2.946 -0.6603  0.3953 -0.3254
 3183WAT     H114537   2.860   0.515   2.976  1.3100  0.0363 -0.3170
 3183WAT     H214538   2.853   0.659   3.022  2.2548 -0.3822  1.2147
 3183WAT    EPW14539   2.870   0.600   2.960 -0.0160  0.2454 -0.1210
 3184WAT      O14540   3.430   1.597   0.427  0.5122 -0.0472  0.4751
 3184WAT     H114541   3.464   1.508   0.437  0.0062 -0.0919  1.9781
 3184WAT     H214542   3.337   1.590   0.449 -0.3859  0.2384 -2.7319
 3184WAT    EPW14543   3.422   1.584   0.431  0.3271 -0.0154  0.2503
 3185WAT      O14544   4.453   8.256   0.089 -0.2704 -0.7239 -0.0347
 3185WAT     H114545   4.486   8.344   0.072 -1.1175 -0.2340  0.7341
 3185WAT     H214546   4.526   8.211   0.132 -0.7870  0.5899  2.3917
 3185WAT    EPW14547   4.467   8.261   0.092 -0.4501 -0.4859  0.3867
 3186WAT      O14548   4.089   9.530   1.799 -0.4823  0.3976 -0.3388
 3186WAT     H114549   4.108   9.557   1.889  0.9798  2.9891 -1.3042
 3186WAT     H214550   4.005   9.570   1.779  0.3230  1.9785 -0.8167
 3186WAT    EPW14551   4.081   9.539   1.808 -0.1831  0.9475 -0.5292
 3187WAT      O14552  10.338   2.209   0.227 -0.5058  0.8869 -0.2441
 3187WAT     H114553  10.408   2.265   0.194  0.0103 -0.3798 -1.3835
 3187WAT     H214554  10.264   2.225   0.168  0.5644 -1.7314 -2.5368
 3187WAT    EPW14555  10.337   2.219   0.215 -0.2966  0.3744 -0.6968
 3188WAT      O14556   9.169   5.777   7.337  0.0268  0.1691  0.1750
 3188WAT     H114557   9.129   5.731   7.410  0.2993  1.2041  1.0037
 3188WAT     H214558   9.246   5.723   7.314 -1.2855 -1.3572 -0.8671
 3188WAT    EPW14559   9.174   5.764   7.344 -0.1106  0.1042  0.1469
 3189WAT      O14560   7.383   5.189   7.586  0.3139  0.9371  0.7788
 3189WAT     H114561   7.426   5.166   7.503  1.1710 -0.0949  1.4887
 3189WAT     H214562   7.424   5.272   7.612  0.3147  1.0686  0.3706
 3189WAT    EPW14563   7.394   5.197   7.578  0.4270  0.8183  0.8183
 3190WAT      O14564   8.591   9.519   1.040  0.4894 -1.3812 -0.0623
 3190WAT     H114565   8.578   9.424   1.038 -1.6325 -1.1635  0.9332
 3190WAT     H214566   8.615   9.541   0.950 -1.8311 -2.5392 -1.0356
 3190WAT    EPW14567   8.593   9.509   1.028 -0.0963 -1.5054 -0.0594
 3191WAT      O14568   1.187  10.370   1.960 -0.2127  0.6463 -0.2844
 3191WAT     H114569   1.273  10.331   1.941  0.1939  1.5020 -0.2485
 3191WAT     H214570   1.185  10.450   1.907 -0.7371  0.9480  0.1857
 3191WAT    EPW14571   1.198  10.376   1.950 -0.2282  0.7987 -0.2177
 3192WAT      O14572   7.531   7.389   7.118  1.2715 -0.4681 -0.0709
 3192WAT     H114573   7.556   7.390   7.210  0.7694 -4.5816  0.2677
 3192WAT     H214574   7.609   7.357   7.072  1.2124  0.6673 -1.0351
 3192WAT    EPW14575   7.545   7.385   7.124  1.1973 -0.8605 -0.1533
 3193WAT      O14576   9.245   4.326   6.550  0.2366 -0.2836 -0.1488
 3193WAT     H114577   9.282   4.247   6.510  1.3973 -0.4832  1.2200
 3193WAT     H214578   9.190   4.294   6.621  0.1542  0.1059 -0.0352
 3193WAT    EPW14579   9.243   4.312   6.554  0.3791 -0.2582  0.0467
 3194WAT      O14580   5.505   3.905   0.295  0.1999  1.1981 -0.1656
 3194WAT     H114581   5.552   3.986   0.313  1.4007  0.5163 -0.1160
 3194WAT     H214582   5.537   3.877   0.209 -0.7832  1.1592 -0.5376
 3194WAT    EPW14583   5.516   3.912   0.286  0.2286  1.1030 -0.2081
 3195WAT      O14584   4.541   4.322   1.033  0.1669 -0.3755 -0.2313
 3195WAT     H114585   4.550   4.340   1.126  0.7198 -1.3713 -0.0748
 3195WAT     H214586   4.549   4.227   1.026 -1.5042 -0.4841 -1.1307
 3195WAT    EPW14587   4.543   4.312   1.044  0.0196 -0.5212 -0.3293
 3196WAT      O14588   9.721   6.637   8.105 -0.1811 -0.2508  0.0800
 3196WAT     H114589   9.656   6.578   8.143 -0.5322 -1.1877 -1.8315
 3196WAT     H214590   9.670   6.709   8.069  0.2489  1.3641  2.4363
 3196WAT    EPW14591   9.706   6.639   8.105 -0.1707 -0.1612  0.1383
 3197WAT      O14592   6.968   8.907   2.394  0.6680 -0.2682 -0.9709
 3197WAT     H114593   6.966   8.824   2.441  0.7402  0.7421  0.8730
 3197WAT     H214594   7.060   8.933   2.394  0.5548  0.1356 -0.9708
 3197WAT    EPW14595   6.980   8.899   2.400  0.6623 -0.0815 -0.7277
 3198WAT      O14596   2.742   3.493   4.141 -0.1902  0.0978 -0.3829
 3198WAT     H114597   2.735   3.411   4.092 -0.4613  0.3506 -0.7724
 3198WAT     H214598   2.664   3.542   4.117  0.9975  1.3704 -1.8213
 3198WAT    EPW14599   2.731   3.489   4.132 -0.0694  0.2991 -0.6239
 3199WAT      O14600   7.955   4.809   4.842 -0.1360  0.2228  0.8706
 3199WAT     H114601   7.996   4.762   4.770 -2.2574  2.1679 -1.8236
 3199WAT     H214602   7.997   4.895   4.843 -2.5536  1.5600 -0.6911
 3199WAT    EPW14603   7.966   4.814   4.833 -0.7350  0.6557  0.3092
 3200WAT      O14604   1.179   9.740   2.547 -0.1476 -0.0108  0.0699
 3200WAT     H114605   1.097   9.763   2.592  0.5353  1.9898  0.4172
 3200WAT     H214606   1.212   9.824   2.514  1.0577 -0.9814 -1.3110
 3200WAT    EPW14607   1.173   9.754   2.549  0.1014  0.1245 -0.0664
 3201WAT      O14608   0.196   9.201   3.398 -0.0297 -0.3761 -0.3620
 3201WAT     H114609   0.272   9.241   3.355  0.3072 -1.6258 -0.9730
 3201WAT     H214610   0.130   9.270   3.400  0.9513  0.5831 -0.2595
 3201WAT    EPW14611   0.198   9.215   3.393  0.1441 -0.4139 -0.4292
 3202WAT      O14612   5.690   1.067   0.947 -0.3180  0.3197 -0.2531
 3202WAT     H114613   5.645   1.042   1.027 -3.0209  0.6066 -1.5710
 3202WAT     H214614   5.686   1.163   0.946  2.6507  0.5609  0.7736
 3202WAT    EPW14615   5.684   1.077   0.957 -0.2830  0.3895 -0.2915
 3203WAT      O14616   0.116   7.164   6.569 -0.7026  1.2352  0.2222
 3203WAT     H114617   0.122   7.081   6.617  0.9732  1.0240 -0.2946
 3203WAT     H214618   0.040   7.208   6.607 -1.0940 -0.1415  1.1191
 3203WAT    EPW14619   0.107   7.159   6.580 -0.5332  1.0257  0.2723
 3204WAT      O14620   4.922   0.419   0.731  0.1277 -0.0076  0.5744
 3204WAT     H114621   4.829   0.426   0.709  0.5150  0.9257 -0.8966
 3204WAT     H214622   4.942   0.501   0.776  0.0830 -0.5442  1.6080
 3204WAT    EPW14623   4.913   0.430   0.734  0.1729  0.0447  0.5167
 3205WAT      O14624   5.578   3.812   2.644  0.0551  1.0041  0.6031
 3205WAT     H114625   5.530   3.891   2.669 -3.3459 -1.1202  1.6350
 3205WAT     H214626   5.530   3.778   2.569  1.3289 -0.1822  0.2886
 3205WAT    EPW14627   5.565   3.818   2.638 -0.2255  0.5676  0.6977
 3206WAT      O14628   1.271   7.800   0.507  0.2605 -0.3331 -0.0737
 3206WAT     H114629   1.248   7.718   0.462 -2.3441 -1.0442  2.2351
 3206WAT     H214630   1.228   7.868   0.455 -3.2687 -1.1997  1.3766
 3206WAT    EPW14631   1.262   7.798   0.494 -0.5485 -0.5410  0.4222
 3207WAT      O14632   1.255   9.952   2.855  0.6219  0.4762 -0.7518
 3207WAT     H114633   1.292   9.867   2.831 -0.0627 -0.6243  1.7563
 3207WAT     H214634   1.166   9.949   2.819  1.3732  1.1922 -2.7645
 3207WAT    EPW14635   1.248   9.940   2.847  0.6307  0.4258 -0.6865
 3208WAT      O14636   6.627   2.981   6.781 -0.4824 -0.1940  0.3750
 3208WAT     H114637   6.654   3.073   6.783 -1.1642  0.0347 -0.4082
 3208WAT     H214638   6.644   2.953   6.691  0.2709 -1.0141  0.7551
 3208WAT    EPW14639   6.633   2.989   6.769 -0.4730 -0.2720  0.3219
 3209WAT      O14640   8.303   6.202   8.458 -0.4398 -0.1193 -1.0984
 3209WAT     H114641   8.319   6.260   8.533 -1.4263  0.8178 -1.5793
 3209WAT     H214642   8.241   6.250   8.404 -1.6997 -1.8289 -1.2717
 3209WAT    EPW14643   8.297   6.216   8.461 -0.7362 -0.2215 -1.1849
 3210WAT      O14644   4.899   0.494   1.944 -0.4566  0.6528 -0.6317
 3210WAT     H114645   4.837   0.423   1.926 -0.8668  0.1628  2.2292
 3210WAT     H214646   4.898   0.503   2.040  1.0372  3.2397 -0.7676
 3210WAT    EPW14647   4.891   0.486   1.955 -0.3135  0.9294 -0.2723
 3211WAT      O14648   5.518   1.461   0.578 -0.3502 -0.5866 -0.5667
 3211WAT     H114649   5.455   1.474   0.506  0.1149  1.2172 -0.7039
 3211WAT     H214650   5.602   1.447   0.534 -0.1994 -0.2550 -0.3897
 3211WAT    EPW14651   5.520   1.461   0.563 -0.2687 -0.3049 -0.5614
 3212WAT      O14652   3.112   0.422   2.078 -0.6615 -0.8474  0.2817
 3212WAT     H114653   3.095   0.405   2.171 -0.9893  1.2801  0.6613
 3212WAT     H214654   3.028   0.409   2.035 -1.1842  0.8087  0.7402
 3212WAT    EPW14655   3.099   0.418   2.085 -0.7737 -0.3483  0.3922
 3213WAT      O14656   7.825   6.720   8.591 -0.2021  0.0304 -0.0361
 3213WAT     H114657   7.826   6.642   8.646  0.0376  0.6636  0.8820
 3213WAT     H214658   7.796   6.790   8.649  1.0181  0.9099 -0.4369
 3213WAT    EPW14659   7.821   6.719   8.606 -0.0093  0.2301  0.0324
 3214WAT      O14660   4.295   1.771   4.526  0.3411  0.3747 -0.2656
 3214WAT     H114661   4.290   1.709   4.599  1.9272 -1.3243 -1.4846
 3214WAT     H214662   4.389   1.779   4.508 -0.0204  0.3301 -2.4155
 3214WAT    EPW14663   4.307   1.764   4.533  0.5026  0.1447 -0.7100
 3215WAT      O14664   8.646   8.173   7.987 -0.0158 -0.6311  0.2515
 3215WAT     H114665   8.728   8.126   7.974  0.9021 -0.0233  3.0498
 3215WAT     H214666   8.578   8.108   7.970  0.9540 -1.0198 -2.5725
 3215WAT    EPW14667   8.648   8.158   7.983  0.2332 -0.6022  0.2482
 3216WAT      O14668   1.066   8.602   0.937 -0.5229 -0.6913 -0.0499
 3216WAT     H114669   0.982   8.643   0.956  0.1954  0.2597  1.2572
 3216WAT     H214670   1.069   8.595   0.842 -1.1281  1.3772 -0.2611
 3216WAT    EPW14671   1.056   8.607   0.927 -0.5080 -0.2928  0.0946
 3217WAT      O14672   4.929   2.341   0.216 -0.0213  0.3077  0.0421
 3217WAT     H114673   5.008   2.311   0.171  0.3233  0.1221  0.7637
 3217WAT     H214674   4.944   2.322   0.308  0.1163  2.4716  0.5300
 3217WAT    EPW14675   4.941   2.335   0.222  0.0424  0.5686  0.2016
 3218WAT      O14676   9.749   9.997   2.363  0.9814 -0.1789  0.1418
 3218WAT     H114677   9.833  10.042   2.376  1.2213 -0.7421  0.5503
 3218WAT     H214678   9.745   9.933   2.434  0.8251 -1.0815 -0.6597
 3218WAT    EPW14679   9.760   9.995   2.374  0.9928 -0.3724  0.0901
 3219WAT      O14680   3.939   0.288   2.459 -0.3046  0.3873  0.1457
 3219WAT     H114681   3.846   0.307   2.458  0.1085  2.7175 -1.5140
 3219WAT     H214682   3.962   0.284   2.552 -1.9263  0.3108  0.5685
 3219WAT    EPW14683   3.930   0.290   2.471 -0.4641  0.6845 -0.0174
 3220WAT      O14684   4.750   0.695   3.306 -0.2528  0.4092  1.3901
 3220WAT     H114685   4.751   0.716   3.399  1.0524  0.4828  1.3678
 3220WAT     H214686   4.825   0.638   3.293 -0.2402  0.6481  0.3263
 3220WAT    EPW14687   4.760   0.690   3.316 -0.0789  0.4504  1.2468
 3221WAT      O14688   3.333   0.098   1.677 -0.1524 -0.2132 -0.8385
 3221WAT     H114689   3.362   0.189   1.686 -0.7627 -0.0805 -0.1661
 3221WAT     H214690   3.284   0.096   1.595 -1.2118  0.3589 -0.2316
 3221WAT    EPW14691   3.330   0.110   1.667 -0.3726 -0.1202 -0.6698
 3222WAT      O14692   3.282   9.720   2.780 -0.3163 -0.1809 -0.3486
 3222WAT     H114693   3.344   9.782   2.818 -1.0109 -0.6834  1.7322
 3222WAT     H214694   3.204   9.772   2.762 -0.9107 -0.3981  1.4269
 3222WAT    EPW14695   3.280   9.735   2.783 -0.4864 -0.2756  0.1600
 3223WAT      O14696   2.324  10.314   1.403  0.1974  0.1930 -0.1875
 3223WAT     H114697   2.318  10.389   1.343  0.0328  0.4729  0.1734
 3223WAT     H214698   2.233  10.291   1.421  0.2311 -0.8330 -1.1955
 3223WAT    EPW14699   2.311  10.321   1.397  0.1801  0.0939 -0.2728
 3224WAT      O14700   6.809   5.867   7.540  0.0055  0.1418  0.2128
 3224WAT     H114701   6.884   5.847   7.484  0.7349 -4.9468  2.4505
 3224WAT     H214702   6.736   5.823   7.498 -0.9070  1.6928  0.1091
 3224WAT    EPW14703   6.810   5.859   7.527 -0.0186 -0.3250  0.4945
 3225WAT      O14704   3.219  10.331   3.369 -0.0294  0.2112 -0.5883
 3225WAT     H114705   3.248  10.296   3.453 -0.9240  1.6369  0.3647
 3225WAT     H214706   3.195  10.254   3.317  2.6804 -0.8491 -0.4104
 3225WAT    EPW14707   3.220  10.316   3.373  0.2100  0.2599 -0.4390
 3226WAT      O14708   2.804   0.710   2.017  0.1185 -0.1741  0.0223
 3226WAT     H114709   2.797   0.755   1.933 -0.4858  0.9020  0.6257
 3226WAT     H214710   2.715   0.708   2.051  0.1698 -1.6247  0.1370
 3226WAT    EPW14711   2.792   0.716   2.011  0.0455 -0.2235  0.1171
 3227WAT      O14712   4.687   0.108   1.174  0.3453  0.2577 -0.5194
 3227WAT     H114713   4.620   0.088   1.109  0.8748  0.1498 -1.0420
 3227WAT     H214714   4.644   0.090   1.258 -0.6710  1.3807 -0.7730
 3227WAT    EPW14715   4.672   0.103   1.176  0.2811  0.3916 -0.6218
 3228WAT      O14716   6.410   3.496   7.452  0.4469 -0.1002 -0.1651
 3228WAT     H114717   6.470   3.571   7.458 -0.2000  0.3318  1.3449
 3228WAT     H214718   6.427   3.459   7.365  0.7101  1.8418 -0.9967
 3228WAT    EPW14719   6.420   3.501   7.441  0.3963  0.2130 -0.0758
 3229WAT      O14720  10.204   5.746   6.082 -0.2736 -0.2734  0.5002
 3229WAT     H114721  10.130   5.802   6.061  1.8575  1.4221 -3.5979
 3229WAT     H214722  10.202   5.676   6.017  1.8979  0.0759 -0.0274
 3229WAT    EPW14723  10.194   5.744   6.071  0.2942 -0.0038 -0.1099
 3230WAT      O14724   7.369   5.543   8.633  0.4570 -0.3627  0.5591
 3230WAT     H114725   7.302   5.550   8.701  0.0543 -1.6084  0.3279
 3230WAT     H214726   7.452   5.536   8.682  0.4177  0.9815  0.8483
 3230WAT    EPW14727   7.371   5.543   8.649  0.3986 -0.3495  0.5670
 3231WAT      O14728   1.701   9.648   0.382  0.7423  0.4676 -0.2050
 3231WAT     H114729   1.711   9.553   0.389  0.9760  0.3339 -1.8701
 3231WAT     H214730   1.647   9.661   0.304  1.2307  1.7187 -0.3662
 3231WAT    EPW14731   1.696   9.637   0.372  0.8376  0.6146 -0.4459
 3232WAT      O14732  10.435   4.741   8.766 -0.0858  0.1476  0.1039
 3232WAT     H114733  10.383   4.665   8.742 -0.9760  0.7993 -0.0923
 3232WAT     H214734  10.524   4.720   8.737 -0.6044 -0.2151 -1.3037
 3232WAT    EPW14735  10.440   4.728   8.759 -0.2713  0.1857 -0.1073
 3233WAT      O14736   1.824   2.635   0.910 -0.3153  0.2241  0.0947
 3233WAT     H114737   1.913   2.668   0.919 -0.9666  1.6925  1.5390
 3233WAT     H214738   1.772   2.712   0.886 -1.7073  0.1416  2.5328
 3233WAT    EPW14739   1.829   2.650   0.908 -0.5848  0.4070  0.6068
 3234WAT      O14740   9.388   5.708   8.485 -0.0195 -0.0025 -0.2318
 3234WAT     H114741   9.355   5.735   8.571 -1.3513  1.9811 -1.2703
 3234WAT     H214742   9.475   5.674   8.502 -0.8958 -1.3073  2.1110
 3234WAT    EPW14743   9.395   5.707   8.499 -0.3109  0.0873 -0.0601
 3235WAT      O14744   8.310   9.560   0.980 -1.1728  0.5024 -0.2843
 3235WAT     H114745   8.295   9.649   0.947  0.2914  0.6125 -0.7244
 3235WAT     H214746   8.398   9.564   1.018 -1.0218 -0.8068 -0.4614
 3235WAT    EPW14747   8.320   9.572   0.981 -0.9594  0.3443 -0.3657
 3236WAT      O14748   6.408   0.830   3.093  0.4886  0.4699 -0.1860
 3236WAT     H114749   6.366   0.914   3.078  1.9220  0.9076 -2.1466
 3236WAT     H214750   6.364   0.770   3.033 -2.2413 -0.9175  2.9096
 3236WAT    EPW14751   6.397   0.833   3.083  0.3176  0.3447 -0.0362
 3237WAT      O14752   7.313   3.599   1.132  0.2402  0.5490  0.0423
 3237WAT     H114753   7.301   3.505   1.136 -3.0874  0.7113 -2.3002
 3237WAT     H214754   7.247   3.635   1.192 -0.0038  1.4174 -0.7229
 3237WAT    EPW14755   7.303   3.592   1.141 -0.2310  0.6847 -0.3676
 3238WAT      O14756   2.920   1.389   0.730  0.3485 -0.4360 -0.7198
 3238WAT     H114757   2.888   1.447   0.660 -1.9825 -1.1558 -0.3479
 3238WAT     H214758   2.999   1.349   0.693  1.0966  1.6977 -1.6072
 3238WAT    EPW14759   2.926   1.392   0.716  0.1397 -0.2496 -0.7878
 3239WAT      O14760   5.601   0.151   2.017  0.5628 -0.0369  0.4036
 3239WAT     H114761   5.589   0.056   2.014 -1.9003  0.1968  0.9657
 3239WAT     H214762   5.606   0.177   1.925  1.6894 -0.7061  0.2478
 3239WAT    EPW14763   5.600   0.142   2.004  0.3865 -0.0943  0.4570
 3240WAT      O14764   2.362   1.922   1.755 -0.4186 -0.2487 -0.2178
 3240WAT     H114765   2.424   1.994   1.741 -1.0765  0.0361 -1.8946
 3240WAT     H214766   2.388   1.856   1.690 -0.6574 -0.9681  0.4058
 3240WAT    EPW14767   2.374   1.923   1.744 -0.5369 -0.3060 -0.3567
 3241WAT      O14768   4.776   4.269   3.525  0.4750 -0.0407 -0.1060
 3241WAT     H114769   4.730   4.221   3.594  0.5667  0.7777  0.5471
 3241WAT     H214770   4.819   4.341   3.571  2.7968 -1.0191 -0.6105
 3241WAT    EPW14771   4.776   4.272   3.540  0.7932 -0.0618 -0.0864
 3242WAT      O14772   3.705   9.872   3.938 -0.2293 -0.1530  0.4159
 3242WAT     H114773   3.708   9.827   3.854  0.1894  2.5310 -1.1071
 3242WAT     H214774   3.613   9.868   3.964 -2.0058  4.5676 -3.6092
 3242WAT    EPW14775   3.693   9.865   3.930 -0.4084  0.8230 -0.3158
 3243WAT      O14776   5.677   3.016   1.805  0.3224  0.0204  0.5402
 3243WAT     H114777   5.621   3.080   1.848  0.5869 -1.4827  3.3780
 3243WAT     H214778   5.760   3.062   1.792 -0.7686  1.5243 -1.5173
 3243WAT    EPW14779   5.681   3.030   1.809  0.2134  0.0205  0.6431
 3244WAT      O14780   6.240   7.855   7.024  0.3569  0.7049  0.9011
 3244WAT     H114781   6.320   7.805   7.010  1.2951  2.4669 -0.3903
 3244WAT     H214782   6.171   7.801   6.984  1.9050  2.1605 -4.7576
 3244WAT    EPW14783   6.241   7.841   7.017  0.6847  1.1294 -0.0155
 3245WAT      O14784   9.927   6.060   8.087  0.0012 -0.4430  0.2963
 3245WAT     H114785   9.863   6.068   8.158 -0.7139 -0.7425 -0.3060
 3245WAT     H214786   9.965   6.148   8.079  1.5811 -0.8487  2.3966
 3245WAT    EPW14787   9.924   6.073   8.096  0.1149 -0.5357  0.4935
 3246WAT      O14788   3.144   9.387   2.695 -0.3769  0.7940  0.7471
 3246WAT     H114789   3.208   9.383   2.766  1.0012 -1.7964 -0.4730
 3246WAT     H214790   3.088   9.461   2.717  1.0458  1.1727  3.5899
 3246WAT    EPW14791   3.145   9.396   2.707 -0.0074  0.5021  0.9609
 3247WAT      O14792   3.996   2.247   1.780  0.1108  0.4550  0.2384
 3247WAT     H114793   3.976   2.184   1.849 -0.0023  0.3806  0.1397
 3247WAT     H214794   4.021   2.193   1.705  1.4290  0.5621  0.5797
 3247WAT    EPW14795   3.996   2.232   1.779  0.2699  0.4592  0.2705
 3248WAT      O14796   6.505   0.319   6.771 -0.4059 -0.3828  0.3859
 3248WAT     H114797   6.563   0.370   6.826 -0.2369 -0.7609  0.5595
 3248WAT     H214798   6.550   0.235   6.759 -1.2406 -0.9472  1.1198
 3248WAT    EPW14799   6.518   0.314   6.776 -0.4938 -0.5071  0.5057
 3249WAT      O14800   1.805   9.033   1.378  0.2283  0.0177  0.5947
 3249WAT     H114801   1.787   8.943   1.350 -0.0646  0.8717 -2.3473
 3249WAT     H214802   1.875   9.024   1.442  0.7227 -2.2794 -0.1418
 3249WAT    EPW14803   1.812   9.020   1.383  0.2549 -0.1726  0.1096
 3250WAT      O14804  10.251   9.938   2.715 -0.4253  0.0937  0.0301
 3250WAT     H114805  10.342   9.914   2.736  0.1461 -0.0478 -2.3299
 3250WAT     H214806  10.213   9.858   2.679 -1.3206  0.3264  0.4259
 3250WAT    EPW14807  10.258   9.924   2.713 -0.4678  0.1059 -0.2291
 3251WAT      O14808   9.959   6.258   6.923  0.2085 -0.1374  0.4947
 3251WAT     H114809  10.054   6.242   6.927  0.6744  1.1437 -2.5442
 3251WAT     H214810   9.923   6.181   6.880 -0.2389 -0.7640  1.9298
 3251WAT    EPW14811   9.967   6.246   6.918  0.2112 -0.0510  0.2830
 3252WAT      O14812   9.057   4.714   5.972 -0.1274  0.2608 -0.2297
 3252WAT     H114813   9.080   4.643   5.912 -0.9342  0.9576 -1.4182
 3252WAT     H214814   9.125   4.779   5.959  0.3430 -0.0781  0.4967
 3252WAT    EPW14815   9.069   4.713   5.962 -0.1717  0.3083 -0.2906
 3253WAT      O14816   9.779   4.557   6.763  0.9074  0.0606  0.0890
 3253WAT     H114817   9.691   4.587   6.740  1.3987  0.3682 -1.4485
 3253WAT     H214818   9.838   4.618   6.720  1.9306  1.0770  2.7215
 3253WAT    EPW14819   9.775   4.569   6.754  1.1072  0.2351  0.2337
 3254WAT      O14820   7.239   2.609   0.227 -0.3226 -0.6433 -1.2082
 3254WAT     H114821   7.239   2.668   0.151 -1.2123  1.4583  0.3228
 3254WAT     H214822   7.169   2.546   0.209 -2.5904  1.6445 -0.8954
 3254WAT    EPW14823   7.230   2.608   0.214 -0.7391 -0.0644 -0.9650
 3255WAT      O14824   6.420   5.586   8.746 -0.6042 -0.2869  0.1568
 3255WAT     H114825   6.350   5.541   8.698 -0.5091 -1.2672  0.9152
 3255WAT     H214826   6.378   5.664   8.782 -0.9302 -0.0821 -0.6421
 3255WAT    EPW14827   6.405   5.590   8.744 -0.6349 -0.3893  0.1516
 3256WAT      O14828   3.550   3.452   2.869  0.4743 -0.0407 -0.1563
 3256WAT     H114829   3.519   3.361   2.869 -0.4367  0.1355  3.1231
 3256WAT     H214830   3.565   3.472   2.777 -0.3699 -3.1415 -1.0974
 3256WAT    EPW14831   3.547   3.442   2.857  0.2428 -0.4264  0.1520
 3257WAT      O14832   6.885   0.725   2.319  0.4671  0.6252 -0.5641
 3257WAT     H114833   6.844   0.787   2.379  0.7284  0.5457 -0.3049
 3257WAT     H214834   6.933   0.779   2.257  0.7930  0.6782 -0.2669
 3257WAT    EPW14835   6.886   0.740   2.318  0.5448  0.6217 -0.4909
 3258WAT      O14836   9.169   8.410   2.082 -0.2783 -1.0140  0.3001
 3258WAT     H114837   9.254   8.418   2.038 -1.2660 -0.2693 -1.5677
 3258WAT     H214838   9.158   8.316   2.096  0.8329 -1.1165  0.5630
 3258WAT    EPW14839   9.179   8.398   2.078 -0.2618 -0.9294  0.0883
 3259WAT      O14840   0.083   9.222   1.749 -0.4524 -0.1429  0.3062
 3259WAT     H114841   0.174   9.198   1.737 -0.3135 -0.4312  1.8267
 3259WAT     H214842   0.083   9.318   1.746 -0.6496 -0.1219 -3.1814
 3259WAT    EPW14843   0.095   9.232   1.747 -0.4601 -0.1779  0.0468
 3260WAT      O14844   4.419   1.870   0.822 -0.6739 -0.5488  0.0242
 3260WAT     H114845   4.405   1.868   0.917  0.6598 -1.1086  0.2309
 3260WAT     H214846   4.489   1.807   0.807  2.1148  2.4805 -0.7686
 3260WAT    EPW14847   4.427   1.862   0.833 -0.1299 -0.2230 -0.0531
 3261WAT      O14848   8.124   5.249   8.549  0.7868  0.3885  0.0421
 3261WAT     H114849   8.166   5.180   8.601 -0.2425  0.2953  0.7805
 3261WAT     H214850   8.096   5.204   8.468  2.2397  0.4967 -0.5464
 3261WAT    EPW14851   8.126   5.234   8.545  0.8426  0.3908  0.0625
 3262WAT      O14852   9.149   5.606   8.842  0.6097  0.9067  1.0594
 3262WAT     H114853   9.187   5.690   8.818 -1.6077  1.8269  0.5638
 3262WAT     H214854   9.124   5.617   8.934 -1.2295  1.4448  0.5305
 3262WAT    EPW14855   9.151   5.619   8.851  0.0749  1.0991  0.9246
 3263WAT      O14856   4.295   9.989   0.844  0.3341  0.4689 -0.5153
 3263WAT     H114857   4.389   9.985   0.829  0.2579  0.7062 -1.0775
 3263WAT     H214858   4.269   9.897   0.858  0.9367  0.5598  1.6236
 3263WAT    EPW14859   4.304   9.976   0.844  0.4036  0.5126 -0.3074
 3264WAT      O14860   3.485   3.023   2.247 -0.1207  0.0539 -0.7120
 3264WAT     H114861   3.401   3.004   2.204 -0.3192  0.2605 -0.4229
 3264WAT     H214862   3.550   3.016   2.177 -0.7999  4.0049 -2.0140
 3264WAT    EPW14863   3.482   3.020   2.232 -0.2366  0.6022 -0.8456
 3265WAT      O14864   4.565   0.787   1.040  0.1701 -0.4821  0.1294
 3265WAT     H114865   4.545   0.749   0.954  0.9076  0.6713 -0.5799
 3265WAT     H214866   4.519   0.871   1.040  1.8212  0.4745 -0.0101
 3265WAT    EPW14867   4.556   0.793   1.029  0.4852 -0.2038  0.0174
 3266WAT      O14868   3.536   3.810   0.948 -0.7036  0.5983 -0.3275
 3266WAT     H114869   3.452   3.766   0.962  0.0428  0.0197  3.2542
 3266WAT     H214870   3.528   3.892   0.998  1.6349 -0.6483  2.3637
 3266WAT    EPW14871   3.524   3.815   0.956 -0.2966  0.3575  0.4999
 3267WAT      O14872   3.195   3.227   1.808  0.7734 -0.0017  0.3979
 3267WAT     H114873   3.268   3.276   1.769  0.4283 -0.7268 -1.2540
 3267WAT     H214874   3.227   3.136   1.812  0.9682  0.1159  2.3033
 3267WAT    EPW14875   3.209   3.221   1.803  0.7534 -0.0818  0.4313
 3268WAT      O14876   0.403  10.050   2.947 -0.0040 -0.1532  0.7061
 3268WAT     H114877   0.471  10.048   3.014  1.1804  1.6204 -0.3902
 3268WAT     H214878   0.436   9.995   2.877 -0.6881 -0.9933  1.0157
 3268WAT    EPW14879   0.416  10.042   2.947  0.0620 -0.0300  0.6025
 3269WAT      O14880   9.896   7.435   0.786 -0.7925 -0.0613 -0.7304
 3269WAT     H114881   9.836   7.501   0.821 -0.2507 -0.4432  1.0099
 3269WAT     H214882   9.864   7.353   0.822  0.7496 -0.2731  0.2347
 3269WAT    EPW14883   9.884   7.433   0.795 -0.5178 -0.1395 -0.3736
 3270WAT      O14884   6.624   1.081   1.742  0.3911  0.7902  0.6972
 3270WAT     H114885   6.564   1.125   1.682  1.9152 -1.5606 -2.8793
 3270WAT     H214886   6.572   1.011   1.781 -0.2189  1.3830  0.9809
 3270WAT    EPW14887   6.609   1.078   1.740  0.5119  0.5584  0.2630
 3271WAT      O14888  10.743   7.589   5.065  0.4820  0.2459  0.1135
 3271WAT     H114889  10.788   7.554   4.987  1.4780 -0.3391  0.9195
 3271WAT     H214890  10.655   7.552   5.060  0.7191 -0.2784 -0.4318
 3271WAT    EPW14891  10.737   7.579   5.054  0.6452  0.0994  0.1476
 3272WAT      O14892   5.338   2.967   0.593  0.6028 -0.5194  0.0899
 3272WAT     H114893   5.395   2.892   0.609 -0.2114 -1.5329 -1.4316
 3272WAT     H214894   5.264   2.954   0.653  1.1391 -0.1547  0.8310
 3272WAT    EPW14895   5.336   2.955   0.603  0.5660 -0.6050 -0.0130
 3273WAT      O14896   9.602   0.701   0.921  0.4605 -0.6389 -0.2237
 3273WAT     H114897   9.587   0.794   0.907  0.3466 -0.4488  1.0506
 3273WAT     H214898   9.620   0.693   1.015 -0.0900 -1.9735 -0.2051
 3273WAT    EPW14899   9.603   0.712   0.932  0.3724 -0.7899 -0.0532
 3274WAT      O14900   4.155   2.463   1.707  0.2098  0.2187 -0.5694
 3274WAT     H114901   4.108   2.382   1.727 -0.0070  0.2073 -1.0986
 3274WAT     H214902   4.093   2.532   1.730  1.9811  0.5214  4.4156
 3274WAT    EPW14903   4.140   2.461   1.712  0.4148  0.2571  0.0182
 3275WAT      O14904   9.195   2.765   2.169  0.3811  0.6248  0.0533
 3275WAT     H114905   9.170   2.792   2.080 -1.7912 -0.9729  0.1014
 3275WAT     H214906   9.113   2.735   2.209  1.5366  0.0972  2.1767
 3275WAT    EPW14907   9.181   2.765   2.163  0.2465  0.3445  0.3397
 3276WAT      O14908   6.080   4.691   8.447 -0.1432 -0.0700  0.2542
 3276WAT     H114909   6.123   4.704   8.362 -1.5861  0.5420 -0.4198
 3276WAT     H214910   5.987   4.685   8.426 -0.3191 -3.1809  1.4771
 3276WAT    EPW14911   6.074   4.692   8.433 -0.3564 -0.3996  0.3266
 3277WAT      O14912   2.354   9.565   0.578 -0.2620 -0.3920  0.0186
 3277WAT     H114913   2.312   9.642   0.539  0.8328  0.8154  1.1051
 3277WAT     H214914   2.284   9.522   0.626 -0.6719  0.5528  0.3006
 3277WAT    EPW14915   2.339   9.570   0.579 -0.1715 -0.1082  0.1991
 3278WAT      O14916   4.562   4.450   1.816 -0.1871  0.0638  0.8838
 3278WAT     H114917   4.584   4.449   1.723  1.0589  0.1893  1.1516
 3278WAT     H214918   4.492   4.514   1.824  0.7004  1.1407  0.2280
 3278WAT    EPW14919   4.556   4.458   1.805  0.0942  0.2224  0.8326
 3279WAT      O14920   4.838   2.003   0.440  0.2274 -0.9100 -0.1026
 3279WAT     H114921   4.856   2.096   0.444  1.0493 -0.8870 -2.7291
 3279WAT     H214922   4.746   1.998   0.412 -0.0535 -0.9117  0.8015
 3279WAT    EPW14923   4.828   2.014   0.437  0.2990 -0.9072 -0.3297
 3280WAT      O14924   2.054   8.117   1.281 -0.0242 -0.4736 -0.6273
 3280WAT     H114925   2.003   8.174   1.223 -0.4321  0.4712  0.6202
 3280WAT     H214926   2.003   8.114   1.362  0.6311 -1.6091 -0.2371
 3280WAT    EPW14927   2.040   8.124   1.284  0.0085 -0.4983 -0.4114
 3281WAT      O14928   2.814   8.694   1.314 -0.1374 -0.1788  0.0960
 3281WAT     H114929   2.780   8.626   1.256 -1.1956  1.5385 -1.3900
 3281WAT     H214930   2.908   8.676   1.320 -0.7082 -3.2599  1.8747
 3281WAT    EPW14931   2.822   8.683   1.307 -0.3523 -0.3591  0.1346
 3282WAT      O14932   6.380   1.908   2.880  0.7739 -0.2694 -0.1603
 3282WAT     H114933   6.367   1.888   2.973  0.4765  0.3012 -0.0778
 3282WAT     H214934   6.323   1.847   2.834 -2.0302  1.9203  0.1756
 3282WAT    EPW14935   6.371   1.897   2.887  0.3648  0.0947 -0.1051
 3283WAT      O14936   8.367   5.540   8.587 -0.2981  0.0549  0.0558
 3283WAT     H114937   8.407   5.627   8.582  1.0309 -0.1739  3.6885
 3283WAT     H214938   8.416   5.487   8.524 -0.7818  1.7501 -1.8179
 3283WAT    EPW14939   8.379   5.544   8.578 -0.1869  0.2482  0.2871
 3284WAT      O14940   7.617   4.597   8.276 -0.7480  0.0082  0.2366
 3284WAT     H114941   7.544   4.585   8.337 -1.2314  1.3679 -0.0601
 3284WAT     H214942   7.641   4.507   8.250 -1.2684 -0.5289  1.5399
 3284WAT    EPW14943   7.611   4.583   8.281 -0.8805  0.1168  0.3691
 3285WAT      O14944   1.977   3.004   1.089  0.4217 -0.7124  0.2046
 3285WAT     H114945   2.013   2.999   1.001  1.3451 -1.0904  0.5870
 3285WAT     H214946   2.017   2.930   1.135 -0.2295 -0.6586  0.8740
 3285WAT    EPW14947   1.987   2.994   1.084  0.4576 -0.7551  0.3433
 3286WAT      O14948   6.181   4.516   1.049 -0.4717  0.1570 -0.2842
 3286WAT     H114949   6.110   4.550   1.102 -1.3693 -0.8856 -0.7647
 3286WAT     H214950   6.261   4.548   1.091 -1.0080 -2.2889  2.9819
 3286WAT    EPW14951   6.182   4.524   1.061 -0.6604 -0.3033  0.0831
 3287WAT      O14952   9.331   3.757   6.355  0.4180 -0.3163 -0.0549
 3287WAT     H114953   9.335   3.664   6.376  1.8536 -0.3083 -0.1922
 3287WAT     H214954   9.408   3.795   6.398 -1.2301  1.2000  1.7265
 3287WAT    EPW14955   9.342   3.750   6.363  0.3901 -0.1152  0.1616
 3288WAT      O14956   5.194   1.461   1.014 -0.4348 -0.2622  0.5395
 3288WAT     H114957   5.161   1.551   1.008  0.7379  0.1291 -0.4409
 3288WAT     H214958   5.222   1.440   0.925 -1.5433 -1.9584  0.5583
 3288WAT    EPW14959   5.193   1.470   1.002 -0.4263 -0.4343  0.4126
 3289WAT      O14960   9.910   8.374   8.847  0.2581 -0.2343  0.1484
 3289WAT     H114961   9.988   8.321   8.834  0.2160 -0.1294 -0.5543
 3289WAT     H214962   9.942   8.458   8.881  0.4997 -0.0107 -0.6196
 3289WAT    EPW14963   9.924   8.378   8.850  0.2847 -0.1907 -0.0463
 3290WAT      O14964   3.616   8.921   0.926  0.6685 -0.6754  0.6985
 3290WAT     H114965   3.580   8.839   0.957  1.2312 -1.1593  0.1131
 3290WAT     H214966   3.648   8.902   0.837  0.8739  0.1469  0.5800
 3290WAT    EPW14967   3.616   8.908   0.918  0.7699 -0.6313  0.6057
 3291WAT      O14968   6.088   3.709   8.932 -0.5283  0.3029 -0.2277
 3291WAT     H114969   6.125   3.650   8.998 -0.0988 -0.1897 -0.8894
 3291WAT     H214970   6.012   3.748   8.974 -0.3964 -0.1833  0.4740
 3291WAT    EPW14971   6.083   3.706   8.946 -0.4544  0.1740 -0.2222
 3292WAT      O14972   9.535   9.986   3.621  0.1518  0.1428 -0.0975
 3292WAT     H114973   9.536   9.985   3.525 -1.7123 -1.7280 -0.1783
 3292WAT     H214974   9.516  10.076   3.644 -0.0078  0.4940 -1.5024
 3292WAT    EPW14975   9.533   9.998   3.611 -0.1149 -0.0572 -0.2934
 3293WAT      O14976   3.521   4.297   0.125  0.4270  0.2192  0.2166
 3293WAT     H114977   3.556   4.386   0.126  1.1689 -0.0645  0.0757
 3293WAT     H214978   3.591   4.244   0.086 -0.7329 -0.1257 -1.5164
 3293WAT    EPW14979   3.535   4.302   0.120  0.3719  0.1366 -0.0305
 3294WAT      O14980   5.395   4.267   3.050  0.1900 -0.0905  0.5145
 3294WAT     H114981   5.300   4.254   3.048  0.4595 -4.0171  2.4914
 3294WAT     H214982   5.427   4.214   2.977  0.9383  1.1466 -0.0886
 3294WAT    EPW14983   5.386   4.258   3.040  0.3240 -0.4454  0.6958
 3295WAT      O14984   0.977   7.496   3.068  0.1513 -0.1877 -1.1179
 3295WAT     H114985   1.031   7.476   3.144  2.5627 -0.7423 -2.8550
 3295WAT     H214986   1.038   7.533   3.005 -1.4049 -1.2554 -3.3756
 3295WAT    EPW14987   0.992   7.498   3.070  0.2641 -0.4015 -1.6448
 3296WAT      O14988   0.791  10.219   1.654  0.1528 -0.5599 -0.0077
 3296WAT     H114989   0.864  10.194   1.711  0.4245 -1.8912 -0.8929
 3296WAT     H214990   0.727  10.258   1.713  0.6252 -1.4655  1.1486
 3296WAT    EPW14991   0.792  10.221   1.669  0.2510 -0.8550  0.0281
 3297WAT      O14992  10.891   1.075   0.095 -0.4557 -0.0497 -0.6847
 3297WAT     H114993  10.950   1.006   0.065 -0.8177 -0.4606 -0.4512
 3297WAT     H214994  10.949   1.144   0.127 -0.0756  0.0910 -1.6399
 3297WAT    EPW14995  10.906   1.075   0.095 -0.4530 -0.0853 -0.7799
 3298WAT      O14996   1.041   7.464   0.931  0.2064  0.0830 -0.4002
 3298WAT     H114997   1.134   7.458   0.911  0.3883 -0.8775  0.6212
 3298WAT     H214998   1.029   7.553   0.965  0.7574  0.1858 -0.4743
 3298WAT    EPW14999   1.052   7.475   0.933  0.3031 -0.0303 -0.2753
 3299WAT      O15000   5.680   3.640   0.242  0.0612 -0.4991 -0.2110
 3299WAT     H115001   5.693   3.548   0.220  2.1805 -0.6111  1.1865
 3299WAT     H215002   5.766   3.680   0.230 -0.7598  1.2625 -0.5343
 3299WAT    EPW15003   5.693   3.633   0.238  0.2327 -0.2816 -0.0693
 3300WAT      O15004   7.921   7.581   8.512 -0.3004 -0.2132  0.3757
 3300WAT     H115005   7.843   7.532   8.539  1.3587 -1.7268  2.7974
 3300WAT     H215006   7.923   7.573   8.417 -1.8292 -2.1719  0.4564
 3300WAT    EPW15007   7.911   7.574   8.503 -0.2830 -0.6711  0.7057
 3301WAT      O15008   1.577   2.417   0.371 -0.1241  0.1606  0.8542
 3301WAT     H115009   1.535   2.345   0.324 -0.0380  0.0433  0.9550
 3301WAT     H215010   1.521   2.433   0.446 -0.4283  0.5563  0.5457
 3301WAT    EPW15011   1.564   2.409   0.375 -0.1528  0.1972  0.8268
 3302WAT      O15012   2.398  10.312   3.419  0.3408 -0.1739  0.3259
 3302WAT     H115013   2.339  10.385   3.434 -1.0739 -1.2168  0.0137
 3302WAT     H215014   2.465  10.320   3.487  0.2348  1.4106  0.2677
 3302WAT    EPW15015   2.399  10.323   3.430  0.1402 -0.1030  0.2769
 3303WAT      O15016   2.704   9.302   1.432 -0.3658  0.5040  0.2634
 3303WAT     H115017   2.643   9.238   1.470  0.3674  0.1185  0.7955
 3303WAT     H215018   2.724   9.267   1.345 -0.2444  0.1941  0.4164
 3303WAT    EPW15019   2.698   9.289   1.425 -0.2531  0.4125  0.3538
 3304WAT      O15020   3.575  10.213   1.775 -0.5203 -0.0942 -0.3443
 3304WAT     H115021   3.637  10.142   1.794  1.3298  2.2254  3.3321
 3304WAT     H215022   3.623  10.270   1.715 -0.0880  0.3864  0.4438
 3304WAT    EPW15023   3.590  10.211   1.770 -0.2193  0.2751  0.2446
 3305WAT      O15024   4.591   1.470   3.049 -0.8001 -0.0480 -0.2869
 3305WAT     H115025   4.669   1.450   3.102 -0.1820  0.3868 -1.0026
 3305WAT     H215026   4.622   1.534   2.985 -1.6494 -0.2009 -0.8667
 3305WAT    EPW15027   4.606   1.476   3.048 -0.8307 -0.0108 -0.4578
 3306WAT      O15028   4.212   0.733   1.043 -0.3169  0.1243 -0.3496
 3306WAT     H115029   4.149   0.797   1.074 -1.2505 -1.0247  0.1931
 3306WAT     H215030   4.267   0.714   1.118  0.7516  1.1714 -0.8386
 3306WAT    EPW15031   4.211   0.739   1.057 -0.2990  0.1108 -0.3425
 3307WAT      O15032   2.663   3.289   0.051  0.5510  0.5164  0.1976
 3307WAT     H115033   2.677   3.361   0.113 -0.3845 -0.1732  1.2668
 3307WAT     H215034   2.670   3.210   0.105  0.8109 -0.1623 -0.8071
 3307WAT    EPW15035   2.665   3.288   0.067  0.4618  0.3359  0.2061
 3308WAT      O15036   4.630   2.036   5.140 -0.1639 -0.2944  0.1053
 3308WAT     H115037   4.620   2.039   5.045 -0.1278 -0.4746  0.0963
 3308WAT     H215038   4.608   2.125   5.169 -3.5479 -1.0712  0.2693
 3308WAT    EPW15039   4.626   2.048   5.131 -0.6053 -0.4206  0.1256
 3309WAT      O15040   6.827   1.636   0.672  0.2797  0.4649  0.1204
 3309WAT     H115041   6.866   1.563   0.720  0.8909 -2.2600 -4.0059
 3309WAT     H215042   6.733   1.625   0.685  0.2491 -2.1384 -1.5694
 3309WAT    EPW15043   6.820   1.625   0.680  0.3564 -0.2379 -0.6467
 3310WAT      O15044  10.121   8.673   0.779  0.6597  0.5136 -0.1845
 3310WAT     H115045  10.150   8.668   0.870  0.1995  0.1442 -0.0523
 3310WAT     H215046  10.147   8.761   0.750 -1.3842  1.6314  1.0986
 3310WAT    EPW15047  10.128   8.684   0.787  0.3290  0.6123  0.0022
 3311WAT      O15048   0.539   9.820   8.227  0.3799  0.5325  0.5632
 3311WAT     H115049   0.621   9.822   8.178 -0.6407  1.3005 -1.1957
 3311WAT     H215050   0.488   9.893   8.192 -1.5860 -0.7096  0.6962
 3311WAT    EPW15051   0.543   9.830   8.216 -0.0140  0.4702  0.3486
 3312WAT      O15052   1.772   8.369   2.661  0.3675 -0.0799  0.3403
 3312WAT     H115053   1.752   8.342   2.751 -1.9129  1.6280  0.4237
 3312WAT     H215054   1.732   8.302   2.606  0.3065 -0.2358  0.5732
 3312WAT    EPW15055   1.764   8.357   2.666  0.0587  0.1249  0.3822
 3313WAT      O15056   5.654   6.162   8.723 -0.0986 -0.0512 -0.1001
 3313WAT     H115057   5.721   6.199   8.780  0.0275  0.2831 -0.4570
 3313WAT     H215058   5.693   6.164   8.636 -1.1278  1.5801 -0.5634
 3313WAT    EPW15059   5.668   6.167   8.719 -0.2177  0.2079 -0.2084
 3314WAT      O15060   0.673   8.707   3.625  1.1564 -0.1063  0.1097
 3314WAT     H115061   0.597   8.664   3.586  0.2296  0.2555  1.4526
 3314WAT     H215062   0.653   8.710   3.719  4.4573 -3.3814  1.1411
 3314WAT    EPW15063   0.660   8.702   3.632  1.4696 -0.4902  0.4228
 3315WAT      O15064   4.696   1.530   2.329 -1.0079 -0.9242 -0.4579
 3315WAT     H115065   4.723   1.446   2.364  0.4523 -0.5030 -0.5111
 3315WAT     H215066   4.621   1.510   2.273  0.0393 -2.3726 -1.4139
 3315WAT    EPW15067   4.689   1.516   2.326 -0.6771 -1.0597 -0.5910
 3316WAT      O15068   5.684   7.323   8.924  0.1488 -0.3124 -0.5608
 3316WAT     H115069   5.619   7.340   8.992 -0.1827 -0.9384 -0.7198
 3316WAT     H215070   5.661   7.237   8.890  1.2074 -0.6504 -0.4550
 3316WAT    EPW15071   5.673   7.314   8.929  0.2446 -0.4394 -0.5679
 3317WAT      O15072   9.216   7.904   5.867  0.4008  0.0586  0.0035
 3317WAT     H115073   9.253   7.819   5.844  0.2106  0.1460 -0.6471
 3317WAT     H215074   9.159   7.886   5.942  0.8461 -0.2722  0.2664
 3317WAT    EPW15075   9.213   7.890   5.874  0.4344  0.0265 -0.0479
 3318WAT      O15076   5.835   6.024   0.666 -0.8780 -0.1034  0.0913
 3318WAT     H115077   5.835   5.933   0.636  0.0457 -0.9584  2.4771
 3318WAT     H215078   5.742   6.044   0.680 -1.0333 -2.5220  4.3038
 3318WAT    EPW15079   5.822   6.015   0.664 -0.7768 -0.5352  0.9616
 3319WAT      O15080   1.794   9.573   0.980  0.0650  0.4644  0.7578
 3319WAT     H115081   1.702   9.550   0.995 -0.2341  0.2065 -1.1514
 3319WAT     H215082   1.803   9.661   1.016 -0.0438 -0.6791  3.8475
 3319WAT    EPW15083   1.783   9.582   0.987  0.0112  0.2794  0.9135
 3320WAT      O15084   9.881   9.129   3.113  0.2006  0.3225 -0.7860
 3320WAT     H115085   9.889   9.037   3.138  2.1704  0.9367  1.0990
 3320WAT     H215086   9.862   9.175   3.194  4.1757  2.0907 -0.6373
 3320WAT    EPW15087   9.880   9.123   3.127  0.9847  0.6366 -0.5178
 3321WAT      O15088   2.788   3.903   1.251 -0.5193  0.1039 -0.3976
 3321WAT     H115089   2.743   3.988   1.256 -0.3921  0.1033  2.7075
 3321WAT     H215090   2.872   3.919   1.293  1.5534 -0.5197 -3.9275
 3321WAT    EPW15091   2.793   3.916   1.257 -0.2291  0.0216 -0.4537
 3322WAT      O15092   2.932   3.706   0.312 -0.2173 -0.5812 -0.0212
 3322WAT     H115093   2.948   3.793   0.277 -0.4862 -0.3952  0.3096
 3322WAT     H215094   2.856   3.717   0.369  1.0061 -0.5852  1.6836
 3322WAT    EPW15095   2.924   3.719   0.315 -0.0913 -0.5571  0.2473
 3323WAT      O15096   6.093   3.403   0.084 -0.1770  0.0863  0.7231
 3323WAT     H115097   6.034   3.337   0.047 -0.8737  1.1264 -0.0927
 3323WAT     H215098   6.049   3.432   0.164  0.2215 -0.5654  1.1817
 3323WAT    EPW15099   6.079   3.398   0.090 -0.2162  0.1376  0.6760
 3324WAT      O15100   6.667   4.028   0.397  0.1856  0.1511  0.1884
 3324WAT     H115101   6.573   4.020   0.412  0.5499 -1.2335  2.0445
 3324WAT     H215102   6.688   3.960   0.334 -0.0992  0.7511 -0.5716
 3324WAT    EPW15103   6.658   4.018   0.391  0.1962  0.0477  0.3330
 3325WAT      O15104   7.484   2.097   3.538  0.2830  0.1637 -0.2376
 3325WAT     H115105   7.416   2.030   3.532  0.5523 -0.4484  2.5536
 3325WAT     H215106   7.510   2.112   3.447 -1.2613 -1.9598 -1.1107
 3325WAT    EPW15107   7.479   2.090   3.525  0.1149 -0.1973  0.0154
 3326WAT      O15108  10.155   6.475   5.686  0.0715 -0.4122  0.0693
 3326WAT     H115109  10.176   6.470   5.592  2.5507  1.5247  0.4175
 3326WAT     H215110  10.102   6.554   5.694 -0.6025 -0.8769  0.2464
 3326WAT    EPW15111  10.151   6.484   5.674  0.3090 -0.2179  0.1388
 3327WAT      O15112   0.599   6.668   6.926 -0.5400  0.8083  0.4163
 3327WAT     H115113   0.641   6.626   7.002 -0.1133  0.5011  0.0163
 3327WAT     H215114   0.506   6.668   6.947 -0.4348  0.6380  0.8985
 3327WAT    EPW15115   0.592   6.663   6.939 -0.4699  0.7453  0.4270
 3328WAT      O15116   1.287   0.164   1.966  0.5986  0.5219 -0.2638
 3328WAT     H115117   1.232   0.241   1.979 -2.5699 -1.6783  0.4417
 3328WAT     H215118   1.309   0.135   2.055  1.0407  0.1392 -0.4951
 3328WAT    EPW15119   1.283   0.170   1.980  0.2390  0.1812 -0.2013
 3329WAT      O15120   6.084   1.560   1.659  0.0285  0.0026  0.2245
 3329WAT     H115121   6.123   1.473   1.648 -1.3897 -0.4160 -2.3905
 3329WAT     H215122   6.142   1.618   1.608  1.5853  0.8894  2.8299
 3329WAT    EPW15123   6.097   1.556   1.651  0.0465  0.0644  0.2232
 3330WAT      O15124  10.770   6.102   6.930 -0.2577  0.0132 -0.3453
 3330WAT     H115125  10.776   6.067   7.019 -0.3251 -0.4751 -0.5273
 3330WAT     H215126  10.700   6.050   6.890 -1.0522  1.0364 -0.3163
 3330WAT    EPW15127  10.762   6.091   6.937 -0.3710  0.0839 -0.3655
 3331WAT      O15128   3.505   0.735   1.698 -0.1930 -0.7975 -0.1241
 3331WAT     H115129   3.412   0.740   1.721 -0.0670  2.1016  0.1371
 3331WAT     H215130   3.509   0.764   1.607  0.5332  0.1538  0.1933
 3331WAT    EPW15131   3.493   0.739   1.689 -0.0806 -0.2897 -0.0477
 3332WAT      O15132   8.409   5.106   6.278 -0.0833 -0.3622 -0.2628
 3332WAT     H115133   8.474   5.107   6.349  0.4126  0.1808 -0.7146
 3332WAT     H215134   8.461   5.118   6.199 -0.8610  1.3946 -0.5411
 3332WAT    EPW15135   8.425   5.108   6.277 -0.1202 -0.0589 -0.3591
 3333WAT      O15136   7.214   7.603   7.911 -0.2307 -0.3514 -0.5009
 3333WAT     H115137   7.242   7.694   7.900 -1.6071  0.3160  1.1197
 3333WAT     H215138   7.189   7.576   7.822 -2.4001  1.7916 -0.6543
 3333WAT    EPW15139   7.214   7.612   7.898 -0.6981  0.0191 -0.3076
 3334WAT      O15140   4.987   6.211   0.660 -0.9979 -0.2983 -0.8670
 3334WAT     H115141   5.022   6.231   0.574 -2.2067  0.4920 -1.1991
 3334WAT     H215142   4.980   6.115   0.661 -1.4032 -0.2877 -1.8265
 3334WAT    EPW15143   4.990   6.201   0.649 -1.2107 -0.1926 -1.0374
 3335WAT      O15144   4.562   4.337   1.308 -0.8667 -0.0272  0.8332
 3335WAT     H115145   4.555   4.383   1.391 -2.4145  1.4992 -0.0696
 3335WAT     H215146   4.485   4.280   1.304 -2.0784  1.6134 -0.4793
 3335WAT    EPW15147   4.551   4.335   1.318 -1.2305  0.3905  0.5410
 3336WAT      O15148   2.360   5.546   5.198  0.4274  0.3736  0.0001
 3336WAT     H115149   2.375   5.637   5.223  0.7936  0.5325 -0.7740
 3336WAT     H215150   2.361   5.547   5.102 -3.4002  0.2501 -0.2206
 3336WAT    EPW15151   2.362   5.558   5.188 -0.0290  0.3781 -0.1309
 3337WAT      O15152   7.088   8.249   8.015  0.0171  0.2239  0.2688
 3337WAT     H115153   7.108   8.205   7.932  0.2240  0.9226 -0.0619
 3337WAT     H215154   6.993   8.261   8.014 -0.0028  0.0728  0.2217
 3337WAT    EPW15155   7.078   8.245   8.004  0.0417  0.2961  0.2189
 3338WAT      O15156   1.754   4.828   2.362  0.0780 -0.0244  0.0555
 3338WAT     H115157   1.705   4.880   2.299  2.7452  1.8040 -0.6612
 3338WAT     H215158   1.773   4.888   2.434  0.2579 -1.0374  0.8805
 3338WAT    EPW15159   1.750   4.843   2.363  0.4535  0.0832  0.0699
 3339WAT      O15160   3.881   2.435   1.008 -0.3536 -0.6046  0.2119
 3339WAT     H115161   3.849   2.522   1.033  0.3146 -0.6396  1.2341
 3339WAT     H215162   3.873   2.383   1.088  2.1012 -0.6515  0.4825
 3339WAT    EPW15163   3.876   2.440   1.022  0.0583 -0.6155  0.3824
 3340WAT      O15164   3.538   1.916   3.239  0.6527  0.2376  0.0327
 3340WAT     H115165   3.534   2.010   3.256 -2.2427  0.3729 -0.7970
 3340WAT     H215166   3.566   1.909   3.148 -1.6552  0.5513 -0.7896
 3340WAT    EPW15167   3.541   1.927   3.229 -0.0334  0.2968 -0.1851
 3341WAT      O15168   4.240   5.669   0.894 -0.0530  0.2830  0.5589
 3341WAT     H115169   4.175   5.686   0.962 -0.2223 -1.7654  0.9618
 3341WAT     H215170   4.206   5.595   0.845  0.1657  1.5669 -1.6945
 3341WAT    EPW15171   4.227   5.661   0.896 -0.0465  0.1822  0.3148
 3342WAT      O15172   6.933   8.921   8.572 -0.0534 -1.2252 -0.2711
 3342WAT     H115173   6.882   8.965   8.505 -0.4954 -0.2983  0.6618
 3342WAT     H215174   7.024   8.932   8.544 -0.1224  0.6970  0.1738
 3342WAT    EPW15175   6.938   8.928   8.559 -0.1209 -0.8492 -0.0896
 3343WAT      O15176   3.073   4.026   0.893  0.1653  0.0685  0.1950
 3343WAT     H115177   3.147   3.987   0.846  0.0472 -0.2086  0.2360
 3343WAT     H215178   3.005   3.958   0.891  0.5899 -0.4594  1.8389
 3343WAT    EPW15179   3.074   4.012   0.887  0.2058 -0.0377  0.4172
 3344WAT      O15180   6.420   7.242   8.355 -0.1250  0.1267 -0.0270
 3344WAT     H115181   6.360   7.168   8.364  0.8999 -0.8042 -0.5494
 3344WAT     H215182   6.418   7.286   8.440 -0.1422 -0.9963  0.5657
 3344WAT    EPW15183   6.412   7.238   8.367  0.0081 -0.1440 -0.0176
 3345WAT      O15184   3.123   2.532   1.042 -1.2803  0.0009  0.1905
 3345WAT     H115185   3.207   2.557   1.080 -0.9378  2.0403 -1.6601
 3345WAT     H215186   3.073   2.495   1.115  0.7097  0.0403  1.6383
 3345WAT    EPW15187   3.127   2.531   1.057 -0.9729  0.2750  0.1374
 3346WAT      O15188   0.700   9.952   6.685 -0.5068  0.8171 -0.5824
 3346WAT     H115189   0.729   9.963   6.594 -2.4938  0.0269 -1.3491
 3346WAT     H215190   0.667  10.038   6.710  0.1568  1.0693 -0.5365
 3346WAT    EPW15191   0.700   9.964   6.676 -0.6813  0.7463 -0.6776
 3347WAT      O15192   6.336   2.196   2.148  0.3196 -0.7387  0.9648
 3347WAT     H115193   6.302   2.196   2.059  0.3790 -1.2561  0.9358
 3347WAT     H215194   6.270   2.243   2.199 -0.6366 -2.0276  0.9724
 3347WAT    EPW15195   6.322   2.202   2.143  0.2015 -0.9769  0.9619
 3348WAT      O15196   9.443   3.187   1.190 -0.5585 -0.4791  0.5823
 3348WAT     H115197   9.409   3.100   1.210  0.1405 -0.5689  1.4531
 3348WAT     H215198   9.409   3.207   1.103  0.3081 -2.1634 -0.1984
 3348WAT    EPW15199   9.434   3.178   1.181 -0.3524 -0.7131  0.5941
 3349WAT      O15200   2.236   2.098   1.475 -0.4911 -0.4721  0.0972
 3349WAT     H115201   2.280   2.050   1.405 -1.4514  0.1750 -0.9797
 3349WAT     H215202   2.212   2.181   1.436 -2.1808 -0.5897  0.8050
 3349WAT    EPW15203   2.239   2.103   1.461 -0.8405 -0.4023  0.0486
 3350WAT      O15204  10.687   9.340   8.423  0.6862  0.5614  0.0161
 3350WAT     H115205  10.640   9.390   8.490  0.6814 -0.2426  0.6330
 3350WAT     H215206  10.685   9.250   8.456 -1.6095 -0.3507 -2.3104
 3350WAT    EPW15207  10.680   9.334   8.436  0.3834  0.3352 -0.2093
 3351WAT      O15208   3.650   2.232   1.579  0.3691  0.3869  0.9233
 3351WAT     H115209   3.687   2.165   1.636 -0.2092  1.2013  2.2884
 3351WAT     H215210   3.627   2.185   1.499 -3.6383 -2.0173  3.1582
 3351WAT    EPW15211   3.652   2.217   1.576 -0.2357  0.1771  1.3981
 3352WAT      O15212   7.058   1.424   0.702 -0.1184 -0.2368 -0.6500
 3352WAT     H115213   7.152   1.437   0.711 -0.2383  0.7169 -0.6290
 3352WAT     H215214   7.042   1.335   0.733  0.3399  0.7046  2.7304
 3352WAT    EPW15215   7.068   1.414   0.707 -0.0737  0.0132 -0.2014
 3353WAT      O15216   5.578   0.534   0.742 -0.3114 -0.1232  0.0160
 3353WAT     H115217   5.535   0.567   0.820 -0.0865  2.2661 -0.7828
 3353WAT     H215218   5.509   0.486   0.695 -0.4395 -1.5847  1.6255
 3353WAT    EPW15219   5.563   0.532   0.746 -0.2985 -0.0009  0.1229
 3354WAT      O15220   5.283   1.037   2.360  0.1177  0.1158 -0.7892
 3354WAT     H115221   5.271   1.076   2.446 -0.1090 -1.3317 -0.1369
 3354WAT     H215222   5.262   0.945   2.372 -0.1501 -0.0763 -2.4565
 3354WAT    EPW15223   5.279   1.030   2.373  0.0525 -0.1004 -0.9232
 3355WAT      O15224   3.208   1.386   1.862  0.1531 -0.1020  0.3130
 3355WAT     H115225   3.185   1.423   1.947 -1.1530  1.5068 -0.6885
 3355WAT     H215226   3.234   1.462   1.809  2.5233 -1.2308 -0.2865
 3355WAT    EPW15227   3.209   1.401   1.866  0.2935 -0.0387  0.1019
 3356WAT      O15228   9.761  10.318   3.557  0.4246  0.1207  0.7600
 3356WAT     H115229   9.799  10.282   3.477 -0.8329 -0.5638  0.4580
 3356WAT     H215230   9.815  10.280   3.627  1.8785  1.1477  0.2575
 3356WAT    EPW15231   9.773  10.308   3.556  0.4506  0.1659  0.6539
 3357WAT      O15232   9.712   7.873   6.166 -0.3637  0.0821  0.2422
 3357WAT     H115233   9.759   7.953   6.190 -1.5791  0.6815  0.7161
 3357WAT     H215234   9.668   7.895   6.084 -1.4129  0.2210  0.8237
 3357WAT    EPW15235   9.712   7.887   6.159 -0.6623  0.1795  0.3812
 3358WAT      O15236   6.365   6.901   7.987  0.0346 -0.2341  0.3786
 3358WAT     H115237   6.384   6.817   7.946 -0.6129 -0.1948 -0.0122
 3358WAT     H215238   6.366   6.883   8.081  1.4904 -0.3328  0.3652
 3358WAT    EPW15239   6.367   6.888   7.994  0.1414 -0.2415  0.3252
 3359WAT      O15240   6.946   6.647   8.849 -0.0768  0.0321 -0.1559
 3359WAT     H115241   6.876   6.617   8.790 -0.2240 -0.9516  0.4977
 3359WAT     H215242   6.902   6.663   8.932  0.5874 -1.3986  0.5013
 3359WAT    EPW15243   6.931   6.645   8.852 -0.0083 -0.2861  0.0167
 3360WAT      O15244   1.256   7.466   7.069  0.1270  0.1548  0.5926
 3360WAT     H115245   1.198   7.390   7.064 -1.1017  1.0077  1.3225
 3360WAT     H215246   1.335   7.433   7.111  0.3964 -1.1427 -0.8262
 3360WAT    EPW15247   1.258   7.452   7.074  0.0005  0.0961  0.5016
 3361WAT      O15248   2.664   3.339   0.713 -0.6386 -0.5115 -0.1084
 3361WAT     H115249   2.664   3.430   0.742 -1.1125 -1.0569  1.7117
 3361WAT     H215250   2.675   3.345   0.618 -0.5082  1.4262 -0.0209
 3361WAT    EPW15251   2.666   3.352   0.704 -0.6838 -0.3278  0.1432
 3362WAT      O15252   2.951   3.069   2.433 -0.2201 -0.0930 -0.0834
 3362WAT     H115253   2.937   3.161   2.452 -0.9422  0.5024 -3.0912
 3362WAT     H215254   2.905   3.023   2.504  0.3665  1.7848  1.6022
 3362WAT    EPW15255   2.943   3.075   2.445 -0.2381  0.2332 -0.2578
 3363WAT      O15256   4.470   4.370   0.293 -0.0262 -0.1000  0.2475
 3363WAT     H115257   4.557   4.338   0.317 -0.2890 -1.9728 -1.0873
 3363WAT     H215258   4.485   4.459   0.263  1.3546 -0.2032  0.5567
 3363WAT    EPW15259   4.483   4.377   0.292  0.1214 -0.3605  0.1123
 3364WAT      O15260   8.206   5.957   8.575 -0.4424 -0.0094 -0.0862
 3364WAT     H115261   8.254   5.956   8.658 -3.0720  3.5083  1.7549
 3364WAT     H215262   8.249   6.026   8.523  0.4855 -1.4218 -1.2690
 3364WAT    EPW15263   8.218   5.966   8.579 -0.6671  0.2682  0.0010
 3365WAT      O15264   9.814   8.691   7.761  0.2938  0.2412  0.3401
 3365WAT     H115265   9.784   8.698   7.670 -0.4261  1.2250  0.6467
 3365WAT     H215266   9.903   8.654   7.753  1.5451  3.2058 -1.0024
 3365WAT    EPW15267   9.822   8.687   7.748  0.3638  0.7620  0.2034
 3366WAT      O15268  10.724   8.266   8.922 -0.2412  0.1933  0.2806
 3366WAT     H115269  10.736   8.200   8.854  0.0097 -0.4598  0.9395
 3366WAT     H215270  10.753   8.348   8.883  0.2355 -0.2381 -0.2732
 3366WAT    EPW15271  10.729   8.268   8.908 -0.1454  0.0501  0.2942
 3367WAT      O15272   6.200   4.257   0.465 -0.3784  0.3360  1.0567
 3367WAT     H115273   6.131   4.190   0.467  0.2288 -0.3534 -0.2632
 3367WAT     H215274   6.165   4.325   0.407  0.0633 -0.0337  0.3529
 3367WAT    EPW15275   6.186   4.257   0.458 -0.2401  0.1965  0.7898
 3368WAT      O15276  10.052   8.484   6.312 -0.4621 -0.2714  0.5066
 3368WAT     H115277  10.076   8.573   6.289 -0.5022  0.2212  2.1835
 3368WAT     H215278   9.977   8.494   6.371  0.1420 -1.3483  1.5064
 3368WAT    EPW15279  10.045   8.497   6.317 -0.3877 -0.3486  0.8597
 3369WAT      O15280   6.091   4.304   2.510 -0.2824 -0.6776 -0.3600
 3369WAT     H115281   6.109   4.360   2.435 -0.1637  1.2946  1.0520
 3369WAT     H215282   6.172   4.255   2.524 -0.2605 -0.9523 -1.4185
 3369WAT    EPW15283   6.104   4.305   2.502 -0.2639 -0.4537 -0.3134
 3370WAT      O15284   4.791   2.944   1.074 -0.2230  0.1125 -0.0431
 3370WAT     H115285   4.749   3.021   1.036 -0.3281  0.0311 -0.0935
 3370WAT     H215286   4.722   2.877   1.076  0.6772 -1.0763 -3.1283
 3370WAT    EPW15287   4.777   2.945   1.070 -0.1180 -0.0550 -0.4566
 3371WAT      O15288   4.999   5.314   2.773 -0.0815 -0.1089  1.2858
 3371WAT     H115289   4.929   5.266   2.728  0.0001  1.8605 -1.2139
 3371WAT     H215290   4.952   5.373   2.832 -0.9870  2.8705 -2.0122
 3371WAT    EPW15291   4.983   5.316   2.775 -0.1903  0.5436  0.5209
 3372WAT      O15292   1.565   5.699   3.769 -1.2892  0.0368 -0.0875
 3372WAT     H115293   1.597   5.658   3.849  0.4786  0.5583 -0.4574
 3372WAT     H215294   1.515   5.631   3.724 -0.9433 -0.7588  0.7131
 3372WAT    EPW15295   1.563   5.685   3.773 -1.0103  0.0007 -0.0308
 3373WAT      O15296   0.377   2.180   7.719 -0.1115  1.0233 -0.1821
 3373WAT     H115297   0.291   2.193   7.679 -0.4748  0.0457  0.2444
 3373WAT     H215298   0.391   2.258   7.773 -0.7495  1.1760 -0.2353
 3373WAT    EPW15299   0.368   2.192   7.721 -0.2436  0.9146 -0.1328
 3374WAT      O15300   5.108   5.923   2.312  0.1987  0.1636 -0.3936
 3374WAT     H115301   5.061   5.998   2.347  0.0543  0.5311 -1.3530
 3374WAT     H215302   5.061   5.847   2.346 -0.0322  0.5077  0.0671
 3374WAT    EPW15303   5.096   5.923   2.321  0.1495  0.2575 -0.4594
 3375WAT      O15304   4.545   2.483   1.966 -0.0240  0.0914  0.1206
 3375WAT     H115305   4.534   2.508   1.874 -3.4908  0.4511  0.4740
 3375WAT     H215306   4.595   2.554   2.005 -3.1746  2.9215 -0.4869
 3375WAT    EPW15307   4.550   2.496   1.959 -0.8967  0.5120  0.0871
 3376WAT      O15308   3.559   1.048   7.554  0.7692 -0.1741  0.3087
 3376WAT     H115309   3.614   1.105   7.500  0.1902 -1.7922 -2.0912
 3376WAT     H215310   3.615   1.023   7.627  1.5708  2.0842  0.5401
 3376WAT    EPW15311   3.573   1.053   7.557  0.7986 -0.0898  0.0229
 3377WAT      O15312   7.005   7.935   7.469  0.2015 -0.0538 -0.4035
 3377WAT     H115313   7.045   7.848   7.472 -2.7137 -1.5029  0.3772
 3377WAT     H215314   7.007   7.959   7.376 -0.6646 -1.8946 -0.9489
 3377WAT    EPW15315   7.010   7.926   7.457 -0.2971 -0.4878 -0.3722
 3378WAT      O15316  10.149   9.297   8.728 -0.6898  0.2578  0.0859
 3378WAT     H115317  10.118   9.251   8.806 -0.1163  1.6161  1.1435
 3378WAT     H215318  10.231   9.253   8.706 -1.1461 -0.5102 -0.1154
 3378WAT    EPW15319  10.155   9.285   8.735 -0.6742  0.3352  0.1988
 3379WAT      O15320   5.990   1.898   2.166 -0.1443  0.1966 -0.2915
 3379WAT     H115321   6.082   1.897   2.193 -0.3358  0.3207  0.4039
 3379WAT     H215322   5.943   1.862   2.242 -0.8212  1.6262  0.0126
 3379WAT    EPW15323   5.996   1.893   2.180 -0.2589  0.4016 -0.1597
 3380WAT      O15324   6.616   1.026   0.604  0.1685  0.8534 -0.7237
 3380WAT     H115325   6.704   1.059   0.626  1.2221 -2.1195 -0.0529
 3380WAT     H215326   6.631   0.939   0.569 -2.4911  0.7012 -1.6856
 3380WAT    EPW15327   6.630   1.019   0.603 -0.0436  0.4411 -0.7621
 3381WAT      O15328  10.952   8.110   7.509 -0.0438  0.9195 -0.7154
 3381WAT     H115329  10.975   8.084   7.420  0.5867  1.3339 -0.6839
 3381WAT     H215330  10.938   8.204   7.504 -0.9692  0.7969 -0.5612
 3381WAT    EPW15331  10.954   8.119   7.497 -0.0825  0.9580 -0.6912
 3382WAT      O15332   5.607   1.441   4.632  0.9440 -0.7443 -0.6819
 3382WAT     H115333   5.641   1.528   4.653  2.6306 -1.0402 -1.9528
 3382WAT     H215334   5.569   1.409   4.714 -0.1827  1.3708 -0.3248
 3382WAT    EPW15335   5.606   1.448   4.646  1.0180 -0.5043 -0.8023
 3383WAT      O15336   0.276   7.525   6.325 -0.3105 -1.6692 -0.4349
 3383WAT     H115337   0.319   7.440   6.329  1.6534 -0.7009  2.6479
 3383WAT     H215338   0.182   7.503   6.322  0.1525 -3.8446 -2.4480
 3383WAT    EPW15339   0.269   7.511   6.325  0.0096 -1.8284 -0.2937
 3384WAT      O15340   5.870   3.814   0.853  0.2759 -0.4185 -0.7461
 3384WAT     H115341   5.864   3.908   0.836  0.7628 -0.3727 -0.6757
 3384WAT     H215342   5.787   3.792   0.897  1.4218  0.6106  2.1833
 3384WAT    EPW15343   5.858   3.823   0.857  0.4911 -0.2767 -0.3504
 3385WAT      O15344   8.191   9.146   8.456 -0.3910 -0.2290 -0.2336
 3385WAT     H115345   8.255   9.213   8.480 -0.4002 -0.8694  1.7428
 3385WAT     H215346   8.185   9.090   8.533 -0.9821 -2.0459 -1.5294
 3385WAT    EPW15347   8.199   9.147   8.469 -0.4706 -0.5531 -0.1440
 3386WAT      O15348   9.114   7.134   7.841  0.7169 -0.3782  0.4987
 3386WAT     H115349   9.196   7.138   7.791  0.8491 -1.2849  0.6199
 3386WAT     H215350   9.050   7.178   7.785  1.1717 -0.1283  0.1656
 3386WAT    EPW15351   9.116   7.140   7.827  0.7944 -0.4649  0.4706
 3387WAT      O15352   8.367   2.572   1.660 -0.1699  0.5177  0.0328
 3387WAT     H115353   8.403   2.659   1.641  0.8978  1.1792  4.1630
 3387WAT     H215354   8.290   2.589   1.713 -1.2905 -1.1273 -0.9581
 3387WAT    EPW15355   8.362   2.586   1.664 -0.1769  0.3880  0.4468
 3388WAT      O15356   3.881   1.529   0.792  0.6709 -0.3069  0.4316
 3388WAT     H115357   3.906   1.576   0.713 -0.3989 -1.3080 -0.5355
 3388WAT     H215358   3.795   1.564   0.815  0.5503 -0.7065  0.5935
 3388WAT    EPW15359   3.873   1.540   0.785  0.5139 -0.4916  0.3254
 3389WAT      O15360   4.637   0.863   0.638  0.0162 -0.5662 -0.3959
 3389WAT     H115361   4.692   0.940   0.621 -1.7261  0.7705 -0.2722
 3389WAT     H215362   4.636   0.816   0.555  1.7343 -0.9211 -0.2590
 3389WAT    EPW15363   4.644   0.867   0.625  0.0129 -0.4367 -0.3616
 3390WAT      O15364   3.237   4.472   0.336  0.6938  0.0154 -0.2800
 3390WAT     H115365   3.317   4.525   0.343  1.5426 -1.3748  1.3506
 3390WAT     H215366   3.261   4.387   0.374 -1.7577 -0.1959  1.0010
 3390WAT    EPW15367   3.251   4.468   0.342  0.4823 -0.1957  0.1040
 3391WAT      O15368   7.549   7.901   6.415  0.3876 -0.2132 -0.0323
 3391WAT     H115369   7.496   7.876   6.490 -1.5519 -0.0542 -1.2746
 3391WAT     H215370   7.580   7.817   6.379  0.1473 -0.3711  0.1275
 3391WAT    EPW15371   7.546   7.886   6.420  0.1001 -0.2129 -0.1752
 3392WAT      O15372   4.776   3.250   0.260 -0.9709 -0.7225 -0.4647
 3392WAT     H115373   4.803   3.163   0.288  0.3860 -0.0417  0.4967
 3392WAT     H215374   4.857   3.291   0.228 -1.5003  0.3202 -0.5331
 3392WAT    EPW15375   4.790   3.244   0.259 -0.8619 -0.4953 -0.3469
 3393WAT      O15376   8.105   4.018   0.510  0.0772 -0.0703  0.0608
 3393WAT     H115377   8.198   4.036   0.504  0.1636 -0.8145 -1.1708
 3393WAT     H215378   8.064   4.104   0.514  0.7327  0.3157 -1.0535
 3393WAT    EPW15379   8.112   4.032   0.510  0.1755 -0.1178 -0.2486
 3394WAT      O15380   4.649   1.318   0.809  0.1829 -0.5945 -0.2206
 3394WAT     H115381   4.734   1.362   0.815 -0.1417 -0.0392  0.4144
 3394WAT     H215382   4.669   1.225   0.815  0.9284 -0.6004 -2.0562
 3394WAT    EPW15383   4.663   1.311   0.810  0.2384 -0.5220 -0.3789
 3395WAT      O15384   7.990   5.424   5.998  0.9097 -0.9432 -0.4511
 3395WAT     H115385   7.948   5.492   5.946 -1.5007 -1.5568  0.5548
 3395WAT     H215386   8.035   5.472   6.068  0.9017 -0.3169 -0.8699
 3395WAT    EPW15387   7.991   5.439   6.001  0.5908 -0.9418 -0.3736
 3396WAT      O15388   4.552   1.532   1.315  0.3365  0.0935 -0.1943
 3396WAT     H115389   4.599   1.509   1.395  2.8019 -0.5129 -1.7120
 3396WAT     H215390   4.517   1.449   1.283 -1.8256  0.5235  0.8644
 3396WAT    EPW15391   4.553   1.518   1.321  0.3765  0.0703 -0.2548
 3397WAT      O15392  10.014   9.194   7.199  0.2800 -0.3772  0.8799
 3397WAT     H115393   9.995   9.285   7.174 -1.4772 -1.5444 -2.5637
 3397WAT     H215394  10.099   9.200   7.243  0.0538  2.9438  1.1831
 3397WAT    EPW15395  10.023   9.207   7.202  0.0181 -0.0930  0.4656
 3398WAT      O15396   6.238   6.484   8.107 -0.8854  0.2617 -0.0514
 3398WAT     H115397   6.262   6.471   8.016 -0.5860 -1.4305  0.2360
 3398WAT     H215398   6.146   6.456   8.112 -0.0925 -2.4774  0.6775
 3398WAT    EPW15399   6.229   6.478   8.096 -0.7412 -0.3228  0.0830
 3399WAT      O15400   5.164   8.020   6.650  0.9815  0.1535 -0.5278
 3399WAT     H115401   5.087   8.070   6.625  0.4297 -1.0927 -1.4305
 3399WAT     H215402   5.234   8.085   6.659 -0.2115  1.3252  0.5503
 3399WAT    EPW15403   5.163   8.035   6.648  0.7515  0.1435 -0.5045
 3400WAT      O15404   8.972   4.209   7.104 -1.3000  0.2079 -0.0465
 3400WAT     H115405   9.019   4.292   7.114 -0.9538 -0.1699  2.0815
 3400WAT     H215406   9.004   4.155   7.177 -3.0120 -1.0681 -0.1716
 3400WAT    EPW15407   8.983   4.213   7.115 -1.4801 -0.0103  0.2177
 3401WAT      O15408   5.295   3.547   1.453  0.0703  0.0383  0.0727
 3401WAT     H115409   5.287   3.630   1.499  0.3011  1.0753 -1.6559
 3401WAT     H215410   5.327   3.571   1.366  0.9101 -1.9414 -0.2215
 3401WAT    EPW15411   5.298   3.561   1.448  0.2115 -0.0859 -0.1941
 3402WAT      O15412   7.647   8.975   8.129 -0.5871 -0.2074  0.9207
 3402WAT     H115413   7.610   9.023   8.054  0.6922  0.8387  0.9285
 3402WAT     H215414   7.594   9.003   8.204  0.1486  1.2630  0.9307
 3402WAT    EPW15415   7.635   8.985   8.129 -0.3214  0.1249  0.9227
 3403WAT      O15416   5.446   4.266   0.801  0.0005  0.2762 -0.2629
 3403WAT     H115417   5.526   4.319   0.804  1.1893 -1.1636 -2.8159
 3403WAT     H215418   5.405   4.291   0.718 -1.3508 -0.2146  0.2311
 3403WAT    EPW15419   5.451   4.277   0.790 -0.0212  0.0212 -0.5345
 3404WAT      O15420   4.180   3.151   0.933 -0.0117 -0.5575  0.6061
 3404WAT     H115421   4.220   3.090   0.871  0.3960  0.9421 -0.6801
 3404WAT     H215422   4.254   3.185   0.984  0.2564  1.1213 -0.7887
 3404WAT    EPW15423   4.195   3.147   0.931  0.0772 -0.1383  0.2525
 3405WAT      O15424   5.356   2.733   1.732 -0.1098 -0.4601 -0.4823
 3405WAT     H115425   5.377   2.684   1.653  3.2474 -1.4582  0.8319
 3405WAT     H215426   5.394   2.682   1.803  0.9333  2.5230  1.3181
 3405WAT    EPW15427   5.364   2.720   1.731  0.4706 -0.1982 -0.0715
 3406WAT      O15428   5.459   5.975   1.959 -0.1299 -0.3657  0.7488
 3406WAT     H115429   5.474   5.942   1.870  0.3745 -4.9171  2.2543
 3406WAT     H215430   5.364   5.969   1.970 -0.0703 -1.1288  0.9096
 3406WAT    EPW15431   5.448   5.970   1.949 -0.0556 -1.0667  0.9685
 3407WAT      O15432   6.792   6.912   5.744 -0.0341 -0.6327 -0.3069
 3407WAT     H115433   6.717   6.881   5.794  0.3058  0.0624  0.6615
 3407WAT     H215434   6.847   6.835   5.732  0.8132 -0.4935  2.0835
 3407WAT    EPW15435   6.789   6.898   5.749  0.1225 -0.5229  0.1359
 3408WAT      O15436   3.643   0.787   8.108 -0.1445 -0.7381 -0.3976
 3408WAT     H115437   3.592   0.865   8.091  0.3531  0.5721  3.1633
 3408WAT     H215438   3.618   0.761   8.197  1.0146 -3.5844 -0.7880
 3408WAT    EPW15439   3.633   0.794   8.118  0.0740 -0.9407  0.0205
 3409WAT      O15440   8.009  10.246   7.030  0.0183 -0.4289  0.2360
 3409WAT     H115441   8.098  10.214   7.043 -0.2338 -0.7704  1.1751
 3409WAT     H215442   8.019  10.338   7.008  0.6101 -0.5213  0.1080
 3409WAT    EPW15443   8.022  10.254   7.028  0.0625 -0.4859  0.3428
 3410WAT      O15444   6.440   3.308   1.348 -0.2012  1.3522  0.8807
 3410WAT     H115445   6.386   3.384   1.370 -2.3090  0.7650 -1.7031
 3410WAT     H215446   6.421   3.290   1.256  2.8577 -0.2643  0.4119
 3410WAT    EPW15447   6.430   3.315   1.339 -0.0761  1.0614  0.4781
 3411WAT      O15448   3.385   2.675   0.675 -0.0408  0.9341 -0.3397
 3411WAT     H115449   3.410   2.655   0.585 -0.1741  0.0802 -0.1982
 3411WAT     H215450   3.364   2.590   0.713  0.5686  1.2187  0.6733
 3411WAT    EPW15451   3.385   2.661   0.668  0.0221  0.8591 -0.1874
 3412WAT      O15452   5.582   1.944   0.464  0.3761  0.5651  0.8188
 3412WAT     H115453   5.556   2.017   0.520 -1.5063 -0.6432  1.6419
 3412WAT     H215454   5.677   1.952   0.456  0.6477  1.1823  3.6620
 3412WAT    EPW15455   5.591   1.954   0.470  0.1638  0.4871  1.3024
 3413WAT      O15456   4.185   1.129   3.538  0.6089  0.5343  0.2917
 3413WAT     H115457   4.153   1.124   3.449  4.2747 -2.4561 -1.1458
 3413WAT     H215458   4.226   1.215   3.545  2.6587 -0.1471 -2.0164
 3413WAT    EPW15459   4.186   1.140   3.527  1.3626  0.0500 -0.2024
 3414WAT      O15460   9.105   8.585   6.195  0.0409 -0.2815  0.1598
 3414WAT     H115461   9.079   8.664   6.147  2.4331  0.6311  0.2353
 3414WAT     H215462   9.053   8.515   6.156  0.1765  0.8232 -2.1465
 3414WAT    EPW15463   9.095   8.586   6.184  0.3738 -0.0157 -0.1345
 3415WAT      O15464  10.601   7.064   6.738 -0.4810 -0.0583  0.7441
 3415WAT     H115465  10.662   7.039   6.807  1.3683  0.6398 -0.5671
 3415WAT     H215466  10.609   6.996   6.672  0.6793  1.1960 -0.4808
 3415WAT    EPW15467  10.610   7.052   6.738 -0.0839  0.1993  0.4096
 3416WAT      O15468   0.289   3.018   8.219 -0.2421  1.0852 -0.4463
 3416WAT     H115469   0.374   2.992   8.253 -0.2585  1.9999  0.3484
 3416WAT     H215470   0.226   2.987   8.284 -0.8687 -2.1613 -2.3769
 3416WAT    EPW15471   0.292   3.010   8.232 -0.3269  0.7777 -0.5965
 3417WAT      O15472   8.278   6.458   6.806  0.0360 -0.3344  0.1113
 3417WAT     H115473   8.213   6.506   6.755 -0.5281 -0.2417  0.9009
 3417WAT     H215474   8.315   6.395   6.744 -2.7945 -2.3805  0.2652
 3417WAT    EPW15475   8.274   6.456   6.791 -0.4115 -0.5918  0.2358
 3418WAT      O15476  10.617   6.179   5.557 -0.2777 -0.2669 -0.7957
 3418WAT     H115477  10.602   6.121   5.481  0.7681 -1.0805 -0.4066
 3418WAT     H215478  10.647   6.261   5.519  0.2306 -0.6663 -1.2676
 3418WAT    EPW15479  10.619   6.182   5.542 -0.0720 -0.4270 -0.8068
 3419WAT      O15480   9.107   7.356   6.530  0.0546 -0.0895  0.1898
 3419WAT     H115481   9.040   7.395   6.474 -0.1442 -0.0977  0.4207
 3419WAT     H215482   9.184   7.412   6.518 -0.1413  0.2021  0.2958
 3419WAT    EPW15483   9.108   7.369   6.521  0.0029 -0.0522  0.2339
 3420WAT      O15484   7.964   7.310   8.880  0.1898  0.3830 -0.8734
 3420WAT     H115485   8.001   7.314   8.792  0.5064 -1.2316 -0.8483
 3420WAT     H215486   7.894   7.375   8.881  0.6188  0.8780 -2.1013
 3420WAT    EPW15487   7.960   7.319   8.869  0.2882  0.2353 -1.0319
 3421WAT      O15488   3.374   3.014   0.448  0.3799  0.1198  0.7815
 3421WAT     H115489   3.413   3.074   0.512  2.4115  1.0129 -1.1500
 3421WAT     H215490   3.327   3.072   0.388  0.1994 -0.4765  0.3430
 3421WAT    EPW15491   3.373   3.030   0.448  0.6239  0.1589  0.4689
 3422WAT      O15492   7.390   6.526   8.611  0.0519 -0.7495 -0.3418
 3422WAT     H115493   7.296   6.541   8.605 -0.0442 -0.8932  0.6377
 3422WAT     H215494   7.400   6.431   8.604  0.2832 -0.6441 -2.0398
 3422WAT    EPW15495   7.379   6.516   8.609  0.0696 -0.7546 -0.4363
 3423WAT      O15496   8.823   6.893   7.705 -0.2261  0.2431  0.7994
 3423WAT     H115497   8.819   6.925   7.795 -0.5797  0.1953  0.8016
 3423WAT     H215498   8.731   6.878   7.681 -0.2194  1.2184  0.0874
 3423WAT    EPW15499   8.810   6.896   7.714 -0.2718  0.3655  0.7057
 3424WAT      O15500   5.331   3.607   0.510  0.0861  0.2915 -0.3494
 3424WAT     H115501   5.408   3.626   0.458  0.3219 -1.9412 -0.9208
 3424WAT     H215502   5.322   3.683   0.569  0.5440  2.2762 -2.6964
 3424WAT    EPW15503   5.340   3.620   0.511  0.1776  0.2588 -0.7343
 3425WAT      O15504   2.606   2.101   1.117  0.5141 -0.1169 -0.2847
 3425WAT     H115505   2.573   2.098   1.027  0.8007  1.6842 -0.4840
 3425WAT     H215506   2.694   2.063   1.111  0.9933  1.0732 -1.0079
 3425WAT    EPW15507   2.613   2.095   1.104  0.6150  0.2776 -0.4063
 3426WAT      O15508   4.727   3.447   1.316 -0.1175  0.2912 -0.5177
 3426WAT     H115509   4.723   3.392   1.394  1.8368 -1.1060 -1.3144
 3426WAT     H215510   4.816   3.483   1.317  0.4446 -0.8598 -2.7710
 3426WAT    EPW15511   4.739   3.445   1.326  0.2143 -0.0448 -0.9200
 3427WAT      O15512   7.528   5.453   7.980  0.3704  0.5709 -0.2679
 3427WAT     H115513   7.592   5.382   7.992  0.9165  0.9212 -1.0202
 3427WAT     H215514   7.446   5.416   8.011  0.9043  0.0494  0.5641
 3427WAT    EPW15515   7.526   5.439   7.986  0.5131  0.5484 -0.2573
 3428WAT      O15516   9.005   7.950   7.311 -0.1705  0.1561  0.6764
 3428WAT     H115517   8.928   7.894   7.315 -0.3096  0.3568  0.7851
 3428WAT     H215518   8.971   8.039   7.300  0.0514  0.2136  0.4300
 3428WAT    EPW15519   8.991   7.954   7.310 -0.1602  0.1903  0.6580
 3429WAT      O15520   1.969   3.234   0.732  0.1832  1.0690 -0.6051
 3429WAT     H115521   2.047   3.289   0.727  1.1253  0.0018  1.2329
 3429WAT     H215522   1.916   3.274   0.801  2.1705 -1.6497  2.8415
 3429WAT    EPW15523   1.972   3.246   0.741  0.5695  0.5697  0.0919
 3430WAT      O15524   3.337   2.257   0.781 -0.3207 -0.1095  0.5784
 3430WAT     H115525   3.292   2.172   0.782  0.2240 -0.4210 -0.4871
 3430WAT     H215526   3.420   2.240   0.737 -0.0422  0.9057  0.6843
 3430WAT    EPW15527   3.342   2.243   0.776 -0.2121 -0.0167  0.4518
 3431WAT      O15528   8.765   6.436   8.859 -0.2584 -0.2984  0.6365
 3431WAT     H115529   8.676   6.459   8.887 -0.2953 -1.7951  1.9083
 3431WAT     H215530   8.796   6.513   8.812 -1.5730  0.9443  1.6964
 3431WAT    EPW15531   8.757   6.449   8.856 -0.4368 -0.3316  0.9441
 3432WAT      O15532   4.672   2.654   2.283  0.2355  0.1098  0.3438
 3432WAT     H115533   4.598   2.667   2.342 -0.3197  1.4953 -0.5898
 3432WAT     H215534   4.726   2.588   2.326 -1.7531 -1.2891  0.8332
 3432WAT    EPW15535   4.669   2.647   2.296 -0.0999  0.1080  0.2851
 3433WAT      O15536  10.111   9.351   1.274 -0.3618 -0.6065 -0.4643
 3433WAT     H115537  10.200   9.371   1.246 -0.7070  0.2951 -0.9922
 3433WAT     H215538  10.111   9.371   1.368 -0.7629  2.4492 -1.0045
 3433WAT    EPW15539  10.123   9.356   1.283 -0.4597 -0.0839 -0.6052
 3434WAT      O15540   7.116   3.877   2.237  0.4463  0.3516 -0.1010
 3434WAT     H115541   7.127   3.969   2.213 -0.4622  0.2630 -0.9011
 3434WAT     H215542   7.051   3.878   2.307  1.3618  0.4013  0.7884
 3434WAT    EPW15543   7.109   3.889   2.243  0.4473  0.3465 -0.0893
 3435WAT      O15544   6.645   0.431   3.287  0.1457 -0.3557 -0.0789
 3435WAT     H115545   6.606   0.485   3.218 -0.2854 -1.0127 -0.3577
 3435WAT     H215546   6.578   0.366   3.307  0.4525 -0.4568  0.6331
 3435WAT    EPW15547   6.631   0.430   3.280  0.1292 -0.4557 -0.0218
 3436WAT      O15548   2.987   0.262   3.574 -0.5431 -0.3541 -0.4743
 3436WAT     H115549   2.998   0.245   3.481  1.7059  0.9718 -0.5069
 3436WAT     H215550   3.065   0.311   3.600 -2.3610  1.7797  1.5082
 3436WAT    EPW15551   2.999   0.266   3.565 -0.4864  0.1022 -0.2170
 3437WAT      O15552   8.597   3.877   2.025  0.4669  0.1269  0.3220
 3437WAT     H115553   8.611   3.911   1.937 -1.8915  0.4452  0.0241
 3437WAT     H215554   8.533   3.936   2.064  0.5473 -0.7298  1.8348
 3437WAT    EPW15555   8.591   3.889   2.019  0.1659  0.0560  0.4822
 3438WAT      O15556   6.906   5.239   1.877 -0.9115  0.7782 -0.3430
 3438WAT     H115557   6.864   5.324   1.883 -0.7258  0.7565  1.7164
 3438WAT     H215558   6.943   5.223   1.963  0.8361 -0.4955 -1.2513
 3438WAT    EPW15559   6.906   5.248   1.889 -0.6566  0.6073 -0.1912
 3439WAT      O15560   4.422  10.361   6.936 -0.0876 -0.3901 -0.3575
 3439WAT     H115561   4.341  10.399   6.970 -0.7834 -0.8376 -1.4625
 3439WAT     H215562   4.427  10.390   6.845  0.1404 -1.6920 -0.7887
 3439WAT    EPW15563   4.412  10.370   6.928 -0.1493 -0.6209 -0.5598
 3440WAT      O15564   9.697   3.840   1.535 -0.5140  0.8097  0.0316
 3440WAT     H115565   9.607   3.872   1.536 -1.7535 -1.7460  4.9700
 3440WAT     H215566   9.746   3.908   1.582 -0.8107  0.5006  0.8225
 3440WAT    EPW15567   9.692   3.854   1.542 -0.7167  0.4319  0.7873
 3441WAT      O15568  10.410   7.758   8.839  0.6828 -0.7247  0.0538
 3441WAT     H115569  10.470   7.766   8.913  1.0662 -0.7602 -0.2469
 3441WAT     H215570  10.388   7.665   8.836  1.0564 -0.8099 -0.1721
 3441WAT    EPW15571  10.415   7.747   8.848  0.7825 -0.7405 -0.0162
 3442WAT      O15572   6.605   3.884   0.913 -0.1639 -1.0075 -0.7308
 3442WAT     H115573   6.685   3.835   0.933 -0.4954 -0.7847  1.3067
 3442WAT     H215574   6.534   3.822   0.930 -0.4901 -0.6682 -0.8323
 3442WAT    EPW15575   6.606   3.869   0.918 -0.2506 -0.9334 -0.4755
 3443WAT      O15576   8.008   7.625   3.040 -0.0100 -0.0583  0.2664
 3443WAT     H115577   8.042   7.653   3.125  0.2340 -1.0916  0.5205
 3443WAT     H215578   7.913   7.640   3.047 -0.1179 -1.0105  1.0802
 3443WAT    EPW15579   8.000   7.631   3.052  0.0081 -0.3200  0.4071
 3444WAT      O15580   6.924   5.459   0.216 -0.0337  0.8391 -0.6305
 3444WAT     H115581   6.995   5.396   0.224 -1.1464 -0.4477 -0.6474
 3444WAT     H215582   6.844   5.407   0.222 -0.9901  2.1472 -1.4251
 3444WAT    EPW15583   6.923   5.444   0.218 -0.3066  0.8416 -0.7375
 3445WAT      O15584   0.948   8.742   5.407  0.5154  0.0581  0.1197
 3445WAT     H115585   0.862   8.710   5.379  0.8184  0.9137 -1.9488
 3445WAT     H215586   0.933   8.774   5.496 -1.0872 -0.6415  0.1457
 3445WAT    EPW15587   0.934   8.742   5.415  0.3440  0.0792 -0.1495
 3446WAT      O15588   5.657   6.965   0.336 -0.0341  0.2784  0.1948
 3446WAT     H115589   5.693   6.947   0.423 -0.1914  0.9932  0.4166
 3446WAT     H215590   5.664   7.060   0.328 -0.2968  0.2396 -0.4571
 3446WAT    EPW15591   5.663   6.975   0.347 -0.0894  0.3674  0.1381
 3447WAT      O15592   9.648   9.904   6.573  0.2684 -0.3073 -0.0282
 3447WAT     H115593   9.720   9.945   6.621  0.0094  0.8071 -0.5734
 3447WAT     H215594   9.575   9.965   6.581  0.0330 -0.3840 -1.3217
 3447WAT    EPW15595   9.648   9.917   6.581  0.2031 -0.1707 -0.2706
 3448WAT      O15596   5.882   0.649   7.382  0.6444  0.0386 -0.0424
 3448WAT     H115597   5.963   0.652   7.433 -0.0388 -2.0101  1.2936
 3448WAT     H215598   5.843   0.564   7.404 -2.3660  1.3380  0.1891
 3448WAT    EPW15599   5.887   0.638   7.392  0.1571 -0.0602  0.1643
 3449WAT      O15600   9.521   7.606   7.527  0.3904  0.8171  0.0062
 3449WAT     H115601   9.525   7.565   7.441 -2.9333  2.3515 -1.0537
 3449WAT     H215602   9.611   7.602   7.560  1.8420  0.3282 -3.5859
 3449WAT    EPW15603   9.534   7.600   7.520  0.1431  0.9553 -0.6077
 3450WAT      O15604   3.140   1.279   7.125 -0.4568  0.9117 -0.1025
 3450WAT     H115605   3.075   1.208   7.128 -2.1118  2.3922  1.1467
 3450WAT     H215606   3.152   1.296   7.032  0.8753 -1.7210 -0.5101
 3450WAT    EPW15607   3.133   1.271   7.114 -0.4994  0.7597  0.0083
 3451WAT      O15608  10.156   8.563   7.300  0.1224  0.0733  0.4690
 3451WAT     H115609  10.158   8.648   7.256 -0.7412 -0.2449 -0.2017
 3451WAT     H215610  10.161   8.499   7.229 -1.1823 -0.4467  0.8289
 3451WAT    EPW15611  10.157   8.566   7.285 -0.1636 -0.0372  0.4280
 3452WAT      O15612   7.491   3.341   3.195  0.2978 -0.3813  0.1166
 3452WAT     H115613   7.529   3.309   3.114  1.8085 -0.8237  0.9553
 3452WAT     H215614   7.408   3.295   3.202  1.1206 -1.9916 -0.1453
 3452WAT    EPW15615   7.485   3.330   3.186  0.6056 -0.6520  0.1928
 3453WAT      O15616   1.182   1.645   6.657  0.2571  0.1374  0.1592
 3453WAT     H115617   1.132   1.563   6.662 -0.3370  0.4574 -0.3973
 3453WAT     H215618   1.251   1.635   6.722  0.6710 -1.1301 -0.4424
 3453WAT    EPW15619   1.184   1.633   6.666  0.2333  0.0125  0.0067
 3454WAT      O15620   7.118   4.668   0.493  0.2077 -0.2419  0.4558
 3454WAT     H115621   7.154   4.592   0.538 -2.7795 -0.9473  1.9233
 3454WAT     H215622   7.024   4.649   0.486  0.0647  0.9482 -3.9878
 3454WAT    EPW15623   7.110   4.655   0.498 -0.2050 -0.1781  0.0633
 3455WAT      O15624   2.967   0.690   7.655 -0.1288 -0.6583  0.2594
 3455WAT     H115625   3.005   0.666   7.570 -2.4300 -0.8390 -0.7864
 3455WAT     H215626   2.918   0.770   7.638 -0.0224 -0.2785  1.6193
 3455WAT    EPW15627   2.966   0.697   7.642 -0.4182 -0.6321  0.3006
 3456WAT      O15628   2.731   8.975   6.253  0.7846 -0.4552 -0.3180
 3456WAT     H115629   2.683   9.050   6.219 -1.3116 -1.4365  0.3659
 3456WAT     H215630   2.823   8.998   6.238  0.1477  1.3856 -1.8666
 3456WAT    EPW15631   2.737   8.988   6.246  0.4240 -0.3424 -0.4323
 3457WAT      O15632   6.412   7.080   1.639 -0.2792  0.0160 -0.7648
 3457WAT     H115633   6.373   7.161   1.672  1.1417  1.0228 -1.4485
 3457WAT     H215634   6.458   7.044   1.715 -1.2747 -0.4126 -0.3420
 3457WAT    EPW15635   6.413   7.086   1.654 -0.2234  0.0923 -0.7992
 3458WAT      O15636   4.301   0.914   5.317  0.0299  0.1774 -0.2536
 3458WAT     H115637   4.302   0.873   5.231  2.1984  2.5186 -1.4369
 3458WAT     H215638   4.391   0.906   5.349  0.0304  2.2051  0.3470
 3458WAT    EPW15639   4.313   0.907   5.310  0.3159  0.7537 -0.3304
 3459WAT      O15640   8.953   8.018   7.634 -0.0621 -0.2695 -0.1102
 3459WAT     H115641   8.890   8.085   7.607 -2.9559 -1.4784  3.0016
 3459WAT     H215642   8.992   7.987   7.552 -1.2457  2.6354 -1.9257
 3459WAT    EPW15643   8.950   8.023   7.619 -0.5999 -0.0458  0.0608
 3460WAT      O15644   2.289   5.402   0.257 -0.3630 -0.6389  0.0863
 3460WAT     H115645   2.352   5.341   0.219 -0.3825 -1.8507  1.8969
 3460WAT     H215646   2.283   5.376   0.349 -0.0642  2.3409  1.0583
 3460WAT    EPW15647   2.297   5.391   0.264 -0.3260 -0.4055  0.4533
 3461WAT      O15648  10.301   3.100   0.051  0.1481 -0.0866 -0.2182
 3461WAT     H115649  10.341   3.176   0.009 -0.1134 -0.8683 -2.0071
 3461WAT     H215650  10.368   3.066   0.110  1.0850  0.2627 -1.0560
 3461WAT    EPW15651  10.315   3.105   0.053  0.2371 -0.1431 -0.5646
 3462WAT      O15652   0.985   6.056   6.856  0.0140 -0.0108  0.0271
 3462WAT     H115653   1.072   6.023   6.880  0.5349  0.1204 -1.5385
 3462WAT     H215654   0.986   6.057   6.760 -3.1540 -3.8743 -0.2957
 3462WAT    EPW15655   0.997   6.052   6.847 -0.3351 -0.5031 -0.2217
 3463WAT      O15656   5.490   3.261   2.962  0.0537  0.3212  0.0739
 3463WAT     H115657   5.501   3.225   3.050 -3.1083  1.3646  1.0411
 3463WAT     H215658   5.448   3.190   2.912  1.3666 -0.0852 -0.5068
 3463WAT    EPW15659   5.486   3.247   2.967 -0.1903  0.4053  0.1248
 3464WAT      O15660   0.299   1.791   8.290  0.5256  0.4939 -0.7814
 3464WAT     H115661   0.238   1.757   8.354  0.2377  0.1382 -1.2363
 3464WAT     H215662   0.258   1.871   8.258  0.5385  0.5230 -0.7261
 3464WAT    EPW15663   0.286   1.797   8.294  0.4893  0.4508 -0.8340
 3465WAT      O15664   1.501   7.496   3.629 -0.3948 -0.4370 -0.5679
 3465WAT     H115665   1.485   7.428   3.695  1.3440 -0.0295  0.3428
 3465WAT     H215666   1.489   7.451   3.546 -1.5183 -1.2624  0.0226
 3465WAT    EPW15667   1.498   7.481   3.627 -0.3136 -0.4919 -0.3699
 3466WAT      O15668  10.716   8.358   7.421  0.6634  0.4032 -0.4084
 3466WAT     H115669  10.756   8.441   7.446  0.7802  0.0324  0.7069
 3466WAT     H215670  10.622   8.375   7.423  0.7055  0.7323 -1.0375
 3466WAT    EPW15671  10.709   8.371   7.424  0.6843  0.3972 -0.3443
 3467WAT      O15672   3.117   8.860   2.108  0.0743 -0.0187  0.8013
 3467WAT     H115673   3.150   8.905   2.030 -3.3050 -0.7799 -1.2834
 3467WAT     H215674   3.090   8.930   2.166 -0.5393  0.6410 -0.2450
 3467WAT    EPW15675   3.118   8.875   2.105 -0.4524 -0.0329  0.3884
 3468WAT      O15676   2.856  10.033   8.253 -0.1650 -0.3436  0.3251
 3468WAT     H115677   2.799   9.955   8.252  0.2591 -0.6523 -0.1311
 3468WAT     H215678   2.912  10.023   8.176 -1.2119  1.2410 -0.7010
 3468WAT    EPW15679   2.856  10.021   8.243 -0.2471 -0.1760  0.1297
 3469WAT      O15680   9.399   7.252   6.139  0.3006 -0.5758  0.4000
 3469WAT     H115681   9.492   7.229   6.136  0.6624  0.7747  0.2692
 3469WAT     H215682   9.383   7.299   6.057  0.0068  0.8588  1.2365
 3469WAT    EPW15683   9.409   7.255   6.128  0.3099 -0.2086  0.4933
 3470WAT      O15684   3.162   1.312   6.860  0.0050 -0.2443 -0.2339
 3470WAT     H115685   3.091   1.364   6.824  0.1268 -0.6327 -1.0756
 3470WAT     H215686   3.217   1.291   6.784  0.7563 -0.3511  0.3218
 3470WAT    EPW15687   3.160   1.316   6.845  0.1203 -0.3096 -0.2716
 3471WAT      O15688   7.300   3.824   1.688 -0.1078  0.3458 -0.5789
 3471WAT     H115689   7.389   3.813   1.653  1.1235  2.0198  1.7367
 3471WAT     H215690   7.305   3.790   1.777 -1.7234  0.7360 -0.3093
 3471WAT    EPW15691   7.313   3.818   1.695 -0.1583  0.6179 -0.2379
 3472WAT      O15692   8.245   2.161   1.170  0.5575 -0.7794 -0.1669
 3472WAT     H115693   8.208   2.242   1.137  0.0406 -0.7640  0.4279
 3472WAT     H215694   8.189   2.092   1.134  0.9435 -0.8687 -0.6035
 3472WAT    EPW15695   8.233   2.162   1.161  0.5403 -0.7892 -0.1460
 3473WAT      O15696   0.699   9.234   8.339  0.8071  0.2050 -0.5059
 3473WAT     H115697   0.607   9.215   8.359 -0.5065  1.3334 -4.4764
 3473WAT     H215698   0.746   9.156   8.368 -1.5256 -0.8530  0.7390
 3473WAT    EPW15699   0.693   9.221   8.345  0.3262  0.2146 -0.8655
 3474WAT      O15700  10.331   9.539   8.794 -0.3586  0.6387  0.0163
 3474WAT     H115701  10.352   9.496   8.877  1.7879  1.4657 -0.0356
 3474WAT     H215702  10.244   9.506   8.771  0.4905 -2.4155  0.7722
 3474WAT    EPW15703  10.322   9.529   8.802  0.0362  0.3452  0.1092
 3475WAT      O15704  10.399   9.048   5.939 -0.9226  0.0337 -0.5405
 3475WAT     H115705  10.408   8.961   5.899 -0.2304  1.1434 -2.9667
 3475WAT     H215706  10.470   9.052   6.003 -0.6874 -1.0438 -0.7090
 3475WAT    EPW15707  10.410   9.037   5.942 -0.8001  0.0381 -0.8826
 3476WAT      O15708   7.471   4.445   0.014 -0.5864  0.8606 -0.5217
 3476WAT     H115709   7.493   4.361  -0.027 -2.3676 -0.3351  0.7437
 3476WAT     H215710   7.375   4.442   0.023 -0.6067  2.6617  0.3427
 3476WAT    EPW15711   7.461   4.433   0.010 -0.8240  0.9403 -0.2408
 3477WAT      O15712   7.725   2.914   0.761  0.9268 -0.0029 -0.6289
 3477WAT     H115713   7.671   2.987   0.792  4.3515  1.7907  1.7652
 3477WAT     H215714   7.722   2.850   0.832  0.1718 -0.9934 -1.5173
 3477WAT    EPW15715   7.718   2.915   0.774  1.2791  0.1031 -0.4302
 3478WAT      O15716   0.311   8.129   8.059  0.2655  0.3312 -0.0928
 3478WAT     H115717   0.239   8.115   7.998  0.2415  1.3723 -0.3108
 3478WAT     H215718   0.375   8.180   8.010  0.1919  1.2984  0.7818
 3478WAT    EPW15719   0.310   8.134   8.045  0.2526  0.5965 -0.0057
 3479WAT      O15720   2.443   1.673   4.655  0.3814 -0.0242  0.3817
 3479WAT     H115721   2.404   1.608   4.714 -0.1570  1.7590  2.0740
 3479WAT     H215722   2.369   1.705   4.603  0.5631 -0.3798 -0.1077
 3479WAT    EPW15723   2.428   1.669   4.656  0.3344  0.1642  0.5405
 3480WAT      O15724   1.808   9.497   7.106 -0.3195  0.5747 -0.0934
 3480WAT     H115725   1.857   9.502   7.188 -1.3334 -1.4240  0.7002
 3480WAT     H215726   1.756   9.577   7.105  0.2115  0.9528  0.8661
 3480WAT    EPW15727   1.808   9.509   7.117 -0.3833  0.3605  0.1380
 3481WAT      O15728   8.147  10.179   5.630  0.2804  0.4309  0.5906
 3481WAT     H115729   8.077  10.184   5.695 -0.3613 -2.5035  0.2249
 3481WAT     H215730   8.124  10.105   5.574  3.8577 -1.0037  0.7271
 3481WAT    EPW15731   8.135  10.170   5.631  0.6676 -0.1454  0.5605
 3482WAT      O15732   0.912   7.926   3.824  0.4153  0.3337  0.5432
 3482WAT     H115733   0.991   7.890   3.784  0.2060 -2.4646  2.3415
 3482WAT     H215734   0.870   7.851   3.866 -3.7024  1.4569 -0.9926
 3482WAT    EPW15735   0.917   7.911   3.824 -0.1554  0.1130  0.5779
 3483WAT      O15736   0.867   9.259   7.309  0.2622 -0.0646  0.2262
 3483WAT     H115737   0.923   9.236   7.383 -1.0658 -0.3619  1.1911
 3483WAT     H215738   0.778   9.245   7.342 -0.3868  0.5041 -1.2046
 3483WAT    EPW15739   0.862   9.254   7.323  0.0014 -0.0281  0.1647
 3484WAT      O15740   9.401  10.361   8.857  0.3381  0.5765 -0.0300
 3484WAT     H115741   9.361  10.442   8.889  1.1015  1.1398 -0.4516
 3484WAT     H215742   9.475  10.391   8.804  1.1478 -0.4239  0.5014
 3484WAT    EPW15743   9.406  10.376   8.854  0.5455  0.5193 -0.0153
 3485WAT      O15744   4.211   0.670   4.787  0.1598 -0.3907 -0.3317
 3485WAT     H115745   4.225   0.636   4.875 -3.7347 -1.4196  0.0430
 3485WAT     H215746   4.222   0.765   4.796  3.6665 -0.7132  0.2550
 3485WAT    EPW15747   4.214   0.678   4.800  0.1085 -0.5690 -0.2053
 3486WAT      O15748   0.031   8.019   6.585 -0.0090  0.1256  0.6075
 3486WAT     H115749  -0.060   7.991   6.594 -0.8348  2.3644 -0.1852
 3486WAT     H215750   0.047   8.077   6.659  0.5784  0.2600  0.3864
 3486WAT    EPW15751   0.021   8.023   6.596 -0.0405  0.4387  0.4735
 3487WAT      O15752   2.596   0.550   6.255  0.5111  0.2580  0.0074
 3487WAT     H115753   2.523   0.518   6.203  2.0522 -0.3546 -1.8589
 3487WAT     H215754   2.581   0.645   6.261 -0.4551  0.1317 -0.3125
 3487WAT    EPW15755   2.584   0.559   6.249  0.5870  0.1605 -0.2811
 3488WAT      O15756   1.943   9.092   3.935  0.7438 -0.1060  0.4865
 3488WAT     H115757   1.939   9.023   4.002  2.0093  0.5095  1.2263
 3488WAT     H215758   2.018   9.146   3.961  0.6928  0.6771 -0.9315
 3488WAT    EPW15759   1.952   9.090   3.947  0.9040  0.0787  0.3970
 3489WAT      O15760   0.325   8.754   6.144 -0.1272  0.0516 -0.9108
 3489WAT     H115761   0.330   8.678   6.087  3.5436  1.4677 -2.7943
 3489WAT     H215762   0.336   8.829   6.085 -0.0431  1.8546  1.2527
 3489WAT    EPW15763   0.327   8.754   6.129  0.3681  0.4759 -0.8738
 3490WAT      O15764   6.142   0.540   8.536 -0.3591  0.5948  0.1887
 3490WAT     H115765   6.109   0.455   8.504 -1.9031  1.6503 -1.2031
 3490WAT     H215766   6.074   0.570   8.597 -0.1846  1.1466  0.1163
 3490WAT    EPW15767   6.129   0.533   8.540 -0.5398  0.8068 -0.0043
 3491WAT      O15768   0.080  10.016   5.985  0.5206 -0.1035  0.0553
 3491WAT     H115769   0.022  10.052   6.053 -1.6835 -1.8640 -0.7778
 3491WAT     H215770   0.101   9.928   6.016  0.8035 -0.3418 -0.7967
 3491WAT    EPW15771   0.075  10.009   5.998  0.2672 -0.3667 -0.1669
 3492WAT      O15772   7.287   5.930   1.755 -0.4391  0.8309 -0.5527
 3492WAT     H115773   7.307   6.016   1.718 -1.5525  1.8607  1.0737
 3492WAT     H215774   7.371   5.884   1.757  0.1163  1.7557 -1.7552
 3492WAT    EPW15775   7.300   5.935   1.751 -0.5128  1.0884 -0.4968
 3493WAT      O15776   0.771   0.584   6.518 -0.0168 -0.1444  0.2531
 3493WAT     H115777   0.842   0.560   6.578 -0.8540  0.0528  1.3466
 3493WAT     H215778   0.764   0.508   6.459  0.8205 -0.3426  0.3948
 3493WAT    EPW15779   0.780   0.571   6.518 -0.0168 -0.1445  0.4160
 3494WAT      O15780   4.560   4.618   0.550  0.7601  0.2770 -0.0770
 3494WAT     H115781   4.477   4.618   0.598  0.2134 -1.5904 -0.9341
 3494WAT     H215782   4.540   4.660   0.466  0.1187 -1.8436 -1.0613
 3494WAT    EPW15783   4.547   4.624   0.545  0.6032 -0.2489 -0.3198
 3495WAT      O15784  10.897   9.537   5.730 -0.4102  0.2223 -0.1505
 3495WAT     H115785  10.904   9.627   5.763 -0.0770  0.2446 -0.2760
 3495WAT     H215786  10.874   9.548   5.638  0.0264  0.1893 -0.2660
 3495WAT    EPW15787  10.895   9.550   5.723 -0.3076  0.2208 -0.1824
 3496WAT      O15788   0.666   9.694   5.723 -0.4841 -0.7657 -0.2654
 3496WAT     H115789   0.723   9.770   5.732  0.5227 -1.5534  0.2214
 3496WAT     H215790   0.586   9.719   5.769 -0.0724 -0.0900  0.1046
 3496WAT    EPW15791   0.663   9.707   5.730 -0.2970 -0.7811 -0.1523
 3497WAT      O15792   0.769   1.089   6.925  0.6325  0.4951  0.2723
 3497WAT     H115793   0.702   1.070   6.860  1.0384  0.9619 -0.2991
 3497WAT     H215794   0.733   1.161   6.977  0.5789  0.5629  0.1410
 3497WAT    EPW15795   0.756   1.096   6.923  0.6789  0.5656  0.1798
 3498WAT      O15796   6.411   3.554   0.411  0.4025  0.5089  0.0122
 3498WAT     H115797   6.492   3.525   0.453  0.1180 -0.6191 -0.1979
 3498WAT     H215798   6.361   3.595   0.482  0.0433 -1.1334  0.7539
 3498WAT    EPW15799   6.415   3.556   0.426  0.3176  0.1435  0.0823
 3499WAT      O15800   6.155   5.299   0.887  0.0207 -0.0453  0.1207
 3499WAT     H115801   6.142   5.388   0.852  2.5579 -0.0880 -1.1603
 3499WAT     H215802   6.066   5.264   0.896 -0.9714  1.9065 -1.2553
 3499WAT    EPW15803   6.141   5.306   0.883  0.2246  0.2060 -0.2297
 3500WAT      O15804   9.401   8.404   6.400  0.2964 -0.2299  0.7624
 3500WAT     H115805   9.453   8.409   6.320  0.8259 -1.7106  0.9906
 3500WAT     H215806   9.403   8.312   6.424 -1.8170 -0.1971  1.2052
 3500WAT    EPW15807   9.408   8.392   6.393  0.0873 -0.4210  0.8512
 3501WAT      O15808   1.535   7.550   4.981 -0.0147 -0.5620  1.0566
 3501WAT     H115809   1.607   7.610   5.001  0.1939  0.3024 -1.8039
 3501WAT     H215810   1.456   7.603   4.996  0.1684  0.6324 -1.5422
 3501WAT    EPW15811   1.534   7.565   4.986  0.0369 -0.2904  0.3366
 3502WAT      O15812   7.249   1.696   7.414  0.1114 -0.8236  0.4718
 3502WAT     H115813   7.237   1.750   7.336  2.1099 -0.9690  0.0073
 3502WAT     H215814   7.186   1.625   7.404  0.7915 -1.2193 -1.3954
 3502WAT    EPW15815   7.239   1.694   7.402  0.4649 -0.8949  0.1643
 3503WAT      O15816   7.060   3.758   8.889 -0.1113  0.1408 -0.0278
 3503WAT     H115817   7.049   3.853   8.882 -0.3097  0.0589 -1.0597
 3503WAT     H215818   7.033   3.737   8.978  2.4823  1.3756  1.1500
 3503WAT    EPW15819   7.055   3.768   8.900  0.2046  0.2928 -0.0081
 3504WAT      O15820   2.871   9.231   5.367 -0.4483  0.3755  0.4202
 3504WAT     H115821   2.931   9.305   5.357 -0.6779  0.6328  0.9062
 3504WAT     H215822   2.833   9.243   5.454  0.8638 -1.3250  1.2695
 3504WAT    EPW15823   2.874   9.243   5.377 -0.3055  0.1855  0.5963
 3505WAT      O15824   4.130   3.400   0.827 -0.7734  0.5748 -0.3004
 3505WAT     H115825   4.167   3.400   0.739 -0.0750  0.5867 -0.0121
 3505WAT     H215826   4.166   3.322   0.868  0.0459  1.3209  0.4386
 3505WAT    EPW15827   4.139   3.390   0.821 -0.5729  0.6747 -0.1649
 3506WAT      O15828   4.294   0.640   6.433 -0.4683  0.7865  0.2558
 3506WAT     H115829   4.377   0.626   6.480 -0.0363  0.2463 -0.6473
 3506WAT     H215830   4.287   0.565   6.374 -2.7734 -0.4631  1.9415
 3506WAT    EPW15831   4.304   0.628   6.432 -0.7155  0.5504  0.3588
 3507WAT      O15832   8.152   4.086   0.092  0.1416 -0.1581 -0.4661
 3507WAT     H115833   8.075   4.067   0.146  0.9388 -0.3391  0.6337
 3507WAT     H215834   8.184   3.999   0.066 -0.5229 -0.0620 -1.6728
 3507WAT    EPW15835   8.146   4.072   0.096  0.1593 -0.1693 -0.4802
 3508WAT      O15836   3.325   1.227   6.659  0.4708  0.2881 -0.1069
 3508WAT     H115837   3.318   1.321   6.641  1.4694 -0.0430 -2.5845
 3508WAT     H215838   3.413   1.217   6.696  1.7757 -0.0022 -3.0331
 3508WAT    EPW15839   3.336   1.238   6.661  0.7746  0.2062 -0.8197
 3509WAT      O15840   7.547   5.168   0.344 -0.4559 -0.6235 -0.3996
 3509WAT     H115841   7.480   5.104   0.369 -0.7079 -0.2417 -0.0940
 3509WAT     H215842   7.576   5.139   0.257  0.8582 -2.3084  0.5401
 3509WAT    EPW15843   7.542   5.156   0.336 -0.3157 -0.7954 -0.2354
 3510WAT      O15844   4.169   6.456   0.547  0.0287 -0.2275  0.3049
 3510WAT     H115845   4.162   6.434   0.640 -0.9098  0.4306  0.4127
 3510WAT     H215846   4.110   6.395   0.503 -0.9187  0.6037  0.3662
 3510WAT    EPW15847   4.160   6.445   0.553 -0.2198 -0.0310  0.3272
 3511WAT      O15848   8.530   9.314   3.809  0.1881 -0.0195 -0.6752
 3511WAT     H115849   8.553   9.265   3.888 -1.1337 -1.2971 -1.0311
 3511WAT     H215850   8.445   9.278   3.783 -0.0570  1.3532 -1.9001
 3511WAT    EPW15851   8.522   9.303   3.816 -0.0191 -0.0072 -0.8836
 3512WAT      O15852   0.479  10.089   8.162  0.5622  0.4126  0.2307
 3512WAT     H115853   0.522  10.080   8.077  1.6030  0.8376  0.6932
 3512WAT     H215854   0.387  10.107   8.140  0.1007 -2.5610 -0.7655
 3512WAT    EPW15855   0.472  10.091   8.148  0.6386  0.0763  0.1602
 3513WAT      O15856   4.965   5.938   0.720 -0.0770 -0.3021  0.7890
 3513WAT     H115857   4.948   5.890   0.639 -0.9489 -0.4844  1.0655
 3513WAT     H215858   5.037   5.891   0.761  0.5651 -0.0448  0.0040
 3513WAT    EPW15859   4.972   5.926   0.715 -0.1073 -0.2918  0.7220
 3514WAT      O15860   9.964   8.985   7.055 -0.2085  0.3091  0.7203
 3514WAT     H115861   9.952   8.931   7.133 -3.2518  0.8768  0.7670
 3514WAT     H215862   9.990   9.071   7.089  0.4347  0.0357  0.9353
 3514WAT    EPW15863   9.966   8.989   7.070 -0.5255  0.3471  0.7548
 3515WAT      O15864   4.996   0.138   6.867  0.5242  0.6187 -0.0737
 3515WAT     H115865   4.947   0.058   6.882 -1.8867  1.6129 -1.9999
 3515WAT     H215866   5.022   0.167   6.954  0.0077 -1.3552  0.7891
 3515WAT    EPW15867   4.993   0.131   6.880  0.1380  0.4895 -0.2139
 3516WAT      O15868   0.656   0.929   6.717  0.7525 -0.2452  0.2999
 3516WAT     H115869   0.568   0.949   6.686 -0.3093 -0.9871  2.5887
 3516WAT     H215870   0.710   0.930   6.638 -1.0814  1.2768 -1.0370
 3516WAT    EPW15871   0.652   0.931   6.702  0.3706 -0.1423  0.4253
 3517WAT      O15872   0.641   8.670   7.964  0.5623 -0.0540  0.9612
 3517WAT     H115873   0.735   8.686   7.957  0.5649 -0.3790  0.2094
 3517WAT     H215874   0.634   8.593   8.020  0.7249  0.2087  1.3443
 3517WAT    EPW15875   0.653   8.662   7.970  0.5841 -0.0625  0.9124
 3518WAT      O15876   3.757   8.853   5.303 -0.0838 -0.3223 -0.2841
 3518WAT     H115877   3.758   8.766   5.344  1.1071  0.2570  0.9823
 3518WAT     H215878   3.826   8.849   5.237  0.0708 -0.2991 -0.1252
 3518WAT    EPW15879   3.766   8.841   5.300  0.0937 -0.2427 -0.0961
 3519WAT      O15880   4.728   0.320   6.861 -0.2612  0.2205 -0.2969
 3519WAT     H115881   4.823   0.312   6.847 -0.5856 -1.1904 -2.2162
 3519WAT     H215882   4.719   0.357   6.948  2.0749  1.4706 -0.5092
 3519WAT    EPW15883   4.740   0.323   6.870  0.0041  0.1993 -0.5782
 3520WAT      O15884   8.742  10.165   0.757 -0.3338 -0.7758 -0.0506
 3520WAT     H115885   8.679  10.138   0.691 -0.1591 -1.3592  0.0136
 3520WAT     H215886   8.828  10.152   0.716 -0.2478 -0.0867 -0.1008
 3520WAT    EPW15887   8.745  10.160   0.743 -0.2999 -0.7620 -0.0487
 3521WAT      O15888   5.319   2.061   7.205 -1.1698  0.1858 -0.4576
 3521WAT     H115889   5.382   2.052   7.133  0.0673 -1.2083  0.7486
 3521WAT     H215890   5.237   2.025   7.170 -0.5894 -0.4746 -1.1672
 3521WAT    EPW15891   5.316   2.055   7.191 -0.9298 -0.0852 -0.3920
 3522WAT      O15892   7.575   0.992   3.306 -0.5719  0.2083  0.1337
 3522WAT     H115893   7.504   0.929   3.315  0.8105 -1.3607  0.3942
 3522WAT     H215894   7.570   1.020   3.215 -0.4420 -1.2406 -0.3435
 3522WAT    EPW15895   7.565   0.988   3.295 -0.3724 -0.1897  0.1051
 3523WAT      O15896   3.225   0.420   3.623  0.5848  0.2694  0.2122
 3523WAT     H115897   3.272   0.382   3.548 -0.2928  1.8922 -1.2296
 3523WAT     H215898   3.276   0.393   3.699  1.8881 -0.8959 -1.0079
 3523WAT    EPW15899   3.238   0.411   3.623  0.6410  0.3298 -0.1389
 3524WAT      O15900   4.166   2.269   7.344 -0.2042 -0.2648 -0.0357
 3524WAT     H115901   4.116   2.318   7.410  0.0755  0.4464 -0.3395
 3524WAT     H215902   4.229   2.218   7.395  0.8277  1.1950  0.2235
 3524WAT    EPW15903   4.167   2.269   7.360 -0.0312  0.0217 -0.0417
 3525WAT      O15904   9.759   9.505   8.445 -0.0538  0.2160  0.4853
 3525WAT     H115905   9.758   9.450   8.523 -0.6556  0.8779  0.9603
 3525WAT     H215906   9.845   9.490   8.406  0.6651  0.6698  1.8528
 3525WAT    EPW15907   9.770   9.496   8.450 -0.0391  0.3629  0.7286
 3526WAT      O15908   4.118   0.769   8.285 -0.3001  0.3755  0.1836
 3526WAT     H115909   4.067   0.808   8.356  0.5765 -1.2883  1.8230
 3526WAT     H215910   4.115   0.675   8.302  2.8241  0.1293  0.0853
 3526WAT    EPW15911   4.111   0.762   8.297  0.2275  0.1236  0.3867
 3527WAT      O15912   4.450   8.334   6.246 -0.0608  0.1997 -0.0932
 3527WAT     H115913   4.427   8.375   6.329 -1.1473  2.6539 -1.5167
 3527WAT     H215914   4.445   8.240   6.263 -1.8341  0.6469  2.1793
 3527WAT    EPW15915   4.447   8.327   6.259 -0.4380  0.5822  0.0186
 3528WAT      O15916   0.031   8.537   1.029  0.5804  0.2037 -0.1300
 3528WAT     H115917   0.069   8.620   1.002  0.3574  0.4703  0.3647
 3528WAT     H215918   0.043   8.479   0.953  0.9292  0.6192 -0.3946
 3528WAT    EPW15919   0.037   8.540   1.015  0.5970  0.2937 -0.0996
 3529WAT      O15920   9.441   4.788   0.225 -0.2424  0.0086  0.6049
 3529WAT     H115921   9.359   4.761   0.267 -0.6288  0.4115  0.1090
 3529WAT     H215922   9.422   4.872   0.185  1.0238  1.2184  2.3798
 3529WAT    EPW15923   9.428   4.795   0.225 -0.1268  0.2213  0.7736
 3530WAT      O15924   8.883   6.801   0.155  0.2042  0.2012  0.5046
 3530WAT     H115925   8.838   6.852   0.087  2.9844  0.6357 -1.1897
 3530WAT     H215926   8.851   6.836   0.238 -1.0485  1.7950 -0.6111
 3530WAT    EPW15927   8.873   6.812   0.157  0.4058  0.4685  0.1339
 3531WAT      O15928   1.051   8.619   8.190 -0.3678  0.1827  0.1360
 3531WAT     H115929   1.029   8.560   8.263 -1.0206 -1.0580 -1.0104
 3531WAT     H215930   1.142   8.644   8.205  0.0555 -1.4441  0.4832
 3531WAT    EPW15931   1.060   8.614   8.202 -0.3980 -0.1955  0.0310
 3532WAT      O15932   8.585   1.776   5.237  0.3027  0.2840 -0.5278
 3532WAT     H115933   8.553   1.688   5.254  0.6212  0.2400 -0.1342
 3532WAT     H215934   8.521   1.833   5.280 -0.1629  0.2671 -1.1935
 3532WAT    EPW15935   8.572   1.772   5.245  0.2837  0.2760 -0.5641
 3533WAT      O15936  10.064   6.441   0.097 -0.3352  0.3161  0.6179
 3533WAT     H115937  10.159   6.447   0.097 -0.3098  0.2264 -0.8568
 3533WAT     H215938  10.034   6.531   0.112 -0.0241  0.3774  0.8774
 3533WAT    EPW15939  10.072   6.454   0.099 -0.2904  0.3123  0.4576
 3534WAT      O15940   0.181   9.758   7.769  0.2286  0.1273  0.0520
 3534WAT     H115941   0.220   9.769   7.683  0.4823  1.0959  0.2842
 3534WAT     H215942   0.095   9.801   7.762 -1.1183 -2.4832 -0.6363
 3534WAT    EPW15943   0.175   9.765   7.757  0.0844 -0.0896 -0.0083
 3535WAT      O15944   2.688   1.773   7.397  0.4534  0.8667  0.2177
 3535WAT     H115945   2.605   1.724   7.397  1.0904 -0.2740 -0.9319
 3535WAT     H215946   2.664   1.861   7.369 -0.5693  0.9716  1.3143
 3535WAT    EPW15947   2.674   1.778   7.393  0.4025  0.7301  0.2105
 3536WAT      O15948  10.315   5.078   1.220  0.9811 -0.3594  0.0823
 3536WAT     H115949  10.247   5.022   1.258 -0.7184  0.4989 -1.5346
 3536WAT     H215950  10.322   5.151   1.281  2.0232 -1.4501  1.3436
 3536WAT    EPW15951  10.307   5.080   1.233  0.8941 -0.3898  0.0354
 3537WAT      O15952   4.122   2.730   8.874  0.0526  0.3197  0.4486
 3537WAT     H115953   4.076   2.669   8.931  1.0321 -0.1709  0.7391
 3537WAT     H215954   4.135   2.681   8.792  1.3408 -0.0843  0.8785
 3537WAT    EPW15955   4.118   2.716   8.870  0.3519  0.2017  0.5436
 3538WAT      O15956   9.916   2.857   8.719 -0.1138 -0.3567 -0.2133
 3538WAT     H115957   9.931   2.762   8.722 -1.0945 -0.4946  1.2456
 3538WAT     H215958   9.987   2.894   8.772 -0.1997 -0.3461 -0.1054
 3538WAT    EPW15959   9.927   2.849   8.726 -0.2546 -0.3735 -0.0067
 3539WAT      O15960   1.306   8.935   6.539 -0.5103  0.7213 -0.1789
 3539WAT     H115961   1.290   8.841   6.549  1.2028  0.2341 -1.4444
 3539WAT     H215962   1.224   8.977   6.565 -0.9581 -1.0540  1.4808
 3539WAT    EPW15963   1.293   8.928   6.544 -0.3434  0.4230 -0.1273
 3540WAT      O15964   2.893  10.349   1.537  0.4300  0.0886 -0.0084
 3540WAT     H115965   2.883  10.406   1.614  2.4968  2.1363 -1.1115
 3540WAT     H215966   2.987  10.330   1.534  0.5051  0.5475 -2.2903
 3540WAT    EPW15967   2.904  10.354   1.547  0.7124  0.4191 -0.4548
 3541WAT      O15968   4.775   2.468   8.080  0.4196  0.2305 -0.2505
 3541WAT     H115969   4.749   2.503   8.165 -1.3388  1.3431 -1.1868
 3541WAT     H215970   4.868   2.449   8.089  0.1422 -0.2877  2.1049
 3541WAT    EPW15971   4.783   2.470   8.092  0.1512  0.3089 -0.0639
 3542WAT      O15972   6.377   1.769   8.666  0.3701 -0.2376 -0.2216
 3542WAT     H115973   6.421   1.835   8.720  2.2554 -2.3235  0.9374
 3542WAT     H215974   6.423   1.771   8.582 -0.5417  0.8799 -0.7188
 3542WAT    EPW15975   6.389   1.778   8.662  0.4985 -0.3653 -0.1345
 3543WAT      O15976   4.903   9.815   4.139  0.5772  0.4266  0.0304
 3543WAT     H115977   4.831   9.815   4.076  0.7666  2.2067 -0.2353
 3543WAT     H215978   4.907   9.724   4.170 -1.5791  0.2035 -0.1529
 3543WAT    EPW15979   4.894   9.803   4.135  0.3181  0.6318 -0.0291
 3544WAT      O15980   9.383   4.491   0.360 -0.9251  0.4706 -0.1258
 3544WAT     H115981   9.334   4.549   0.302  0.3354 -0.9783 -2.8153
 3544WAT     H215982   9.415   4.421   0.303  3.2736  0.6910  1.6090
 3544WAT    EPW15983   9.381   4.489   0.345 -0.2050  0.3085 -0.2517
 3545WAT      O15984   8.026   8.683   1.995  0.4853  0.3519 -0.3763
 3545WAT     H115985   7.958   8.730   2.044  2.3920 -0.3958  3.4149
 3545WAT     H215986   7.998   8.687   1.904 -3.9468  1.0973  0.8008
 3545WAT    EPW15987   8.013   8.690   1.990  0.1526  0.3519  0.2788
 3546WAT      O15988   1.030   9.765   5.880 -0.3100 -0.0250  1.0784
 3546WAT     H115989   1.098   9.744   5.815 -0.8978  3.8008 -1.0632
 3546WAT     H215990   1.063   9.842   5.926 -2.8993  1.7094  0.2602
 3546WAT    EPW15991   1.043   9.772   5.877 -0.7291  0.7086  0.6881
 3547WAT      O15992   4.486   8.675   6.465 -0.2623  0.7001 -0.1116
 3547WAT     H115993   4.527   8.726   6.534  0.1580 -0.1361  0.2759
 3547WAT     H215994   4.560   8.634   6.418 -0.5891  0.2874 -0.2789
 3547WAT    EPW15995   4.501   8.676   6.468 -0.2499  0.5350 -0.0825
 3548WAT      O15996   5.171   4.847   1.861 -0.2694 -0.4181  0.3100
 3548WAT     H115997   5.194   4.807   1.777  0.4048 -0.3484  0.4537
 3548WAT     H215998   5.227   4.925   1.866  0.4749 -0.9880  1.2852
 3548WAT    EPW15999   5.182   4.852   1.851 -0.0825 -0.4842  0.4576
 3549WAT      O16000   7.003   4.450   0.928 -0.6645  0.2542  1.2200
 3549WAT     H116001   6.949   4.464   0.851  2.7333 -1.0777 -1.7146
 3549WAT     H216002   6.994   4.356   0.948  0.9612 -0.1746  0.1873
 3549WAT    EPW16003   6.995   4.439   0.920 -0.0019  0.0217  0.6967
 3550WAT      O16004   5.379   7.148   1.698  0.3433 -0.7471 -0.1081
 3550WAT     H116005   5.313   7.136   1.766 -2.6976  2.3554 -2.1578
 3550WAT     H216006   5.415   7.235   1.714  1.5161 -1.0394 -0.9825
 3550WAT    EPW16007   5.375   7.158   1.709  0.0968 -0.3765 -0.4938
 3551WAT      O16008   6.581   1.699   7.901  0.0874 -0.7654  0.3277
 3551WAT     H116009   6.652   1.760   7.918  2.2647 -2.8612 -0.6040
 3551WAT     H216010   6.603   1.622   7.953 -1.6950 -1.3830  0.2285
 3551WAT    EPW16011   6.593   1.697   7.910  0.1397 -1.1232  0.1917
 3552WAT      O16012   6.422   2.882   3.920  0.5273 -0.6625 -0.8260
 3552WAT     H116013   6.442   2.964   3.876 -0.6845  0.0234 -0.1342
 3552WAT     H216014   6.331   2.891   3.949  0.7716 -1.7457  0.3671
 3552WAT    EPW16015   6.412   2.894   3.918  0.3998 -0.7149 -0.5774
 3553WAT      O16016   1.691   9.391   8.247  0.2316 -0.0305  0.1296
 3553WAT     H116017   1.720   9.482   8.246  1.1140 -0.3054 -0.3758
 3553WAT     H216018   1.690   9.367   8.340 -1.8583  1.0400  0.4427
 3553WAT    EPW16019   1.695   9.400   8.260  0.0723  0.0739  0.1044
 3554WAT      O16020   6.854   5.369   0.786  0.0007 -0.1535  0.6124
 3554WAT     H116021   6.878   5.390   0.696  1.5284 -1.4953  0.6594
 3554WAT     H216022   6.763   5.396   0.794 -0.3259 -0.5139 -1.4908
 3554WAT    EPW16023   6.845   5.376   0.775  0.1590 -0.3779  0.3411
 3555WAT      O16024   4.945   0.969   8.246 -0.0076  0.5353  0.4759
 3555WAT     H116025   4.884   0.895   8.248  0.1711  0.4128  1.9448
 3555WAT     H216026   4.997   0.960   8.325  2.1781  0.4591 -0.8863
 3555WAT    EPW16027   4.944   0.958   8.256  0.3042  0.5091  0.4902
 3556WAT      O16028   5.251   1.288   4.211  0.2746  0.1634 -0.1704
 3556WAT     H116029   5.274   1.310   4.121 -1.5373  1.5552 -0.3432
 3556WAT     H216030   5.263   1.193   4.216  1.5306  0.2223 -1.5215
 3556WAT    EPW16031   5.255   1.278   4.200  0.2015  0.3548 -0.3715
 3557WAT      O16032   2.622   0.081   6.814  0.3550  0.2308  0.2773
 3557WAT     H116033   2.684   0.071   6.742 -0.8508 -0.8155 -0.6652
 3557WAT     H216034   2.668   0.047   6.890 -0.2811 -4.4851 -1.1111
 3557WAT    EPW16035   2.636   0.075   6.814  0.1121 -0.5292 -0.0303
 3558WAT      O16036   4.228   9.319   8.292 -0.0714  0.0160 -0.3055
 3558WAT     H116037   4.275   9.305   8.374 -0.6887 -0.4190 -0.0119
 3558WAT     H216038   4.257   9.246   8.236 -1.0218 -0.7641  0.1780
 3558WAT    EPW16039   4.238   9.307   8.295 -0.2782 -0.1445 -0.2031
 3559WAT      O16040   4.386   3.594   6.935  0.7252 -0.4985 -0.2968
 3559WAT     H116041   4.382   3.557   6.846 -1.4069 -1.5751  0.1616
 3559WAT     H216042   4.347   3.526   6.990 -0.9266  1.3775  0.9916
 3559WAT    EPW16043   4.380   3.580   6.930  0.2263 -0.3930 -0.0665
 3560WAT      O16044   5.475   0.653   7.293 -0.4348 -0.5322 -0.2333
 3560WAT     H116045   5.401   0.675   7.350  0.2024 -0.2040  0.4761
 3560WAT     H216046   5.529   0.732   7.292  1.1337 -1.5216  1.1614
 3560WAT    EPW16047   5.472   0.666   7.300 -0.1438 -0.6194  0.0439
 3561WAT      O16048   6.248   0.060   8.155 -0.3447 -0.5457  0.2612
 3561WAT     H116049   6.211   0.145   8.181  0.2265  0.1856 -1.1647
 3561WAT     H216050   6.312   0.083   8.087  1.1805 -1.9556  1.1605
 3561WAT    EPW16051   6.252   0.074   8.149 -0.0682 -0.6352  0.1917
 3562WAT      O16052   1.705   9.563   5.651  0.4171 -0.2428 -0.4086
 3562WAT     H116053   1.777   9.504   5.629  0.4155 -0.2368 -0.4306
 3562WAT     H216054   1.626   9.515   5.625  0.4323 -0.0977 -0.7339
 3562WAT    EPW16055   1.704   9.549   5.645  0.4188 -0.2232 -0.4547
 3563WAT      O16056   1.989   9.708   8.626 -0.3368 -0.0465 -0.4099
 3563WAT     H116057   1.994   9.762   8.548 -2.2266 -0.1130 -0.6048
 3563WAT     H216058   2.076   9.666   8.631  0.4193  1.3155 -1.4357
 3563WAT    EPW16059   2.001   9.709   8.617 -0.4863  0.1240 -0.5703
 3564WAT      O16060   4.993   0.534   4.822 -0.2988  0.2248  0.2832
 3564WAT     H116061   5.017   0.445   4.848 -1.0149  0.7474  2.9954
 3564WAT     H216062   4.908   0.525   4.779  0.5854 -0.5911 -1.3909
 3564WAT    EPW16063   4.985   0.521   4.820 -0.2766  0.1861  0.4201
 3565WAT      O16064   6.221   1.190   8.834  0.5165  0.3207  0.2884
 3565WAT     H116065   6.157   1.255   8.862  0.3632  0.0973  0.4565
 3565WAT     H216066   6.303   1.217   8.877  0.3605  0.1718  0.6836
 3565WAT    EPW16067   6.223   1.203   8.843  0.4756  0.2717  0.3629
 3566WAT      O16068   4.077   3.253   8.902  0.6112  0.2248  0.3585
 3566WAT     H116069   4.139   3.180   8.892  0.5977  0.1144  1.0222
 3566WAT     H216070   4.024   3.251   8.823  0.9470 -0.1724  0.1400
 3566WAT    EPW16071   4.079   3.243   8.891  0.6535  0.1578  0.4172
 3567WAT      O16072   7.610  10.037   4.949 -0.4916 -0.6476  0.9471
 3567WAT     H116073   7.669  10.043   4.874  0.9715 -0.9367  2.0486
 3567WAT     H216074   7.541   9.976   4.920  0.7987 -1.8647  0.3124
 3567WAT    EPW16075   7.608  10.030   4.935 -0.1283 -0.8469  1.0083
 3568WAT      O16076   3.524   1.367   6.167 -0.2271  0.3034 -0.2819
 3568WAT     H116077   3.587   1.376   6.238  0.6977  0.1909 -1.0638
 3568WAT     H216078   3.466   1.296   6.195  1.2426 -1.0073 -0.4325
 3568WAT    EPW16079   3.525   1.359   6.180  0.0886  0.1157 -0.4046
 3569WAT      O16080   3.699   0.483   4.643  0.4387  0.0195 -0.1039
 3569WAT     H116081   3.701   0.495   4.548  0.2524  0.7145 -0.0238
 3569WAT     H216082   3.766   0.416   4.660  1.3316  0.7715 -0.5957
 3569WAT    EPW16083   3.708   0.475   4.632  0.5318  0.2104 -0.1583
 3570WAT      O16084   5.139   1.799   8.965 -0.1148  0.4940 -0.1210
 3570WAT     H116085   5.044   1.802   8.972 -0.1219 -1.7652  1.8908
 3570WAT     H216086   5.155   1.763   8.878 -1.1180  0.1836 -0.1925
 3570WAT    EPW16087   5.129   1.795   8.954 -0.2480  0.1550  0.1349
 3571WAT      O16088   1.386   9.908   6.708 -0.2087  0.2903 -0.7672
 3571WAT     H116089   1.355   9.981   6.760  0.7089  0.2235 -0.1136
 3571WAT     H216090   1.480   9.924   6.696  0.2877 -1.3955  0.4668
 3571WAT    EPW16091   1.394   9.920   6.713 -0.0221  0.0596 -0.5183
 3572WAT      O16092   0.347   5.529   3.825 -0.0862 -0.5381 -0.1767
 3572WAT     H116093   0.350   5.436   3.844  0.4333 -0.7936 -1.3899
 3572WAT     H216094   0.424   5.566   3.869  2.0384 -1.3771 -2.9099
 3572WAT    EPW16095   0.358   5.522   3.833  0.2625 -0.6824 -0.6971
 3573WAT      O16096   4.302   2.262   7.916  0.3973  0.0526  0.3467
 3573WAT     H116097   4.213   2.276   7.948  0.1506 -0.5447 -0.0496
 3573WAT     H216098   4.294   2.188   7.855  1.1236  0.1437  0.1300
 3573WAT    EPW16099   4.289   2.254   7.912  0.4606 -0.0141  0.2658
 3574WAT      O16100   4.931   0.321   6.261  0.7238  0.0663  0.2576
 3574WAT     H116101   4.915   0.263   6.186 -3.0434  1.1837 -0.0115
 3574WAT     H216102   5.019   0.355   6.246  2.2505 -3.7629 -0.7074
 3574WAT    EPW16103   4.940   0.318   6.249  0.4280 -0.2913  0.0949
 3575WAT      O16104   4.437  10.324   5.044  0.0796  0.8274 -0.2514
 3575WAT     H116105   4.440  10.247   5.102 -0.7428  0.7755 -0.2691
 3575WAT     H216106   4.529  10.343   5.025  0.3069  0.0549  0.0303
 3575WAT    EPW16107   4.449  10.316   5.049  0.0010  0.7186 -0.2167
 3576WAT      O16108   5.130   2.120   6.906  0.1692 -0.0097  0.0003
 3576WAT     H116109   5.062   2.156   6.849  0.3513 -0.7051 -0.6674
 3576WAT     H216110   5.210   2.167   6.881  0.0300  0.5165  0.5050
 3576WAT    EPW16111   5.132   2.131   6.895  0.1750 -0.0319 -0.0215
 3577WAT      O16112   7.242   2.624   6.043  0.0291  0.2514  0.1172
 3577WAT     H116113   7.232   2.712   6.079 -0.9766 -0.4422  1.6474
 3577WAT     H216114   7.152   2.590   6.039  0.4124 -0.7279 -0.3557
 3577WAT    EPW16115   7.229   2.631   6.047 -0.0532  0.0308  0.2568
 3578WAT      O16116   2.947  10.100   6.215 -0.2536  0.0719  0.0096
 3578WAT     H116117   2.972  10.146   6.295  1.2045 -0.2157 -0.2531
 3578WAT     H216118   2.855  10.077   6.229  0.5894 -2.4324  2.8789
 3578WAT    EPW16119   2.938  10.103   6.228  0.0499 -0.2956  0.3533
 3579WAT      O16120   2.815   0.057   7.637  0.5976  0.3040 -0.8715
 3579WAT     H116121   2.884   0.123   7.641  0.3659  0.5087  2.2318
 3579WAT     H216122   2.753   0.090   7.572  2.6961  0.8119 -2.6993
 3579WAT    EPW16123   2.816   0.070   7.629  0.8438  0.3980 -0.7031
 3580WAT      O16124  10.395   8.045   0.089 -0.7927  0.5190  0.2956
 3580WAT     H116125  10.396   8.089   0.174  0.2370  0.1278  0.5018
 3580WAT     H216126  10.337   7.970   0.102 -1.0061  0.7231  0.5222
 3580WAT    EPW16127  10.388   8.041   0.102 -0.6852  0.4945  0.3527
 3581WAT      O16128   5.620   0.213   8.657  0.6219  0.3587  0.2082
 3581WAT     H116129   5.699   0.263   8.637  2.1753 -2.3242 -0.7894
 3581WAT     H216130   5.615   0.214   8.753  2.2614  0.0194  0.3231
 3581WAT    EPW16131   5.630   0.220   8.667  1.0431 -0.0400  0.0920
 3582WAT      O16132   8.315   4.357   7.101 -0.1642  0.2184  0.1107
 3582WAT     H116133   8.394   4.388   7.145 -0.4064  3.2539 -1.3775
 3582WAT     H216134   8.333   4.368   7.008 -2.5142  1.5272 -0.2490
 3582WAT    EPW16135   8.328   4.362   7.094 -0.5064  0.7913 -0.1330
 3583WAT      O16136   9.997   6.160   1.689  0.4053  0.3811 -0.1970
 3583WAT     H116137  10.032   6.156   1.778  1.1811  6.2134  0.1776
 3583WAT     H216138  10.069   6.194   1.636 -1.4463  2.1394 -1.7845
 3583WAT    EPW16139  10.011   6.164   1.693  0.2637  1.3821 -0.3569
 3584WAT      O16140  10.906   7.936   7.995 -0.9160 -0.0520 -0.6641
 3584WAT     H116141  10.924   8.029   8.007 -0.6777  0.1647 -2.4008
 3584WAT     H216142  10.816   7.924   8.025 -1.2717  0.9386 -1.3095
 3584WAT    EPW16143  10.896   7.947   8.001 -0.9313  0.1073 -0.9785
 3585WAT      O16144   5.649   8.882   8.458 -0.0458  0.2361  0.3652
 3585WAT     H116145   5.689   8.859   8.374 -1.4812  0.6277 -0.4682
 3585WAT     H216146   5.720   8.919   8.510  0.8817 -0.0601 -0.6612
 3585WAT    EPW16147   5.663   8.884   8.454 -0.1130  0.2489  0.1197
 3586WAT      O16148   6.599   0.843   7.150  1.3260  1.3397  0.7856
 3586WAT     H116149   6.560   0.811   7.231  1.6965  1.0334  0.8456
 3586WAT     H216150   6.667   0.904   7.178  0.2552  2.6392  0.6617
 3586WAT    EPW16151   6.603   0.847   7.164  1.2338  1.4707  0.7770
 3587WAT      O16152   6.740   5.306   1.325 -0.1005 -0.8500  0.4995
 3587WAT     H116153   6.705   5.222   1.295 -1.3260  0.1678 -1.1392
 3587WAT     H216154   6.672   5.369   1.301  1.4005  0.7822  0.3976
 3587WAT    EPW16155   6.726   5.303   1.318 -0.0644 -0.5004  0.2699
 3588WAT      O16156   5.735   0.622   4.553 -0.0050 -0.2762 -0.5229
 3588WAT     H116157   5.671   0.552   4.542 -0.3289  0.1029 -1.1076
 3588WAT     H216158   5.770   0.609   4.641 -1.0584 -0.3494 -0.0990
 3588WAT    EPW16159   5.731   0.611   4.563 -0.1864 -0.2358 -0.5441
 3589WAT      O16160   2.320   0.098   5.797  0.4356  0.2003 -0.0456
 3589WAT     H116161   2.282   0.124   5.881  2.2557 -1.8017  1.5121
 3589WAT     H216162   2.412   0.126   5.803  0.7475 -0.5336 -1.0989
 3589WAT    EPW16163   2.327   0.105   5.809  0.7169 -0.1606  0.0207
 3590WAT      O16164   0.326  10.034   6.913 -0.4531 -0.3671  0.1278
 3590WAT     H116165   0.236  10.049   6.942 -0.8620 -1.1248 -0.7038
 3590WAT     H216166   0.334   9.939   6.908  0.6313 -0.3381  0.8804
 3590WAT    EPW16167   0.315  10.023   6.916 -0.3640 -0.4630  0.1175
 3591WAT      O16168   4.779   0.925   4.536 -0.1899 -0.2561  0.1406
 3591WAT     H116169   4.700   0.956   4.580  1.3664 -1.0140  3.7994
 3591WAT     H216170   4.761   0.833   4.516 -0.9196  0.1028 -0.9702
 3591WAT    EPW16171   4.766   0.917   4.539 -0.0808 -0.3087  0.4768
 3592WAT      O16172   0.448   7.539   0.845  0.0328  0.3558 -0.5714
 3592WAT     H116173   0.391   7.472   0.884  0.8096  0.7800  1.3835
 3592WAT     H216174   0.390   7.588   0.786 -1.0895 -0.5832 -0.2868
 3592WAT    EPW16175   0.433   7.536   0.842 -0.0128  0.2880 -0.2760
 3593WAT      O16176   8.066   1.099   4.805  0.1590 -0.3151  0.3570
 3593WAT     H116177   8.002   1.118   4.736  0.4032  1.7386  0.6279
 3593WAT     H216178   8.129   1.041   4.763 -0.2012  0.1386 -0.8691
 3593WAT    EPW16179   8.066   1.094   4.791  0.1435  0.0156  0.2313
 3594WAT      O16180   8.069   0.119   8.267 -0.4154 -0.2628 -0.4403
 3594WAT     H116181   8.012   0.180   8.313  0.8171 -0.5472  1.6279
 3594WAT     H216182   8.115   0.173   8.203  0.2338  0.9126  0.9542
 3594WAT    EPW16183   8.068   0.134   8.265 -0.1678 -0.1453  0.0167
 3595WAT      O16184   1.082  10.283   7.829 -0.0586 -0.2622  0.3962
 3595WAT     H116185   1.023  10.213   7.857 -1.2163  0.7269  0.5156
 3595WAT     H216186   1.024  10.353   7.799  0.7728  2.4533  4.3153
 3595WAT    EPW16187   1.067  10.283   7.829 -0.1017  0.2265  0.9291
 3596WAT      O16188   0.174   8.187   7.683  0.2625 -0.4081 -0.3232
 3596WAT     H116189   0.255   8.137   7.669  0.5365  0.5288 -2.3870
 3596WAT     H216190   0.115   8.156   7.615 -1.1500 -1.0572  1.1493
 3596WAT    EPW16191   0.177   8.176   7.672  0.1123 -0.3700 -0.4013
 3597WAT      O16192   1.298   5.652   0.319  0.5681 -0.1905 -0.7547
 3597WAT     H116193   1.219   5.707   0.319  0.5587 -0.1623 -2.2825
 3597WAT     H216194   1.264   5.563   0.318  0.5549 -0.1860 -0.6488
 3597WAT    EPW16195   1.283   5.648   0.319  0.5651 -0.1862 -0.9422
 3598WAT      O16196   4.029   1.666   6.771  0.0129 -0.6784  0.5884
 3598WAT     H116197   4.100   1.646   6.832 -0.6527 -1.2861  1.1679
 3598WAT     H216198   4.026   1.762   6.769  0.1249 -0.6537  1.3975
 3598WAT    EPW16199   4.038   1.676   6.779 -0.0598 -0.7553  0.7715
 3599WAT      O16200   4.517   0.317   8.037  0.1114  0.6392 -0.2037
 3599WAT     H116201   4.568   0.366   7.973 -2.1096  1.9730 -1.0760
 3599WAT     H216202   4.521   0.226   8.006  0.4279  1.0158 -1.3181
 3599WAT    EPW16203   4.524   0.311   8.024 -0.1397  0.8647 -0.4654
 3600WAT      O16204   2.649   2.266   7.083 -0.5672  0.2264 -0.2519
 3600WAT     H116205   2.690   2.228   7.005 -0.9289 -0.0200 -0.3230
 3600WAT     H216206   2.565   2.300   7.052  0.9957  4.0008 -0.9376
 3600WAT    EPW16207   2.643   2.266   7.068 -0.4086  0.6918 -0.3514
 3601WAT      O16208   7.978   5.057   0.452  0.3234 -0.1166  0.1805
 3601WAT     H116209   7.993   4.981   0.396 -1.5725  0.0710 -0.6378
 3601WAT     H216210   8.023   5.129   0.407  1.3888 -0.5456  0.5176
 3601WAT    EPW16211   7.986   5.057   0.439  0.2141 -0.1483  0.1171
 3602WAT      O16212   8.060   2.545   8.924 -0.9836  0.5882 -0.6687
 3602WAT     H116213   8.020   2.467   8.964  0.1383 -1.3664 -3.0847
 3602WAT     H216214   8.154   2.533   8.936 -0.7642  1.2214 -1.6088
 3602WAT    EPW16215   8.067   2.533   8.931 -0.8067  0.4139 -1.1113
 3603WAT      O16216   4.219   2.681   5.103  0.2088  0.3425 -1.2157
 3603WAT     H116217   4.281   2.627   5.152  0.3908  1.6978  0.1267
 3603WAT     H216218   4.227   2.768   5.142 -1.6918  0.8265 -1.7961
 3603WAT    EPW16219   4.228   2.685   5.115 -0.0179  0.5851 -1.1153
 3604WAT      O16220   3.182   7.990   5.203  0.4540  0.3549 -0.4582
 3604WAT     H116221   3.194   8.002   5.298 -2.3889  0.2529 -0.0077
 3604WAT     H216222   3.252   8.042   5.164  3.4111 -1.7057  1.6477
 3604WAT    EPW16223   3.193   7.998   5.211  0.4690  0.0694 -0.1209
 3605WAT      O16224   1.573   9.774   7.735 -0.3885  0.6880  0.3178
 3605WAT     H116225   1.586   9.740   7.646 -0.7823  0.4773  0.3386
 3605WAT     H216226   1.638   9.729   7.788 -0.4179  0.5197  0.2097
 3605WAT    EPW16227   1.584   9.764   7.730 -0.4443  0.6380  0.3064
 3606WAT      O16228   1.009   8.428   7.434  0.2615  0.9232 -0.0345
 3606WAT     H116229   0.995   8.487   7.508 -1.1998  0.9384 -0.2984
 3606WAT     H216230   1.102   8.404   7.439  0.3473  1.4966  1.3651
 3606WAT    EPW16231   1.019   8.433   7.444  0.0800  1.0009  0.1152
 3607WAT      O16232   9.886   3.404   0.253  0.3171 -0.0846 -0.3101
 3607WAT     H116233   9.916   3.407   0.344  0.9005 -0.4025 -0.4855
 3607WAT     H216234   9.818   3.337   0.253  0.5092 -0.2813 -0.1638
 3607WAT    EPW16235   9.881   3.395   0.265  0.4191 -0.1525 -0.3140
 3608WAT      O16236   5.654   0.717   8.203 -0.3883  0.4540 -0.1671
 3608WAT     H116237   5.737   0.692   8.163 -0.5470  2.1886 -1.7040
 3608WAT     H216238   5.587   0.689   8.141 -1.0698 -1.4803  1.3365
 3608WAT    EPW16239   5.656   0.710   8.190 -0.4990  0.4277 -0.1717
 3609WAT      O16240   1.331   9.491   8.143  0.5541  0.5842 -0.0383
 3609WAT     H116241   1.340   9.491   8.048 -0.5128  0.7261 -0.1519
 3609WAT     H216242   1.279   9.413   8.162  0.7868  0.5388  0.4334
 3609WAT    EPW16243   1.326   9.481   8.133  0.4441  0.5970  0.0081
 3610WAT      O16244   0.249   9.239   4.897  0.1680 -0.0725 -0.4346
 3610WAT     H116245   0.185   9.207   4.960 -0.1293  0.1793 -0.6092
 3610WAT     H216246   0.327   9.186   4.913 -0.1035 -0.4222 -0.2669
 3610WAT    EPW16247   0.251   9.228   4.907  0.0930 -0.0854 -0.4354
 3611WAT      O16248   2.884  10.269   8.866  0.3767  0.4871 -0.4723
 3611WAT     H116249   2.909  10.232   8.781  0.5433  0.5901 -0.4691
 3611WAT     H216250   2.837  10.349   8.844 -2.4107 -1.0553 -0.5934
 3611WAT    EPW16251   2.881  10.274   8.852  0.0311  0.2971 -0.4873
 3612WAT      O16252   7.941   8.991   0.855  0.2173 -0.4546  0.4714
 3612WAT     H116253   7.874   9.056   0.832 -0.9171 -1.7163  0.1217
 3612WAT     H216254   8.010   9.005   0.790  0.2717  0.7792  0.7597
 3612WAT    EPW16255   7.942   9.002   0.843  0.0749 -0.4582  0.4633
 3613WAT      O16256   1.156   8.392   4.876 -0.6366 -0.1322 -0.7816
 3613WAT     H116257   1.116   8.450   4.941 -1.1441  0.8143 -1.9102
 3613WAT     H216258   1.087   8.329   4.853 -0.9773  0.5061 -1.5436
 3613WAT    EPW16259   1.142   8.391   4.882 -0.7485  0.0768 -1.0312
 3614WAT      O16260   9.747   6.970   5.885 -0.7005 -0.1860  0.3826
 3614WAT     H116261   9.778   6.895   5.935  0.0448  0.3968  0.8115
 3614WAT     H216262   9.698   7.022   5.949 -1.8584 -0.6644 -0.0868
 3614WAT    EPW16263   9.745   6.967   5.900 -0.7553 -0.1724  0.3769
 3615WAT      O16264   7.565   0.622   4.085 -0.6339 -0.9512  0.0587
 3615WAT     H116265   7.651   0.582   4.097 -1.4525 -2.5334  0.8539
 3615WAT     H216266   7.584   0.708   4.047  1.1410 -2.5924 -3.2478
 3615WAT    EPW16267   7.579   0.628   4.082 -0.5076 -1.3764 -0.2725
 3616WAT      O16268   3.125   2.910   6.998  0.1044 -0.4445 -0.4582
 3616WAT     H116269   3.073   2.980   6.959  2.3624  1.1724 -0.7793
 3616WAT     H216270   3.149   2.854   6.925  1.3563  0.5768 -0.8669
 3616WAT    EPW16271   3.122   2.912   6.983  0.5673 -0.0966 -0.5543
 3617WAT      O16272   2.145  10.055   5.303 -0.0679 -0.3723 -0.6247
 3617WAT     H116273   2.195   9.985   5.260 -0.5439 -0.8529 -0.4145
 3617WAT     H216274   2.110  10.107   5.231 -0.6389 -1.0148 -0.8263
 3617WAT    EPW16275   2.147  10.052   5.288 -0.2061 -0.5202 -0.6232
 3618WAT      O16276   6.648   3.121   8.274 -0.0529  0.4231  0.1753
 3618WAT     H116277   6.703   3.053   8.235  0.1256  1.0883 -0.7655
 3618WAT     H216278   6.710   3.178   8.319 -0.1198  0.4075  0.2866
 3618WAT    EPW16279   6.664   3.119   8.275 -0.0379  0.5088  0.0658
 3619WAT      O16280   3.229   0.266   6.852 -0.3766  0.1633 -0.6143
 3619WAT     H116281   3.213   0.357   6.830 -0.0699  0.4904  0.4290
 3619WAT     H216282   3.159   0.217   6.809 -0.9590  0.9673 -0.5889
 3619WAT    EPW16283   3.218   0.271   6.844 -0.4129  0.3125 -0.4735
 3620WAT      O16284   2.715   1.571   7.198 -0.4035  0.0006  0.4410
 3620WAT     H116285   2.741   1.648   7.248 -1.7894  0.6483  0.2253
 3620WAT     H216286   2.630   1.595   7.160  0.0144 -0.9269 -1.1908
 3620WAT    EPW16287   2.707   1.584   7.199 -0.5311 -0.0363  0.1974
 3621WAT      O16288   4.703   0.431   8.230 -0.6290  0.5827  1.0726
 3621WAT     H116289   4.640   0.371   8.191  0.0326  1.0190 -0.7433
 3621WAT     H216290   4.742   0.381   8.302 -0.9878 -0.6990  0.4078
 3621WAT    EPW16291   4.700   0.417   8.235 -0.5891  0.4712  0.7453
 3622WAT      O16292   7.442   0.359   5.586  0.1778 -0.3324 -0.0375
 3622WAT     H116293   7.457   0.302   5.511 -1.3322  0.2089 -0.8057
 3622WAT     H216294   7.424   0.445   5.547  2.2117  0.6829  1.0801
 3622WAT    EPW16295   7.442   0.363   5.571  0.2470 -0.1271  0.0086
 3623WAT      O16296   8.311   1.765   3.191  0.2668  0.1669  0.1675
 3623WAT     H116297   8.350   1.693   3.241  0.7556 -0.4524 -1.0556
 3623WAT     H216298   8.224   1.776   3.229 -0.3877 -2.0440 -0.4990
 3623WAT    EPW16299   8.305   1.757   3.203  0.2451 -0.2064 -0.0818
 3624WAT      O16300   6.079   1.416   6.928  0.7859  0.0817 -1.5139
 3624WAT     H116301   6.109   1.383   6.843 -2.3186 -1.2956 -2.2343
 3624WAT     H216302   6.079   1.340   6.985  0.5969  0.4766 -0.9793
 3624WAT    EPW16303   6.083   1.402   6.924  0.3514 -0.0479 -1.5385
 3625WAT      O16304   6.364   2.455   6.570 -0.1045 -0.3076 -0.4037
 3625WAT     H116305   6.269   2.451   6.574 -0.1134  0.7018  2.6821
 3625WAT     H216306   6.393   2.369   6.600 -0.0995  0.1773  1.0536
 3625WAT    EPW16307   6.355   2.443   6.574 -0.1051 -0.1105  0.1955
 3626WAT      O16308   6.070   0.015   6.987  0.3189  0.4479 -0.6797
 3626WAT     H116309   6.032   0.103   6.981 -1.5316 -0.3077 -0.5202
 3626WAT     H216310   6.007  -0.041   6.943  0.3971 -1.1227  1.0978
 3626WAT    EPW16311   6.057   0.019   6.980  0.0854  0.1411 -0.4239
 3627WAT      O16312  10.243   8.690   4.668 -0.3116  1.0631 -0.3285
 3627WAT     H116313  10.318   8.707   4.725  0.1246 -1.3544 -0.0741
 3627WAT     H216314  10.226   8.596   4.678 -4.0606  1.6344  0.4438
 3627WAT    EPW16315  10.251   8.680   4.677 -0.7491  0.8192 -0.1934
 3628WAT      O16316   0.426   8.312   1.201 -0.9207 -0.3637  0.5075
 3628WAT     H116317   0.491   8.351   1.259 -0.4618 -0.9237  0.3753
 3628WAT     H216318   0.362   8.273   1.260  0.1829 -2.0051  0.6718
 3628WAT    EPW16319   0.426   8.312   1.217 -0.7146 -0.6542  0.5118
 3629WAT      O16320   2.084   6.071   6.575 -0.3518 -0.1994 -0.3757
 3629WAT     H116321   2.028   6.139   6.613  0.8265 -0.2742  1.6495
 3629WAT     H216322   2.089   6.004   6.643 -0.8595 -1.9937 -2.0286
 3629WAT    EPW16323   2.077   6.072   6.589 -0.2633 -0.4461 -0.3264
 3630WAT      O16324  10.941   7.778   6.361 -0.5118 -0.3326 -0.3488
 3630WAT     H116325  11.030   7.805   6.388 -0.4967  0.3321 -1.0354
 3630WAT     H216326  10.902   7.744   6.442 -0.1721  0.8339  0.3383
 3630WAT    EPW16327  10.948   7.777   6.376 -0.4654 -0.0908 -0.3490
 3631WAT      O16328   2.059   9.948   7.477  0.1554  0.1114 -0.1562
 3631WAT     H116329   2.024  10.019   7.529 -0.0096  0.4891 -0.7691
 3631WAT     H216330   2.140   9.923   7.521  0.4498  0.9834 -0.1828
 3631WAT    EPW16331   2.065   9.954   7.489  0.1725  0.2761 -0.2406
 3632WAT      O16332   5.163   0.165   7.119 -0.6666  0.3730 -0.1996
 3632WAT     H116333   5.206   0.140   7.201 -0.3126  1.3098 -0.0935
 3632WAT     H216334   5.196   0.253   7.100 -0.5584  0.0677 -1.4821
 3632WAT    EPW16335   5.173   0.173   7.127 -0.6058  0.4563 -0.3548
 3633WAT      O16336   9.602   1.527   8.575  0.5619  0.1505  0.1895
 3633WAT     H116337   9.606   1.549   8.482  1.0801 -2.0270 -0.3416
 3633WAT     H216338   9.625   1.435   8.580 -0.1157  0.0281  2.4253
 3633WAT    EPW16339   9.605   1.518   8.563  0.5407 -0.1529  0.4144
 3634WAT      O16340   8.815   5.967   1.912  0.2692 -0.2197 -1.0035
 3634WAT     H116341   8.762   6.040   1.881  0.3210  0.6602  0.8543
 3634WAT     H216342   8.896   5.972   1.861  0.2532  0.9903 -0.9250
 3634WAT    EPW16343   8.819   5.977   1.901  0.2742  0.0558 -0.7480
 3635WAT      O16344   9.687   8.217   0.214 -0.0401  0.2731  0.6717
 3635WAT     H116345   9.767   8.230   0.163 -0.1466 -1.0872  0.1316
 3635WAT     H216346   9.618   8.258   0.162  0.2779  1.4317  1.1303
 3635WAT    EPW16347   9.688   8.224   0.201 -0.0124  0.2470  0.6610
 3636WAT      O16348   2.569   7.401   8.883  0.0223  0.0132  0.2935
 3636WAT     H116349   2.545   7.438   8.798  1.0503 -0.4276 -0.2069
 3636WAT     H216350   2.496   7.425   8.941  0.0010  1.6092 -0.3312
 3636WAT    EPW16351   2.556   7.409   8.879  0.1550  0.1657  0.1445
 3637WAT      O16352   1.729   8.254   6.037  0.4077 -0.6353 -0.0694
 3637WAT     H116353   1.810   8.277   5.993  0.1026  0.1996 -0.2133
 3637WAT     H216354   1.746   8.168   6.077  1.4851 -0.2833  0.2377
 3637WAT    EPW16355   1.742   8.245   6.037  0.5096 -0.4792 -0.0477
 3638WAT      O16356   9.989   5.567   0.339 -0.1323  0.2277 -0.6638
 3638WAT     H116357   9.907   5.525   0.313 -0.0412  0.1032 -0.7534
 3638WAT     H216358   9.979   5.658   0.312 -1.0830  0.7322  1.1730
 3638WAT    EPW16359   9.977   5.574   0.332 -0.2456  0.2780 -0.4334
 3639WAT      O16360   9.710   8.563   0.396 -0.3114  0.3368  0.0593
 3639WAT     H116361   9.686   8.607   0.478 -1.0193 -3.1304  1.9511
 3639WAT     H216362   9.626   8.548   0.352 -0.2945 -0.4926  0.2828
 3639WAT    EPW16363   9.695   8.566   0.401 -0.4029 -0.2298  0.3383
 3640WAT      O16364   3.505   0.774   5.830  0.6332  0.7092 -0.0878
 3640WAT     H116365   3.588   0.819   5.814 -0.0953  1.6858 -1.2980
 3640WAT     H216366   3.468   0.759   5.743 -0.2772 -0.0623  0.4143
 3640WAT    EPW16367   3.511   0.778   5.817  0.4170  0.7363 -0.1812
 3641WAT      O16368   2.139   0.110   8.446  0.3255  0.4576 -0.1766
 3641WAT     H116369   2.201   0.047   8.408  0.1018  0.4146 -0.4802
 3641WAT     H216370   2.063   0.105   8.388  0.2404  0.8838 -0.0995
 3641WAT    EPW16371   2.138   0.101   8.433  0.2847  0.5081 -0.2065
 3642WAT      O16372   4.506   1.756   7.619  0.1775  0.3110  0.0713
 3642WAT     H116373   4.574   1.707   7.573 -0.7425 -1.1457  0.1861
 3642WAT     H216374   4.448   1.788   7.550 -0.4722 -0.7405  0.1117
 3642WAT    EPW16375   4.507   1.754   7.604 -0.0296 -0.0198  0.0916
 3643WAT      O16376   8.346   5.718   0.830 -0.1076 -0.1289 -0.4367
 3643WAT     H116377   8.391   5.635   0.845  3.1587  1.5518 -0.1770
 3643WAT     H216378   8.401   5.765   0.768 -1.2599  2.3011  0.2634
 3643WAT    EPW16379   8.359   5.713   0.824  0.1712  0.4132 -0.3102
 3644WAT      O16380   5.696   0.232   6.447 -0.4320  0.4475  0.5989
 3644WAT     H116381   5.704   0.252   6.354 -1.1617  0.6372  0.5718
 3644WAT     H216382   5.760   0.163   6.462 -1.6834 -0.9928 -0.4760
 3644WAT    EPW16383   5.706   0.226   6.437 -0.6936  0.2826  0.4535
 3645WAT      O16384   8.346   8.923   1.293 -0.9452  0.0311  0.2075
 3645WAT     H116385   8.407   8.976   1.343 -0.2340  0.1908 -0.8046
 3645WAT     H216386   8.397   8.846   1.267 -0.8543  0.6440 -1.5066
 3645WAT    EPW16387   8.361   8.920   1.296 -0.8397  0.1330 -0.1521
 3646WAT      O16388   6.045   8.072   1.917 -0.1936  0.0088 -0.2752
 3646WAT     H116389   6.033   8.112   2.003  1.6949 -2.5578  1.2869
 3646WAT     H216390   5.960   8.034   1.896 -0.4777  0.0485  0.7754
 3646WAT    EPW16391   6.032   8.072   1.926  0.0181 -0.3242  0.0693
 3647WAT      O16392   7.746   1.327   7.089  0.3625 -0.0025  0.2921
 3647WAT     H116393   7.678   1.363   7.032 -0.5805 -0.9160  0.8058
 3647WAT     H216394   7.827   1.369   7.059  0.2889 -1.9041 -3.1423
 3647WAT    EPW16395   7.748   1.337   7.078  0.2284 -0.3738 -0.0932
 3648WAT      O16396   7.312   1.113   5.000 -0.5725  0.2094  0.0320
 3648WAT     H116397   7.314   1.207   4.984  1.4270 -0.0157 -1.4715
 3648WAT     H216398   7.360   1.075   4.926 -2.2074 -2.0908  0.0333
 3648WAT    EPW16399   7.319   1.120   4.988 -0.5243 -0.1237 -0.1659
 3649WAT      O16400   6.295   2.032   8.058 -0.0480 -0.5199 -0.2605
 3649WAT     H116401   6.261   2.092   8.124  0.3795  1.2968 -1.6068
 3649WAT     H216402   6.233   1.959   8.058 -0.0310 -0.6010  2.1328
 3649WAT    EPW16403   6.282   2.030   8.066  0.0105 -0.2910 -0.1221
 3650WAT      O16404   7.911   5.952   0.424  0.0590  0.7026  0.2765
 3650WAT     H116405   7.850   6.024   0.407  1.6552  1.9472 -0.5007
 3650WAT     H216406   7.864   5.894   0.483 -1.5738  2.0011  0.3301
 3650WAT    EPW16407   7.897   5.954   0.429  0.0541  1.0381  0.1811
 3651WAT      O16408   0.294   7.784   7.783 -0.2614  0.2643  0.0310
 3651WAT     H116409   0.221   7.797   7.723  0.1281  1.1330 -0.2641
 3651WAT     H216410   0.253   7.748   7.862 -0.9108  0.0950 -0.3734
 3651WAT    EPW16411   0.279   7.781   7.786 -0.2957  0.3562 -0.0613
 3652WAT      O16412   3.815   2.983   7.831  0.0032 -0.3833  0.1581
 3652WAT     H116413   3.902   2.961   7.797  0.2110  0.8814 -0.2027
 3652WAT     H216414   3.780   3.045   7.767 -0.3314  0.6757  1.3320
 3652WAT    EPW16415   3.822   2.988   7.818 -0.0135 -0.0769  0.2656
 3653WAT      O16416   4.584   8.804   7.384  0.5263  0.1693  0.1026
 3653WAT     H116417   4.582   8.709   7.395 -0.2431 -0.2891 -3.0403
 3653WAT     H216418   4.676   8.828   7.395  1.5265 -1.6548 -3.0811
 3653WAT    EPW16419   4.595   8.795   7.387  0.5569 -0.1321 -0.7319
 3654WAT      O16420   2.766   9.304   6.008 -0.0454 -0.0191 -0.0589
 3654WAT     H116421   2.795   9.282   6.096 -1.5484  0.3183  0.5403
 3654WAT     H216422   2.728   9.391   6.015  0.5239  0.3502 -1.2170
 3654WAT    EPW16423   2.765   9.312   6.020 -0.1687  0.0744 -0.1328
 3655WAT      O16424   8.775   1.493   5.128  1.4894  0.0696 -0.3526
 3655WAT     H116425   8.845   1.433   5.100  2.5072  1.9571 -2.1170
 3655WAT     H216426   8.718   1.499   5.051  1.3501  1.2550 -0.1675
 3655WAT    EPW16427   8.777   1.486   5.114  1.6046  0.4749 -0.5610
 3656WAT      O16428   5.297   0.199   4.113  0.5467 -0.2368 -0.7135
 3656WAT     H116429   5.372   0.156   4.153 -0.9322 -1.8958  0.4277
 3656WAT     H216430   5.313   0.293   4.124  0.8275 -0.5869  2.7126
 3656WAT    EPW16431   5.309   0.206   4.120  0.3886 -0.5018 -0.1111
 3657WAT      O16432   0.727   9.287   8.614 -0.6658  0.2552  0.5995
 3657WAT     H116433   0.662   9.217   8.614 -0.5150  0.1139  1.0266
 3657WAT     H216434   0.721   9.325   8.526 -1.0224 -0.0354  0.4958
 3657WAT    EPW16435   0.717   9.283   8.602 -0.6929  0.1979  0.6418
 3658WAT      O16436   2.585  10.304   5.873  0.2045  0.4446  0.6503
 3658WAT     H116437   2.558  10.321   5.783  0.7546  1.4020  0.6543
 3658WAT     H216438   2.505  10.272   5.916  0.1020 -0.6840 -0.3286
 3658WAT    EPW16439   2.571  10.302   5.867  0.2635  0.4220  0.5217
 3659WAT      O16440   7.363   1.839   7.702 -0.1411 -0.1285  0.6599
 3659WAT     H116441   7.276   1.801   7.697 -0.1381 -0.3657  2.1362
 3659WAT     H216442   7.393   1.821   7.791  1.3156  0.1684  0.2614
 3659WAT    EPW16443   7.356   1.832   7.713  0.0510 -0.1206  0.8020
 3660WAT      O16444   0.277  10.227   6.097  0.4724  0.4359  0.2495
 3660WAT     H116445   0.310  10.314   6.120  0.8030  0.5959 -0.7571
 3660WAT     H216446   0.222  10.242   6.020  0.1736 -0.1916  0.3375
 3660WAT    EPW16447   0.274  10.241   6.090  0.4766  0.3743  0.1283
 3661WAT      O16448   8.309   1.262   6.410 -0.3416  0.3318 -0.3894
 3661WAT     H116449   8.291   1.224   6.496  0.3054  1.3221  0.2009
 3661WAT     H216450   8.403   1.277   6.409 -0.6350  2.6207 -0.2603
 3661WAT    EPW16451   8.319   1.259   6.421 -0.2952  0.7643 -0.2944
 3662WAT      O16452   5.979   0.679   6.075  0.3062 -0.4297  0.1292
 3662WAT     H116453   5.931   0.625   6.138 -3.7549  0.4037 -1.9112
 3662WAT     H216454   6.069   0.680   6.108 -1.1152 -1.6133  4.7393
 3662WAT    EPW16455   5.985   0.672   6.087 -0.4165 -0.4759  0.4683
 3663WAT      O16456   4.499   2.207   8.103 -0.0336  0.3476 -0.1075
 3663WAT     H116457   4.515   2.297   8.131 -0.2834  1.1598 -2.3975
 3663WAT     H216458   4.431   2.215   8.036 -1.1687 -1.7326  0.7030
 3663WAT    EPW16459   4.492   2.220   8.098 -0.2165  0.1802 -0.3028
 3664WAT      O16460   8.179   8.494   0.867 -0.0620 -0.7573  0.2813
 3664WAT     H116461   8.215   8.562   0.924 -0.3726 -1.0164  0.7965
 3664WAT     H216462   8.168   8.537   0.782 -1.1086  0.0986  0.8313
 3664WAT    EPW16463   8.183   8.509   0.863 -0.2408 -0.6785  0.4218
 3665WAT      O16464   1.671   2.987   6.806  0.4179 -0.5450 -0.0670
 3665WAT     H116465   1.646   3.054   6.742 -0.6201 -1.9050 -1.1289
 3665WAT     H216466   1.764   3.004   6.822  0.1328  1.2958 -0.0869
 3665WAT    EPW16467   1.680   2.998   6.800  0.2434 -0.4815 -0.2098
 3666WAT      O16468   4.243   0.950   7.812 -0.4867 -0.5719  0.9285
 3666WAT     H116469   4.307   0.995   7.756 -2.3978  1.4200  0.2145
 3666WAT     H216470   4.236   1.007   7.889  0.7401 -2.3403  2.4445
 3666WAT    EPW16471   4.251   0.964   7.815 -0.5772 -0.5424  1.0343
 3667WAT      O16472   3.290   2.271   7.302  0.2502 -0.0091  0.7873
 3667WAT     H116473   3.285   2.182   7.338 -0.3800 -1.2273 -2.0288
 3667WAT     H216474   3.226   2.321   7.352 -2.1583 -2.1219 -0.0024
 3667WAT    EPW16475   3.281   2.266   7.313 -0.1507 -0.4485  0.3116
 3668WAT      O16476   8.596   7.169   6.258  0.4187 -0.7019  0.5074
 3668WAT     H116477   8.571   7.078   6.269  1.1372 -0.6935  2.4462
 3668WAT     H216478   8.690   7.171   6.273  0.5433  0.2555 -0.2598
 3668WAT    EPW16479   8.605   7.157   6.261  0.5293 -0.5748  0.6618
 3669WAT      O16480   5.568   1.559   7.215  0.9340 -0.5665  0.7609
 3669WAT     H116481   5.652   1.515   7.231  0.4839 -1.1342  1.6520
 3669WAT     H216482   5.515   1.536   7.291  0.3454  0.7257  0.7628
 3669WAT    EPW16483   5.572   1.550   7.227  0.7970 -0.4709  0.8786
 3670WAT      O16484   4.321   5.273   0.305  0.7685  0.3919 -0.2994
 3670WAT     H116485   4.259   5.202   0.323  0.1773  0.9045 -0.3178
 3670WAT     H216486   4.278   5.327   0.239  1.4099  0.5215 -0.6186
 3670WAT    EPW16487   4.307   5.270   0.299  0.7753  0.4764 -0.3439
 3671WAT      O16488   1.492   9.824   4.608 -0.7039 -0.0670  0.1337
 3671WAT     H116489   1.563   9.877   4.643 -0.7595  0.0035  0.1411
 3671WAT     H216490   1.465   9.769   4.682 -2.2647  1.5979  0.8835
 3671WAT    EPW16491   1.497   9.823   4.623 -0.9171  0.1621  0.2337
 3672WAT      O16492   7.821   8.514   1.566 -0.5605  0.3999 -0.7184
 3672WAT     H116493   7.860   8.428   1.553  0.6105  0.8020  0.0153
 3672WAT     H216494   7.735   8.496   1.604 -0.1876 -0.4275 -0.2506
 3672WAT    EPW16495   7.814   8.501   1.569 -0.3569  0.3433 -0.5599
 3673WAT      O16496   9.238   4.811   2.354 -0.1237 -0.5601 -0.9201
 3673WAT     H116497   9.156   4.762   2.353 -1.3603  1.4351 -1.5775
 3673WAT     H216498   9.228   4.877   2.286  1.6150  0.4405 -0.2851
 3673WAT    EPW16499   9.226   4.813   2.345 -0.0577 -0.1650 -0.9230
 3674WAT      O16500   3.909   0.238   4.839  0.2094 -0.6829 -0.4438
 3674WAT     H116501   3.898   0.272   4.928 -0.0622  2.8510 -1.6624
 3674WAT     H216502   3.822   0.207   4.815  0.2581 -1.5552  0.4579
 3674WAT    EPW16503   3.896   0.238   4.848  0.1799 -0.3318 -0.4854
 3675WAT      O16504   3.636   2.745   6.318 -0.3859  0.4769 -0.5468
 3675WAT     H116505   3.579   2.672   6.346  0.5827 -1.5337 -3.3151
 3675WAT     H216506   3.592   2.780   6.241  0.3553  1.2718 -0.6149
 3675WAT    EPW16507   3.622   2.740   6.311 -0.1605  0.3164 -0.9210
 3676WAT      O16508   0.976  10.131   2.920  0.3602  0.4719 -0.1403
 3676WAT     H116509   0.961  10.224   2.907 -0.0166  0.6342  1.2929
 3676WAT     H216510   1.048  10.127   2.983  1.0916 -0.2353 -0.9866
 3676WAT    EPW16511   0.983  10.143   2.927  0.4070  0.4001 -0.0627
 3677WAT      O16512   3.913   1.667   7.881 -0.6549 -0.5204 -0.8459
 3677WAT     H116513   3.908   1.755   7.919 -2.8653 -0.1064 -1.9338
 3677WAT     H216514   3.825   1.632   7.890 -0.0824 -2.2067 -1.4613
 3677WAT    EPW16515   3.901   1.674   7.887 -0.8709 -0.6883 -1.0703
 3678WAT      O16516   9.809   7.617   7.669 -0.1982  0.8836  0.5772
 3678WAT     H116517   9.840   7.549   7.729 -0.9246 -0.8106 -0.9139
 3678WAT     H216518   9.874   7.618   7.598 -0.6773  1.1174  0.1370
 3678WAT    EPW16519   9.822   7.608   7.668 -0.3576  0.6909  0.3223
 3679WAT      O16520   7.408   0.757   7.759  0.0206 -0.6425 -0.5099
 3679WAT     H116521   7.494   0.715   7.750  1.6771  2.0611  0.9967
 3679WAT     H216522   7.419   0.842   7.715 -2.4928 -0.8803 -1.7282
 3679WAT    EPW16523   7.421   0.763   7.752 -0.0927 -0.3173 -0.4718
 3680WAT      O16524   4.374   3.727   6.627  0.4460 -0.3500  0.6076
 3680WAT     H116525   4.349   3.818   6.613 -0.3211 -0.9542 -2.7805
 3680WAT     H216526   4.468   3.724   6.607  0.9546 -0.0182  2.7188
 3680WAT    EPW16527   4.383   3.738   6.623  0.4122 -0.3860  0.4392
 3681WAT      O16528   7.773   1.080   7.637 -0.5101 -0.0173  0.1447
 3681WAT     H116529   7.860   1.043   7.625 -0.1682  1.2623 -1.7526
 3681WAT     H216530   7.787   1.175   7.632 -1.8009  0.2889  1.5567
 3681WAT    EPW16531   7.786   1.088   7.635 -0.6354  0.1918  0.0808
 3682WAT      O16532   2.326   9.859   5.198  0.3881  0.3229 -0.2425
 3682WAT     H116533   2.314   9.795   5.268  3.0990 -4.0476 -3.3070
 3682WAT     H216534   2.419   9.878   5.199  0.6331 -0.3925 -2.9549
 3682WAT    EPW16535   2.336   9.853   5.208  0.7780 -0.3481 -1.0042
 3683WAT      O16536   9.842   8.592   6.771 -0.5160  0.7231 -0.5006
 3683WAT     H116537   9.839   8.687   6.757  0.4385  1.2506  2.2714
 3683WAT     H216538   9.763   8.573   6.822 -1.2138 -0.1850 -1.8613
 3683WAT    EPW16539   9.831   8.602   6.776 -0.4821  0.6733 -0.3147
 3684WAT      O16540   4.881   3.288   6.394 -0.2474  0.1315  0.9166
 3684WAT     H116541   4.970   3.298   6.359 -1.1193  1.2394 -1.1470
 3684WAT     H216542   4.868   3.193   6.399  0.9541 -0.0445  1.0208
 3684WAT    EPW16543   4.891   3.276   6.390 -0.2036  0.2544  0.6580
 3685WAT      O16544   3.157   1.451   2.536 -0.2977 -0.2825 -0.8109
 3685WAT     H116545   3.252   1.459   2.544 -0.3273 -0.1049 -0.6370
 3685WAT     H216546   3.144   1.368   2.490 -0.0806 -0.6374 -0.2378
 3685WAT    EPW16547   3.168   1.441   2.531 -0.2730 -0.3059 -0.7124
 3686WAT      O16548   7.091   3.089   8.829 -0.0686 -0.0739  0.3399
 3686WAT     H116549   7.089   3.009   8.776  2.3891  0.0886 -0.1142
 3686WAT     H216550   7.151   3.069   8.901  2.7271  2.0250 -1.1689
 3686WAT    EPW16551   7.099   3.075   8.831  0.6244  0.2244  0.0806
 3687WAT      O16552   2.683   0.209   5.453 -0.1603 -0.0323 -0.4036
 3687WAT     H116553   2.647   0.296   5.471  1.5271  0.8292 -1.0154
 3687WAT     H216554   2.775   0.224   5.435 -0.3265 -1.6323 -3.0560
 3687WAT    EPW16555   2.690   0.222   5.453  0.0404 -0.1297 -0.8342
 3688WAT      O16556   3.801   8.503   8.439 -0.4679  0.1651 -0.0129
 3688WAT     H116557   3.851   8.502   8.520 -1.1119 -1.4135  0.4106
 3688WAT     H216558   3.710   8.508   8.468 -0.6677  0.3578 -0.6642
 3688WAT    EPW16559   3.795   8.504   8.454 -0.5791 -0.0176 -0.0434
 3689WAT      O16560   7.580   1.254   5.071  1.3791 -0.7007  0.5112
 3689WAT     H116561   7.541   1.178   5.028 -1.4486  1.2784 -0.6855
 3689WAT     H216562   7.529   1.265   5.152  0.8343  0.6678  0.0103
 3689WAT    EPW16563   7.569   1.245   5.076  0.9341 -0.2592  0.2873
 3690WAT      O16564   7.936   5.156   1.409 -0.1814  0.8278 -0.3703
 3690WAT     H116565   7.906   5.165   1.318 -1.0193  0.2946 -0.1565
 3690WAT     H216566   7.884   5.084   1.444  1.6435 -0.4282 -0.0950
 3690WAT    EPW16567   7.925   5.148   1.401 -0.0513  0.5918 -0.3058
 3691WAT      O16568   7.514   3.248   1.290 -0.0130 -0.0670 -0.0412
 3691WAT     H116569   7.462   3.199   1.354 -0.5533 -0.2472 -0.6148
 3691WAT     H216570   7.577   3.184   1.257  1.0309  0.3149  1.1265
 3691WAT    EPW16571   7.515   3.233   1.294  0.0532 -0.0404  0.0372
 3692WAT      O16572   2.360   1.460   7.598 -0.5938 -0.5998  0.1229
 3692WAT     H116573   2.384   1.522   7.529  0.0460 -0.8169  0.1450
 3692WAT     H216574   2.382   1.374   7.562  2.3859 -0.5864  1.5893
 3692WAT    EPW16575   2.366   1.457   7.584 -0.1163 -0.6267  0.3192
 3693WAT      O16576   3.856   1.736   4.895 -0.0521  0.3062 -0.2810
 3693WAT     H116577   3.929   1.716   4.954  0.7551  1.6843 -0.7624
 3693WAT     H216578   3.799   1.795   4.946 -0.5620 -0.3370 -0.0941
 3693WAT    EPW16579   3.858   1.741   4.909 -0.0129  0.4032 -0.3202
 3694WAT      O16580   6.036   1.663   7.083  0.0388  0.9100 -0.8378
 3694WAT     H116581   6.026   1.578   7.040  0.0227  0.7648 -0.5461
 3694WAT     H216582   6.099   1.711   7.028 -0.0453  0.7555 -1.0673
 3694WAT    EPW16583   6.043   1.658   7.070  0.0255  0.8705 -0.8295
 3695WAT      O16584   8.738   5.241   2.348  0.4128  0.1618 -0.6456
 3695WAT     H116585   8.732   5.154   2.388  0.7983 -0.6046 -2.1590
 3695WAT     H216586   8.826   5.243   2.309 -0.0390  0.7457 -1.6702
 3695WAT    EPW16587   8.749   5.230   2.348  0.4039  0.1378 -0.9804
 3696WAT      O16588   3.626   0.836   7.368  0.4519 -0.1167  0.1253
 3696WAT     H116589   3.617   0.841   7.273 -0.5849 -0.4547  0.1895
 3696WAT     H216590   3.595   0.921   7.399  2.0677  0.5051  0.1003
 3696WAT    EPW16591   3.621   0.848   7.360  0.5282 -0.0792  0.1304
 3697WAT      O16592   2.045   9.940   8.386  0.2480 -0.0648  0.2002
 3697WAT     H116593   2.058   9.949   8.292 -0.6111 -1.4195 -0.0772
 3697WAT     H216594   1.960   9.981   8.403  0.6349  0.6306  0.4740
 3697WAT    EPW16595   2.035   9.947   8.376  0.1857 -0.1516  0.2003
 3698WAT      O16596   2.508  10.105   8.438 -0.1263  0.1990  0.3632
 3698WAT     H116597   2.492  10.039   8.371 -0.5898  1.4830 -0.8284
 3698WAT     H216598   2.584  10.153   8.406  0.0583  0.4061  1.0984
 3698WAT    EPW16599   2.516  10.102   8.425 -0.1631  0.3958  0.3023
 3699WAT      O16600   7.839   0.917   7.921  0.1304  0.5792  0.3939
 3699WAT     H116601   7.927   0.943   7.897  0.8731 -0.1905  2.1425
 3699WAT     H216602   7.800   0.995   7.959 -0.1401  1.0501 -0.7914
 3699WAT    EPW16603   7.845   0.931   7.923  0.1926  0.5397  0.4680
 3700WAT      O16604   8.951   3.598   1.521  0.0689 -0.1717  0.3489
 3700WAT     H116605   8.862   3.567   1.510  0.9251 -2.4019 -0.9511
 3700WAT     H216606   8.942   3.691   1.541 -2.5278 -0.4316  0.6963
 3700WAT    EPW16607   8.938   3.606   1.522 -0.1602 -0.5002  0.2233
 3701WAT      O16608   3.796   0.899   5.427  0.3731  0.1857  1.1975
 3701WAT     H116609   3.870   0.948   5.462  2.1221 -1.5863  0.1083
 3701WAT     H216610   3.823   0.871   5.340 -1.6080 -0.4796  0.7240
 3701WAT    EPW16611   3.809   0.902   5.421  0.3425 -0.1358  0.9913
 3702WAT      O16612  10.777   8.684   6.132  0.2663 -0.0287  0.1568
 3702WAT     H116613  10.821   8.655   6.053 -1.1634  0.0475 -0.6899
 3702WAT     H216614  10.847   8.720   6.187  1.2359  0.1655 -1.1775
 3702WAT    EPW16615  10.792   8.685   6.129  0.2055  0.0072 -0.1307
 3703WAT      O16616   1.707   0.939   8.366 -0.2282  0.5419 -0.4241
 3703WAT     H116617   1.693   0.975   8.279 -0.6623  3.5089  0.7397
 3703WAT     H216618   1.623   0.951   8.411 -0.0790 -1.1063  0.3990
 3703WAT    EPW16619   1.694   0.945   8.361 -0.2657  0.7159 -0.1621
 3704WAT      O16620   8.792   7.511   0.826 -0.1436  0.4187  0.4373
 3704WAT     H116621   8.722   7.570   0.799 -1.2354 -1.0647 -0.1148
 3704WAT     H216622   8.768   7.484   0.914  0.2474  0.6250  0.6111
 3704WAT    EPW16623   8.780   7.515   0.834 -0.2360  0.2501  0.3874
 3705WAT      O16624   9.503   5.566   3.110 -0.0594 -0.2186 -0.5195
 3705WAT     H116625   9.480   5.508   3.183 -0.5984 -0.0934 -0.5896
 3705WAT     H216626   9.524   5.506   3.039 -2.2190 -0.3613 -1.1014
 3705WAT    EPW16627   9.503   5.550   3.111 -0.4148 -0.2210 -0.6055
 3706WAT      O16628   4.798   3.443   5.233 -0.4036 -0.1615  0.2512
 3706WAT     H116629   4.807   3.455   5.139  2.6365 -0.3180  0.4239
 3706WAT     H216630   4.789   3.348   5.244  3.1202 -0.6467  0.1754
 3706WAT    EPW16631   4.798   3.432   5.222  0.4621 -0.2462  0.2639
 3707WAT      O16632   4.997   0.900   7.977  0.2375  0.3250  0.4871
 3707WAT     H116633   4.995   0.927   8.069  4.5247 -1.6980  1.4268
 3707WAT     H216634   5.038   0.974   7.932  1.9607 -0.1938  1.0898
 3707WAT    EPW16635   5.002   0.914   7.983  1.0300 -0.0102  0.6909
 3708WAT      O16636  10.918   9.117   5.075 -1.5314 -0.2648  0.4526
 3708WAT     H116637  10.876   9.181   5.133  3.0975  0.1411  3.8476
 3708WAT     H216638  10.909   9.033   5.121 -0.5625 -0.5476  0.1519
 3708WAT    EPW16639  10.911   9.114   5.088 -0.7930 -0.2484  0.8607
 3709WAT      O16640   3.281   0.139   3.935  0.1368  0.2677  0.1021
 3709WAT     H116641   3.303   0.047   3.920  1.8732  0.8673 -1.4254
 3709WAT     H216642   3.188   0.139   3.955  0.4311 -1.9774  1.8954
 3709WAT    EPW16643   3.272   0.127   3.936  0.4046  0.0506  0.1372
 3710WAT      O16644   4.750   4.301   8.433  0.0849  0.0033  0.1793
 3710WAT     H116645   4.823   4.362   8.446  0.1393 -0.5724  3.3304
 3710WAT     H216646   4.789   4.214   8.438 -0.5775 -0.3003  0.2928
 3710WAT    EPW16647   4.765   4.298   8.436  0.0045 -0.1123  0.6099
 3711WAT      O16648   8.013   4.277   0.486  0.0315 -0.2158  0.7303
 3711WAT     H116649   7.972   4.258   0.401 -2.7911 -0.5578  2.0667
 3711WAT     H216650   8.098   4.315   0.463 -0.9230  0.3758 -2.2610
 3711WAT    EPW16651   8.019   4.280   0.472 -0.4663 -0.1826  0.5120
 3712WAT      O16652   3.615   2.755   6.713  0.6002 -0.3223 -0.3015
 3712WAT     H116653   3.591   2.804   6.635 -0.4597 -0.7761 -0.2813
 3712WAT     H216654   3.600   2.816   6.786 -0.2744 -0.5151 -0.3114
 3712WAT    EPW16655   3.610   2.769   6.713  0.3450 -0.4077 -0.3004
 3713WAT      O16656   0.102   7.283   2.290 -0.6585  0.3123  0.3726
 3713WAT     H116657   0.067   7.262   2.203 -1.2817  2.2877  0.0970
 3713WAT     H216658   0.194   7.304   2.274 -0.7328  0.5223  0.2121
 3713WAT    EPW16659   0.109   7.283   2.276 -0.7505  0.6008  0.3150
 3714WAT      O16660   2.228  10.149   8.881 -0.1258 -1.2877 -0.5725
 3714WAT     H116661   2.227  10.217   8.814 -3.1602 -2.6170 -2.1051
 3714WAT     H216662   2.153  10.170   8.938  0.3782 -2.0061  0.3821
 3714WAT    EPW16663   2.218  10.161   8.880 -0.4597 -1.5578 -0.6487
 3715WAT      O16664   8.584   7.359   0.045  0.5542 -0.1689  0.5271
 3715WAT     H116665   8.611   7.364  -0.047 -0.3289 -0.3669  0.2485
 3715WAT     H216666   8.542   7.273   0.053  0.1130  0.0863  0.9750
 3715WAT    EPW16667   8.582   7.348   0.034  0.3796 -0.1616  0.5494
 3716WAT      O16668   2.629   5.618   8.530  0.8002  0.7575 -0.0177
 3716WAT     H116669   2.653   5.612   8.623  4.5888 -0.5071 -0.8813
 3716WAT     H216670   2.558   5.556   8.520  0.8357  0.3336  1.8966
 3716WAT    EPW16671   2.623   5.609   8.541  1.3045  0.5345  0.1206
 3717WAT      O16672  10.829   8.224   4.782 -0.1892  0.8298 -0.6433
 3717WAT     H116673  10.762   8.158   4.795 -2.0837  2.5467 -1.1796
 3717WAT     H216674  10.855   8.215   4.690 -0.8535  1.1934 -0.8674
 3717WAT    EPW16675  10.824   8.214   4.771 -0.5269  1.1039 -0.7436
 3718WAT      O16676   6.836   1.568   7.334 -0.3563 -0.0820  0.2616
 3718WAT     H116677   6.876   1.630   7.273  0.7684 -1.1552 -0.1465
 3718WAT     H216678   6.767   1.618   7.378  1.0553  1.6917  0.5689
 3718WAT    EPW16679   6.832   1.582   7.332 -0.0217  0.0104  0.2484
 3719WAT      O16680   2.474   1.155   8.022  0.0315 -0.2207  0.2696
 3719WAT     H116681   2.492   1.069   8.060  1.2321 -0.2884 -0.4026
 3719WAT     H216682   2.467   1.138   7.928  1.6875  0.5932 -0.0366
 3719WAT    EPW16683   2.476   1.141   8.014  0.4082 -0.1223  0.1407
 3720WAT      O16684   2.259   1.145   6.605 -0.3743 -0.6474  0.6652
 3720WAT     H116685   2.256   1.126   6.699 -2.0241  0.9536  0.9868
 3720WAT     H216686   2.293   1.234   6.599  0.6890 -1.0950 -0.3485
 3720WAT    EPW16687   2.263   1.154   6.617 -0.4517 -0.4953  0.5739
 3721WAT      O16688   7.116   0.116   5.994 -0.4593 -0.0567  0.5148
 3721WAT     H116689   7.116   0.043   5.931  0.5321  1.2438 -1.0847
 3721WAT     H216690   7.104   0.074   6.079 -1.4119 -1.9414 -0.4714
 3721WAT    EPW16691   7.114   0.101   5.997 -0.4542 -0.1338  0.1738
 3722WAT      O16692   3.314   0.893   7.801  0.2382  0.5425  1.1193
 3722WAT     H116693   3.272   0.962   7.751 -1.2805 -0.1311  1.4004
 3722WAT     H216694   3.243   0.832   7.822  1.3273 -0.5402  1.8115
 3722WAT    EPW16695   3.299   0.894   7.797  0.1814  0.3109  1.2476
 3723WAT      O16696   2.946   9.816   7.530 -0.9426  0.1596 -0.6128
 3723WAT     H116697   2.983   9.884   7.475  0.0781  1.9226  2.0449
 3723WAT     H216698   2.856   9.844   7.546 -0.4416  1.1359  0.7066
 3723WAT    EPW16699   2.939   9.829   7.525 -0.7417  0.5202 -0.0882
 3724WAT      O16700   0.120   3.529   8.121 -0.2080 -0.3688 -0.7857
 3724WAT     H116701   0.146   3.458   8.181  0.8269 -1.8389 -2.8358
 3724WAT     H216702   0.037   3.560   8.155 -0.2971 -2.0344  0.6683
 3724WAT    EPW16703   0.113   3.524   8.134 -0.0832 -0.7823 -0.8645
 3725WAT      O16704   4.747   9.444   5.676 -0.0423 -0.3527  0.3584
 3725WAT     H116705   4.688   9.463   5.602 -0.8099 -0.4962  0.9227
 3725WAT     H216706   4.704   9.373   5.723 -0.8727  1.3552  2.3663
 3725WAT    EPW16707   4.734   9.437   5.672 -0.2534 -0.1464  0.6979
 3726WAT      O16708   1.226   9.778   8.035 -0.4764  0.0629  0.0444
 3726WAT     H116709   1.267   9.847   7.983 -0.5734 -0.9911 -1.5009
 3726WAT     H216710   1.181   9.724   7.970 -0.5808 -1.3259  1.2450
 3726WAT    EPW16711   1.226   9.780   8.019 -0.5030 -0.2594 -0.0014
 3727WAT      O16712   1.285   1.510   7.160 -0.8411 -0.2581 -0.9746
 3727WAT     H116713   1.351   1.488   7.226  1.3229  2.3952 -2.0317
 3727WAT     H216714   1.254   1.597   7.187 -0.9001  0.2720 -2.6589
 3727WAT    EPW16715   1.290   1.519   7.172 -0.5634  0.1618 -1.3361
 3728WAT      O16716   6.560   3.958   6.654  0.8069  1.0104  0.3348
 3728WAT     H116717   6.609   3.901   6.714 -0.7979 -1.2259 -0.3411
 3728WAT     H216718   6.500   4.006   6.710  2.7566  2.8062  1.0162
 3728WAT    EPW16719   6.558   3.956   6.669  0.8523  0.9524  0.3357
 3729WAT      O16720   6.317   4.420   6.134 -0.2969  0.5964 -0.1035
 3729WAT     H116721   6.379   4.414   6.207 -1.2728  0.8127  0.7736
 3729WAT     H216722   6.353   4.489   6.078 -0.1572  1.3092  0.8302
 3729WAT    EPW16723   6.330   4.429   6.136 -0.4072  0.7191  0.1357
 3730WAT      O16724  10.560   9.675   0.058 -0.0927 -0.3443  0.4812
 3730WAT     H116725  10.555   9.770   0.072 -0.1498 -0.1366 -0.7993
 3730WAT     H216726  10.591   9.640   0.141 -0.9015  0.7092  1.2510
 3730WAT    EPW16727  10.563   9.683   0.071 -0.2069 -0.1779  0.4129
 3731WAT      O16728   9.259   1.628   4.999  0.1185 -0.2565 -0.5674
 3731WAT     H116729   9.317   1.689   5.044  0.4510  0.0444 -1.3907
 3731WAT     H216730   9.217   1.578   5.069 -1.5231  2.1105  0.2430
 3731WAT    EPW16731   9.261   1.629   5.014 -0.0539  0.0954 -0.5693
 3732WAT      O16732   8.136   6.594   7.448 -0.0056  0.3311  1.2848
 3732WAT     H116733   8.077   6.615   7.520 -1.2591 -0.0708  0.4095
 3732WAT     H216734   8.092   6.629   7.370 -0.3609 -2.2059  0.2674
 3732WAT    EPW16735   8.122   6.601   7.447 -0.2174 -0.0565  1.0352
 3733WAT      O16736   2.686   9.619   5.995  0.6174  0.3567  0.4941
 3733WAT     H116737   2.729   9.703   6.011 -0.6329  1.4430 -1.3859
 3733WAT     H216738   2.610   9.641   5.940  0.3779 -2.0367 -0.2752
 3733WAT    EPW16739   2.681   9.633   5.990  0.4208  0.1850  0.1447
 3734WAT      O16740   6.097   1.150   6.734 -0.3145 -0.6935  0.1294
 3734WAT     H116741   6.073   1.119   6.646 -0.3413 -0.3124 -0.0018
 3734WAT     H216742   6.019   1.135   6.787 -2.2185  3.4827 -1.0110
 3734WAT    EPW16743   6.083   1.144   6.729 -0.5691 -0.0924 -0.0384
 3735WAT      O16744  10.763   9.777   0.860 -0.5376  0.2878 -0.1016
 3735WAT     H116745  10.724   9.724   0.929  1.6729 -2.7791 -0.9948
 3735WAT     H216746  10.847   9.805   0.896 -1.8668  4.0096  0.5860
 3735WAT    EPW16747  10.769   9.774   0.874 -0.4220  0.3734 -0.1287
 3736WAT      O16748   0.667   7.276   0.859 -0.4872 -0.1738  1.2441
 3736WAT     H116749   0.642   7.338   0.927  0.7623 -0.6792  2.1973
 3736WAT     H216750   0.718   7.328   0.797 -1.9460  0.3688  0.4686
 3736WAT    EPW16751   0.671   7.291   0.860 -0.5148 -0.1688  1.2675
 3737WAT      O16752   8.053   0.160   7.248 -0.7078 -0.4732  0.1240
 3737WAT     H116753   7.967   0.188   7.219 -0.8011 -2.2807 -1.5416
 3737WAT     H216754   8.114   0.201   7.187 -0.6889 -2.0092 -0.9390
 3737WAT    EPW16755   8.050   0.169   7.236 -0.7176 -0.9142 -0.2358
 3738WAT      O16756   3.739   3.238   7.091  0.9006 -0.4844  0.1860
 3738WAT     H116757   3.674   3.216   7.025 -0.4741  0.6168  1.1339
 3738WAT     H216758   3.727   3.172   7.160  2.0118 -1.3395 -0.3886
 3738WAT    EPW16759   3.729   3.226   7.091  0.8659 -0.4520  0.2356
 3739WAT      O16760   0.432   7.704   0.371 -0.0938  0.1160  0.3798
 3739WAT     H116761   0.405   7.724   0.460  0.2482  0.2304  0.4581
 3739WAT     H216762   0.518   7.745   0.362  0.4451 -0.9884  0.4081
 3739WAT    EPW16763   0.440   7.712   0.381  0.0224 -0.0148  0.3939
 3740WAT      O16764  10.406   9.451   0.295  0.0843 -0.0398 -0.1598
 3740WAT     H116765  10.427   9.477   0.385 -0.1900 -0.2163 -0.0436
 3740WAT     H216766  10.333   9.506   0.270 -2.0927 -2.2323  0.9267
 3740WAT    EPW16767  10.399   9.461   0.304 -0.2389 -0.3524 -0.0012
 3741WAT      O16768   6.444   0.837   7.801  1.0530  0.6794 -0.8433
 3741WAT     H116769   6.491   0.797   7.728  3.3353  2.6625 -0.5882
 3741WAT     H216770   6.397   0.910   7.762  0.4444  0.3911 -0.6562
 3741WAT    EPW16771   6.444   0.841   7.786  1.2736  0.9029 -0.7851
 3742WAT      O16772  10.358   1.746   7.623 -0.5116 -0.2396 -0.3161
 3742WAT     H116773  10.331   1.698   7.545  2.7566 -0.8240 -1.2258
 3742WAT     H216774  10.453   1.756   7.614 -0.5334  3.2556  1.6359
 3742WAT    EPW16775  10.367   1.741   7.612 -0.0834  0.1442 -0.1786
 3743WAT      O16776   6.906   0.568   8.710 -0.6215 -0.9690 -0.1550
 3743WAT     H116777   6.951   0.488   8.685 -0.0093 -0.5448 -0.4151
 3743WAT     H216778   6.946   0.594   8.793 -0.5138 -0.6992 -0.2892
 3743WAT    EPW16779   6.917   0.561   8.718 -0.5264 -0.8775 -0.2074
 3744WAT      O16780  10.970   7.351   0.266  0.2505  0.4232 -0.6616
 3744WAT     H116781  10.892   7.387   0.223 -0.8166  0.5729  1.2593
 3744WAT     H216782  11.027   7.426   0.280 -0.2315  0.7008 -0.1585
 3744WAT    EPW16783  10.967   7.366   0.262  0.0461  0.4795 -0.3419
 3745WAT      O16784   8.381   9.439   1.298 -0.4047  0.2108 -0.2917
 3745WAT     H116785   8.394   9.530   1.272  2.0505  0.1135  0.4048
 3745WAT     H216786   8.286   9.427   1.293 -0.9453  3.1246  0.6478
 3745WAT    EPW16787   8.370   9.449   1.294 -0.1526  0.5822 -0.0760
 3746WAT      O16788   6.465   2.987   8.055  0.0860  0.2377  0.1208
 3746WAT     H116789   6.430   2.898   8.056  0.0252  0.2601  0.0555
 3746WAT     H216790   6.484   3.008   8.146 -0.2667  0.3016  0.1804
 3746WAT    EPW16791   6.463   2.978   8.067  0.0312  0.2490  0.1202
 3747WAT      O16792   4.415   8.732   1.484 -0.0530 -0.8184 -0.2537
 3747WAT     H116793   4.430   8.697   1.396 -2.2909 -2.1532 -0.1859
 3747WAT     H216794   4.349   8.800   1.471  0.1541 -0.5040  0.3153
 3747WAT    EPW16795   4.408   8.736   1.470 -0.3209 -0.9537 -0.1698
 3748WAT      O16796   1.494   8.054   0.302  0.3870 -0.4601  0.6907
 3748WAT     H116797   1.432   8.079   0.233  1.1630  0.3162  0.2611
 3748WAT     H216798   1.501   7.959   0.295 -0.0206 -0.4517  0.1244
 3748WAT    EPW16799   1.487   8.045   0.292  0.4357 -0.3572  0.5593
 3749WAT      O16800   9.649   3.919   4.435 -0.0659 -0.1565 -0.6263
 3749WAT     H116801   9.672   3.848   4.494 -2.4897 -0.4365  0.0842
 3749WAT     H216802   9.617   3.876   4.356  0.9119  0.2002 -1.2357
 3749WAT    EPW16803   9.648   3.904   4.433 -0.2565 -0.1465 -0.6132
 3750WAT      O16804   7.059   1.782   8.928 -0.3057  0.3273  0.0267
 3750WAT     H116805   7.131   1.720   8.918 -0.6789 -0.1584  0.2842
 3750WAT     H216806   6.988   1.730   8.967 -0.1276  1.2578  1.7077
 3750WAT    EPW16807   7.059   1.767   8.932 -0.3314  0.3859  0.2823
 3751WAT      O16808   1.021  10.134   4.838  0.3489 -0.3222  0.2673
 3751WAT     H116809   1.079  10.193   4.791 -1.1658  0.8680 -0.1686
 3751WAT     H216810   1.078  10.063   4.869  2.2202  1.3586  0.8182
 3751WAT    EPW16811   1.036  10.132   4.836  0.3959  0.0567  0.2825
 3752WAT      O16812   7.119   3.956   5.143 -0.3472  0.2343 -0.0165
 3752WAT     H116813   7.120   3.962   5.238 -1.7160 -0.8036  0.0871
 3752WAT     H216814   7.035   3.915   5.122 -0.3308  0.9761 -1.7099
 3752WAT    EPW16815   7.108   3.952   5.152 -0.5257  0.1953 -0.2263
 3753WAT      O16816   2.420   2.085   8.116 -0.0458 -0.3241  0.1644
 3753WAT     H116817   2.413   2.058   8.024 -2.9538 -0.9877  0.4850
 3753WAT     H216818   2.375   2.170   8.119  2.6567  1.1826  0.5027
 3753WAT    EPW16819   2.413   2.092   8.104 -0.0728 -0.2129  0.2508
 3754WAT      O16820   5.315   4.859   8.226 -0.0105 -0.7555  0.5469
 3754WAT     H116821   5.315   4.952   8.250 -3.2039 -0.2732 -0.7476
 3754WAT     H216822   5.357   4.857   8.140 -0.7931 -0.3475  0.1515
 3754WAT    EPW16823   5.321   4.871   8.218 -0.5348 -0.6380  0.3238
 3755WAT      O16824   3.598   2.876   6.966  0.0917 -0.4347 -0.5589
 3755WAT     H116825   3.666   2.838   7.022  0.6665  1.4780  0.1242
 3755WAT     H216826   3.521   2.882   7.022  0.1697 -0.1055 -0.4821
 3755WAT    EPW16827   3.597   2.872   6.981  0.1779 -0.1391 -0.4587
 3756WAT      O16828   2.511   8.239   6.141 -0.0886 -0.2028  0.0755
 3756WAT     H116829   2.569   8.302   6.184  2.2963 -2.6656  0.7747
 3756WAT     H216830   2.532   8.155   6.182 -1.6054 -1.8123 -2.2003
 3756WAT    EPW16831   2.522   8.236   6.152  0.0260 -0.7401 -0.1326
 3757WAT      O16832   2.380   4.210   8.909  0.2890 -0.5825  0.0274
 3757WAT     H116833   2.402   4.122   8.881 -0.8061 -1.5066  1.8728
 3757WAT     H216834   2.455   4.238   8.962 -0.2905 -1.3510  1.3169
 3757WAT    EPW16835   2.393   4.202   8.912  0.0682 -0.8059  0.4411
 3758WAT      O16836   8.342   4.000   7.504  0.1525 -0.3456  0.1985
 3758WAT     H116837   8.296   3.924   7.539  0.4612 -0.4418  0.4011
 3758WAT     H216838   8.296   4.076   7.539 -2.8148 -0.2803 -3.2213
 3758WAT    EPW16839   8.330   4.000   7.513 -0.1979 -0.3498 -0.2255
 3759WAT      O16840   4.405   1.042   6.910 -0.7934  0.4415  0.2108
 3759WAT     H116841   4.363   1.096   6.843 -0.4800 -0.1957 -0.5275
 3759WAT     H216842   4.474   1.097   6.946  0.0925  0.2690 -1.1450
 3759WAT    EPW16843   4.409   1.056   6.906 -0.6354  0.3347 -0.0653
 3760WAT      O16844   9.090   3.878   8.385 -0.5961  1.2919  0.6328
 3760WAT     H116845   9.126   3.954   8.338  4.1094 -2.0687 -1.9754
 3760WAT     H216846   9.159   3.853   8.446 -1.0428 -1.9857 -0.0587
 3760WAT    EPW16847   9.104   3.885   8.387 -0.0348  0.4165  0.1979
 3761WAT      O16848   9.831   9.446   1.614 -0.0836  0.4144  0.3465
 3761WAT     H116849   9.847   9.398   1.696 -0.3859 -0.4170 -0.0673
 3761WAT     H216850   9.774   9.518   1.639  0.4470  0.6196  1.0017
 3761WAT    EPW16851   9.826   9.449   1.628 -0.0534  0.3324  0.3783
 3762WAT      O16852   1.730   9.804   8.947  0.4112  0.6015 -0.1994
 3762WAT     H116853   1.694   9.852   9.022 -0.8100 -1.1225  0.3808
 3762WAT     H216854   1.790   9.866   8.906 -1.8012  2.9979 -0.0979
 3762WAT    EPW16855   1.733   9.819   8.952 -0.0417  0.6900 -0.1097
 3763WAT      O16856   2.840   8.884   5.055 -0.6481  1.1939  0.2473
 3763WAT     H116857   2.761   8.852   5.100  0.1329 -1.0891  0.0913
 3763WAT     H216858   2.899   8.909   5.126 -0.2038 -0.4681  0.5142
 3763WAT    EPW16859   2.837   8.883   5.070 -0.4865  0.6742  0.2620
 3764WAT      O16860   9.765   1.645   6.605 -0.2402  0.6279 -0.1387
 3764WAT     H116861   9.690   1.641   6.665  0.6414  1.6574  1.0974
 3764WAT     H216862   9.826   1.706   6.647  1.6862 -0.8189 -0.6811
 3764WAT    EPW16863   9.763   1.653   6.618  0.1302  0.5729 -0.0474
 3765WAT      O16864   7.342   7.705   0.187  0.0251 -0.5868  1.1512
 3765WAT     H116865   7.394   7.677   0.262  0.0068 -1.8285  0.7190
 3765WAT     H216866   7.318   7.624   0.143  2.4111  0.1663 -1.8580
 3765WAT    EPW16867   7.345   7.691   0.191  0.3374 -0.6514  0.6973
 3766WAT      O16868   5.012   2.163   6.547  0.1776  0.6938  0.0477
 3766WAT     H116869   4.991   2.247   6.506 -2.3343 -0.9669 -2.4535
 3766WAT     H216870   5.102   2.145   6.519 -1.2372 -0.1717 -4.9826
 3766WAT    EPW16871   5.021   2.172   6.538 -0.3402  0.3605 -0.9458
 3767WAT      O16872   7.982   2.951   8.074 -0.6207 -0.2408 -0.4621
 3767WAT     H116873   8.072   2.975   8.094 -0.7447  0.5374 -0.7962
 3767WAT     H216874   7.956   2.895   8.146 -0.5522  1.2401  0.7766
 3767WAT    EPW16875   7.990   2.947   8.086 -0.6278  0.0571 -0.3428
 3768WAT      O16876   5.113   4.058   7.777  0.1056 -0.8409 -0.9663
 3768WAT     H116877   5.093   3.981   7.723 -0.9118  0.3831 -2.4027
 3768WAT     H216878   5.041   4.119   7.761 -1.1766 -0.9811  3.0798
 3768WAT    EPW16879   5.101   4.056   7.768 -0.1979 -0.6979 -0.6223
 3769WAT      O16880   5.048   1.404   3.881  0.2641 -0.0338 -0.2251
 3769WAT     H116881   4.974   1.369   3.831  1.5445 -1.4971 -1.1902
 3769WAT     H216882   5.091   1.464   3.821  0.0110  0.6339  0.2521
 3769WAT    EPW16883   5.044   1.407   3.866  0.3996 -0.1388 -0.2896
 3770WAT      O16884   8.596   4.506   7.646  0.7657  0.5283  1.2348
 3770WAT     H116885   8.559   4.531   7.731 -0.5677  2.9649  0.0287
 3770WAT     H216886   8.670   4.565   7.633 -0.7549  2.1894 -0.4602
 3770WAT    EPW16887   8.601   4.517   7.656  0.3891  1.0688  0.8523
 3771WAT      O16888   5.798   2.657   6.996  0.1538  0.0837  0.2400
 3771WAT     H116889   5.781   2.571   6.959 -0.5329  1.5778 -3.3403
 3771WAT     H216890   5.877   2.645   7.049  0.1129 -2.6826 -0.1813
 3771WAT    EPW16891   5.806   2.644   6.998  0.0579 -0.0840 -0.2878
 3772WAT      O16892   7.715   1.038   8.480  0.7219  0.9277 -0.0434
 3772WAT     H116893   7.740   1.110   8.538  1.5359 -0.4793  1.4368
 3772WAT     H216894   7.787   0.976   8.486 -1.0429 -1.1797  0.7528
 3772WAT    EPW16895   7.728   1.039   8.488  0.5965  0.4642  0.2570
 3773WAT      O16896  10.715   9.812   1.273 -0.0107 -0.1087  0.3296
 3773WAT     H116897  10.713   9.898   1.231 -0.2990  1.3068  3.0508
 3773WAT     H216898  10.642   9.813   1.335 -0.5630 -2.6885 -0.1480
 3773WAT    EPW16899  10.705   9.823   1.276 -0.1211 -0.2623  0.6256
 3774WAT      O16900   7.508   2.309   7.206 -0.1015 -0.0046 -0.7870
 3774WAT     H116901   7.487   2.243   7.140 -1.3557  0.4975 -0.9179
 3774WAT     H216902   7.449   2.289   7.279 -1.7446  1.9584 -1.4867
 3774WAT    EPW16903   7.497   2.298   7.207 -0.4835  0.3204 -0.8965
 3775WAT      O16904   7.370   1.759   5.791  0.1343 -0.4352 -0.1965
 3775WAT     H116905   7.424   1.823   5.746  0.9931 -1.5672 -0.8371
 3775WAT     H216906   7.351   1.798   5.876 -2.3398  2.2034 -1.7606
 3775WAT    EPW16907   7.374   1.773   5.796 -0.0789 -0.2364 -0.4876
 3776WAT      O16908   7.873   2.895   4.551  0.1077  0.0940 -0.0386
 3776WAT     H116909   7.801   2.949   4.583 -0.4308 -1.7713  2.1518
 3776WAT     H216910   7.890   2.833   4.622  1.9411 -1.4059 -1.6724
 3776WAT    EPW16911   7.866   2.894   4.564  0.2787 -0.3499  0.0348
 3777WAT      O16912   5.843   2.168   6.064 -0.1986 -0.3651  0.5620
 3777WAT     H116913   5.922   2.162   6.009  0.4465 -0.2750  1.4587
 3777WAT     H216914   5.858   2.106   6.134 -0.8166 -0.1471  0.8955
 3777WAT    EPW16915   5.856   2.159   6.066 -0.1950 -0.3244  0.7241
 3778WAT      O16916   9.392   6.397   6.239  0.4426  0.0691 -0.1793
 3778WAT     H116917   9.409   6.456   6.312  0.2801 -0.0156 -0.0705
 3778WAT     H216918   9.390   6.453   6.162  0.0704  0.2401 -0.0506
 3778WAT    EPW16919   9.394   6.412   6.238  0.3719  0.0806 -0.1483
 3779WAT      O16920   1.213   2.192   6.859 -0.2417 -0.3985 -0.1759
 3779WAT     H116921   1.271   2.142   6.801  1.5321 -0.4660  1.5692
 3779WAT     H216922   1.209   2.279   6.819  0.5375 -0.5848 -0.6834
 3779WAT    EPW16923   1.220   2.197   6.846  0.0950 -0.4319 -0.0126
 3780WAT      O16924   7.460   7.429   8.814  0.4544 -0.1043  0.1782
 3780WAT     H116925   7.400   7.436   8.739  1.4010 -2.0484 -0.8652
 3780WAT     H216926   7.424   7.357   8.866  0.4522  0.4662  0.9770
 3780WAT    EPW16927   7.447   7.420   8.811  0.5786 -0.2854  0.1454
 3781WAT      O16928   1.388   1.714   6.941 -0.1358  0.0949  0.2668
 3781WAT     H116929   1.330   1.637   6.940 -0.5298  0.3619 -1.0867
 3781WAT     H216930   1.367   1.760   7.022  1.2963 -2.0589  1.9414
 3781WAT    EPW16931   1.377   1.710   6.951  0.0011 -0.1540  0.3090
 3782WAT      O16932   5.211   3.901   6.959 -0.0697  0.1274 -0.0215
 3782WAT     H116933   5.192   3.986   6.921  0.5225  0.2391 -0.0697
 3782WAT     H216934   5.264   3.856   6.893 -1.6284 -0.8637 -0.6549
 3782WAT    EPW16935   5.216   3.906   6.945 -0.1974  0.0113 -0.1113
 3783WAT      O16936   7.942   5.049   7.672 -0.2093  0.7023  0.2402
 3783WAT     H116937   7.959   5.135   7.635 -0.7389  0.2955 -1.0082
 3783WAT     H216938   7.928   4.993   7.596  2.2489 -0.9878  0.9156
 3783WAT    EPW16939   7.942   5.053   7.657  0.0448  0.4256  0.1645
 3784WAT      O16940   1.075   8.697   2.280 -0.1280 -0.0176  0.1861
 3784WAT     H116941   1.039   8.659   2.200 -0.7171 -0.4027  0.6213
 3784WAT     H216942   1.123   8.775   2.251  2.4594 -1.8711 -0.9558
 3784WAT    EPW16943   1.077   8.702   2.266  0.1355 -0.3128  0.0927
 3785WAT      O16944   9.236   2.951   6.062 -0.3179 -0.0990  0.2012
 3785WAT     H116945   9.218   3.023   6.123  1.5966 -0.3517  1.1488
 3785WAT     H216946   9.288   2.991   5.992  0.8514 -0.5414  0.7906
 3785WAT    EPW16947   9.240   2.966   6.061  0.0887 -0.1906  0.4041
 3786WAT      O16948   8.968   7.173   1.284 -0.1778 -0.5839  0.2282
 3786WAT     H116949   8.974   7.109   1.355  2.3223 -0.8240 -0.1089
 3786WAT     H216950   8.914   7.243   1.320  0.3555 -1.0641  2.1005
 3786WAT    EPW16951   8.962   7.173   1.298  0.2222 -0.6788  0.4307
 3787WAT      O16952  10.921  10.287   1.635  0.4440 -0.3091 -0.2221
 3787WAT     H116953  10.867  10.366   1.636  1.1652  0.2662 -2.3380
 3787WAT     H216954  10.984  10.302   1.565  0.9637 -2.5396 -0.3032
 3787WAT    EPW16955  10.922  10.299   1.626  0.6084 -0.5279 -0.5119
 3788WAT      O16956   9.184   5.767   0.365  0.3466  0.2594  0.5614
 3788WAT     H116957   9.116   5.800   0.424 -0.8796  0.7688 -1.0461
 3788WAT     H216958   9.167   5.673   0.359 -0.1724  0.3689  0.2415
 3788WAT    EPW16959   9.173   5.759   0.372  0.1163  0.3414  0.3072
 3789WAT      O16960   9.592   7.350   0.992  0.4908  0.1990 -0.5148
 3789WAT     H116961   9.654   7.278   0.984 -0.7008 -1.4986  3.2150
 3789WAT     H216962   9.580   7.361   1.086 -0.7882  4.1491 -0.9363
 3789WAT    EPW16963   9.599   7.342   1.003  0.1655  0.4961 -0.0784
 3790WAT      O16964  10.433   9.785   0.887  0.5150 -0.1853  0.4435
 3790WAT     H116965  10.475   9.720   0.943  2.1829  1.1963  0.9147
 3790WAT     H216966  10.478   9.867   0.908 -2.9241  1.6467  1.5018
 3790WAT    EPW16967  10.445   9.787   0.897  0.2818  0.2384  0.6452
 3791WAT      O16968   3.310  10.019   5.911  0.1984  0.4285 -0.0098
 3791WAT     H116969   3.353  10.099   5.883  1.1993  0.2697  1.0281
 3791WAT     H216970   3.219  10.044   5.926  0.1762  1.0371 -1.0581
 3791WAT    EPW16971   3.304  10.033   5.909  0.3273  0.4878 -0.0110
 3792WAT      O16972   3.001   6.111   1.150  0.2060  0.1999  0.0667
 3792WAT     H116973   2.996   6.091   1.056 -2.6400  0.6069  0.0382
 3792WAT     H216974   3.095   6.113   1.169  0.8719 -0.1461 -2.7008
 3792WAT    EPW16975   3.013   6.109   1.140 -0.0815  0.2079 -0.3021
 3793WAT      O16976   0.200   7.519   0.410 -0.6092 -1.0393 -0.5574
 3793WAT     H116977   0.276   7.461   0.414 -0.2526 -0.7657 -2.3600
 3793WAT     H216978   0.226   7.588   0.349 -2.0283 -0.5051 -0.5974
 3793WAT    EPW16979   0.213   7.521   0.403 -0.7494 -0.9329 -0.8004
 3794WAT      O16980   5.694   0.535   6.901 -0.2214  0.3805 -0.1756
 3794WAT     H116981   5.723   0.454   6.859  1.7520 -0.6445  2.8156
 3794WAT     H216982   5.760   0.552   6.968 -0.8999  4.1905 -0.2545
 3794WAT    EPW16983   5.706   0.527   6.904 -0.0505  0.7478  0.2086
 3795WAT      O16984   1.322   8.557   2.357  0.4747 -0.6239 -0.2380
 3795WAT     H116985   1.298   8.529   2.445  1.5346  1.4325  0.7607
 3795WAT     H216986   1.244   8.601   2.324 -0.0205 -1.6440 -0.4764
 3795WAT    EPW16987   1.309   8.559   2.364  0.5493 -0.4878 -0.1377
 3796WAT      O16988   8.276   2.630   8.237 -0.0346 -0.2832  0.4270
 3796WAT     H116989   8.236   2.613   8.152  0.3391 -0.4943  0.2871
 3796WAT     H216990   8.209   2.608   8.301 -0.2837 -0.2196  0.1874
 3796WAT    EPW16991   8.262   2.625   8.234 -0.0186 -0.3027  0.3772
 3797WAT      O16992   4.835   0.754   6.999  0.7819 -0.3593 -0.3724
 3797WAT     H116993   4.791   0.803   7.069 -2.0543 -2.3483 -0.6107
 3797WAT     H216994   4.928   0.761   7.020  0.1209  0.1448  2.9161
 3797WAT    EPW16995   4.842   0.762   7.011  0.3204 -0.5552  0.0298
 3798WAT      O16996   7.077   6.798   0.303  0.1460  0.4420  0.2997
 3798WAT     H116997   7.135   6.799   0.227  0.3340 -0.8007  0.4061
 3798WAT     H216998   6.990   6.814   0.266  0.2918  0.2972 -0.1174
 3798WAT    EPW16999   7.073   6.800   0.288  0.1898  0.2592  0.2587
 3799WAT      O17000   9.863   6.235   8.876  0.7126 -0.6945  0.0719
 3799WAT     H117001   9.909   6.152   8.887  1.6854 -0.0960  0.6173
 3799WAT     H217002   9.913   6.298   8.927 -1.9862 -0.4642  2.7423
 3799WAT    EPW17003   9.875   6.232   8.884  0.4854 -0.5851  0.4959
 3800WAT      O17004   7.200   1.042   6.747  0.9562  0.2840  0.0980
 3800WAT     H117005   7.202   1.094   6.667 -1.2514 -1.4446 -1.2140
 3800WAT     H217006   7.291   1.036   6.775  1.3727  4.4958  0.2029
 3800WAT    EPW17007   7.212   1.048   6.740  0.7203  0.6116 -0.0610
 3801WAT      O17008   7.122   9.957   8.022 -0.8464  0.6134 -0.4468
 3801WAT     H117009   7.154   9.877   8.064 -1.4987  0.4373 -0.2687
 3801WAT     H217010   7.122  10.022   8.092 -1.4047  0.4647 -0.3013
 3801WAT    EPW17011   7.126   9.955   8.037 -1.0061  0.5708 -0.4039
 3802WAT      O17012   6.729   2.619   3.457  0.6490  0.2733  0.0450
 3802WAT     H117013   6.737   2.536   3.409  0.9110 -0.1273  0.7514
 3802WAT     H217014   6.785   2.607   3.533 -1.1112  0.1809  1.4010
 3802WAT    EPW17015   6.737   2.606   3.461  0.4513  0.2083  0.3171
 3803WAT      O17016   9.107   0.582   7.958 -0.1169 -0.0738  0.5014
 3803WAT     H117017   9.077   0.506   7.907 -0.8002  1.1754 -1.0259
 3803WAT     H217018   9.181   0.616   7.909 -2.1792  2.5066 -1.0112
 3803WAT    EPW17019   9.113   0.576   7.945 -0.4783  0.4314  0.1006
 3804WAT      O17020   7.339   3.314   7.613  0.1873 -0.0960  0.5817
 3804WAT     H117021   7.294   3.231   7.627  1.3845 -0.6531  1.2859
 3804WAT     H217022   7.345   3.353   7.701 -0.1729  0.6445  0.2873
 3804WAT    EPW17023   7.334   3.308   7.627  0.2978 -0.0720  0.6356
 3805WAT      O17024   2.641   2.588   6.973 -0.8044  0.8866 -0.0765
 3805WAT     H117025   2.581   2.569   6.901  1.0547 -1.0697 -1.2103
 3805WAT     H217026   2.588   2.576   7.052 -2.4369  1.3551 -1.0460
 3805WAT    EPW17027   2.626   2.584   6.974 -0.7745  0.6902 -0.3541
 3806WAT      O17028   4.205   1.117   7.113  0.1457 -0.2746 -0.0694
 3806WAT     H117029   4.280   1.064   7.086 -0.1904 -1.1929  0.7385
 3806WAT     H217030   4.198   1.103   7.208 -0.8804  0.0002 -0.0852
 3806WAT    EPW17031   4.214   1.108   7.122 -0.0341 -0.3595  0.0350
 3807WAT      O17032   5.264   1.708   8.735 -0.2954 -0.3148  0.0812
 3807WAT     H117033   5.229   1.748   8.656 -0.4818 -0.9378 -0.1649
 3807WAT     H217034   5.351   1.676   8.709  0.4300  1.1080  0.6510
 3807WAT    EPW17035   5.271   1.709   8.721 -0.2241 -0.2093  0.1235
 3808WAT      O17036   3.252   3.630   4.002 -0.1824  0.2009  0.4884
 3808WAT     H117037   3.291   3.588   3.926  0.2877  0.9904  0.2743
 3808WAT     H217038   3.158   3.627   3.987 -0.0547  1.4541 -0.7565
 3808WAT    EPW17039   3.245   3.624   3.990 -0.1036  0.4704  0.2959
 3809WAT      O17040   4.826  10.367   8.384 -0.7203 -1.0388 -0.7533
 3809WAT     H117041   4.840  10.406   8.298 -0.8373  0.0710 -0.2963
 3809WAT     H217042   4.736  10.333   8.381 -0.3646 -1.9572 -1.4033
 3809WAT    EPW17043   4.816  10.368   8.373 -0.6886 -1.0136 -0.7792
 3810WAT      O17044   7.103   0.799   5.553  0.0519  0.3712  0.1744
 3810WAT     H117045   7.101   0.771   5.461 -0.9224 -1.8396  0.7925
 3810WAT     H217046   7.192   0.830   5.567  0.5352 -0.2731 -1.2424
 3810WAT    EPW17047   7.114   0.800   5.543 -0.0129 -0.0054  0.0689
 3811WAT      O17048   6.383   4.219   6.825 -0.0750 -0.2255  0.1661
 3811WAT     H117049   6.319   4.256   6.764  2.8059  0.9376 -2.4253
 3811WAT     H217050   6.410   4.293   6.879  0.4728 -0.2377 -0.0872
 3811WAT    EPW17051   6.378   4.233   6.824  0.3772 -0.0739 -0.2091
 3812WAT      O17052   7.946   7.925   0.954 -0.1681  0.0897 -0.6243
 3812WAT     H117053   7.873   7.866   0.972  1.3335 -2.1989 -1.5827
 3812WAT     H217054   7.950   7.982   1.031 -0.8878 -1.9478  1.0177
 3812WAT    EPW17055   7.937   7.925   0.967 -0.0648 -0.4809 -0.5342
 3813WAT      O17056   3.243   3.187   6.851 -0.8971 -0.6017  0.3506
 3813WAT     H117057   3.154   3.222   6.855 -0.3281  1.8406 -3.4056
 3813WAT     H217058   3.300   3.264   6.848  1.0619 -1.9777 -1.0098
 3813WAT    EPW17059   3.239   3.202   6.851 -0.5639 -0.4611 -0.3242
 3814WAT      O17060   3.820   2.299   7.239  0.4552 -0.0889 -0.0860
 3814WAT     H117061   3.795   2.386   7.209  2.3165  1.6029  2.7756
 3814WAT     H217062   3.900   2.279   7.190 -1.6171 -1.7802 -3.0932
 3814WAT    EPW17063   3.828   2.308   7.229  0.4274 -0.0889 -0.1051
 3815WAT      O17064   6.042   3.603   8.461 -0.1901  0.0433 -0.8809
 3815WAT     H117065   6.036   3.592   8.556 -1.4248 -3.1074 -1.2107
 3815WAT     H217066   6.084   3.689   8.450  1.4470 -0.1329  2.4994
 3815WAT    EPW17067   6.047   3.613   8.473 -0.1369 -0.3954 -0.4783
 3816WAT      O17068   8.839   2.389   7.674 -0.1320  0.0149  0.3136
 3816WAT     H117069   8.932   2.386   7.649  0.2317  1.8372  1.2852
 3816WAT     H217070   8.792   2.378   7.591  0.9453 -0.4603 -0.2629
 3816WAT    EPW17071   8.845   2.387   7.660  0.0582  0.1925  0.3657
 3817WAT      O17072   2.268   6.689   0.101 -0.2906 -0.4550  0.5292
 3817WAT     H117073   2.262   6.651   0.014  2.0970  0.1834  0.0161
 3817WAT     H217074   2.231   6.777   0.092  3.2089  1.0752 -0.9309
 3817WAT    EPW17075   2.263   6.696   0.089  0.4859 -0.1690  0.2689
 3818WAT      O17076   0.300   7.764   0.679 -0.2494 -0.5122  0.0125
 3818WAT     H117077   0.239   7.719   0.737 -0.1685  0.4320  0.8622
 3818WAT     H217078   0.282   7.857   0.694  1.2685 -0.2209  0.1609
 3818WAT    EPW17079   0.290   7.770   0.689 -0.0385 -0.3490  0.1441
 3819WAT      O17080   5.841   3.048   6.081  0.0097 -0.6862 -0.1617
 3819WAT     H117081   5.788   3.127   6.074  0.9145 -0.0876 -0.5687
 3819WAT     H217082   5.802   2.999   6.153 -0.3608  0.3054  0.3310
 3819WAT    EPW17083   5.829   3.052   6.090  0.0803 -0.4766 -0.1504
 3820WAT      O17084   6.981   3.385   7.135 -0.2188  0.2716 -0.2237
 3820WAT     H117085   7.076   3.389   7.146 -0.3137 -1.6247  2.0073
 3820WAT     H217086   6.946   3.416   7.218 -1.5191 -0.3896 -0.4999
 3820WAT    EPW17087   6.989   3.390   7.147 -0.4032 -0.0656  0.0341
 3821WAT      O17088   5.648   1.725   8.309  0.4187 -0.3004 -0.4578
 3821WAT     H117089   5.632   1.803   8.256  1.9049 -1.4036 -2.6655
 3821WAT     H217090   5.737   1.735   8.341  0.3248 -0.7038 -0.0574
 3821WAT    EPW17091   5.658   1.737   8.306  0.6022 -0.4992 -0.6962
 3822WAT      O17092   3.763   1.755   8.758 -0.2021 -0.0521 -0.3044
 3822WAT     H117093   3.813   1.751   8.840  0.5891  0.6879 -0.7471
 3822WAT     H217094   3.777   1.670   8.717  0.7314  0.1687 -0.4470
 3822WAT    EPW17095   3.771   1.743   8.764  0.0254  0.0747 -0.3815
 3823WAT      O17096   7.370   3.265   8.760  1.0024  0.0540  0.4343
 3823WAT     H117097   7.356   3.273   8.854 -0.4330 -3.2134  0.6173
 3823WAT     H217098   7.328   3.343   8.723 -1.1248 -0.0871  2.3391
 3823WAT    EPW17099   7.362   3.277   8.767  0.5326 -0.3955  0.7091
 3824WAT      O17100   8.384   2.274   6.085 -0.1384 -0.7160 -0.3648
 3824WAT     H117101   8.421   2.347   6.037 -0.9917  1.3237  1.8416
 3824WAT     H217102   8.289   2.286   6.078 -0.2875 -0.9583  0.9154
 3824WAT    EPW17103   8.376   2.285   6.078 -0.2704 -0.4790  0.0951
 3825WAT      O17104   2.009   2.974   5.371  0.1262  0.3261 -0.1486
 3825WAT     H117105   1.924   3.006   5.404  0.0589 -0.0504  0.0499
 3825WAT     H217106   2.049   2.931   5.446  0.4763  0.4596 -0.2564
 3825WAT    EPW17107   2.003   2.973   5.385  0.1634  0.2940 -0.1369
 3826WAT      O17108   4.654   2.029   5.649  0.1631 -0.1368 -0.1031
 3826WAT     H117109   4.580   1.985   5.607 -1.9126  0.9813  2.1337
 3826WAT     H217110   4.711   1.957   5.678 -1.9145 -1.2847  1.3283
 3826WAT    EPW17111   4.652   2.013   5.647 -0.3846 -0.1407  0.3805
 3827WAT      O17112   6.528   2.498   5.786  0.1973 -0.3907  0.2167
 3827WAT     H117113   6.578   2.525   5.863  0.6358 -2.1917  0.5985
 3827WAT     H217114   6.494   2.580   5.750  0.2079  0.5245  2.1589
 3827WAT    EPW17115   6.530   2.512   5.791  0.2565 -0.5076  0.5231
 3828WAT      O17116   6.851   1.902   5.889 -0.5814 -0.8679 -0.2777
 3828WAT     H117117   6.888   1.919   5.802  0.0721 -3.8655 -0.6824
 3828WAT     H217118   6.926   1.910   5.949 -0.3867 -1.7283 -0.3995
 3828WAT    EPW17119   6.866   1.906   5.886 -0.4697 -1.3767 -0.3469
 3829WAT      O17120   3.951   1.889   5.847 -0.5151  0.1122  0.2944
 3829WAT     H117121   3.863   1.922   5.831 -0.1872  1.3467  0.9091
 3829WAT     H217122   3.956   1.808   5.796 -1.3604  1.0147 -1.3058
 3829WAT    EPW17123   3.940   1.883   5.838 -0.5834  0.3940  0.1645
 3830WAT      O17124   8.197   2.273   8.289 -1.0197  0.0084 -0.4601
 3830WAT     H117125   8.267   2.326   8.327 -0.4849 -0.3382 -0.9309
 3830WAT     H217126   8.120   2.330   8.289 -1.0263  0.0484  1.0426
 3830WAT    EPW17127   8.196   2.287   8.294 -0.9503 -0.0322 -0.3247
 3831WAT      O17128   4.112   4.106   8.439  0.4498 -0.2264  0.2828
 3831WAT     H117129   4.143   4.029   8.391  4.3330 -0.1791  2.2682
 3831WAT     H217130   4.144   4.180   8.389  0.2487 -0.0365  0.4333
 3831WAT    EPW17131   4.120   4.106   8.426  0.9353 -0.1953  0.5646
 3832WAT      O17132   7.463   4.729   7.086  0.3887  0.1395 -0.1775
 3832WAT     H117133   7.557   4.713   7.073  0.5548  1.1969 -0.4494
 3832WAT     H217134   7.431   4.754   6.999  0.0221  0.5309  0.0652
 3832WAT    EPW17135   7.471   4.731   7.073  0.3624  0.3304 -0.1812
 3833WAT      O17136   4.558   1.645   8.491 -0.5347 -0.4162  0.0326
 3833WAT     H117137   4.580   1.734   8.461  3.8638 -0.5364  2.0112
 3833WAT     H217138   4.495   1.659   8.561 -0.3327  1.1462 -0.0540
 3833WAT    EPW17139   4.553   1.659   8.497  0.0718 -0.2260  0.2823
 3834WAT      O17140   9.201   4.358   8.081 -0.0430  0.2057  0.3460
 3834WAT     H117141   9.135   4.329   8.017 -0.0058 -1.4762  1.0075
 3834WAT     H217142   9.249   4.427   8.036 -0.0466 -0.8875 -1.4447
 3834WAT    EPW17143   9.198   4.363   8.067 -0.0386 -0.1605  0.1974
 3835WAT      O17144   0.115  10.197   4.239 -0.0112 -0.2451 -0.2130
 3835WAT     H117145   0.168  10.275   4.219  1.2994 -1.2411 -0.7453
 3835WAT     H217146   0.090  10.209   4.331  2.5594 -0.5100  0.5911
 3835WAT    EPW17147   0.119  10.209   4.249  0.5007 -0.4110 -0.1769
 3836WAT      O17148   4.022   2.051   6.050 -0.4566  0.3185 -0.4800
 3836WAT     H117149   3.988   1.978   5.999  1.6328 -2.9835  2.3569
 3836WAT     H217150   3.953   2.072   6.113 -0.9818  0.7145 -1.1724
 3836WAT    EPW17151   4.009   2.044   6.052 -0.2506 -0.0648 -0.1972
 3837WAT      O17152   1.365   5.491   1.107  0.5917  0.2550  0.1447
 3837WAT     H117153   1.434   5.483   1.173  0.6029 -1.5288 -0.0322
 3837WAT     H217154   1.369   5.409   1.058 -0.3314  0.9771 -1.1891
 3837WAT    EPW17155   1.374   5.479   1.109  0.4714  0.1152 -0.0545
 3838WAT      O17156   7.252   1.765   6.957 -0.7555  0.0532  0.6969
 3838WAT     H117157   7.273   1.673   6.942  2.7359  0.1848  3.5171
 3838WAT     H217158   7.306   1.812   6.893 -0.2087  0.1538  1.2181
 3838WAT    EPW17159   7.262   1.759   6.947 -0.2229  0.0838  1.1375
 3839WAT      O17160   6.474   2.911   8.874 -0.4321  0.1502 -0.8137
 3839WAT     H117161   6.498   2.834   8.823  0.9844  1.2392 -1.8792
 3839WAT     H217162   6.556   2.959   8.885 -1.5564  2.4579 -1.8142
 3839WAT    EPW17163   6.488   2.907   8.869 -0.3934  0.5982 -1.0862
 3840WAT      O17164   4.134   1.436   8.675 -0.3379  0.0474 -0.0372
 3840WAT     H117165   4.077   1.463   8.746 -1.2005  3.4976 -1.7946
 3840WAT     H217166   4.087   1.460   8.595  2.0574 -0.2683 -1.6793
 3840WAT    EPW17167   4.120   1.443   8.673 -0.1359  0.4609 -0.4854
 3841WAT      O17168  10.722   0.877   7.025  0.2691 -0.3494 -0.6801
 3841WAT     H117169  10.726   0.808   6.959  1.8802  0.9006 -1.9555
 3841WAT     H217170  10.807   0.874   7.068 -0.7582 -1.1688  1.4834
 3841WAT    EPW17171  10.734   0.867   7.022  0.3462 -0.2926 -0.5629
 3842WAT      O17172   6.866   1.658   7.645 -0.0625 -0.1790 -0.2595
 3842WAT     H117173   6.841   1.750   7.648  0.2216 -0.0377 -1.5456
 3842WAT     H217174   6.783   1.611   7.642 -0.2116  0.0138  0.5825
 3842WAT    EPW17175   6.852   1.664   7.645 -0.0448 -0.1349 -0.3181
 3843WAT      O17176   5.685   1.636   6.521  0.2691 -0.2698  0.3703
 3843WAT     H117177   5.765   1.624   6.573  1.3630 -2.4881 -1.6513
 3843WAT     H217178   5.691   1.726   6.488  0.6338  0.4356  2.2347
 3843WAT    EPW17179   5.696   1.647   6.524  0.4616 -0.4694  0.3498
 3844WAT      O17180   9.517   3.648   6.863 -0.4196 -0.2385 -0.1334
 3844WAT     H117181   9.487   3.678   6.949  0.8688  0.7021  0.0120
 3844WAT     H217182   9.568   3.721   6.828 -0.4929 -0.8009 -1.4844
 3844WAT    EPW17183   9.520   3.661   6.870 -0.2594 -0.1886 -0.2921
 3845WAT      O17184   9.525   5.066   2.321 -0.3076 -0.2012  0.6084
 3845WAT     H117185   9.552   4.992   2.376  0.6341 -0.7641 -0.5497
 3845WAT     H217186   9.510   5.137   2.383 -1.4479 -1.4065  1.7738
 3845WAT    EPW17187   9.527   5.065   2.336 -0.3333 -0.4342  0.6095
 3846WAT      O17188   9.178   3.621   4.206 -0.2291 -1.0014  0.0412
 3846WAT     H117189   9.111   3.689   4.217 -0.6873 -1.2418 -1.0826
 3846WAT     H217190   9.148   3.549   4.262  1.2610  0.3485  2.7846
 3846WAT    EPW17191   9.165   3.620   4.215 -0.0935 -0.8551  0.2546
 3847WAT      O17192   8.269   3.538   7.950  0.3616 -0.5348 -0.6360
 3847WAT     H117193   8.214   3.546   7.871  0.2186  0.4260 -0.4550
 3847WAT     H217194   8.270   3.444   7.969  0.2127 -0.7557 -1.6548
 3847WAT    EPW17195   8.262   3.527   7.942  0.3233 -0.4374 -0.7465
 3848WAT      O17196   6.253   1.802   6.946 -0.5496 -0.4584 -1.0060
 3848WAT     H117197   6.344   1.788   6.919  1.2703 -2.0549  4.5918
 3848WAT     H217198   6.254   1.885   6.993 -0.9881 -1.9920  1.9346
 3848WAT    EPW17199   6.265   1.811   6.949 -0.3674 -0.8712  0.1202
 3849WAT      O17200   5.044   1.530   6.532  0.8042  0.0616  0.4861
 3849WAT     H117201   4.995   1.458   6.572  0.7037 -0.0900  0.0890
 3849WAT     H217202   5.121   1.488   6.494  0.9233  0.2135  0.5576
 3849WAT    EPW17203   5.048   1.515   6.533  0.8066  0.0616  0.4432
 3850WAT      O17204  10.941   7.624   4.765  0.1576 -0.2778 -0.4891
 3850WAT     H117205  10.901   7.537   4.772  1.1734 -0.7668 -0.5970
 3850WAT     H217206  10.883   7.672   4.706 -0.8036 -0.6437  0.1213
 3850WAT    EPW17207  10.928   7.619   4.758  0.1655 -0.3905 -0.4232
 3851WAT      O17208   1.664  10.215   5.022 -0.4246  0.1246 -0.3084
 3851WAT     H117209   1.636  10.306   5.014 -0.7186 -0.0520 -1.3679
 3851WAT     H217210   1.593  10.172   5.069  0.2673  0.6775  1.3282
 3851WAT    EPW17211   1.651  10.221   5.027 -0.3722  0.1740 -0.2322
 3852WAT      O17212   6.173   1.520   7.442  0.5095  0.3508 -0.8207
 3852WAT     H117213   6.143   1.554   7.526 -0.0921 -1.7351 -0.1339
 3852WAT     H217214   6.097   1.476   7.404  1.3683 -0.7368 -1.3586
 3852WAT    EPW17215   6.159   1.519   7.448  0.5436 -0.0677 -0.8008
 3853WAT      O17216   8.090   7.811   1.241 -0.0359 -0.7470  0.1617
 3853WAT     H117217   8.158   7.747   1.263 -0.8227 -1.1615  1.5279
 3853WAT     H217218   8.008   7.763   1.253 -0.6084  0.2200  0.1530
 3853WAT    EPW17219   8.088   7.796   1.246 -0.2155 -0.6740  0.3408
 3854WAT      O17220   5.815   4.543   4.975 -0.7716  0.4119  0.0122
 3854WAT     H117221   5.848   4.566   5.062  1.3086  0.7860 -0.8068
 3854WAT     H217222   5.756   4.469   4.990  1.5809 -1.3311  1.5426
 3854WAT    EPW17223   5.812   4.536   4.988 -0.1867  0.2313  0.1061
 3855WAT      O17224   3.863   2.032   0.740 -0.1869  0.6232  0.3362
 3855WAT     H117225   3.826   2.107   0.786 -0.0625 -0.4270  2.2759
 3855WAT     H217226   3.956   2.035   0.760 -0.3695 -0.7517  1.5978
 3855WAT    EPW17227   3.870   2.042   0.748 -0.1947  0.3034  0.7585
 3856WAT      O17228   7.646   3.734   6.817  0.5356 -0.4415  0.8239
 3856WAT     H117229   7.608   3.656   6.775 -1.2586  0.3904  0.8379
 3856WAT     H217230   7.706   3.769   6.751 -0.8207 -0.2242 -0.3278
 3856WAT    EPW17231   7.649   3.728   6.803  0.1199 -0.3031  0.6740
 3857WAT      O17232   0.009   9.826   0.982 -0.2383 -0.1803 -0.4689
 3857WAT     H117233   0.058   9.895   1.027 -2.5580  1.0171  0.4194
 3857WAT     H217234   0.064   9.749   0.990  0.3638  0.4294  2.8395
 3857WAT    EPW17235   0.022   9.825   0.989 -0.4648  0.0582  0.0846
 3858WAT      O17236   1.701   1.593   7.041  0.0594  0.7321  0.0173
 3858WAT     H117237   1.767   1.544   7.090 -0.2214  0.7502  0.4166
 3858WAT     H217238   1.648   1.636   7.108 -1.2491 -0.4163 -0.2294
 3858WAT    EPW17239   1.703   1.592   7.057 -0.1503  0.5830  0.0372
 3859WAT      O17240   5.481   5.111   8.675 -0.4846  0.3319 -0.6560
 3859WAT     H117241   5.390   5.082   8.664 -1.1594  1.9442  0.2339
 3859WAT     H217242   5.492   5.181   8.611  1.0907 -1.6836 -2.7306
 3859WAT    EPW17243   5.470   5.116   8.665 -0.3662  0.2787 -0.8121
 3860WAT      O17244   6.958   1.446   8.676  0.1673 -0.1776  0.1465
 3860WAT     H117245   6.932   1.436   8.768  0.9379  1.3886  0.5792
 3860WAT     H217246   6.915   1.527   8.648  1.7182  0.5746 -0.1643
 3860WAT    EPW17247   6.949   1.455   8.685  0.4735  0.1281  0.1621
 3861WAT      O17248   7.397   6.750   1.375  0.0416  0.4493 -0.3277
 3861WAT     H117249   7.394   6.739   1.470 -0.8985 -0.4691 -0.4552
 3861WAT     H217250   7.473   6.699   1.348  0.5277  1.0017 -0.0527
 3861WAT    EPW17251   7.407   6.742   1.384 -0.0184  0.4010 -0.3083
 3862WAT      O17252   7.880   0.923   7.321  0.4128 -0.3183  0.1444
 3862WAT     H117253   7.915   0.850   7.372 -0.0910 -1.1615 -0.6896
 3862WAT     H217254   7.911   1.002   7.367  4.5216 -0.9184 -1.1269
 3862WAT    EPW17255   7.889   0.924   7.334  0.8881 -0.5086 -0.1333
 3863WAT      O17256   9.940   7.446   0.174 -0.2106  0.1126 -0.1154
 3863WAT     H117257  10.034   7.432   0.189 -0.4405 -0.2243  1.1498
 3863WAT     H217258   9.929   7.541   0.180 -0.0064  0.1228  0.1550
 3863WAT    EPW17259   9.951   7.456   0.177 -0.2146  0.0691  0.0872
 3864WAT      O17260   7.045   4.754   2.570 -0.6375 -0.6777 -0.0417
 3864WAT     H117261   6.977   4.820   2.557 -1.8702 -1.4627  1.9542
 3864WAT     H217262   7.002   4.671   2.548  0.6214 -0.9537 -1.6597
 3864WAT    EPW17263   7.030   4.752   2.565 -0.6340 -0.8178  0.0081
 3865WAT      O17264   5.321   2.897   6.965  0.3254  0.7122  0.2991
 3865WAT     H117265   5.405   2.885   6.921 -0.2273  2.0172 -1.2266
 3865WAT     H217266   5.333   2.976   7.018  0.1675  0.6857  0.3739
 3865WAT    EPW17267   5.334   2.906   6.966  0.2317  0.8810  0.1078
 3866WAT      O17268   7.995   2.760   6.236  0.0291 -0.4655 -0.1750
 3866WAT     H117269   7.994   2.738   6.329 -0.5260 -1.0249 -0.3016
 3866WAT     H217270   8.015   2.677   6.193 -0.2606 -0.3233 -0.5829
 3866WAT    EPW17271   7.998   2.746   6.243 -0.0820 -0.5205 -0.2453
 3867WAT      O17272   8.224   7.994   0.308  0.3721 -0.1015 -1.0388
 3867WAT     H117273   8.300   7.937   0.298  0.5192  0.3577 -3.1135
 3867WAT     H217274   8.247   8.053   0.380 -0.0075 -2.8639  1.5578
 3867WAT    EPW17275   8.237   7.994   0.316  0.3414 -0.4051 -0.9699
 3868WAT      O17276   3.755   2.328   6.417 -0.0079 -0.3210  0.4662
 3868WAT     H117277   3.748   2.267   6.491 -1.6507  0.1270  0.7314
 3868WAT     H217278   3.793   2.275   6.346  1.7677 -0.7045  1.6441
 3868WAT    EPW17279   3.759   2.313   6.417  0.0097 -0.3127  0.6566
 3869WAT      O17280   1.784   9.900   7.991  0.5066  0.9563  0.2970
 3869WAT     H117281   1.875   9.889   8.017  0.0952 -0.0172  1.4248
 3869WAT     H217282   1.734   9.854   8.058 -0.6801 -0.9143 -1.7315
 3869WAT    EPW17283   1.789   9.892   8.003  0.2958  0.5813  0.1783
 3870WAT      O17284   4.861   2.431   6.433  0.9270 -0.3068  0.2551
 3870WAT     H117285   4.872   2.489   6.508 -1.1621  1.6798 -0.8727
 3870WAT     H217286   4.902   2.477   6.360  3.5684 -2.5210  0.1530
 3870WAT    EPW17287   4.868   2.445   6.433  0.9999 -0.3369  0.0927
 3871WAT      O17288   5.730   9.134   0.503  0.3712  0.4300 -0.1946
 3871WAT     H117289   5.755   9.042   0.511  2.0314  0.7291 -1.3290
 3871WAT     H217290   5.778   9.178   0.572 -0.2251  0.4905  0.1875
 3871WAT    EPW17291   5.740   9.128   0.513  0.5114  0.4773 -0.2939
 3872WAT      O17292   2.925   8.763   0.170  0.1683  0.1758 -0.8565
 3872WAT     H117293   2.928   8.720   0.084 -0.2479 -1.9876  0.1335
 3872WAT     H217294   2.906   8.692   0.231 -1.2223  1.9122  0.8520
 3872WAT    EPW17295   2.923   8.748   0.167 -0.0699  0.1192 -0.5006
 3873WAT      O17296   3.861   1.857   8.320 -1.1067  0.4098 -0.1389
 3873WAT     H117297   3.923   1.873   8.390 -0.9258  1.0327 -0.4315
 3873WAT     H217298   3.815   1.940   8.309 -1.8033  0.0296 -0.1046
 3873WAT    EPW17299   3.863   1.870   8.328 -1.1747  0.4417 -0.1731
 3874WAT      O17300   7.608   3.951   6.452 -0.8102 -0.2992  0.3420
 3874WAT     H117301   7.675   3.911   6.397 -0.3782 -0.0765  0.7030
 3874WAT     H217302   7.592   4.036   6.412 -0.6950 -0.2494  0.4022
 3874WAT    EPW17303   7.615   3.957   6.440 -0.7381 -0.2632  0.3977
 3875WAT      O17304   5.756   3.158   8.184  0.2208 -0.5561  0.4452
 3875WAT     H117305   5.734   3.208   8.263  2.9627 -0.4531  1.2280
 3875WAT     H217306   5.673   3.118   8.158 -1.1087  0.7323  2.4143
 3875WAT    EPW17307   5.742   3.159   8.191  0.4065 -0.3726  0.8078
 3876WAT      O17308   8.733   5.495   8.746  0.0136  0.1410 -0.0392
 3876WAT     H117309   8.648   5.523   8.782 -0.4291 -1.4868  0.2595
 3876WAT     H217310   8.789   5.484   8.823 -0.4908 -1.9035  0.0775
 3876WAT    EPW17311   8.729   5.497   8.761 -0.1116 -0.3433  0.0157
 3877WAT      O17312   5.352   1.979   8.626 -0.1997  0.2832 -0.2512
 3877WAT     H117313   5.397   2.037   8.565  0.2827  0.4055  0.2077
 3877WAT     H217314   5.274   1.950   8.579  0.2905  0.1752 -1.0157
 3877WAT    EPW17315   5.348   1.983   8.612 -0.0715  0.2850 -0.2918
 3878WAT      O17316   7.784   0.343   6.602 -0.5502  0.1487  0.4799
 3878WAT     H117317   7.716   0.279   6.582 -0.1458 -0.6312  1.5481
 3878WAT     H217318   7.810   0.378   6.517 -1.9632  0.1405  0.0205
 3878WAT    EPW17319   7.779   0.339   6.588 -0.6828  0.0448  0.5603
 3879WAT      O17320   3.252   8.153   1.902 -0.4547  0.0095 -0.7503
 3879WAT     H117321   3.314   8.225   1.911  0.3878 -0.8095  0.2845
 3879WAT     H217322   3.290   8.095   1.837  0.4629 -1.0427  0.6690
 3879WAT    EPW17323   3.265   8.155   1.895 -0.2226 -0.2379 -0.4267
 3880WAT      O17324   3.807   2.100   8.518 -0.2551 -0.2658  0.8535
 3880WAT     H117325   3.768   2.181   8.485 -1.1543 -1.3432 -0.8639
 3880WAT     H217326   3.801   2.108   8.613 -2.0276  0.9048  0.6994
 3880WAT    EPW17327   3.801   2.111   8.526 -0.6075 -0.2534  0.6065
 3881WAT      O17328   8.967   3.012   4.755  0.3271 -0.0954 -0.4167
 3881WAT     H117329   9.005   2.953   4.690 -3.7895 -1.6710 -1.7148
 3881WAT     H217330   9.006   2.984   4.838  0.5476 -2.8625 -1.3501
 3881WAT    EPW17331   8.977   3.000   4.758 -0.1860 -0.6682 -0.7110
 3882WAT      O17332   7.648   0.460   7.692  0.4706 -0.3789 -0.0588
 3882WAT     H117333   7.647   0.365   7.704  1.1414 -0.2742  0.9484
 3882WAT     H217334   7.605   0.474   7.608 -0.3030 -1.5216  0.1244
 3882WAT    EPW17335   7.642   0.450   7.682  0.4568 -0.5158  0.0985
 3883WAT      O17336   5.927   2.970   8.314  0.3128 -0.3427  0.0734
 3883WAT     H117337   5.843   2.982   8.269 -0.0185 -1.5124  0.3392
 3883WAT     H217338   5.984   2.930   8.249  0.4942 -0.0737  0.0644
 3883WAT    EPW17339   5.923   2.967   8.300  0.2928 -0.4615  0.1073
 3884WAT      O17340   6.826   3.848   8.674  0.0292  0.0964  0.2129
 3884WAT     H117341   6.862   3.931   8.644  0.6414 -0.4154 -0.5144
 3884WAT     H217342   6.847   3.786   8.604 -1.6065 -0.3896  0.0920
 3884WAT    EPW17343   6.833   3.851   8.661 -0.1056 -0.0354  0.1011
 3885WAT      O17344   7.683   1.644   7.321  0.0366  0.2646  0.3717
 3885WAT     H117345   7.631   1.717   7.353 -0.5260  0.5433 -1.0793
 3885WAT     H217346   7.620   1.588   7.275  0.6826 -0.4246  0.3053
 3885WAT    EPW17347   7.668   1.646   7.319  0.0474  0.2103  0.1717
 3886WAT      O17348  10.380   8.154   0.664  0.5272 -0.5019  0.4461
 3886WAT     H117349  10.312   8.181   0.726  0.8124 -1.4652  1.1907
 3886WAT     H217350  10.333   8.108   0.595  0.1303  1.1024 -0.4226
 3886WAT    EPW17351  10.365   8.152   0.663  0.5126 -0.4177  0.4297
 3887WAT      O17352   7.087   3.771   8.057 -0.0434 -0.1176 -0.6048
 3887WAT     H117353   7.021   3.701   8.061 -1.2115  0.9969  1.5020
 3887WAT     H217354   7.170   3.725   8.072 -0.8305 -1.0868  1.2854
 3887WAT    EPW17355   7.089   3.755   8.060 -0.3011 -0.0985 -0.0772
 3888WAT      O17356   3.927   1.283   6.244  0.0749 -0.4819  0.3565
 3888WAT     H117357   3.991   1.290   6.314  0.1494  0.3772  0.2097
 3888WAT     H217358   3.903   1.190   6.242  2.0221 -1.0066 -0.2283
 3888WAT    EPW17359   3.932   1.271   6.253  0.3417 -0.4378  0.2599
 3889WAT      O17360   6.889   9.946   3.604  0.6477  0.7341  0.0707
 3889WAT     H117361   6.923  10.014   3.548 -0.0665 -0.0480 -1.3642
 3889WAT     H217362   6.802   9.978   3.631 -0.3357 -0.2008 -1.8196
 3889WAT    EPW17363   6.882   9.959   3.600  0.4239  0.5074 -0.3679
 3890WAT      O17364   9.449   0.398   7.723 -0.1048  0.2216  0.1744
 3890WAT     H117365   9.434   0.358   7.637  3.2988 -1.8183  0.3078
 3890WAT     H217366   9.437   0.326   7.785  1.7302  0.4640  0.8898
 3890WAT    EPW17367   9.446   0.383   7.720  0.5856 -0.0155  0.2861
 3891WAT      O17368   6.778   1.330   7.157 -0.1752 -0.0522 -0.0658
 3891WAT     H117369   6.714   1.369   7.098 -0.6946 -1.2051 -0.3010
 3891WAT     H217370   6.808   1.402   7.212 -0.3043  0.8666 -1.1821
 3891WAT    EPW17371   6.774   1.344   7.157 -0.2606 -0.0830 -0.2441
 3892WAT      O17372   7.472   1.439   7.711 -0.8239  0.0588 -0.5549
 3892WAT     H117373   7.415   1.480   7.777 -2.3827 -0.4147 -1.5656
 3892WAT     H217374   7.533   1.386   7.762 -1.6597  0.1196  0.5444
 3892WAT    EPW17375   7.472   1.437   7.727 -1.1396  0.0044 -0.5431
 3893WAT      O17376   9.407   8.264   0.444 -0.3933 -0.4721  0.1619
 3893WAT     H117377   9.411   8.234   0.353 -1.8584 -0.4043  0.0634
 3893WAT     H217378   9.482   8.221   0.486  0.7342  0.0455 -1.2156
 3893WAT    EPW17379   9.418   8.254   0.437 -0.4377 -0.3943 -0.0327
 3894WAT      O17380   5.315   2.751   8.910 -0.2415 -0.2227 -0.3831
 3894WAT     H117381   5.404   2.772   8.938 -0.5590 -0.2127  0.6735
 3894WAT     H217382   5.326   2.709   8.824  0.6770  0.9061 -0.8436
 3894WAT    EPW17383   5.328   2.748   8.902 -0.1624 -0.0724 -0.3042
 3895WAT      O17384   7.772   0.913   5.667 -0.0235  0.5764  0.8654
 3895WAT     H117385   7.855   0.931   5.712  0.1720  0.5770  0.5081
 3895WAT     H217386   7.740   0.833   5.708  0.5231  0.1675  0.5066
 3895WAT    EPW17387   7.779   0.905   5.678  0.0746  0.5225  0.7710
 3896WAT      O17388   7.455   1.454   4.721 -0.1265 -0.2515  0.5507
 3896WAT     H117389   7.453   1.389   4.650 -0.2480 -0.4294  0.7135
 3896WAT     H217390   7.543   1.448   4.757  0.1140  0.2362  0.0541
 3896WAT    EPW17391   7.466   1.444   4.716 -0.1106 -0.2106  0.5064
 3897WAT      O17392   5.730   5.677   7.289  0.2357  0.5667 -0.3082
 3897WAT     H117393   5.792   5.619   7.245 -1.3042  0.8981 -3.2093
 3897WAT     H217394   5.785   5.741   7.334  2.0209  0.1536 -1.7664
 3897WAT    EPW17395   5.745   5.678   7.289  0.2680  0.5560 -0.8831
 3898WAT      O17396  10.311   6.515   1.344 -0.3301 -0.0276 -0.1490
 3898WAT     H117397  10.329   6.479   1.257  0.9984  0.0930  0.0671
 3898WAT     H217398  10.223   6.552   1.336  0.3532  1.3586 -1.8872
 3898WAT    EPW17399  10.302   6.515   1.331 -0.0648  0.1712 -0.3496
 3899WAT      O17400   5.715   0.938   6.999  0.0575 -0.2695  0.7577
 3899WAT     H117401   5.675   0.897   7.076 -2.7564  1.2528  0.2526
 3899WAT     H217402   5.660   0.911   6.926  1.6500 -0.2949 -0.4796
 3899WAT    EPW17403   5.702   0.929   7.000 -0.1037 -0.0721  0.5279
 3900WAT      O17404   5.302   1.020   5.171  0.1115  0.2255 -0.1234
 3900WAT     H117405   5.339   1.037   5.258 -0.4568 -1.0798  0.3995
 3900WAT     H217406   5.331   0.931   5.150 -0.6427  0.1295 -0.7905
 3900WAT    EPW17407   5.311   1.010   5.180 -0.0629  0.0407 -0.1423
 3901WAT      O17408   6.410   9.528   2.030 -0.0687  0.6997 -0.4894
 3901WAT     H117409   6.380   9.594   1.968 -2.7280 -1.1544 -1.3482
 3901WAT     H217410   6.459   9.465   1.976  1.3581  1.2623  0.1039
 3901WAT    EPW17411   6.412   9.528   2.015 -0.2310  0.5288 -0.5245
 3902WAT      O17412   3.188   7.416   5.324  0.3426  0.5480  0.3336
 3902WAT     H117413   3.190   7.420   5.229  0.4409  0.7625  0.3441
 3902WAT     H217414   3.138   7.494   5.350  2.5528  1.9884  0.5600
 3902WAT    EPW17415   3.181   7.427   5.315  0.6472  0.7663  0.3648
 3903WAT      O17416   2.489   6.047   0.329  0.5174  0.0963 -0.1190
 3903WAT     H117417   2.474   5.963   0.286 -0.1715 -0.4354  1.1026
 3903WAT     H217418   2.438   6.110   0.279 -0.8751 -0.6378  0.3249
 3903WAT    EPW17419   2.480   6.044   0.317  0.2428 -0.0703  0.1007
 3904WAT      O17420   5.125   6.207   0.133 -0.4016 -0.6975  0.2687
 3904WAT     H117421   5.147   6.297   0.156  0.8589 -0.6359 -1.0692
 3904WAT     H217422   5.029   6.208   0.124 -0.4652  0.3518  0.8412
 3904WAT    EPW17423   5.115   6.219   0.135 -0.2439 -0.5510  0.1678
 3905WAT      O17424   6.976   0.982   7.756  0.2786  0.7751 -0.1031
 3905WAT     H117425   6.913   0.941   7.815 -0.0177  2.3007  0.6979
 3905WAT     H217426   7.035   0.912   7.730  0.7772  0.1551  2.4963
 3905WAT    EPW17427   6.975   0.968   7.760  0.3054  0.8945  0.3455
 3906WAT      O17428   4.606   9.227   4.000  0.4733 -0.2526 -0.3462
 3906WAT     H117429   4.567   9.296   4.054  0.0760  0.3844 -1.4174
 3906WAT     H217430   4.701   9.241   4.008  0.6083  4.1258 -4.8977
 3906WAT    EPW17431   4.613   9.238   4.008  0.4385  0.4086 -1.0879
 3907WAT      O17432   3.118   9.190   5.083 -0.3047 -0.6983  0.1433
 3907WAT     H117433   3.028   9.221   5.092  0.7305  2.8264 -0.1355
 3907WAT     H217434   3.131   9.133   5.159 -2.8213 -1.5633  0.0111
 3907WAT    EPW17435   3.108   9.187   5.094 -0.5001 -0.3471  0.0889
 3908WAT      O17436   9.829   8.176   0.805 -0.0683  0.4415 -0.0677
 3908WAT     H117437   9.767   8.223   0.860  1.6551  0.4140  2.0422
 3908WAT     H217438   9.894   8.243   0.781  0.3427 -0.0250 -0.2730
 3908WAT    EPW17439   9.830   8.191   0.809  0.2127  0.3762  0.1835
 3909WAT      O17440   4.441   0.932   4.698 -0.0871  0.1664  0.2637
 3909WAT     H117441   4.358   0.948   4.742  0.0669  1.3192  0.1625
 3909WAT     H217442   4.418   0.922   4.605 -0.2545 -0.8894  0.4059
 3909WAT    EPW17443   4.427   0.932   4.691 -0.0887  0.1792  0.2692
 3910WAT      O17444   0.662   3.815   4.926  0.3175  0.4517  0.2252
 3910WAT     H117445   0.590   3.806   4.863 -0.8176 -1.3229  1.6800
 3910WAT     H217446   0.731   3.859   4.877 -0.7799 -0.1829 -2.0371
 3910WAT    EPW17447   0.661   3.820   4.911  0.0230  0.1339  0.1185
 3911WAT      O17448   9.335   8.670   1.242  0.6819  0.3202  1.0289
 3911WAT     H117449   9.386   8.745   1.212  1.1454 -1.5651 -3.6420
 3911WAT     H217450   9.400   8.601   1.259  0.0238 -0.5542  0.1188
 3911WAT    EPW17451   9.350   8.671   1.240  0.6566 -0.0434  0.2928
 3912WAT      O17452   5.788   0.877   6.056  0.5976 -0.5472 -0.6920
 3912WAT     H117453   5.780   0.924   5.972 -0.5486 -1.3243 -1.0521
 3912WAT     H217454   5.857   0.812   6.041  0.6099 -0.4796 -0.9346
 3912WAT    EPW17455   5.796   0.875   6.043  0.4480 -0.6407 -0.7715
 3913WAT      O17456   5.166   3.081   6.622 -0.1887 -0.1007 -0.2642
 3913WAT     H117457   5.151   2.986   6.624 -1.5659  0.0708 -1.1734
 3913WAT     H217458   5.199   3.097   6.533  0.2406  0.2607 -0.0423
 3913WAT    EPW17459   5.169   3.070   6.611 -0.3135 -0.0305 -0.3550
 3914WAT      O17460   9.513   6.860   1.113 -0.3859  0.6928  0.0403
 3914WAT     H117461   9.500   6.926   1.182 -1.3188 -0.6897  1.2303
 3914WAT     H217462   9.466   6.783   1.144  3.5779 -1.8548  0.5338
 3914WAT    EPW17463   9.505   6.859   1.126  0.0138  0.1743  0.2624
 3915WAT      O17464   4.922   1.761   5.985 -0.2623 -0.4227  0.2675
 3915WAT     H117465   4.983   1.743   6.056 -0.3881  3.5217  1.6175
 3915WAT     H217466   4.840   1.719   6.012  0.5488 -1.7537  0.7516
 3915WAT    EPW17467   4.919   1.753   5.998 -0.1724 -0.0780  0.5095
 3916WAT      O17468   8.704   5.744   1.531 -0.2512 -0.1640 -0.2046
 3916WAT     H117469   8.685   5.837   1.543  2.2286  0.4430 -0.4784
 3916WAT     H217470   8.763   5.722   1.604  1.8479 -0.6061 -1.9256
 3916WAT    EPW17471   8.709   5.753   1.542  0.3524 -0.1423 -0.4678
 3917WAT      O17472   2.212  10.226   8.613 -0.2354 -0.1297  0.1032
 3917WAT     H117473   2.226  10.139   8.650 -0.6606 -0.9039 -1.4470
 3917WAT     H217474   2.280  10.236   8.547 -1.3805 -0.1512 -1.1308
 3917WAT    EPW17475   2.223  10.216   8.609 -0.4425 -0.2346 -0.2642
 3918WAT      O17476   7.071   4.174   4.897  0.6784 -0.1526  0.1069
 3918WAT     H117477   7.084   4.221   4.979 -2.0223 -0.3504  0.7577
 3918WAT     H217478   7.085   4.239   4.828 -0.1337  0.8761  0.8880
 3918WAT    EPW17479   7.075   4.189   4.898  0.2151 -0.0432  0.2956
 3919WAT      O17480   8.607   9.576   0.772  0.4912 -0.3774  0.9403
 3919WAT     H117481   8.538   9.596   0.709  1.4318 -0.2110 -0.0506
 3919WAT     H217482   8.663   9.654   0.772 -0.1392  0.1475  2.8971
 3919WAT    EPW17483   8.605   9.589   0.764  0.5322 -0.2861  1.0677
 3920WAT      O17484   4.777  10.214   5.134 -0.2869 -0.0941  0.0966
 3920WAT     H117485   4.839  10.208   5.207  0.7154  0.1548 -0.7208
 3920WAT     H217486   4.692  10.228   5.176  0.4857  1.6103  1.1689
 3920WAT    EPW17487   4.774  10.215   5.149 -0.0529  0.1636  0.1302
 3921WAT      O17488   8.516   2.160   5.788  0.0386 -0.0998 -0.3996
 3921WAT     H117489   8.464   2.171   5.868 -0.3036 -2.7308 -0.1512
 3921WAT     H217490   8.598   2.120   5.819 -0.0955 -1.1418 -1.3396
 3921WAT    EPW17491   8.520   2.156   5.803 -0.0243 -0.5842 -0.4909
 3922WAT      O17492   5.362   2.745   5.562 -0.1431 -0.2681 -0.2928
 3922WAT     H117493   5.302   2.816   5.587  1.1098  1.5073 -2.0379
 3922WAT     H217494   5.344   2.730   5.469  1.3446 -0.4349 -0.5799
 3922WAT    EPW17495   5.351   2.753   5.553  0.2184 -0.0558 -0.5608
 3923WAT      O17496   7.725   1.321   6.680  0.8773  0.5228 -0.3845
 3923WAT     H117497   7.794   1.385   6.697  0.9554  1.1127 -2.6251
 3923WAT     H217498   7.660   1.337   6.748  2.4285  0.6745  1.1305
 3923WAT    EPW17499   7.725   1.332   6.691  1.0922  0.6207 -0.4802
 3924WAT      O17500   5.052   0.421   8.505 -0.3090  0.3601  0.0594
 3924WAT     H117501   5.122   0.448   8.446 -0.4978 -0.4490 -0.5439
 3924WAT     H217502   5.078   0.333   8.534 -1.9453 -0.7176 -1.5872
 3924WAT    EPW17503   5.065   0.413   8.501 -0.5498  0.1113 -0.2375
 3925WAT      O17504   4.631   1.310   7.339  0.1162 -0.9062 -0.2133
 3925WAT     H117505   4.624   1.398   7.302 -0.8197 -1.8762 -2.5188
 3925WAT     H217506   4.724   1.288   7.333  0.2778 -0.2636 -0.0860
 3925WAT    EPW17507   4.642   1.318   7.334  0.0141 -0.9493 -0.5009
 3926WAT      O17508   3.546   0.076   0.457  0.3972  0.5036 -0.0171
 3926WAT     H117509   3.550   0.167   0.428 -0.4549  1.0369  1.4400
 3926WAT     H217510   3.545   0.082   0.552  1.2457 -1.0891  0.1186
 3926WAT    EPW17511   3.546   0.089   0.465  0.3968  0.3638  0.1930
 3927WAT      O17512   3.393   9.264   8.765  0.0188 -0.4067 -0.6937
 3927WAT     H117513   3.325   9.198   8.750 -2.9632  1.8861  1.4290
 3927WAT     H217514   3.411   9.258   8.859 -1.2191  2.4497 -0.1844
 3927WAT    EPW17515   3.386   9.255   8.776 -0.5378  0.2723 -0.3467
 3928WAT      O17516   8.696   0.917   6.414  0.1303 -0.0585 -0.3226
 3928WAT     H117517   8.710   1.004   6.376 -1.1946  0.9645  1.4273
 3928WAT     H217518   8.730   0.923   6.503  0.5609 -1.5321 -0.3563
 3928WAT    EPW17519   8.702   0.929   6.421  0.0129 -0.1179 -0.0961
 3929WAT      O17520   1.706   0.291   0.753 -0.0116 -0.8813 -0.0870
 3929WAT     H117521   1.754   0.355   0.700  0.3895 -1.2599 -0.1820
 3929WAT     H217522   1.757   0.283   0.834 -0.7743 -0.0906  0.4945
 3929WAT    EPW17523   1.719   0.299   0.757 -0.0594 -0.8269 -0.0227
 3930WAT      O17524   6.435   3.311   8.315 -0.3523  0.2926 -0.2239
 3930WAT     H117525   6.451   3.219   8.295 -0.4410  0.0264  0.9066
 3930WAT     H217526   6.458   3.321   8.407  1.8722  1.9322 -0.8671
 3930WAT    EPW17527   6.440   3.300   8.324 -0.0706  0.4739 -0.1597
 3931WAT      O17528   0.872   7.942   4.173  0.4059  0.4862 -0.2181
 3931WAT     H117529   0.818   8.009   4.130  1.3215 -0.1914 -2.5861
 3931WAT     H217530   0.883   7.874   4.106  1.8852 -0.6822  1.1398
 3931WAT    EPW17531   0.866   7.942   4.158  0.7218  0.2429 -0.3514
 3932WAT      O17532   6.492   9.342   1.840 -0.4674 -0.3962 -0.4073
 3932WAT     H117533   6.482   9.341   1.745 -0.5987 -1.0422 -0.3903
 3932WAT     H217534   6.445   9.264   1.870  1.1156 -1.2234  0.0237
 3932WAT    EPW17535   6.485   9.332   1.831 -0.2761 -0.5908 -0.3483
 3933WAT      O17536   4.935   1.823   8.709 -0.3802 -0.4605  0.2809
 3933WAT     H117537   5.003   1.818   8.642  1.6018  2.4846  1.8497
 3933WAT     H217538   4.908   1.732   8.722  3.4873 -1.8837 -0.2441
 3933WAT    EPW17539   4.940   1.810   8.702  0.3912 -0.2598  0.4187
 3934WAT      O17540   7.032   1.611   5.892 -0.5741  0.0927  0.4758
 3934WAT     H117541   7.068   1.524   5.872 -2.5869 -0.8339  0.6430
 3934WAT     H217542   6.968   1.627   5.822  1.1762  2.4106 -0.7486
 3934WAT    EPW17543   7.028   1.602   5.880 -0.6089  0.2763  0.3362
 3935WAT      O17544   6.646   4.429   8.450 -0.2509  0.1018  0.4920
 3935WAT     H117545   6.605   4.361   8.504  0.3786  0.7739  1.8607
 3935WAT     H217546   6.726   4.389   8.418  0.6427  0.4865  2.1362
 3935WAT    EPW17547   6.651   4.414   8.453 -0.0503  0.2413  0.8898
 3936WAT      O17548   6.413   2.388   6.291  0.2155 -0.1438  0.1125
 3936WAT     H117549   6.507   2.404   6.286  0.6543 -2.3178  0.3712
 3936WAT     H217550   6.385   2.386   6.199  1.1360 -2.7967 -0.2204
 3936WAT    EPW17551   6.422   2.390   6.278  0.3948 -0.7803  0.1025
 3937WAT      O17552   9.857   8.652   0.138 -0.1183  0.2056  0.3696
 3937WAT     H117553   9.922   8.584   0.121  0.8991  0.8781  1.4399
 3937WAT     H217554   9.821   8.631   0.224 -0.8270  0.2286  0.0858
 3937WAT    EPW17555   9.861   8.640   0.147 -0.0777  0.2971  0.4733
 3938WAT      O17556  10.204   9.550   4.806  0.2100  0.6011 -0.8513
 3938WAT     H117557  10.290   9.543   4.765  0.4460  0.3766 -0.3231
 3938WAT     H217558  10.154   9.476   4.770 -0.0442  1.2297 -1.8153
 3938WAT    EPW17559  10.209   9.539   4.796  0.2074  0.6547 -0.9089
 3939WAT      O17560   5.761   0.423   4.786 -0.3266  0.0458  0.1607
 3939WAT     H117561   5.685   0.368   4.805  0.8712 -0.6975  3.5439
 3939WAT     H217562   5.832   0.361   4.769 -0.1750  0.7182 -1.8896
 3939WAT    EPW17563   5.760   0.407   4.786 -0.1485  0.0364  0.3364
 3940WAT      O17564   9.080   2.226   7.666  0.9908 -0.5479 -0.0573
 3940WAT     H117565   9.156   2.277   7.696  0.3461  0.0036  0.6721
 3940WAT     H217566   9.064   2.162   7.735 -1.0818  1.3361  1.3375
 3940WAT    EPW17567   9.088   2.224   7.679  0.6323 -0.2266  0.2229
 3941WAT      O17568   9.673   6.551   4.628  0.4726  0.0491  0.2585
 3941WAT     H117569   9.724   6.630   4.650  0.3251  0.7941 -1.8040
 3941WAT     H217570   9.693   6.535   4.535 -0.2534 -1.7962  0.3782
 3941WAT    EPW17571   9.683   6.560   4.618  0.3576 -0.0958  0.0021
 3942WAT      O17572   5.050   1.435   7.185  0.0535 -0.0833 -0.3326
 3942WAT     H117573   4.958   1.462   7.195 -0.7636 -1.8599 -2.2765
 3942WAT     H217574   5.046   1.354   7.134  2.7440 -0.0203 -0.8032
 3942WAT    EPW17575   5.037   1.428   7.179  0.3004 -0.3093 -0.6511
 3943WAT      O17576   3.998   3.983   7.918  0.1380 -0.3440  0.4712
 3943WAT     H117577   3.969   4.008   8.006 -0.9006  1.2432 -0.2609
 3943WAT     H217578   3.987   3.889   7.914 -2.6370 -0.1189  1.1028
 3943WAT    EPW17579   3.993   3.974   7.929 -0.3650 -0.1050  0.4580
 3944WAT      O17580   6.082   5.717   7.743  0.2127 -0.2014  0.2494
 3944WAT     H117581   6.160   5.774   7.740  0.9750 -1.2319 -0.1231
 3944WAT     H217582   6.036   5.736   7.661 -0.1547  0.7047  0.6519
 3944WAT    EPW17583   6.087   5.727   7.732  0.2646 -0.2179  0.2534
 3945WAT      O17584   6.703   5.327   5.961  0.2103  0.2330  0.3176
 3945WAT     H117585   6.779   5.330   5.903  1.1035 -1.9158  1.2714
 3945WAT     H217586   6.653   5.251   5.932 -0.4934  0.4286  0.9905
 3945WAT    EPW17587   6.707   5.318   5.950  0.2353 -0.0246  0.5319
 3946WAT      O17588   7.928   4.391   7.626 -0.2345  0.2362 -0.1594
 3946WAT     H117589   7.915   4.436   7.543 -0.0964 -1.2066 -0.9839
 3946WAT     H217590   7.904   4.300   7.609  0.7922 -0.3034  1.0881
 3946WAT    EPW17591   7.923   4.385   7.613 -0.0806 -0.0253 -0.1037
 3947WAT      O17592   5.390   5.310   7.444 -0.2937 -0.1789  0.3647
 3947WAT     H117593   5.448   5.386   7.448  0.8543 -1.0136  0.0839
 3947WAT     H217594   5.364   5.296   7.535  0.2223  0.0151  0.5521
 3947WAT    EPW17595   5.395   5.319   7.457 -0.0741 -0.2635  0.3526
 3948WAT      O17596   5.628   6.165   7.210 -0.5483 -0.2385  0.0768
 3948WAT     H117597   5.550   6.153   7.156  0.0948  1.2234 -1.2508
 3948WAT     H217598   5.696   6.194   7.148 -0.0616  2.5938  1.7445
 3948WAT    EPW17599   5.627   6.167   7.195 -0.3991  0.3281  0.1216
 3949WAT      O17600   5.396   3.547   7.199 -0.8652  0.3558 -0.2561
 3949WAT     H117601   5.384   3.598   7.279  0.2797 -0.5916  0.5603
 3949WAT     H217602   5.368   3.459   7.223 -1.3421  0.2497 -1.1723
 3949WAT    EPW17603   5.391   3.542   7.212 -0.7772  0.2170 -0.2692
 3950WAT      O17604   0.869   1.001   8.176 -0.2001 -0.0939  0.6938
 3950WAT     H117605   0.887   1.092   8.151 -2.0794 -0.4858 -2.6523
 3950WAT     H217606   0.942   0.951   8.139 -0.7749 -0.2493 -0.2378
 3950WAT    EPW17607   0.881   1.007   8.168 -0.5238 -0.1661  0.1302
 3951WAT      O17608   8.291   2.577   8.770  0.3519  0.1431 -0.2981
 3951WAT     H117609   8.361   2.571   8.705 -1.2046 -0.9215 -1.9764
 3951WAT     H217610   8.221   2.624   8.726 -0.3579  0.3411  1.0025
 3951WAT    EPW17611   8.291   2.582   8.756  0.0525  0.0288 -0.3476
 3952WAT      O17612   9.436   3.955   8.231 -0.0408  0.5398 -0.2822
 3952WAT     H117613   9.361   3.981   8.177 -1.6138 -1.7884  0.5972
 3952WAT     H217614   9.424   4.002   8.313 -0.9152 -0.2375  0.0582
 3952WAT    EPW17615   9.424   3.964   8.234 -0.3629  0.1302 -0.1216
 3953WAT      O17616   7.164   5.729   7.464  0.1943 -0.6343 -0.6476
 3953WAT     H117617   7.189   5.740   7.556  0.3007  1.9582 -0.9001
 3953WAT     H217618   7.202   5.646   7.438  0.2501 -1.3832  1.6126
 3953WAT    EPW17619   7.172   5.720   7.473  0.2158 -0.3910 -0.3829
 3954WAT      O17620   7.625   3.551   8.819  0.7096 -0.2105 -0.1811
 3954WAT     H117621   7.546   3.551   8.766  0.9899 -0.0298 -0.6021
 3954WAT     H217622   7.620   3.470   8.869 -0.1399  0.1928  0.4036
 3954WAT    EPW17623   7.614   3.540   8.818  0.6344 -0.1333 -0.1593
 3955WAT      O17624   5.536   0.741   0.562  0.1285 -0.5279  0.0547
 3955WAT     H117625   5.563   0.700   0.480  0.6234 -1.8390  0.8371
 3955WAT     H217626   5.567   0.681   0.630 -4.2392 -2.0068  1.0948
 3955WAT    EPW17627   5.544   0.728   0.560 -0.3824 -0.8959  0.2951
 3956WAT      O17628   4.159   9.151   0.982  0.7830 -0.2393  0.3881
 3956WAT     H117629   4.077   9.108   0.957  2.2446 -1.5559 -2.5750
 3956WAT     H217630   4.152   9.162   1.077 -1.6897 -2.7063  0.6222
 3956WAT    EPW17631   4.147   9.147   0.991  0.6495 -0.7381  0.0282
 3957WAT      O17632   4.738   8.917   1.868 -0.4425  0.4285  0.7527
 3957WAT     H117633   4.662   8.948   1.918  0.0306  2.4068  0.3247
 3957WAT     H217634   4.700   8.877   1.789 -1.0538  1.9531  0.2471
 3957WAT    EPW17635   4.723   8.916   1.864 -0.4609  0.8903  0.6295
 3958WAT      O17636   9.150   5.667   5.472  0.3994 -0.4570  0.3108
 3958WAT     H117637   9.142   5.636   5.563  0.2080  0.6781  0.6952
 3958WAT     H217638   9.229   5.722   5.472  0.0330  0.0780 -0.0508
 3958WAT    EPW17639   9.160   5.670   5.484  0.3257 -0.2367  0.3138
 3959WAT      O17640   4.514   1.262   7.010  0.6984 -0.0371 -0.0921
 3959WAT     H117641   4.452   1.334   7.004  1.6646  0.8011 -0.2755
 3959WAT     H217642   4.519   1.242   7.104 -0.3787 -0.6042 -0.1430
 3959WAT    EPW17643   4.507   1.269   7.022  0.6838 -0.0013 -0.1233
 3960WAT      O17644   7.942   6.901   6.127  0.0686  0.5341 -0.3806
 3960WAT     H117645   7.967   6.887   6.218 -1.6229 -0.6575 -0.0524
 3960WAT     H217646   8.020   6.874   6.077  1.3816  2.1587  0.6762
 3960WAT    EPW17647   7.956   6.895   6.132  0.0191  0.5910 -0.1979
 3961WAT      O17648   7.827   5.688   7.578  0.0437 -0.1260  0.3968
 3961WAT     H117649   7.879   5.669   7.656  0.9033 -0.3343 -0.2108
 3961WAT     H217650   7.763   5.753   7.606  0.9733  0.5294  1.0350
 3961WAT    EPW17651   7.825   5.694   7.592  0.2794 -0.0670  0.4008
 3962WAT      O17652   5.579   0.808   5.462 -0.3658  0.3186 -0.0102
 3962WAT     H117653   5.630   0.730   5.483 -1.9796 -0.3417  1.6494
 3962WAT     H217654   5.638   0.881   5.482  0.2775 -0.4334  0.9263
 3962WAT    EPW17655   5.594   0.808   5.467 -0.4938  0.1324  0.3324
 3963WAT      O17656   6.809   0.878   7.941  0.2138 -0.4280 -0.2652
 3963WAT     H117657   6.882   0.826   7.975  0.2350  0.0675  0.4777
 3963WAT     H217658   6.783   0.933   8.015  1.4728  2.0484 -1.5309
 3963WAT    EPW17659   6.816   0.879   7.956  0.3827 -0.0360 -0.3340
 3964WAT      O17660   7.582   4.344   7.650  0.5904  0.3337 -0.2018
 3964WAT     H117661   7.558   4.270   7.593 -1.2328  1.7454 -1.3787
 3964WAT     H217662   7.671   4.366   7.623 -0.1587  0.8579 -2.4920
 3964WAT    EPW17663   7.591   4.337   7.639  0.2511  0.5891 -0.6590
 3965WAT      O17664   9.122   1.661   8.094 -0.2307 -0.3177 -0.5014
 3965WAT     H117665   9.090   1.744   8.057 -0.0765 -0.0396 -0.0280
 3965WAT     H217666   9.179   1.688   8.167 -1.2531 -0.8582  0.5239
 3965WAT    EPW17667   9.125   1.676   8.099 -0.3448 -0.3523 -0.3042
 3966WAT      O17668   7.249   4.229   8.273  1.1021  0.5332  0.4036
 3966WAT     H117669   7.167   4.181   8.270  3.0522 -3.2392  1.3538
 3966WAT     H217670   7.247   4.273   8.358 -0.6302  2.1595 -0.3924
 3966WAT    EPW17671   7.238   4.229   8.284  1.1308  0.2501  0.4244
 3967WAT      O17672   8.678   4.720   5.442 -0.1380 -0.5464 -1.0724
 3967WAT     H117673   8.632   4.716   5.526 -0.8436  0.6393 -1.3769
 3967WAT     H217674   8.609   4.720   5.376  0.3572 -0.2613 -1.6082
 3967WAT    EPW17675   8.663   4.719   5.444 -0.1659 -0.3526 -1.1830
 3968WAT      O17676   8.168   4.807   7.651 -0.3466 -0.3359 -0.0879
 3968WAT     H117677   8.163   4.819   7.746 -3.2867  1.0064 -0.3001
 3968WAT     H217678   8.217   4.883   7.620 -1.6740  0.6588  0.1813
 3968WAT    EPW17679   8.174   4.819   7.660 -0.9098 -0.0277 -0.0803
 3969WAT      O17680   3.300   3.866   8.417  0.1065  0.0469  0.6999
 3969WAT     H117681   3.249   3.917   8.355 -0.0203 -0.2881  0.5215
 3969WAT     H217682   3.391   3.889   8.398  0.0506  0.2083  0.6241
 3969WAT    EPW17683   3.305   3.875   8.406  0.0825  0.0238  0.6666
 3970WAT      O17684   5.677   3.167   5.540 -0.6027 -0.2661 -0.2720
 3970WAT     H117685   5.635   3.246   5.506 -2.5118 -0.1024  2.1332
 3970WAT     H217686   5.707   3.193   5.628  3.3282 -0.8552 -1.2811
 3970WAT    EPW17687   5.676   3.181   5.547 -0.3359 -0.3221 -0.0877
 3971WAT      O17688   9.207   4.527   6.380 -0.0651  0.0431  0.1033
 3971WAT     H117689   9.221   4.457   6.443  1.0155  0.1801  0.0315
 3971WAT     H217690   9.279   4.589   6.395 -0.3046  0.5277 -0.6437
 3971WAT    EPW17691   9.218   4.526   6.390  0.0458  0.1249 -0.0045
 3972WAT      O17692   7.696   4.362   8.165  0.0497 -0.0334 -0.5416
 3972WAT     H117693   7.755   4.324   8.230  1.2134  1.1725 -0.8477
 3972WAT     H217694   7.623   4.300   8.160  0.9535 -1.2249  0.3470
 3972WAT    EPW17695   7.694   4.349   8.173  0.3226 -0.0312 -0.4644
 3973WAT      O17696   5.031   3.075   6.905  0.6247 -0.4167  0.0548
 3973WAT     H117697   5.047   3.088   6.812 -2.3100 -0.7982 -0.5738
 3973WAT     H217698   5.032   2.980   6.917  0.2407 -0.3947  0.2635
 3973WAT    EPW17699   5.033   3.064   6.895  0.1872 -0.4640 -0.0007
 3974WAT      O17700   5.515   6.857   6.974  0.2427 -0.0718 -0.5250
 3974WAT     H117701   5.433   6.817   7.003 -0.3230 -0.9730 -3.0723
 3974WAT     H217702   5.578   6.836   7.043 -1.7859  1.4502  2.0061
 3974WAT    EPW17703   5.512   6.849   6.987 -0.0997  0.0098 -0.5271
 3975WAT      O17704   8.481   6.843   6.761 -0.0202  0.6327  0.7016
 3975WAT     H117705   8.434   6.799   6.832  3.2239 -1.7091  1.6077
 3975WAT     H217706   8.488   6.778   6.692  4.6655 -0.5801  1.9656
 3975WAT    EPW17707   8.476   6.829   6.761  1.0262  0.1640  0.9878
 3976WAT      O17708   2.307   0.426   0.688  1.2147 -0.0093  0.9555
 3976WAT     H117709   2.241   0.392   0.749  2.3926 -1.2778  1.5498
 3976WAT     H217710   2.321   0.516   0.717 -2.2668  1.3324 -0.9143
 3976WAT    EPW17711   2.300   0.434   0.700  0.9108  0.0004  0.7873
 3977WAT      O17712   9.170   4.505   5.833  0.5538  0.1330  0.0629
 3977WAT     H117713   9.103   4.454   5.787  0.5636 -1.5249  1.7422
 3977WAT     H217714   9.240   4.515   5.769 -0.4079  0.0396 -1.0453
 3977WAT    EPW17715   9.170   4.499   5.818  0.4282 -0.0980  0.1380
 3978WAT      O17716   7.497   6.435   6.979 -0.1194 -0.5353  0.1059
 3978WAT     H117717   7.531   6.487   6.906 -2.7852  1.3042  0.0505
 3978WAT     H217718   7.545   6.352   6.973  3.0637  1.2077 -0.8490
 3978WAT    EPW17719   7.508   6.431   6.968 -0.0513 -0.0627 -0.0272
 3979WAT      O17720   9.650   5.596   5.991 -0.6444 -0.3373  0.8374
 3979WAT     H117721   9.743   5.571   5.997 -0.4408  0.2011  0.1126
 3979WAT     H217722   9.651   5.679   5.943 -1.6669 -1.5545 -1.4555
 3979WAT    EPW17723   9.663   5.604   5.985 -0.7524 -0.4270  0.4394
 3980WAT      O17724   7.724   7.534   0.142 -0.7277  0.3508 -0.5904
 3980WAT     H117725   7.643   7.488   0.164 -1.1128  0.5152 -1.6038
 3980WAT     H217726   7.770   7.474   0.083  1.0759 -0.8160  1.8270
 3980WAT    EPW17727   7.719   7.520   0.137 -0.5405  0.2186 -0.4052
 3981WAT      O17728   8.406   4.004   4.809 -0.1894 -0.8059 -0.2592
 3981WAT     H117729   8.382   4.079   4.863 -0.5822 -1.0047 -0.1614
 3981WAT     H217730   8.493   4.027   4.776  0.8354 -1.4040  1.8054
 3981WAT    EPW17731   8.415   4.017   4.812 -0.1059 -0.9110  0.0257
 3982WAT      O17732   8.762   0.176   7.292 -0.0904  0.6843  0.6216
 3982WAT     H117733   8.856   0.184   7.279  0.0915  0.2291  1.6162
 3982WAT     H217734   8.739   0.094   7.247  0.2951 -0.1315  1.8820
 3982WAT    EPW17735   8.771   0.166   7.284 -0.0162  0.5167  0.9193
 3983WAT      O17736   1.934  10.330   7.383 -0.3120  0.4926 -0.9810
 3983WAT     H117737   1.937  10.422   7.357 -1.3799  0.8255 -0.0461
 3983WAT     H217738   2.024  10.300   7.375  0.1643  1.7814 -0.7723
 3983WAT    EPW17739   1.946  10.339   7.379 -0.3901  0.7067 -0.8302
 3984WAT      O17740  10.698   8.464   0.358  0.2812  0.5692  0.2259
 3984WAT     H117741  10.715   8.498   0.270 -0.7936  0.4351 -0.0564
 3984WAT     H217742  10.669   8.540   0.408  0.1688  0.5113  0.2500
 3984WAT    EPW17743  10.696   8.479   0.353  0.1245  0.5436  0.1918
 3985WAT      O17744   5.786   6.671   1.499 -0.7207  0.1820  0.1491
 3985WAT     H117745   5.835   6.717   1.568  2.4819 -1.0311 -1.1387
 3985WAT     H217746   5.715   6.731   1.477  0.3553  2.2788  1.9302
 3985WAT    EPW17747   5.783   6.685   1.505 -0.1564  0.2985  0.2142
 3986WAT      O17748   5.881   3.963   8.605  0.1791 -0.6133 -0.9951
 3986WAT     H117749   5.975   3.973   8.591 -0.3419  1.4345 -4.0854
 3986WAT     H217750   5.842   4.035   8.555 -2.9586  0.4750  2.5239
 3986WAT    EPW17751   5.889   3.974   8.597 -0.3033 -0.1996 -0.9384
 3987WAT      O17752   2.098   9.084   0.069 -0.0166  0.0223 -0.0137
 3987WAT     H117753   2.132   9.158   0.119  0.6546  0.2930 -0.8448
 3987WAT     H217754   2.168   9.019   0.070 -1.2540 -1.4127  2.2477
 3987WAT    EPW17755   2.111   9.085   0.076 -0.0913 -0.1311  0.1749
 3988WAT      O17756  10.503   7.947   0.370 -0.5319  0.1161  0.2437
 3988WAT     H117757  10.590   7.909   0.356 -0.3210  0.9307 -0.7934
 3988WAT     H217758  10.515   8.040   0.355 -1.9057  0.0471 -1.5946
 3988WAT    EPW17759  10.516   7.954   0.366 -0.6857  0.2143 -0.1355
 3989WAT      O17760   7.094   3.050   7.433 -0.0079  0.3066  0.2613
 3989WAT     H117761   7.185   3.030   7.413  0.5198  2.4669  0.3277
 3989WAT     H217762   7.051   3.056   7.348  0.2120  0.6198  0.1736
 3989WAT    EPW17763   7.100   3.048   7.419  0.0904  0.6329  0.2582
 3990WAT      O17764   6.261   5.811   8.803 -0.0976  0.5317  0.4123
 3990WAT     H117765   6.229   5.859   8.727 -0.6872 -0.7204 -0.1546
 3990WAT     H217766   6.302   5.878   8.858 -1.4582  1.8041 -0.0368
 3990WAT    EPW17767   6.262   5.826   8.800 -0.3545  0.5343  0.2780
 3991WAT      O17768   9.263   6.046   2.627  0.3616 -0.5828  0.4518
 3991WAT     H117769   9.270   6.138   2.654  0.9118 -0.5278  0.1450
 3991WAT     H217770   9.230   6.000   2.705  0.3365 -0.1682  0.6878
 3991WAT    EPW17771   9.260   6.052   2.641  0.4306 -0.5207  0.4425
 3992WAT      O17772   6.625   5.130   8.160 -0.0273 -0.3134 -0.1081
 3992WAT     H117773   6.569   5.110   8.086  2.2103  1.0143 -2.3219
 3992WAT     H217774   6.571   5.186   8.216 -2.0104 -1.9301 -0.2867
 3992WAT    EPW17775   6.611   5.135   8.158  0.0062 -0.3514 -0.4239
 3993WAT      O17776   7.144   5.432   7.102 -0.0665 -0.1586 -0.0631
 3993WAT     H117777   7.139   5.442   7.007 -2.0540  0.3848  0.0340
 3993WAT     H217778   7.229   5.392   7.118  0.1368 -0.6709 -2.1052
 3993WAT    EPW17779   7.154   5.428   7.091 -0.3018 -0.1543 -0.3195
 3994WAT      O17780   4.865   3.574   0.035 -0.1394  0.4485 -0.1508
 3994WAT     H117781   4.775   3.579   0.002 -0.7078 -4.1351  0.0683
 3994WAT     H217782   4.916   3.629  -0.025 -2.8312  2.2028 -1.0209
 3994WAT    EPW17783   4.860   3.582   0.023 -0.5693  0.0753 -0.2370
 3995WAT      O17784   9.908   1.692   8.490  0.1986 -0.0917  0.2207
 3995WAT     H117785   9.849   1.768   8.486  0.8847  0.4107 -1.1204
 3995WAT     H217786   9.987   1.726   8.532 -0.1317 -0.5420  1.2327
 3995WAT    EPW17787   9.911   1.707   8.495  0.2451 -0.0848  0.1769
 3996WAT      O17788   8.519   2.494   7.779 -0.2123  0.9061  0.6776
 3996WAT     H117789   8.518   2.545   7.698 -0.0596 -0.2509 -0.0808
 3996WAT     H217790   8.496   2.405   7.751  1.5397  0.1077  1.6347
 3996WAT    EPW17791   8.516   2.489   7.764  0.0391  0.6483  0.7038
 3997WAT      O17792   9.714   4.167   5.066  0.5738  0.1589 -0.0332
 3997WAT     H117793   9.772   4.173   4.990  2.8141  1.7457  1.6550
 3997WAT     H217794   9.745   4.090   5.114  1.9406  1.4953  1.3104
 3997WAT    EPW17795   9.726   4.158   5.063  1.0495  0.5443  0.3667
 3998WAT      O17796   6.964   5.060   8.379  0.5419 -0.1393 -0.6709
 3998WAT     H117797   6.942   5.050   8.286  1.6571  0.7772 -1.0458
 3998WAT     H217798   6.882   5.088   8.420 -0.1294 -1.1827 -1.2469
 3998WAT    EPW17799   6.950   5.062   8.372  0.6006 -0.1559 -0.7963
 3999WAT      O17800   0.277   9.318   2.146  0.1578 -0.1289  0.2740
 3999WAT     H117801   0.302   9.278   2.230  0.0596 -1.8832 -0.4750
 3999WAT     H217802   0.360   9.324   2.098  0.0484 -0.2339  0.0722
 3999WAT    EPW17803   0.292   9.313   2.151  0.1304 -0.3743  0.1487
 4000WAT      O17804   7.359   0.698   3.660  0.7172  0.4226 -0.2429
 4000WAT     H117805   7.398   0.635   3.600 -2.5194 -2.0298 -0.0341
 4000WAT     H217806   7.334   0.772   3.603  0.4546 -0.4974 -1.3678
 4000WAT    EPW17807   7.361   0.700   3.644  0.2561 -0.0222 -0.3637
 4001WAT      O17808  10.063   9.119   0.575 -0.0321  0.1588  0.2639
 4001WAT     H117809   9.986   9.120   0.518  0.2414  3.3902 -0.2084
 4001WAT     H217810  10.131   9.076   0.522 -0.4836  0.8132 -0.8915
 4001WAT    EPW17811  10.062   9.113   0.561 -0.0553  0.6709  0.0492
 4002WAT      O17812   9.997   6.194   7.833 -0.3572  0.3313 -0.1292
 4002WAT     H117813   9.902   6.189   7.832 -0.3681  0.1613 -1.6867
 4002WAT     H217814  10.018   6.276   7.788  0.2151 -0.0169 -0.5264
 4002WAT    EPW17815   9.987   6.204   7.827 -0.2832  0.2630 -0.3870
 4003WAT      O17816   8.328   4.725   6.836 -0.3411  0.1520  0.1362
 4003WAT     H117817   8.341   4.708   6.743  0.6869 -2.1166  0.6302
 4003WAT     H217818   8.346   4.641   6.879 -0.1900  1.2711  2.4359
 4003WAT    EPW17819   8.332   4.712   6.830 -0.1864  0.0005  0.5050
 4004WAT      O17820   7.894   4.786   8.125  0.0893 -0.0463 -0.1459
 4004WAT     H117821   7.975   4.737   8.111  0.6812  1.0591 -0.7426
 4004WAT     H217822   7.824   4.723   8.107  0.7334 -1.5621  2.1620
 4004WAT    EPW17823   7.896   4.771   8.121  0.2525 -0.1001  0.0796
 4005WAT      O17824   9.170   3.006   8.173  0.4565  0.7717 -0.1129
 4005WAT     H117825   9.205   3.084   8.216 -0.7760  1.5647 -0.4933
 4005WAT     H217826   9.205   3.009   8.084  0.4671  0.8534 -0.1054
 4005WAT    EPW17827   9.179   3.017   8.167  0.2952  0.8870 -0.1621
 4006WAT      O17828  10.752   2.016   8.244  0.2358 -0.9280 -0.2807
 4006WAT     H117829  10.801   1.995   8.165  0.4228  0.2532 -0.5046
 4006WAT     H217830  10.795   2.095   8.279 -0.7061 -0.6169  0.2210
 4006WAT    EPW17831  10.764   2.024   8.238  0.1359 -0.7312 -0.2441
 4007WAT      O17832   9.169   1.810   8.912 -0.2956  0.6250 -0.1188
 4007WAT     H117833   9.200   1.721   8.896 -0.7283  0.6979 -1.6103
 4007WAT     H217834   9.092   1.799   8.968 -1.9819 -0.2484 -2.4265
 4007WAT    EPW17835   9.163   1.797   8.917 -0.5746  0.5195 -0.6204
 4008WAT      O17836   6.482   0.053   0.385  0.8425 -0.5951  0.5509
 4008WAT     H117837   6.496   0.112   0.458  0.4376 -0.2061  0.3232
 4008WAT     H217838   6.452  -0.029   0.425  1.8462 -0.8059  0.8953
 4008WAT    EPW17839   6.480   0.050   0.400  0.9215 -0.5716  0.5663
 4009WAT      O17840   9.084   3.688   8.800 -0.0352 -0.7309  0.0672
 4009WAT     H117841   9.087   3.692   8.705  1.0261 -1.5111  0.0567
 4009WAT     H217842   9.123   3.771   8.829 -1.9129  0.2773 -0.1526
 4009WAT    EPW17843   9.090   3.699   8.791 -0.1431 -0.7010  0.0367
 4010WAT      O17844   8.439   5.615   7.741 -0.7698  1.4572 -0.6910
 4010WAT     H117845   8.413   5.625   7.833 -1.3866 -2.8209 -0.1642
 4010WAT     H217846   8.529   5.645   7.739 -0.3388  0.6178  1.6845
 4010WAT    EPW17847   8.447   5.620   7.753 -0.7949  0.7823 -0.3080
 4011WAT      O17848   7.782   2.697   7.335  0.3772 -0.1346  0.1361
 4011WAT     H117849   7.772   2.791   7.347  1.2165  0.1556 -1.2271
 4011WAT     H217850   7.693   2.664   7.323  0.2021  0.7565 -1.1408
 4011WAT    EPW17851   7.769   2.705   7.335  0.4647  0.0212 -0.2120
 4012WAT      O17852   8.559   2.759   8.318 -0.2201  0.4700 -0.2322
 4012WAT     H117853   8.648   2.748   8.350 -0.3096 -1.8403 -0.5923
 4012WAT     H217854   8.559   2.717   8.233 -0.8006  3.6595 -1.9764
 4012WAT    EPW17855   8.571   2.752   8.311 -0.3090  0.5860 -0.5093
 4013WAT      O17856   4.459   1.245   1.270  0.8596  0.0159 -0.0531
 4013WAT     H117857   4.395   1.221   1.204  1.7285  0.6581 -1.1756
 4013WAT     H217858   4.544   1.235   1.226  1.3888  2.1304  0.3429
 4013WAT    EPW17859   4.462   1.241   1.255  1.0443  0.3795 -0.1488
 4014WAT      O17860   6.623   5.838   8.725 -0.5659  0.0788  0.6120
 4014WAT     H117861   6.707   5.820   8.768  0.6313  0.2007 -1.5506
 4014WAT     H217862   6.578   5.754   8.724  0.7049 -0.6348 -0.5322
 4014WAT    EPW17863   6.628   5.825   8.731 -0.2403  0.0007  0.1760
 4015WAT      O17864   8.299   7.148   8.816  0.1050 -0.0463  0.0779
 4015WAT     H117865   8.210   7.115   8.824  0.4847 -0.5609  3.4876
 4015WAT     H217866   8.342   7.085   8.757 -1.2698 -0.8686 -0.0941
 4015WAT    EPW17867   8.293   7.135   8.809 -0.0262 -0.2222  0.5050
 4016WAT      O17868   4.347   1.383   3.570 -0.0068 -0.4625  0.1059
 4016WAT     H117869   4.412   1.394   3.640 -2.7137 -0.6017  2.8513
 4016WAT     H217870   4.337   1.471   3.533  0.7905 -0.1704  0.5527
 4016WAT    EPW17871   4.354   1.396   3.574 -0.2589 -0.4423  0.5267
 4017WAT      O17872  10.216   6.103   5.931  0.3384 -0.5201  0.2288
 4017WAT     H117873  10.299   6.142   5.903 -0.5880  1.1979 -0.3185
 4017WAT     H217874  10.216   6.111   6.026  0.5073  0.1372  0.1781
 4017WAT    EPW17875  10.227   6.110   5.940  0.2379 -0.2069  0.1500
 4018WAT      O17876   7.854   2.866   5.183 -0.6200 -0.0370  0.1788
 4018WAT     H117877   7.921   2.935   5.179 -2.0147  1.4832  1.5153
 4018WAT     H217878   7.875   2.817   5.262  0.8979 -1.8310 -1.2289
 4018WAT    EPW17879   7.865   2.869   5.193 -0.6039 -0.0732  0.1693
 4019WAT      O17880   0.687   6.303   0.639  0.0590 -0.4492 -0.2501
 4019WAT     H117881   0.654   6.275   0.724 -0.8959 -1.3914 -0.8932
 4019WAT     H217882   0.608   6.316   0.586  0.5539  1.5559 -0.5961
 4019WAT    EPW17883   0.672   6.301   0.643 -0.0017 -0.3090 -0.3806
 4020WAT      O17884   9.922   3.959   5.923  0.3796 -0.6974  0.2567
 4020WAT     H117885   9.830   3.974   5.901  0.9146  0.6105 -1.3108
 4020WAT     H217886   9.926   3.970   6.018 -1.3242 -2.3108  0.5621
 4020WAT    EPW17887   9.910   3.963   5.932  0.2251 -0.7378  0.0901
 4021WAT      O17888   5.683   2.184   8.783 -0.7944 -0.7993  0.3328
 4021WAT     H117889   5.590   2.204   8.795 -0.2514  3.7237 -0.9680
 4021WAT     H217890   5.726   2.218   8.861  0.0051  0.4846 -0.6252
 4021WAT    EPW17891   5.676   2.191   8.795 -0.6175 -0.0333  0.0343
 4022WAT      O17892  10.866   8.801   0.649 -0.3147 -0.5772 -0.5898
 4022WAT     H117893  10.849   8.814   0.742  0.9909 -1.5795 -0.1753
 4022WAT     H217894  10.783   8.771   0.613 -0.3968 -1.9004  0.6140
 4022WAT    EPW17895  10.853   8.799   0.656 -0.1535 -0.8836 -0.3764
 4023WAT      O17896   5.667   3.197   7.129 -0.5819 -0.0630  0.5365
 4023WAT     H117897   5.582   3.203   7.085 -1.2813 -1.3089  1.6307
 4023WAT     H217898   5.710   3.280   7.110 -2.3325  0.8908  0.5383
 4023WAT    EPW17899   5.661   3.209   7.120 -0.9050 -0.1014  0.6812
 4024WAT      O17900   6.559   4.491   6.299  0.7929 -0.3938 -0.1062
 4024WAT     H117901   6.623   4.474   6.230  0.2923  0.3148 -0.7649
 4024WAT     H217902   6.544   4.406   6.340  1.1199 -0.8199 -0.8547
 4024WAT    EPW17903   6.565   4.478   6.296  0.7701 -0.3564 -0.2918
 4025WAT      O17904   8.613   5.216   7.636  0.3208  0.1824  0.3194
 4025WAT     H117905   8.588   5.173   7.719 -0.3418 -0.5424 -0.2370
 4025WAT     H217906   8.644   5.144   7.581  0.6448  0.6454 -0.1051
 4025WAT    EPW17907   8.614   5.200   7.640  0.2766  0.1478  0.1903
 4026WAT      O17908   4.841   1.851   8.979  0.2312  0.3855 -0.1405
 4026WAT     H117909   4.821   1.773   9.030 -3.6785  2.1819  1.4723
 4026WAT     H217910   4.826   1.824   8.888  1.2347 -1.2891  0.1594
 4026WAT    EPW17911   4.836   1.837   8.974 -0.1521  0.4015  0.1121
 4027WAT      O17912   4.551   4.021   7.488  1.1045 -0.0891  0.4340
 4027WAT     H117913   4.465   4.012   7.447  1.7131 -1.3175 -0.6266
 4027WAT     H217914   4.533   4.069   7.570 -0.4145  0.6230 -0.2693
 4027WAT    EPW17915   4.537   4.026   7.494  0.9847 -0.1574  0.2012
 4028WAT      O17916   9.266   4.842   6.285  0.9431 -0.3453  0.1563
 4028WAT     H117917   9.252   4.911   6.221  1.3600 -1.4009 -1.1336
 4028WAT     H217918   9.189   4.845   6.342  0.4173  0.4302 -0.5883
 4028WAT    EPW17919   9.254   4.851   6.284  0.9284 -0.3822 -0.1121
 4029WAT      O17920   9.476   6.550   6.810  0.5318 -0.6596  0.1346
 4029WAT     H117921   9.557   6.541   6.862  0.7085  1.0190  0.2047
 4029WAT     H217922   9.462   6.645   6.804  0.2479 -0.8007 -2.5058
 4029WAT    EPW17923   9.485   6.562   6.816  0.5178 -0.4570 -0.2043
 4030WAT      O17924   6.476   5.132   6.075  0.2040  0.1823  0.6719
 4030WAT     H117925   6.555   5.096   6.034  0.4707 -0.7497  1.9241
 4030WAT     H217926   6.492   5.122   6.169 -1.4144 -0.0349  0.9440
 4030WAT    EPW17927   6.489   5.126   6.082  0.0257  0.0308  0.8729
 4031WAT      O17928   5.245   4.116   4.692 -0.2673 -0.2277  0.0235
 4031WAT     H117929   5.333   4.079   4.686 -0.5507 -0.7313 -1.2444
 4031WAT     H217930   5.189   4.053   4.646 -1.0860  0.7280 -0.3174
 4031WAT    EPW17931   5.250   4.103   4.685 -0.4127 -0.1681 -0.1888
 4032WAT      O17932  10.323   5.913   8.151 -0.1301  0.3195 -0.1848
 4032WAT     H117933  10.269   5.842   8.186 -1.4820  1.3964 -0.0147
 4032WAT     H217934  10.261   5.973   8.109  1.0722  0.9673 -1.1055
 4032WAT    EPW17935  10.308   5.912   8.150 -0.1497  0.5469 -0.2832
 4033WAT      O17936   9.066   4.768   8.480 -0.1382  0.9660  0.3753
 4033WAT     H117937   9.043   4.682   8.444 -2.3985  1.2220  1.0481
 4033WAT     H217938   9.098   4.818   8.405 -0.6925  0.1508 -0.4239
 4033WAT    EPW17939   9.067   4.763   8.465 -0.5093  0.8922  0.3591
 4034WAT      O17940   8.297   5.123   4.263 -0.5864  0.0319  0.4011
 4034WAT     H117941   8.244   5.148   4.187 -1.2087 -0.5971  0.6253
 4034WAT     H217942   8.321   5.207   4.303 -0.8277  0.3447 -0.0951
 4034WAT    EPW17943   8.294   5.138   4.258 -0.7005 -0.0098  0.3653
 4035WAT      O17944   5.471   3.613   8.193 -0.8937  0.2927  0.3770
 4035WAT     H117945   5.498   3.705   8.198 -1.0036  0.2822  1.1692
 4035WAT     H217946   5.487   3.577   8.280 -3.2797  0.2571  0.8815
 4035WAT    EPW17947   5.477   3.621   8.205 -1.2228  0.2867  0.5474
 4036WAT      O17948   0.541  10.189   1.042 -0.5243 -0.2318  0.6094
 4036WAT     H117949   0.636  10.181   1.058  0.0240  2.9810 -0.3159
 4036WAT     H217950   0.520  10.114   0.987  1.2261 -1.6604  1.7647
 4036WAT    EPW17951   0.551  10.178   1.037 -0.2212  0.0038  0.6397
 4037WAT      O17952   8.148   6.623   8.192 -0.2984 -0.3291 -0.2224
 4037WAT     H117953   8.083   6.664   8.250 -0.3636 -0.1756 -0.4046
 4037WAT     H217954   8.154   6.682   8.117  1.0372  0.3589  0.3991
 4037WAT    EPW17955   8.140   6.636   8.190 -0.1302 -0.2179 -0.1645
 4038WAT      O17956   7.024   6.209   6.138 -0.9364  0.6076  0.1991
 4038WAT     H117957   7.017   6.119   6.169 -0.6148  0.4641 -0.1295
 4038WAT     H217958   7.079   6.253   6.203 -1.8761  0.8126  0.8630
 4038WAT    EPW17959   7.031   6.203   6.150 -1.0178  0.6158  0.2434
 4039WAT      O17960   7.280   3.238   5.765  0.1759 -0.4956  0.8997
 4039WAT     H117961   7.203   3.295   5.767  1.2330  0.9716  1.6654
 4039WAT     H217962   7.330   3.262   5.843  0.4565 -2.8169  1.5071
 4039WAT    EPW17963   7.277   3.248   5.775  0.3521 -0.6083  1.0808
 4040WAT      O17964   4.362   1.503   6.554  0.1490 -0.2991 -0.0796
 4040WAT     H117965   4.357   1.412   6.586 -1.8978 -0.2666 -0.1687
 4040WAT     H217966   4.312   1.553   6.618  0.8225  0.6989 -0.3197
 4040WAT    EPW17967   4.354   1.497   6.567 -0.0324 -0.1631 -0.1230
 4041WAT      O17968  10.755   4.306   0.649  0.5642 -0.0437  0.5154
 4041WAT     H117969  10.737   4.353   0.567  1.0734  1.0431  1.0107
 4041WAT     H217970  10.714   4.360   0.716  1.8645  0.1348  1.1846
 4041WAT    EPW17971  10.747   4.320   0.647  0.8030  0.1233  0.6690
 4042WAT      O17972   1.544  10.112   1.235  0.1364 -0.0020 -0.0118
 4042WAT     H117973   1.605  10.183   1.217  1.8286 -0.9666  1.5789
 4042WAT     H217974   1.476  10.152   1.289  0.4597  0.6403 -0.0702
 4042WAT    EPW17975   1.543  10.126   1.240  0.4022 -0.0453  0.1904
 4043WAT      O17976   7.100   1.378   0.174  0.0545  0.2181 -0.3002
 4043WAT     H117977   7.044   1.421   0.109 -0.0677  2.8709  1.3937
 4043WAT     H217978   7.170   1.338   0.123  0.8347  3.4989 -2.1015
 4043WAT    EPW17979   7.102   1.379   0.159  0.1416  1.0007 -0.3143
 4044WAT      O17980   7.079   2.534   7.345  0.2593  0.0053  0.5293
 4044WAT     H117981   7.068   2.567   7.256  4.6532 -0.1072 -0.3098
 4044WAT     H217982   7.059   2.608   7.401 -1.0168  0.5637 -0.6018
 4044WAT    EPW17983   7.075   2.548   7.341  0.6704  0.0643  0.2694
 4045WAT      O17984   2.547   5.121   8.893  0.1808  0.5082 -0.2934
 4045WAT     H117985   2.462   5.116   8.937  0.3208  1.9147  0.2043
 4045WAT     H217986   2.555   5.213   8.868  2.8835  1.1552  2.3975
 4045WAT    EPW17987   2.537   5.133   8.896  0.5558  0.7789  0.1273
 4046WAT      O17988   1.543   7.321   2.370  0.0252 -0.0930 -0.3996
 4046WAT     H117989   1.633   7.348   2.389  0.1053  0.0862 -0.9981
 4046WAT     H217990   1.528   7.246   2.428 -0.3381  1.4521  1.5919
 4046WAT    EPW17991   1.553   7.315   2.380 -0.0122  0.1345 -0.2156
 4047WAT      O17992   9.020   4.509   6.595  0.1215 -0.1599  0.6773
 4047WAT     H117993   9.024   4.414   6.588  1.3517 -0.1901  1.5727
 4047WAT     H217994   9.084   4.541   6.530 -0.6785  0.0960 -0.0126
 4047WAT    EPW17995   9.029   4.501   6.585  0.1779 -0.1304  0.7048
 4048WAT      O17996   8.330   3.188   6.901 -0.1992  0.3885 -0.2860
 4048WAT     H117997   8.389   3.141   6.842  0.7896  0.8717  0.2915
 4048WAT     H217998   8.272   3.238   6.843  1.6162  1.9059 -0.8938
 4048WAT    EPW17999   8.330   3.189   6.886  0.1702  0.6522 -0.2899
 4049WAT      O18000   6.133   1.196   8.154 -0.3761 -0.3918  0.4163
 4049WAT     H118001   6.049   1.208   8.110  0.3528  0.1204 -0.8762
 4049WAT     H218002   6.162   1.109   8.126 -0.8156 -0.9099  1.4959
 4049WAT    EPW18003   6.126   1.186   8.145 -0.3381 -0.3926  0.3877
 4050WAT      O18004   9.861   8.819   0.583  0.6101 -0.1894  0.2791
 4050WAT     H118005   9.823   8.902   0.613 -1.4514 -1.3169  0.9497
 4050WAT     H218006   9.884   8.835   0.492 -1.6171  0.5840 -0.2124
 4050WAT    EPW18007   9.859   8.832   0.575  0.0448 -0.2365  0.3028
 4051WAT      O18008   1.079   8.892   7.287 -0.8657  0.8848 -0.6247
 4051WAT     H118009   1.112   8.906   7.376  0.9497  0.0827 -1.1362
 4051WAT     H218010   1.105   8.970   7.239  0.3060  0.2639 -1.0222
 4051WAT    EPW18011   1.087   8.904   7.292 -0.4717  0.6971 -0.7443
 4052WAT      O18012   6.338   4.883   7.721  0.6603  0.3354 -0.3875
 4052WAT     H118013   6.358   4.815   7.656  3.4780  1.0751 -0.4262
 4052WAT     H218014   6.335   4.964   7.670 -1.1397  0.4596 -0.1227
 4052WAT    EPW18015   6.341   4.885   7.706  0.7944  0.4492 -0.3576
 4053WAT      O18016   9.764   3.426   8.964  0.9038 -0.4534  0.0831
 4053WAT     H118017   9.719   3.373   8.897  1.0182 -1.1294  0.5267
 4053WAT     H218018   9.822   3.483   8.914  1.8344 -1.7426 -0.3802
 4053WAT    EPW18019   9.765   3.426   8.948  1.0409 -0.7125  0.0811
 4054WAT      O18020   7.060   2.872   7.814 -0.0339  0.2313 -0.0909
 4054WAT     H118021   7.073   2.884   7.908  0.3789  1.4243 -0.2924
 4054WAT     H218022   7.100   2.787   7.795  0.9792  0.5396  0.6002
 4054WAT    EPW18023   7.067   2.862   7.824  0.1538  0.4293 -0.0262
 4055WAT      O18024   9.098   5.953   6.277 -0.5418 -0.4247  0.3886
 4055WAT     H118025   9.069   5.918   6.361  0.0990  1.3047  1.3923
 4055WAT     H218026   9.117   5.876   6.223  0.0815 -1.5784  2.1924
 4055WAT    EPW18027   9.097   5.939   6.281 -0.3748 -0.3486  0.7589
 4056WAT      O18028   7.324   3.351   7.878  0.0174  0.2634  0.3594
 4056WAT     H118029   7.290   3.405   7.950  0.0228  0.9156 -0.1186
 4056WAT     H218030   7.416   3.338   7.900 -0.4972 -1.4647  1.6319
 4056WAT    EPW18031   7.331   3.357   7.891 -0.0498  0.1214  0.4640
 4057WAT      O18032   8.275   0.210   7.431  0.0495 -0.2038  0.6190
 4057WAT     H118033   8.287   0.304   7.441 -1.4588  0.0137  0.6166
 4057WAT     H218034   8.202   0.201   7.369  1.9995 -1.4330 -1.6742
 4057WAT    EPW18035   8.267   0.221   7.424  0.1073 -0.3373  0.3161
 4058WAT      O18036   8.581   3.703   7.353  0.3993  0.2703  0.1311
 4058WAT     H118037   8.543   3.729   7.269  1.6701 -2.0972 -1.2818
 4058WAT     H218038   8.524   3.633   7.384  1.6424 -0.9677 -0.3155
 4058WAT    EPW18039   8.568   3.697   7.346  0.7300 -0.2054 -0.1140
 4059WAT      O18040   8.576   6.200   7.485  0.0873 -0.2240 -0.2332
 4059WAT     H118041   8.580   6.188   7.390 -0.3192 -1.7862 -0.0639
 4059WAT     H218042   8.532   6.122   7.518  0.4074  0.1996  1.2702
 4059WAT    EPW18043   8.571   6.188   7.476  0.0758 -0.3741 -0.0124
 4060WAT      O18044   0.290   6.743   7.249  0.1956  0.1478  0.4292
 4060WAT     H118045   0.331   6.824   7.218  4.3821 -1.7365  0.3114
 4060WAT     H218046   0.260   6.763   7.337  0.8736  1.9122  0.2990
 4060WAT    EPW18047   0.291   6.757   7.256  0.8372  0.1318  0.3965
 4061WAT      O18048  10.346   4.164   8.442 -0.1979  0.0798  0.3084
 4061WAT     H118049  10.329   4.100   8.373  3.1147  1.5260 -2.1311
 4061WAT     H218050  10.263   4.209   8.455 -1.4751 -1.7347 -1.1258
 4061WAT    EPW18051  10.333   4.161   8.434  0.0701  0.0312 -0.2027
 4062WAT      O18052   2.015   6.481   0.633  0.1543 -0.1697  0.6086
 4062WAT     H118053   2.045   6.403   0.586 -1.0237 -0.6505  0.6037
 4062WAT     H218054   2.086   6.502   0.694  1.5793  0.2824 -1.1341
 4062WAT    EPW18055   2.028   6.473   0.635  0.1868 -0.1736  0.3781
 4063WAT      O18056   6.424   4.309   6.471  0.1910  0.1245 -0.5286
 4063WAT     H118057   6.429   4.234   6.411  0.8258  2.0126 -3.0300
 4063WAT     H218058   6.332   4.316   6.494  0.2261 -1.8375  0.4066
 4063WAT    EPW18059   6.413   4.300   6.466  0.2794  0.1149 -0.7353
 4064WAT      O18060   6.972   3.718   7.494  0.1364  0.4929  0.1994
 4064WAT     H118061   6.922   3.753   7.568  0.0723  0.3129  0.2394
 4064WAT     H218062   7.030   3.652   7.533 -0.8422 -0.5675 -0.1084
 4064WAT    EPW18063   6.973   3.714   7.509 -0.0012  0.3293  0.1643
 4065WAT      O18064   7.919   9.891   1.287  0.5827  0.1003 -0.0924
 4065WAT     H118065   7.827   9.899   1.264  0.7027 -0.2459 -0.7189
 4065WAT     H218066   7.931   9.797   1.304  0.3601  0.3909  2.0410
 4065WAT    EPW18067   7.909   9.880   1.287  0.5691  0.0925  0.1063
 4066WAT      O18068   0.111   9.516   1.020 -0.2958  0.4284 -0.8912
 4066WAT     H118069   0.082   9.430   0.991  2.5327 -0.7216 -0.6285
 4066WAT     H218070   0.135   9.561   0.939 -0.3455  0.4157 -0.9131
 4066WAT    EPW18071   0.110   9.511   1.005  0.0707  0.2756 -0.8594
 4067WAT      O18072  10.152   6.381   7.366  0.0024 -0.8299  0.3777
 4067WAT     H118073  10.115   6.294   7.346  0.6400 -1.4873  1.8935
 4067WAT     H218074  10.245   6.364   7.383  0.0964  0.1294  0.8850
 4067WAT    EPW18075  10.160   6.367   7.365  0.0987 -0.7901  0.6447
 4068WAT      O18076   5.785   1.474   2.119 -0.0821  0.0607  0.0663
 4068WAT     H118077   5.874   1.471   2.084  1.0891 -2.4593  2.7942
 4068WAT     H218078   5.749   1.387   2.100 -1.0815  0.2458  1.0014
 4068WAT    EPW18079   5.792   1.462   2.111 -0.0594 -0.2473  0.5494
 4069WAT      O18080   9.993   8.417   0.831 -0.6814  0.2676  0.1884
 4069WAT     H118081  10.066   8.376   0.877 -1.9463 -0.5548  1.5571
 4069WAT     H218082  10.030   8.498   0.795  1.1540 -0.6575 -0.1215
 4069WAT    EPW18083  10.007   8.423   0.832 -0.6061  0.0367  0.3280
 4070WAT      O18084   6.430   3.402   6.683  0.1170  0.7347  0.0560
 4070WAT     H118085   6.350   3.448   6.710 -1.3626  0.4317 -3.3053
 4070WAT     H218086   6.493   3.473   6.667  0.0170  1.0884  1.1090
 4070WAT    EPW18087   6.428   3.418   6.685 -0.0916  0.7415 -0.2487
 4071WAT      O18088   6.288   4.620   6.819 -0.7846  0.2263  0.6207
 4071WAT     H118089   6.218   4.562   6.851 -1.0452  1.2344  1.9537
 4071WAT     H218090   6.285   4.610   6.724 -2.4060 -0.1636  0.6770
 4071WAT    EPW18091   6.278   4.611   6.811 -1.0326  0.3080  0.8037
 4072WAT      O18092   6.118   5.264   7.818 -0.6599  0.0717 -0.4300
 4072WAT     H118093   6.115   5.314   7.736 -1.1782  0.0154 -0.4522
 4072WAT     H218094   6.140   5.175   7.791 -1.8005 -0.1719 -0.6347
 4072WAT    EPW18095   6.120   5.259   7.804 -0.8788  0.0322 -0.4599
 4073WAT      O18096   0.618   4.549   8.059  0.2439 -0.1395  0.0825
 4073WAT     H118097   0.564   4.625   8.079  1.3556  0.1857  2.1185
 4073WAT     H218098   0.630   4.505   8.143  1.4237 -1.3475 -0.6750
 4073WAT    EPW18099   0.613   4.553   8.072  0.5461 -0.2558  0.2513
 4074WAT      O18100   9.609   4.587   7.103  0.5735  0.1657  0.1434
 4074WAT     H118101   9.685   4.637   7.074 -0.7315  1.6906 -0.7961
 4074WAT     H218102   9.608   4.597   7.198  1.0374  0.8832  0.0784
 4074WAT    EPW18103   9.619   4.595   7.112  0.4621  0.4616  0.0112
 4075WAT      O18104  10.032   5.618   6.707  0.6905 -0.1146  0.7090
 4075WAT     H118105  10.016   5.612   6.801 -1.9383 -0.4741  0.3222
 4075WAT     H218106   9.963   5.677   6.675  0.7584 -0.9676 -1.1439
 4075WAT    EPW18107  10.021   5.625   6.715  0.3529 -0.2744  0.4137
 4076WAT      O18108   0.274   3.266   8.360  1.0676  0.4521 -0.4589
 4076WAT     H118109   0.284   3.204   8.288  1.3265  0.4395 -0.4135
 4076WAT     H218110   0.211   3.224   8.419  0.2600  0.8014 -1.0437
 4076WAT    EPW18111   0.267   3.252   8.358  0.9952  0.4964 -0.5298
 4077WAT      O18112  10.807   0.925   0.509  0.1151  0.2546 -0.3882
 4077WAT     H118113  10.738   0.981   0.546 -1.2061 -0.8690 -1.0582
 4077WAT     H218114  10.815   0.853   0.572  0.5930  0.3212 -0.3724
 4077WAT    EPW18115  10.799   0.923   0.522  0.0043  0.1152 -0.4745
 4078WAT      O18116   3.052   4.693   6.594 -0.2141  0.6227 -0.3614
 4078WAT     H118117   3.009   4.750   6.657  1.0919  0.7273  0.4599
 4078WAT     H218118   3.136   4.671   6.634  0.9309  1.1884 -2.2966
 4078WAT    EPW18119   3.057   4.698   6.607  0.1092  0.7112 -0.5083
 4079WAT      O18120   7.010   3.974   7.280  0.1471  0.9432  0.0454
 4079WAT     H118121   6.977   3.943   7.195 -0.2287  1.2818  0.0669
 4079WAT     H218122   7.056   3.898   7.317  2.4466  1.4524 -1.5272
 4079WAT    EPW18123   7.012   3.960   7.274  0.4008  1.0549 -0.1593
 4080WAT      O18124   3.978   0.389   1.334 -0.9832  0.4117  0.0756
 4080WAT     H118125   4.040   0.319   1.354 -0.2709  0.5656 -1.4607
 4080WAT     H218126   4.022   0.469   1.362  0.1675  0.6644 -2.1949
 4080WAT    EPW18127   3.992   0.390   1.340 -0.7375  0.4653 -0.4264
 4081WAT      O18128   6.808   0.735   6.648 -0.2885  0.1831  0.0695
 4081WAT     H118129   6.880   0.731   6.711 -0.5771 -2.0021  0.3293
 4081WAT     H218130   6.729   0.734   6.702 -0.5260 -0.6396 -0.2807
 4081WAT    EPW18131   6.807   0.735   6.664 -0.3576 -0.2136  0.0577
 4082WAT      O18132   8.360   1.798   5.608 -0.1039  0.9088  0.3675
 4082WAT     H118133   8.298   1.845   5.664  1.5642  2.0939  1.2964
 4082WAT     H218134   8.423   1.759   5.669  1.7080  2.1572 -0.6115
 4082WAT    EPW18135   8.360   1.799   5.624  0.3552  1.2297  0.3607
 4083WAT      O18136  10.813   9.821   0.216 -0.1444 -0.1487 -0.5441
 4083WAT     H118137  10.875   9.802   0.145  0.0071  0.6642 -0.6399
 4083WAT     H218138  10.769   9.738   0.232  1.5099 -0.9742  0.0523
 4083WAT    EPW18139  10.816   9.807   0.209  0.0939 -0.1502 -0.4780
 4084WAT      O18140  10.308   3.413   6.641 -0.5513 -0.4860  0.1036
 4084WAT     H118141  10.284   3.502   6.614 -1.0391 -0.1304  1.5865
 4084WAT     H218142  10.401   3.420   6.664 -0.9900  0.1078  1.8661
 4084WAT    EPW18143  10.317   3.426   6.641 -0.6738 -0.3607  0.5317
 4085WAT      O18144   7.084   1.963   7.754 -0.5708  0.5494 -0.0865
 4085WAT     H118145   7.086   1.874   7.788  1.0102  0.4339 -0.4042
 4085WAT     H218146   7.057   1.954   7.663  0.9188  0.2124 -0.5257
 4085WAT    EPW18147   7.081   1.950   7.746 -0.1657  0.4897 -0.1864
 4086WAT      O18148   4.841   1.351   6.592 -0.1826 -0.1799  0.8045
 4086WAT     H118149   4.782   1.392   6.655 -0.7182  0.0573  0.1653
 4086WAT     H218150   4.824   1.257   6.600 -2.7516 -0.0037 -1.3281
 4086WAT    EPW18151   4.831   1.344   6.601 -0.5920 -0.1253  0.4389
 4087WAT      O18152  10.257   5.385   5.320 -0.3399 -0.8614  0.2156
 4087WAT     H118153  10.197   5.312   5.308 -0.4676 -0.5084 -1.5127
 4087WAT     H218154  10.343   5.351   5.298 -0.2155 -0.7998  0.5907
 4087WAT    EPW18155  10.260   5.371   5.316 -0.3400 -0.8070  0.0372
 4088WAT      O18156   0.791   6.691   0.142 -0.7326  0.5945  0.3905
 4088WAT     H118157   0.771   6.777   0.104 -1.2216 -0.6445 -2.3985
 4088WAT     H218158   0.747   6.629   0.084  5.1395 -2.0187 -2.0432
 4088WAT    EPW18159   0.782   6.694   0.129 -0.0226  0.0863 -0.2984
 4089WAT      O18160   3.827  10.000   0.158  0.2140  1.2972  0.6864
 4089WAT     H118161   3.782   9.973   0.078 -0.4310  2.4841  0.6284
 4089WAT     H218162   3.905  10.046   0.127 -1.4284  4.2500  0.5853
 4089WAT    EPW18163   3.831  10.002   0.144 -0.0876  1.8430  0.6654
 4090WAT      O18164   8.751   3.859   5.173  0.1202  0.3877 -0.2088
 4090WAT     H118165   8.800   3.925   5.125 -2.0823 -0.0312 -3.2919
 4090WAT     H218166   8.812   3.828   5.240  2.9476  1.9505 -1.8982
 4090WAT    EPW18167   8.765   3.863   5.176  0.2027  0.5385 -0.8383
 4091WAT      O18168   8.486   2.577   4.828 -0.3119 -0.3125  0.6574
 4091WAT     H118169   8.538   2.651   4.798 -1.6447  0.9507  1.3581
 4091WAT     H218170   8.524   2.553   4.913 -1.0095  0.8057  1.3125
 4091WAT    EPW18171   8.497   2.583   4.836 -0.5794  0.0017  0.8359
 4092WAT      O18172   6.888   6.434   7.763 -0.0220 -0.5379 -0.0518
 4092WAT     H118173   6.880   6.340   7.750 -0.4195 -0.8531  2.1924
 4092WAT     H218174   6.851   6.450   7.850 -0.1983  1.7343 -0.4781
 4092WAT    EPW18175   6.882   6.424   7.773 -0.0978 -0.2799  0.1881
 4093WAT      O18176   5.542   2.936   7.700 -0.2239 -0.2183  0.6036
 4093WAT     H118177   5.530   2.849   7.664  0.8686  0.2851 -1.0665
 4093WAT     H218178   5.634   2.940   7.725 -0.5175  0.1052  1.7014
 4093WAT    EPW18179   5.552   2.925   7.699 -0.1185 -0.1093  0.5281
 4094WAT      O18180   5.070   2.778   7.303  0.1309  0.2471  0.3110
 4094WAT     H118181   5.152   2.729   7.312  1.3095  1.8641 -0.9218
 4094WAT     H218182   5.093   2.867   7.332 -2.0127  0.1103  2.8313
 4094WAT    EPW18183   5.084   2.783   7.308  0.0036  0.4424  0.4807
 4095WAT      O18184   2.057   7.907   0.925  0.5006  0.2493 -0.3017
 4095WAT     H118185   2.034   7.999   0.937 -0.7844 -0.1676  0.6847
 4095WAT     H218186   2.062   7.896   0.830 -0.5515  1.0585 -0.4706
 4095WAT    EPW18187   2.055   7.918   0.914  0.1924  0.3009 -0.1939
 4096WAT      O18188  10.148   3.705   4.950 -0.1661  0.1371 -0.3467
 4096WAT     H118189  10.119   3.626   4.994 -2.3052  0.1351 -1.6003
 4096WAT     H218190  10.240   3.714   4.974 -0.2274 -1.9633  0.9068
 4096WAT    EPW18191  10.157   3.696   4.959 -0.4559 -0.1401 -0.3469
 4097WAT      O18192   7.393   3.592   8.647 -0.2230  0.1537 -0.6842
 4097WAT     H118193   7.414   3.679   8.615  1.0030  0.0686 -0.1616
 4097WAT     H218194   7.361   3.606   8.736 -1.1595  0.1563 -1.0050
 4097WAT    EPW18195   7.391   3.605   8.654 -0.1848  0.1428 -0.6580
 4098WAT      O18196   6.001   2.760   7.490 -0.3993  0.3351 -0.2763
 4098WAT     H118197   5.986   2.792   7.401 -0.5814 -0.0194 -0.3769
 4098WAT     H218198   6.095   2.748   7.495 -0.2869  1.2169 -0.1181
 4098WAT    EPW18199   6.011   2.763   7.479 -0.4084  0.4046 -0.2689
 4099WAT      O18200   9.629   3.973   7.685  0.3271  0.1681 -0.6983
 4099WAT     H118201   9.628   4.042   7.619  1.8912  1.1542  0.2494
 4099WAT     H218202   9.650   4.018   7.767 -0.1087 -1.2311  0.2201
 4099WAT    EPW18203   9.632   3.988   7.687  0.4759  0.1136 -0.4523
 4100WAT      O18204   3.140   6.506   0.304 -1.0040  0.1880  1.1032
 4100WAT     H118205   3.212   6.568   0.319 -0.9330  0.1982  0.7308
 4100WAT     H218206   3.152   6.439   0.372 -1.8539  1.2485  2.3437
 4100WAT    EPW18207   3.151   6.505   0.315 -1.1070  0.3290  1.2177
 4101WAT      O18208  10.317   2.254   8.267 -0.2396  0.3941 -0.0806
 4101WAT     H118209  10.394   2.308   8.283  0.1212  0.6247 -2.2711
 4101WAT     H218210  10.345   2.164   8.287 -0.2257  0.7508  1.6106
 4101WAT    EPW18211  10.331   2.249   8.272 -0.1903  0.4714 -0.1459
 4102WAT      O18212   6.132   5.473   7.628 -0.0105 -0.2391 -0.3703
 4102WAT     H118213   6.114   5.547   7.571  2.4864  0.0566 -0.9084
 4102WAT     H218214   6.156   5.513   7.712  2.7264 -0.2207 -1.0462
 4102WAT    EPW18215   6.133   5.488   7.631  0.6797 -0.1974 -0.5305
 4103WAT      O18216   9.178   2.618   7.193 -0.0422  0.1268  0.8008
 4103WAT     H118217   9.177   2.714   7.192  1.4080  0.1797  1.6742
 4103WAT     H218218   9.269   2.594   7.174 -0.8968 -1.1921 -2.2968
 4103WAT    EPW18219   9.190   2.627   7.190  0.0362 -0.0401  0.5076
 4104WAT      O18220   7.642   4.574   7.979  0.2802 -0.6083 -0.6510
 4104WAT     H118221   7.579   4.521   7.931 -2.0584  1.3453  0.0306
 4104WAT     H218222   7.620   4.561   8.072 -0.1889  1.2350 -0.4539
 4104WAT    EPW18223   7.631   4.566   7.985 -0.0901 -0.1075 -0.5350
 4105WAT      O18224   6.237   4.987   7.190  0.2628  0.6001 -0.4148
 4105WAT     H118225   6.216   4.954   7.103  6.7742  0.5818 -2.4968
 4105WAT     H218226   6.271   4.911   7.237  0.1578  1.3195  0.8678
 4105WAT    EPW18227   6.238   4.972   7.184  1.1075  0.6928 -0.5205
 4106WAT      O18228   0.980   7.786   1.096  0.0909 -0.2348  0.6203
 4106WAT     H118229   0.983   7.771   1.001 -1.3767 -0.9589  0.6630
 4106WAT     H218230   0.933   7.869   1.105  2.1392  0.9860  0.6657
 4106WAT    EPW18231   0.974   7.795   1.085  0.1675 -0.1690  0.6319
 4107WAT      O18232   9.550   7.918   1.314 -0.3259  0.9229  0.8240
 4107WAT     H118233   9.508   7.976   1.378 -0.5003 -0.4533  2.0144
 4107WAT     H218234   9.580   7.977   1.244 -0.7675  2.3961  1.8228
 4107WAT    EPW18235   9.549   7.934   1.313 -0.4067  0.9356  1.1127
 4108WAT      O18236   9.114   4.535   2.350  0.1803 -0.0399 -0.2713
 4108WAT     H118237   9.205   4.529   2.378  0.1306 -0.7998 -0.2626
 4108WAT     H218238   9.081   4.446   2.354 -0.0375 -0.0870 -2.0396
 4108WAT    EPW18239   9.122   4.523   2.354  0.1450 -0.1464 -0.5034
 4109WAT      O18240   8.393   4.060   1.337 -1.1724 -0.4528 -0.5900
 4109WAT     H118241   8.426   4.058   1.247  1.0659 -1.7778  0.1796
 4109WAT     H218242   8.449   4.124   1.381 -2.5363  0.5094 -0.2036
 4109WAT    EPW18243   8.405   4.068   1.331 -1.0571 -0.5007 -0.4375
 4110WAT      O18244   7.579   0.118   0.459 -0.1742  0.7471  0.5862
 4110WAT     H118245   7.657   0.102   0.406  1.4103  1.6389  2.5618
 4110WAT     H218246   7.584   0.210   0.484 -2.7189  1.2776 -0.4836
 4110WAT    EPW18247   7.590   0.128   0.455 -0.3009  0.9347  0.7057
 4111WAT      O18248   6.009   3.968   7.509  0.4194  0.4966  0.2512
 4111WAT     H118249   5.937   3.979   7.447 -0.5754  0.9646  1.4368
 4111WAT     H218250   6.017   3.873   7.518  1.2089  0.4009 -1.2743
 4111WAT    EPW18251   6.000   3.957   7.502  0.3922  0.5457  0.2062
 4112WAT      O18252   6.605   5.465   7.169  0.5679  0.4103 -0.0633
 4112WAT     H118253   6.670   5.535   7.164  0.4644  0.4105 -2.5475
 4112WAT     H218254   6.531   5.497   7.116 -0.3394 -0.7123  0.4850
 4112WAT    EPW18255   6.604   5.479   7.161  0.4344  0.2623 -0.3183
 4113WAT      O18256   2.057   9.404   1.625 -0.5631  0.6021 -0.2677
 4113WAT     H118257   1.990   9.337   1.611 -0.2599  0.5000 -1.3456
 4113WAT     H218258   2.133   9.355   1.657 -0.0643  0.2621 -1.8506
 4113WAT    EPW18259   2.058   9.389   1.627 -0.4573  0.5441 -0.6186
 4114WAT      O18260   7.819   4.966   7.186  0.1894  0.5036 -0.2602
 4114WAT     H118261   7.799   5.057   7.163  0.1539  1.0222  1.6446
 4114WAT     H218262   7.826   4.966   7.281  0.7478 -1.3972 -0.2505
 4114WAT    EPW18263   7.817   4.978   7.195  0.2582  0.3214 -0.0076
 4115WAT      O18264   7.830   6.200   6.858  0.4684 -0.6303 -0.1036
 4115WAT     H118265   7.853   6.274   6.802 -0.1325 -0.2885  0.1027
 4115WAT     H218266   7.837   6.124   6.800  0.3634 -0.3370 -0.5070
 4115WAT    EPW18267   7.834   6.200   6.843  0.3753 -0.5465 -0.1297
 4116WAT      O18268   5.537   1.276   0.787 -0.7660 -0.1657  0.4089
 4116WAT     H118269   5.530   1.325   0.704  0.0448 -2.0776 -0.8478
 4116WAT     H218270   5.446   1.257   0.811 -0.9695 -0.8991 -0.8687
 4116WAT    EPW18271   5.524   1.280   0.779 -0.6857 -0.5145  0.0747
 4117WAT      O18272   0.596   6.965   7.229 -0.7395  0.1580  0.0558
 4117WAT     H118273   0.587   6.968   7.324 -0.8890  1.4362  0.0258
 4117WAT     H218274   0.683   6.928   7.214 -0.3015  0.8717  0.7284
 4117WAT    EPW18275   0.606   6.960   7.239 -0.7015  0.4206  0.1402
 4118WAT      O18276   8.494   0.693   7.041  0.4640 -0.1181 -0.2937
 4118WAT     H118277   8.463   0.783   7.054  1.3277  0.2316 -0.5710
 4118WAT     H218278   8.559   0.701   6.971  2.3784 -0.5421  1.3645
 4118WAT    EPW18279   8.499   0.706   7.033  0.8307 -0.1279 -0.1116
 4119WAT      O18280   0.679   6.139   8.185 -0.5182 -0.6451  0.0259
 4119WAT     H118281   0.597   6.186   8.171 -0.2889 -0.4742 -0.7903
 4119WAT     H218282   0.672   6.062   8.130 -0.1587 -0.6610 -0.0009
 4119WAT    EPW18283   0.667   6.135   8.176 -0.4406 -0.6247 -0.0854
 4120WAT      O18284   2.170   8.956   8.659  0.0152 -0.1596 -0.3864
 4120WAT     H118285   2.250   8.977   8.611 -0.9200 -0.7039 -2.2970
 4120WAT     H218286   2.200   8.917   8.741  1.6967 -0.0232 -0.9017
 4120WAT    EPW18287   2.184   8.954   8.663  0.1136 -0.2131 -0.7067
 4121WAT      O18288   9.240   8.811   7.462  0.7941  0.0961 -0.2467
 4121WAT     H118289   9.274   8.897   7.437 -3.7702  1.9364 -1.1970
 4121WAT     H218290   9.229   8.816   7.557 -1.7666  1.7393 -0.5365
 4121WAT    EPW18291   9.243   8.823   7.471 -0.1459  0.5555 -0.4098
 4122WAT      O18292  10.831   8.298   0.567 -0.4195  0.8009  0.6450
 4122WAT     H118293  10.748   8.285   0.520  0.6913  0.9951 -1.5107
 4122WAT     H218294  10.815   8.374   0.623 -1.6585  0.9321  0.1567
 4122WAT    EPW18295  10.818   8.306   0.568 -0.4363  0.8435  0.2963
 4123WAT      O18296   8.594   7.169   6.963  0.8126  0.1640 -0.0280
 4123WAT     H118297   8.506   7.140   6.987  0.7198 -0.2533 -0.8169
 4123WAT     H218298   8.649   7.090   6.972  1.5315  0.8753  2.3794
 4123WAT    EPW18299   8.590   7.154   6.967  0.8955  0.2027  0.1857
 4124WAT      O18300   1.005   9.977   2.684 -0.2930  0.5049 -0.7195
 4124WAT     H118301   0.916   9.952   2.660 -0.6924  0.2398  0.9417
 4124WAT     H218302   0.995  10.037   2.758  0.8440  2.2443 -1.8955
 4124WAT    EPW18303   0.992   9.981   2.691 -0.1957  0.7000 -0.6555
 4125WAT      O18304   4.201   0.095   2.050 -0.0559 -0.1063 -0.2266
 4125WAT     H118305   4.137   0.159   2.018 -1.9632 -2.6698 -2.0418
 4125WAT     H218306   4.205   0.029   1.980  1.0091 -2.4563  1.9094
 4125WAT    EPW18307   4.193   0.094   2.036 -0.1671 -0.7544 -0.1843
 4126WAT      O18308   5.572   3.347   6.645 -0.7851  0.6332  0.1104
 4126WAT     H118309   5.574   3.288   6.569  0.4000  0.9270 -0.1052
 4126WAT     H218310   5.481   3.346   6.674 -0.7188 -1.7497  0.4497
 4126WAT    EPW18311   5.561   3.339   6.639 -0.6204  0.3575  0.1268
 4127WAT      O18312  10.457   6.481   1.565 -0.0846 -0.6080  0.1870
 4127WAT     H118313  10.543   6.443   1.546 -0.5282 -1.7189  0.3350
 4127WAT     H218314  10.419   6.497   1.478 -0.6044 -2.1932  0.0933
 4127WAT    EPW18315  10.463   6.478   1.551 -0.2117 -0.9637  0.1941
 4128WAT      O18316   6.336   2.162   5.470  0.2992 -0.6675  0.3975
 4128WAT     H118317   6.408   2.111   5.507  0.1972 -0.1961  1.2725
 4128WAT     H218318   6.359   2.173   5.378 -0.0347 -2.8929  0.0127
 4128WAT    EPW18319   6.349   2.157   5.463  0.2418 -0.8987  0.4623
 4129WAT      O18320   6.589   2.376   4.152 -0.3799  0.6441 -0.0411
 4129WAT     H118321   6.542   2.401   4.232 -0.5526  0.0046  0.0580
 4129WAT     H218322   6.668   2.431   4.153 -0.8324  1.2964  0.0952
 4129WAT    EPW18323   6.593   2.387   4.163 -0.4625  0.6458 -0.0098
 4130WAT      O18324   9.854   9.681   1.371 -0.2378  0.9679 -0.1360
 4130WAT     H118325   9.941   9.714   1.394 -0.1709 -0.9448  2.8628
 4130WAT     H218326   9.802   9.760   1.355  1.7705  2.1808 -1.2144
 4130WAT    EPW18327   9.858   9.696   1.372  0.0362  0.8755  0.1174
 4131WAT      O18328   7.481   3.154   6.902  0.4425  0.2888  0.0370
 4131WAT     H118329   7.512   3.064   6.910 -2.8741 -0.8363  1.6439
 4131WAT     H218330   7.505   3.196   6.985  0.6080  0.4390 -0.0844
 4131WAT    EPW18331   7.489   3.148   6.914  0.0269  0.1602  0.2327
 4132WAT      O18332   4.076   6.597   0.860 -0.0741 -0.0573  0.0913
 4132WAT     H118333   4.048   6.611   0.950  2.1073 -1.6096  1.0987
 4132WAT     H218334   4.165   6.632   0.856 -0.4297  0.8052 -1.7535
 4132WAT    EPW18335   4.084   6.604   0.871  0.1667 -0.1483 -0.0192
 4133WAT      O18336  10.613   8.280   1.788 -0.4535 -0.3551  0.3617
 4133WAT     H118337  10.599   8.345   1.719 -0.1490 -0.0976  0.5425
 4133WAT     H218338  10.528   8.238   1.800  0.1961 -3.0309 -2.7933
 4133WAT    EPW18339  10.600   8.283   1.780 -0.3276 -0.6742 -0.0306
 4134WAT      O18340   7.824   2.769   6.899  0.0834 -0.4314 -0.1178
 4134WAT     H118341   7.901   2.787   6.844  0.8710 -1.0739  0.7359
 4134WAT     H218342   7.848   2.690   6.948 -1.0488 -0.5215  0.3208
 4134WAT    EPW18343   7.837   2.761   6.898  0.0381 -0.5281  0.0522
 4135WAT      O18344   7.706   4.963   4.737 -0.0022 -0.1344  0.3560
 4135WAT     H118345   7.660   5.047   4.745 -1.0444 -0.8053  1.6422
 4135WAT     H218346   7.747   4.950   4.822 -1.3945 -1.7856  0.8266
 4135WAT    EPW18347   7.705   4.973   4.749 -0.3233 -0.4406  0.5877
 4136WAT      O18348   8.180   3.486   6.146 -0.4088 -0.3286  0.3133
 4136WAT     H118349   8.188   3.552   6.215  0.1486 -2.5707  2.5564
 4136WAT     H218350   8.095   3.446   6.161 -1.0415  0.2487 -1.4529
 4136WAT    EPW18351   8.170   3.490   6.157 -0.4187 -0.5484  0.3762
 4137WAT      O18352   6.766   4.021   5.395  0.0314 -0.4256  0.3473
 4137WAT     H118353   6.793   4.076   5.321 -1.2441 -0.9624 -0.5540
 4137WAT     H218354   6.847   3.981   5.425  0.5265 -0.5597 -1.0824
 4137WAT    EPW18355   6.780   4.023   5.389 -0.0715 -0.5143  0.0398
 4138WAT      O18356   7.566   3.484   8.414 -0.0166  0.3604 -0.6266
 4138WAT     H118357   7.501   3.551   8.436 -1.1201 -0.6976 -0.5559
 4138WAT     H218358   7.527   3.436   8.341  1.7029  1.0958 -2.0774
 4138WAT    EPW18359   7.552   3.487   8.408  0.0648  0.3179 -0.8082
 4139WAT      O18360   9.674   9.425   0.175 -0.2234 -0.5134  0.1466
 4139WAT     H118361   9.658   9.442   0.083 -1.1700 -0.7760  0.2506
 4139WAT     H218362   9.590   9.446   0.218  0.8435  1.9018  1.2755
 4139WAT    EPW18363   9.660   9.430   0.169 -0.2074 -0.2294  0.3092
 4140WAT      O18364   9.015   5.251   6.121  0.2014  0.7333 -0.6843
 4140WAT     H118365   8.965   5.317   6.073 -2.0142 -1.1424 -1.1458
 4140WAT     H218366   8.949   5.199   6.166  2.0534  0.8132  2.4078
 4140WAT    EPW18367   9.000   5.253   6.120  0.1535  0.4966 -0.3374
 4141WAT      O18368   9.274   5.515   8.319  0.7752  0.1462  0.6236
 4141WAT     H118369   9.263   5.451   8.388 -1.7793 -0.9848 -0.7019
 4141WAT     H218370   9.310   5.592   8.363  0.8786 -1.0944  2.8376
 4141WAT    EPW18371   9.277   5.517   8.334  0.4516 -0.1664  0.7415
 4142WAT      O18372   8.623   1.227   6.695  0.1077 -0.0685  0.1226
 4142WAT     H118373   8.528   1.237   6.704  0.3626  0.9820  2.0500
 4142WAT     H218374   8.658   1.316   6.697  1.2037 -0.4761  0.0916
 4142WAT    EPW18375   8.615   1.240   6.696  0.2856  0.0163  0.3726
 4143WAT      O18376   5.152   5.123   8.644 -0.1943  1.5923  1.0247
 4143WAT     H118377   5.083   5.084   8.697  0.6641  1.9052  2.4327
 4143WAT     H218378   5.109   5.145   8.561 -0.2726 -4.3722 -0.9404
 4143WAT    EPW18379   5.137   5.121   8.640 -0.0913  0.8469  0.9518
 4144WAT      O18380   1.038   5.767   0.053 -0.2897 -0.4899 -0.1552
 4144WAT     H118381   1.054   5.672   0.048 -1.7620 -0.8709  1.5051
 4144WAT     H218382   0.981   5.778   0.129 -2.3803  1.4430 -1.8790
 4144WAT    EPW18383   1.033   5.756   0.062 -0.7597 -0.2851 -0.1636
 4145WAT      O18384   8.470  10.134   0.286  0.0474  0.3395 -0.2948
 4145WAT     H118385   8.479  10.040   0.277  1.8283  0.5899 -1.7620
 4145WAT     H218386   8.490  10.152   0.378  1.0667 -0.6147 -0.3056
 4145WAT    EPW18387   8.474  10.124   0.297  0.4168  0.2470 -0.4897
 4146WAT      O18388   5.948   5.040   8.399 -0.3864  0.5483  0.1954
 4146WAT     H118389   6.033   5.024   8.440 -0.5758 -0.5622  0.1868
 4146WAT     H218390   5.908   4.953   8.393  0.2107  0.3377 -3.6600
 4146WAT    EPW18391   5.954   5.026   8.403 -0.3326  0.3741 -0.3142
 4147WAT      O18392   7.506   3.553   0.918 -0.1501 -0.2597 -0.5211
 4147WAT     H118393   7.477   3.463   0.905 -0.5301 -0.7988  3.0599
 4147WAT     H218394   7.478   3.575   1.007  3.1456  2.1273  0.1302
 4147WAT    EPW18395   7.498   3.544   0.928  0.2344 -0.0160  0.0371
 4148WAT      O18396   0.050   2.350   5.554  0.1356 -0.0344 -0.4702
 4148WAT     H118397   0.024   2.258   5.541 -1.2877 -0.1275  2.2081
 4148WAT     H218398   0.033   2.366   5.647  1.3256  2.6803 -0.6378
 4148WAT    EPW18399   0.044   2.340   5.565  0.1048  0.3115 -0.1392
 4149WAT      O18400   7.308   5.305   8.107  0.1556  0.5592 -0.1798
 4149WAT     H118401   7.241   5.325   8.041 -0.3522 -2.7294 -0.8547
 4149WAT     H218402   7.266   5.321   8.191 -1.0781 -0.1974 -0.6257
 4149WAT    EPW18403   7.294   5.310   8.109 -0.0739  0.0257 -0.3266
 4150WAT      O18404   7.788   5.449   8.389  0.0475  0.5848 -0.4964
 4150WAT     H118405   7.762   5.470   8.479  0.9918  1.4762 -0.4126
 4150WAT     H218406   7.844   5.522   8.363  0.0564  0.1684 -1.6961
 4150WAT    EPW18407   7.792   5.461   8.398  0.1733  0.6475 -0.6433
 4151WAT      O18408   5.307   3.953   7.421  0.7971  0.4193  0.0944
 4151WAT     H118409   5.375   3.886   7.428  0.9589  0.6916  1.3537
 4151WAT     H218410   5.344   4.030   7.464 -0.0828  0.7489  0.2914
 4151WAT    EPW18411   5.321   3.955   7.427  0.7026  0.4988  0.2863
 4152WAT      O18412  10.639   6.299   6.810  0.0162 -0.5199  0.8658
 4152WAT     H118413  10.657   6.386   6.845  0.3150 -0.7703  1.3350
 4152WAT     H218414  10.678   6.239   6.873 -1.6462 -1.0449  1.4313
 4152WAT    EPW18415  10.646   6.303   6.823 -0.1640 -0.6225  1.0023
 4153WAT      O18416   9.459   5.570   6.496  0.0607 -0.2915  0.7785
 4153WAT     H118417   9.398   5.599   6.564  0.5964 -0.0611  1.1669
 4153WAT     H218418   9.527   5.637   6.493  0.0476 -0.3043  0.0163
 4153WAT    EPW18419   9.460   5.582   6.505  0.1292 -0.2627  0.7291
 4154WAT      O18420   7.631   5.780   7.776  0.0710 -0.1058  0.0952
 4154WAT     H118421   7.687   5.722   7.828  0.4198  1.5838  1.7219
 4154WAT     H218422   7.553   5.792   7.831 -0.8646 -0.5363 -1.0932
 4154WAT    EPW18423   7.628   5.774   7.790 -0.0064  0.0601  0.1528
 4155WAT      O18424  10.484   7.735   0.649 -0.0974 -0.3918  0.1919
 4155WAT     H118425  10.518   7.808   0.597  0.4365 -2.0889 -2.0138
 4155WAT     H218426  10.542   7.662   0.629 -1.1964 -1.7062  1.5189
 4155WAT    EPW18427  10.496   7.735   0.640 -0.1717 -0.7889  0.0760
 4156WAT      O18428   8.061   2.169   7.960 -0.6579  0.3515  0.3411
 4156WAT     H118429   7.971   2.174   7.927 -0.8585 -0.3786  0.7495
 4156WAT     H218430   8.058   2.213   8.045 -1.2066 -1.7130  1.4705
 4156WAT    EPW18431   8.049   2.176   7.967 -0.7563 -0.0173  0.5441
 4157WAT      O18432   2.284   9.658   2.117  0.0539 -0.0031  0.4263
 4157WAT     H118433   2.257   9.747   2.141 -2.9892 -0.5257 -0.6409
 4157WAT     H218434   2.216   9.602   2.154 -0.2522 -1.5264 -2.1923
 4157WAT    EPW18435   2.271   9.662   2.125 -0.3878 -0.2737 -0.0600
 4158WAT      O18436  10.768   2.797   7.366 -0.1434  0.4242 -0.0558
 4158WAT     H118437  10.724   2.725   7.320 -2.2631  1.1493  0.6997
 4158WAT     H218438  10.710   2.872   7.352  1.6632  1.8319 -0.2368
 4158WAT    EPW18439  10.754   2.797   7.358 -0.1850  0.7055  0.0200
 4159WAT      O18440   9.257   2.464   7.716 -0.3640  0.1958  0.6890
 4159WAT     H118441   9.350   2.443   7.712  0.0016  1.8217 -1.3113
 4159WAT     H218442   9.251   2.540   7.773 -0.0312  1.7126 -1.1903
 4159WAT    EPW18443   9.268   2.471   7.723 -0.2718  0.6104  0.1771
 4160WAT      O18444  10.878   5.045   8.947 -0.4536 -0.0235 -0.6169
 4160WAT     H118445  10.792   5.007   8.930 -0.9224  0.3702  0.6996
 4160WAT     H218446  10.907   5.003   9.028 -0.0885  0.9280 -0.2356
 4160WAT    EPW18447  10.871   5.034   8.955 -0.4668  0.1540 -0.3929
 4161WAT      O18448   2.535   8.974   2.364 -0.1230 -0.0037  0.4482
 4161WAT     H118449   2.630   8.965   2.369  0.0048  1.0980  0.2830
 4161WAT     H218450   2.505   8.894   2.320  0.7490 -0.2471  0.2827
 4161WAT    EPW18451   2.543   8.962   2.359  0.0089  0.1087  0.4045
 4162WAT      O18452   3.040   7.831   2.226  0.3860  1.1406 -0.3729
 4162WAT     H118453   3.118   7.787   2.193 -0.0216  0.9189 -1.0664
 4162WAT     H218454   2.968   7.794   2.175 -0.1128  1.7038 -0.0953
 4162WAT    EPW18455   3.041   7.820   2.215  0.2664  1.1861 -0.4278
 4163WAT      O18456  10.785   6.139   8.907  0.3112  0.3519 -0.2722
 4163WAT     H118457  10.716   6.181   8.959  0.3117  1.0518 -0.8087
 4163WAT     H218458  10.756   6.152   8.816 -0.3394 -1.9675 -0.4464
 4163WAT    EPW18459  10.772   6.146   8.902  0.2255  0.1383 -0.3657
 4164WAT      O18460   0.749   9.103   5.520  0.7560  0.5531  0.0877
 4164WAT     H118461   0.805   9.033   5.552  2.8681  1.5372 -1.2190
 4164WAT     H218462   0.788   9.183   5.554 -0.0233  1.2647 -0.6271
 4164WAT    EPW18463   0.761   9.104   5.529  0.9317  0.7772 -0.1791
 4165WAT      O18464   4.673   0.477   0.272  0.5499 -0.0425  0.0430
 4165WAT     H118465   4.645   0.431   0.193 -0.6112  1.7462 -0.6416
 4165WAT     H218466   4.673   0.410   0.340  2.5584 -1.8766 -1.6080
 4165WAT    EPW18467   4.670   0.462   0.270  0.6616 -0.0484 -0.2650
 4166WAT      O18468   8.519   5.442   3.624 -0.2396  0.1895 -0.2665
 4166WAT     H118469   8.565   5.503   3.567 -0.7783 -0.4149 -1.3668
 4166WAT     H218470   8.433   5.482   3.638 -0.2371  0.1623 -0.1747
 4166WAT    EPW18471   8.514   5.455   3.619 -0.3109  0.1061 -0.3994
 4167WAT      O18472   4.727   1.076   0.922 -0.1056  0.1944  0.0321
 4167WAT     H118473   4.662   1.006   0.919  0.5166 -0.6233  2.5091
 4167WAT     H218474   4.807   1.036   0.888 -0.4058  0.6338 -1.2562
 4167WAT    EPW18475   4.729   1.062   0.917 -0.0632  0.1445  0.1889
 4168WAT      O18476   1.891   0.898   0.003  0.0465  0.3837 -0.3516
 4168WAT     H118477   1.932   0.911  -0.082 -2.2681 -0.6419 -1.7274
 4168WAT     H218478   1.888   0.985   0.043 -1.3669  1.4648 -2.6062
 4168WAT    EPW18479   1.896   0.911  -0.003 -0.4452  0.3910 -0.8304
 4169WAT      O18480   3.976   4.041   0.165  0.3825  0.3373  0.6023
 4169WAT     H118481   3.983   4.114   0.103 -0.3321  1.0195  1.3167
 4169WAT     H218482   4.017   3.968   0.119 -3.1238 -0.1534 -2.1789
 4169WAT    EPW18483   3.982   4.041   0.151 -0.1742  0.3626  0.3297
 4170WAT      O18484   9.150   2.166   8.064 -0.7380 -0.2564  0.6434
 4170WAT     H118485   9.072   2.216   8.038  0.1500  0.7579 -0.1781
 4170WAT     H218486   9.171   2.114   7.987 -1.6642 -1.9763  1.5031
 4170WAT    EPW18487   9.142   2.166   8.051 -0.7429 -0.3495  0.6490
 4171WAT      O18488   3.825   1.391   0.546 -0.6125 -0.6438 -0.4025
 4171WAT     H118489   3.911   1.360   0.572 -0.1367 -0.3451 -1.5437
 4171WAT     H218490   3.783   1.418   0.627 -0.3742 -2.5721  0.4092
 4171WAT    EPW18491   3.830   1.391   0.560 -0.5182 -0.8587 -0.4460
 4172WAT      O18492   5.058   0.330   1.249  0.1845 -0.3903 -0.1711
 4172WAT     H118493   5.035   0.404   1.305 -1.3047 -0.9307 -0.0092
 4172WAT     H218494   4.991   0.331   1.180  0.4015 -1.3228 -0.4112
 4172WAT    EPW18495   5.046   0.340   1.247  0.0165 -0.5846 -0.1814
 4173WAT      O18496   8.253   1.952   8.360  0.0030 -0.0006  0.5263
 4173WAT     H118497   8.338   1.996   8.367 -0.0761  0.3235 -0.3705
 4173WAT     H218498   8.244   1.933   8.266 -0.8159 -0.2273  0.6411
 4173WAT    EPW18499   8.263   1.955   8.348 -0.1154  0.0122  0.4234
 4174WAT      O18500   0.169   5.931   8.118 -0.4526  0.1883  0.6209
 4174WAT     H118501   0.223   5.883   8.055  1.3160 -0.2445  2.3661
 4174WAT     H218502   0.171   5.877   8.197 -0.1459  2.1153  1.9963
 4174WAT    EPW18503   0.176   5.917   8.120 -0.1789  0.3853  1.0324
 4175WAT      O18504   3.372   0.596   0.218 -0.4958 -0.0158 -0.6733
 4175WAT     H118505   3.401   0.655   0.148 -1.3686 -0.4382 -1.4169
 4175WAT     H218506   3.277   0.589   0.206 -0.4510 -1.3185 -0.4166
 4175WAT    EPW18507   3.363   0.603   0.207 -0.6050 -0.2433 -0.7375
 4176WAT      O18508   7.858   5.427   8.767  0.3952 -0.0867 -0.1476
 4176WAT     H118509   7.840   5.339   8.800  0.5858 -0.1265 -0.1491
 4176WAT     H218510   7.912   5.413   8.689  1.9209  0.0787  0.8219
 4176WAT    EPW18511   7.863   5.413   8.761  0.6216 -0.0703 -0.0196
 4177WAT      O18512   5.065   0.492   4.491  0.7589 -0.2266  0.0961
 4177WAT     H118513   5.149   0.447   4.489  1.5998  1.2862 -0.2861
 4177WAT     H218514   5.085   0.578   4.528 -0.6660  0.0806  0.2131
 4177WAT    EPW18515   5.079   0.497   4.496  0.6819  0.0134  0.0613
 4178WAT      O18516  10.181  10.021   0.242  0.0352 -0.3940 -0.3515
 4178WAT     H118517  10.135  10.083   0.185  0.2447 -0.6343 -0.7789
 4178WAT     H218518  10.127   9.942   0.240  0.1440 -0.4693 -0.3765
 4178WAT    EPW18519  10.168  10.019   0.234  0.0772 -0.4358 -0.4111
 4179WAT      O18520   3.283   5.024   3.879  0.1718  0.1227  0.4669
 4179WAT     H118521   3.215   4.968   3.916 -1.8858 -0.6535 -3.8498
 4179WAT     H218522   3.312   4.977   3.800  2.0644  2.7898 -0.5618
 4179WAT    EPW18523   3.278   5.010   3.873  0.1500  0.3719 -0.2382
 4180WAT      O18524   4.785   9.856   6.232 -0.3165  0.0142 -0.1630
 4180WAT     H118525   4.862   9.893   6.190  0.0398 -0.7368 -0.1804
 4180WAT     H218526   4.711   9.889   6.180  0.1576 -1.7175 -2.0612
 4180WAT    EPW18527   4.785   9.865   6.219 -0.2069 -0.3133 -0.4158
 4181WAT      O18528   8.420   3.586   0.123  0.2275  0.7562  0.2020
 4181WAT     H118529   8.335   3.569   0.082 -0.3360  1.0534  1.1895
 4181WAT     H218530   8.475   3.512   0.098 -0.2680  0.6534 -0.6014
 4181WAT    EPW18531   8.416   3.574   0.114  0.0877  0.7817  0.2263
 4182WAT      O18532   7.933   6.943   8.167  0.0028  0.2710  0.3587
 4182WAT     H118533   7.919   6.872   8.105 -0.5339 -0.3871  1.2217
 4182WAT     H218534   7.949   7.020   8.112 -0.5466 -0.2821 -0.5913
 4182WAT    EPW18535   7.933   6.944   8.151 -0.1402  0.1113  0.3467
 4183WAT      O18536   4.475   4.057   0.220 -0.2860  0.0311 -0.3110
 4183WAT     H118537   4.418   4.133   0.236 -1.7205 -0.9334 -0.6634
 4183WAT     H218538   4.496   4.063   0.127 -0.0899  0.1925 -0.2578
 4183WAT    EPW18539   4.470   4.068   0.210 -0.4489 -0.0749 -0.3505
 4184WAT      O18540   5.535   3.900   7.920 -0.0889  0.4797 -0.3975
 4184WAT     H118541   5.519   3.895   8.015  1.7811  3.0169  0.1606
 4184WAT     H218542   5.477   3.833   7.883  1.1358 -2.6466  2.6974
 4184WAT    EPW18543   5.525   3.890   7.928  0.3192  0.4020  0.0844
 4185WAT      O18544   2.549   0.273   2.008  0.4096 -0.1206 -0.3848
 4185WAT     H118545   2.573   0.339   2.072 -1.7402  0.4713 -0.1257
 4185WAT     H218546   2.555   0.318   1.923 -0.8440  0.3918 -0.2253
 4185WAT    EPW18547   2.553   0.287   2.005 -0.0392  0.0250 -0.3296
 4186WAT      O18548   9.917   7.478   4.736 -0.0133 -0.2363  0.1128
 4186WAT     H118549   9.852   7.408   4.735 -1.1761  0.8005 -1.0104
 4186WAT     H218550   9.871   7.553   4.772  0.6472  0.4433 -0.4189
 4186WAT    EPW18551   9.902   7.479   4.741 -0.0796 -0.0098 -0.1054
 4187WAT      O18552   7.912   3.628   6.539  0.4870  0.1725  0.4491
 4187WAT     H118553   7.923   3.548   6.488  1.2035 -0.0169  0.8850
 4187WAT     H218554   7.905   3.599   6.629 -1.1521  0.4799  0.4512
 4187WAT    EPW18555   7.912   3.614   6.544  0.3653  0.1881  0.5069
 4188WAT      O18556  10.948   8.020   7.211 -0.1732 -0.5085 -0.1702
 4188WAT     H118557  10.889   8.048   7.140  0.4389 -1.0640 -0.9184
 4188WAT     H218558  10.998   7.948   7.173  0.0437 -0.9435  0.9004
 4188WAT    EPW18559  10.946   8.014   7.197 -0.0639 -0.6390 -0.1276
 4189WAT      O18560   2.621   3.463   1.456 -0.6319 -0.1544 -0.1158
 4189WAT     H118561   2.687   3.477   1.388 -0.4254 -1.3051 -0.1683
 4189WAT     H218562   2.538   3.469   1.409 -0.4783 -1.3624 -0.5624
 4189WAT    EPW18563   2.619   3.466   1.441 -0.5845 -0.4655 -0.1816
 4190WAT      O18564   3.877   0.594   0.128  0.0316  0.2352  0.1864
 4190WAT     H118565   3.944   0.640   0.178  1.8486  0.3514 -2.2073
 4190WAT     H218566   3.810   0.661   0.111 -0.2409  0.3902  1.7005
 4190WAT    EPW18567   3.877   0.609   0.133  0.2353  0.2710  0.0704
 4191WAT      O18568   7.169   5.886   8.926  0.6506 -0.2911 -0.1505
 4191WAT     H118569   7.226   5.812   8.907  3.1304  1.9507 -2.2399
 4191WAT     H218570   7.212   5.931   8.999 -0.7361 -0.7086  0.9802
 4191WAT    EPW18571   7.182   5.882   8.933  0.7948 -0.0505 -0.2769
 4192WAT      O18572   6.436   3.279   0.477 -0.0740 -0.0615 -0.5033
 4192WAT     H118573   6.414   3.370   0.495  0.4683  0.0085 -0.1783
 4192WAT     H218574   6.368   3.250   0.416 -0.2202  0.5734 -0.6525
 4192WAT    EPW18575   6.424   3.287   0.471 -0.0219  0.0314 -0.4801
 4193WAT      O18576   8.057   7.758   5.341  0.5205  0.6952 -0.3770
 4193WAT     H118577   8.063   7.854   5.349 -0.1302  0.6447  1.2655
 4193WAT     H218578   8.143   7.731   5.308  0.1347  1.9590 -2.6199
 4193WAT    EPW18579   8.069   7.767   5.338  0.3834  0.8552 -0.4561
 4194WAT      O18580   6.241   3.256   6.572 -0.0429 -0.0066  0.5760
 4194WAT     H118581   6.318   3.312   6.587  0.5706 -0.8062  0.4449
 4194WAT     H218582   6.277   3.168   6.562 -1.0909 -0.6316  2.0120
 4194WAT    EPW18583   6.256   3.252   6.573 -0.1001 -0.1944  0.7482
 4195WAT      O18584   9.415   5.434   6.025 -0.0364  0.1343  0.3887
 4195WAT     H118585   9.442   5.379   6.098  0.3522  0.1705  0.2773
 4195WAT     H218586   9.481   5.504   6.022  0.8797 -0.7362 -0.9819
 4195WAT    EPW18587   9.428   5.436   6.034  0.1354  0.0241  0.1934
 4196WAT      O18588   6.563   5.214   5.684 -0.1221  0.3735  0.8071
 4196WAT     H118589   6.474   5.211   5.720 -0.3007  0.7738  0.4096
 4196WAT     H218590   6.572   5.302   5.649 -0.3469 -0.3149 -1.1036
 4196WAT    EPW18591   6.552   5.225   5.684 -0.1752  0.3355  0.5028
 4197WAT      O18592   4.310   1.588   0.703 -0.5834  0.4073 -0.0544
 4197WAT     H118593   4.394   1.604   0.746 -0.0742 -0.5225 -0.6624
 4197WAT     H218594   4.259   1.537   0.767  0.0757 -0.7520 -0.4218
 4197WAT    EPW18595   4.314   1.583   0.717 -0.4294  0.1317 -0.1830
 4198WAT      O18596   8.724   8.362   7.800  0.8556 -0.1587  0.6867
 4198WAT     H118597   8.640   8.403   7.778  0.6108 -1.5562 -1.2254
 4198WAT     H218598   8.700   8.293   7.862  0.9427  0.8466  1.8988
 4198WAT    EPW18599   8.710   8.358   7.805  0.8345 -0.2103  0.5946
 4199WAT      O18600   3.909   2.629   0.413  0.3502 -0.2688  0.2012
 4199WAT     H118601   4.002   2.616   0.399  0.2156  0.6068 -1.7400
 4199WAT     H218602   3.894   2.597   0.502  1.9691 -2.9700 -0.4040
 4199WAT    EPW18603   3.919   2.623   0.423  0.5459 -0.5095 -0.1347
 4200WAT      O18604   0.634   9.114   7.753 -0.0242  0.2828  0.4614
 4200WAT     H118605   0.540   9.098   7.741  0.2095 -0.2828 -0.8274
 4200WAT     H218606   0.658   9.059   7.827 -0.3576 -1.0117 -0.3676
 4200WAT    EPW18607   0.625   9.105   7.761 -0.0373  0.0377  0.1822
 4201WAT      O18608  10.647   5.225   7.665  0.2506 -1.7187 -0.2065
 4201WAT     H118609  10.741   5.236   7.651  0.1184 -1.1642 -0.7159
 4201WAT     H218610  10.614   5.315   7.671 -0.5315 -1.8484 -2.0345
 4201WAT    EPW18611  10.655   5.238   7.664  0.1297 -1.6627 -0.5147
 4202WAT      O18612   8.928   6.870   5.688 -0.2874  0.3833 -0.2063
 4202WAT     H118613   8.976   6.855   5.770  0.0212  1.3382 -0.1977
 4202WAT     H218614   8.982   6.932   5.640 -0.0041 -0.8630 -1.5580
 4202WAT    EPW18615   8.942   6.876   5.692 -0.2093  0.3448 -0.3834
 4203WAT      O18616   9.296   3.759   8.538  0.0112  0.1719 -0.5073
 4203WAT     H118617   9.377   3.770   8.488  0.1674  0.7574 -0.1392
 4203WAT     H218618   9.290   3.838   8.591  0.8122 -1.2154  1.7812
 4203WAT    EPW18619   9.306   3.771   8.538  0.1373  0.0662 -0.1574
 4204WAT      O18620  10.393   6.153   6.742 -0.3201  0.3678 -0.4205
 4204WAT     H118621  10.389   6.144   6.647  0.2394 -1.0959 -0.3238
 4204WAT     H218622  10.470   6.208   6.757 -1.3434  2.0029 -0.8485
 4204WAT    EPW18623  10.403   6.159   6.731 -0.3819  0.3903 -0.4644
 4205WAT      O18624   0.954   0.725   0.707 -0.1720  0.2005  0.2864
 4205WAT     H118625   0.995   0.811   0.698  0.3135 -0.1710 -1.2701
 4205WAT     H218626   0.897   0.717   0.631 -0.1785 -0.8685  0.3903
 4205WAT    EPW18627   0.952   0.736   0.696 -0.1088  0.0105  0.0948
 4206WAT      O18628   4.170   5.027   8.098 -0.5084  0.3809  0.1407
 4206WAT     H118629   4.126   4.955   8.053  3.6131 -0.3400 -3.3127
 4206WAT     H218630   4.192   4.992   8.184 -1.3501 -1.2857 -0.2943
 4206WAT    EPW18631   4.167   5.013   8.103 -0.0756  0.0660 -0.3729
 4207WAT      O18632   5.847   2.715   0.759  0.4751 -0.8713 -0.0106
 4207WAT     H118633   5.929   2.688   0.719  0.5317 -0.1715 -0.3825
 4207WAT     H218634   5.804   2.769   0.693  0.3379 -0.1087  0.6799
 4207WAT    EPW18635   5.852   2.719   0.745  0.4647 -0.6784  0.0314
 4208WAT      O18636   6.671   6.735   4.571 -0.2419 -0.1525 -0.0972
 4208WAT     H118637   6.710   6.664   4.520 -0.7660 -0.2333 -0.3932
 4208WAT     H218638   6.745   6.793   4.591 -0.3205  0.9987 -2.7646
 4208WAT    EPW18639   6.686   6.733   4.567 -0.3214 -0.0114 -0.4880
 4209WAT      O18640   1.053   4.197   5.564 -0.5352  0.1761  0.3249
 4209WAT     H118641   1.144   4.226   5.548 -0.6270 -0.7030 -2.2212
 4209WAT     H218642   1.054   4.167   5.655  1.1789  2.1106  1.0400
 4209WAT    EPW18643   1.065   4.197   5.574 -0.3212  0.3152  0.0834
 4210WAT      O18644   7.646   3.813   7.542  0.2124  0.5321  0.2708
 4210WAT     H118645   7.570   3.840   7.594  0.4932  3.3228 -0.6341
 4210WAT     H218646   7.633   3.854   7.457  3.2885  2.2786  0.4785
 4210WAT    EPW18647   7.634   3.822   7.538  0.6554  1.1305  0.1788
 4211WAT      O18648   9.372   4.469   7.361  0.4777  0.2191 -0.8063
 4211WAT     H118649   9.387   4.542   7.420  0.9639  1.2934 -2.1976
 4211WAT     H218650   9.346   4.396   7.418  1.2034  1.1166  0.7254
 4211WAT    EPW18651   9.371   4.469   7.376  0.6375  0.4792 -0.7880
 4212WAT      O18652   5.100   3.146   2.562  0.3296 -1.0354  0.3737
 4212WAT     H118653   5.068   3.057   2.579  1.3482 -1.6911 -1.0082
 4212WAT     H218654   5.096   3.189   2.648 -2.8486 -1.4828  0.5892
 4212WAT    EPW18655   5.095   3.140   2.575  0.0451 -1.1808  0.2199
 4213WAT      O18656   0.661   8.820   6.607 -0.0558  0.0228 -0.8501
 4213WAT     H118657   0.714   8.778   6.539  1.2810  0.3793 -0.0520
 4213WAT     H218658   0.662   8.758   6.680  2.6454  1.6614  0.6652
 4213WAT    EPW18659   0.668   8.806   6.607  0.4768  0.2861 -0.5453
 4214WAT      O18660   4.889   8.146   6.657 -0.4937  0.2744 -0.0281
 4214WAT     H118661   4.887   8.083   6.585  0.6163 -0.9139  0.9208
 4214WAT     H218662   4.916   8.228   6.616  0.7251 -0.5223 -0.8961
 4214WAT    EPW18663   4.893   8.148   6.642 -0.1862  0.0124 -0.0174
 4215WAT      O18664   9.417   1.194   6.269  0.3975  0.1698 -0.4150
 4215WAT     H118665   9.427   1.289   6.260  2.5013 -0.0931 -1.2192
 4215WAT     H218666   9.453   1.158   6.189  0.6880 -1.3641  0.3734
 4215WAT    EPW18667   9.423   1.202   6.257  0.7133 -0.0672 -0.4172
 4216WAT      O18668  10.494   1.380   7.639 -0.8005  0.2661  0.3513
 4216WAT     H118669  10.576   1.409   7.681 -0.1892 -2.3133  1.1078
 4216WAT     H218670  10.500   1.412   7.549  0.6007  0.9213  0.6543
 4216WAT    EPW18671  10.506   1.388   7.633 -0.5345  0.0123  0.4911
 4217WAT      O18672   2.853   8.710   0.441  0.1766 -0.0063  0.2160
 4217WAT     H118673   2.938   8.755   0.442 -0.4301  1.4042 -2.0939
 4217WAT     H218674   2.788   8.780   0.438 -0.8576 -0.9160 -2.4637
 4217WAT    EPW18675   2.856   8.725   0.441 -0.0399  0.0591 -0.4421
 4218WAT      O18676   0.503   7.619   7.686  0.2946  0.0784  0.1211
 4218WAT     H118677   0.582   7.661   7.719  0.2982 -1.2073  1.8461
 4218WAT     H218678   0.432   7.674   7.718  0.3927  0.0274  0.4288
 4218WAT    EPW18679   0.504   7.632   7.694  0.3080 -0.0982  0.3891
 4219WAT      O18680   4.195   0.259   7.351  0.7011 -0.0146  0.8452
 4219WAT     H118681   4.252   0.205   7.296 -0.6949 -0.8454  0.1724
 4219WAT     H218682   4.132   0.298   7.290 -1.7175 -2.0088  1.9413
 4219WAT    EPW18683   4.194   0.257   7.336  0.1979 -0.3872  0.9010
 4220WAT      O18684   8.124   6.308   7.365  0.2765 -0.2650 -0.1784
 4220WAT     H118685   8.135   6.401   7.386  1.0633 -0.9812  3.0918
 4220WAT     H218686   8.029   6.295   7.361  0.1468  0.9022 -2.2304
 4220WAT    EPW18687   8.113   6.319   7.367  0.3633 -0.2055 -0.0176
 4221WAT      O18688   4.646   3.761   7.781  0.5697  0.6233 -0.0325
 4221WAT     H118689   4.713   3.803   7.834  2.4185 -2.0941 -0.0517
 4221WAT     H218690   4.690   3.738   7.699 -0.9382  0.4629 -0.8516
 4221WAT    EPW18691   4.661   3.764   7.777  0.6146  0.2438 -0.1433
 4222WAT      O18692   6.503   4.245   2.121 -0.2338 -0.2026  0.3322
 4222WAT     H118693   6.507   4.297   2.202 -0.9546  1.3609 -0.5787
 4222WAT     H218694   6.498   4.311   2.051 -1.6602 -1.4984 -0.8609
 4222WAT    EPW18695   6.503   4.261   2.123 -0.5171 -0.1676  0.0546
 4223WAT      O18696  10.283   3.350   7.428 -0.1805  0.8724  0.6592
 4223WAT     H118697  10.273   3.420   7.492  0.5647 -0.4106  2.2461
 4223WAT     H218698  10.298   3.271   7.480  2.1290  0.0263 -1.0963
 4223WAT    EPW18699  10.283   3.349   7.443  0.2227  0.5916  0.6371
 4224WAT      O18700   8.859   0.185   2.571 -0.1266  0.5901  0.0107
 4224WAT     H118701   8.779   0.237   2.572  0.5545  1.8692 -2.8188
 4224WAT     H218702   8.928   0.248   2.552  1.1352 -0.9358 -0.6476
 4224WAT    EPW18703   8.858   0.200   2.569  0.1297  0.5575 -0.4494
 4225WAT      O18704   9.494   1.473   8.076 -0.4736 -0.7882 -0.0509
 4225WAT     H118705   9.495   1.508   7.987 -0.3925 -0.5587  0.0384
 4225WAT     H218706   9.469   1.381   8.066 -1.7317 -0.4447 -0.1932
 4225WAT    EPW18707   9.491   1.466   8.063 -0.6294 -0.7126 -0.0582
 4226WAT      O18708  10.753   6.590   6.321  0.2948  0.0386 -0.7132
 4226WAT     H118709  10.755   6.520   6.255 -0.6463 -0.9212  0.2325
 4226WAT     H218710  10.773   6.545   6.403 -0.0266  0.9444 -0.1322
 4226WAT    EPW18711  10.756   6.575   6.323  0.1283  0.0315 -0.5116
 4227WAT      O18712   2.802   8.306   0.003  0.2137 -0.6067 -0.4078
 4227WAT     H118713   2.709   8.288  -0.009  0.2681 -0.7408 -0.6361
 4227WAT     H218714   2.833   8.332  -0.084  0.4152 -0.6804 -0.3589
 4227WAT    EPW18715   2.794   8.307  -0.010  0.2475 -0.6342 -0.4315
 4228WAT      O18716   1.927   2.829   7.980 -1.1139 -0.4936 -0.2353
 4228WAT     H118717   1.901   2.842   8.071  0.3391 -1.4279  0.3545
 4228WAT     H218718   1.919   2.735   7.966 -1.9570 -0.2778 -1.2988
 4228WAT    EPW18719   1.923   2.818   7.990 -1.0335 -0.5883 -0.2978
 4229WAT      O18720   0.504   5.218   4.664  0.1478  0.0341 -0.3323
 4229WAT     H118721   0.488   5.152   4.596  1.5721 -0.2359 -0.4348
 4229WAT     H218722   0.524   5.167   4.742  0.9332  0.3245 -0.3300
 4229WAT    EPW18723   0.504   5.202   4.665  0.4392  0.0365 -0.3455
 4230WAT      O18724   7.067   3.999   8.284 -0.2037  0.2046 -0.2935
 4230WAT     H118725   7.086   3.949   8.205 -1.6838  0.9380 -1.1607
 4230WAT     H218726   6.996   3.951   8.327 -2.4653  1.9964 -1.7318
 4230WAT    EPW18727   7.060   3.986   8.279 -0.6971  0.5375 -0.5970
 4231WAT      O18728   6.435   4.942   6.936  0.0782  0.2059  0.2482
 4231WAT     H118729   6.496   4.907   7.001  0.2546 -0.1093 -0.0849
 4231WAT     H218730   6.352   4.899   6.956  0.6093 -1.5155 -1.0371
 4231WAT    EPW18731   6.432   4.932   6.947  0.1714 -0.0629  0.0348
 4232WAT      O18732   7.638   5.650   6.985 -0.3537 -0.0457 -0.1734
 4232WAT     H118733   7.653   5.694   7.069 -0.9533  3.3272 -1.6617
 4232WAT     H218734   7.555   5.604   6.996 -0.2808  0.1002  1.1505
 4232WAT    EPW18735   7.629   5.650   6.998 -0.4234  0.4184 -0.1953
 4233WAT      O18736   8.865   6.083   7.551 -0.0484 -0.4289  0.1327
 4233WAT     H118737   8.802   6.152   7.569  1.0582 -0.2461  4.6222
 4233WAT     H218738   8.813   6.014   7.508 -2.5321  0.9663  0.6804
 4233WAT    EPW18739   8.850   6.083   7.548 -0.2298 -0.2208  0.7973
 4234WAT      O18740   1.299   0.474   0.135 -0.7268  0.1524 -0.6775
 4234WAT     H118741   1.369   0.417   0.105 -1.3716 -0.4946 -0.9918
 4234WAT     H218742   1.233   0.414   0.171 -1.3365  0.7105 -0.8488
 4234WAT    EPW18743   1.299   0.458   0.136 -0.8923  0.1407 -0.7415
 4235WAT      O18744   8.480   5.444   8.350 -0.0678 -0.3597  0.5158
 4235WAT     H118745   8.443   5.359   8.330 -0.1470  0.2207 -2.2929
 4235WAT     H218746   8.547   5.427   8.416 -2.2073 -2.0447  2.4084
 4235WAT    EPW18747   8.484   5.431   8.356 -0.3605 -0.5054  0.3948
 4236WAT      O18748   6.837   5.379   8.265 -0.1789  0.0360  0.4274
 4236WAT     H118749   6.833   5.420   8.351 -2.4071  1.1883 -0.1776
 4236WAT     H218750   6.746   5.367   8.239  0.4163 -2.0393 -1.0043
 4236WAT    EPW18751   6.825   5.383   8.273 -0.3943 -0.0856  0.1583
 4237WAT      O18752   4.423   8.931   0.594  0.4549  0.9988  1.0395
 4237WAT     H118753   4.473   8.856   0.562  1.2033  2.0079 -0.2452
 4237WAT     H218754   4.376   8.963   0.517 -0.0905  1.6732  1.6408
 4237WAT    EPW18755   4.424   8.925   0.580  0.4816  1.2207  0.9494
 4238WAT      O18756   3.830   0.863   2.270 -0.2762 -0.2532 -0.6060
 4238WAT     H118757   3.815   0.941   2.216 -0.8066 -0.3557 -0.6058
 4238WAT     H218758   3.853   0.795   2.208  2.1533  0.3580 -0.4757
 4238WAT    EPW18759   3.831   0.865   2.255 -0.0256 -0.1861 -0.5888
 4239WAT      O18760   8.157   7.787   7.568 -0.2759  0.4052  0.4517
 4239WAT     H118761   8.208   7.715   7.531  1.8752  0.1951  3.4385
 4239WAT     H218762   8.173   7.861   7.510  0.8974 -0.4913 -0.4163
 4239WAT    EPW18763   8.166   7.787   7.556  0.1631  0.2592  0.7312
 4240WAT      O18764   4.059   5.461   8.253  0.0492 -0.7843 -0.2119
 4240WAT     H118765   4.152   5.477   8.235  0.5338 -2.3093  0.7084
 4240WAT     H218766   4.043   5.505   8.336  0.1091 -0.9839 -0.0926
 4240WAT    EPW18767   4.069   5.469   8.261  0.1209 -1.0116 -0.0749
 4241WAT      O18768   4.337   1.852   1.100  0.3752 -0.0987 -0.0349
 4241WAT     H118769   4.249   1.889   1.093  0.2153 -0.7639 -2.2352
 4241WAT     H218770   4.355   1.852   1.194 -1.3787  1.3850  0.3717
 4241WAT    EPW18771   4.328   1.857   1.111  0.1228  0.0092 -0.2714
 4242WAT      O18772   5.628   0.033   0.035  0.1893  0.1023 -0.7037
 4242WAT     H118773   5.681  -0.045   0.016  0.7055  0.2608  0.0497
 4242WAT     H218774   5.690   0.096   0.071 -0.9397 -0.8111  3.3384
 4242WAT    EPW18775   5.643   0.031   0.037  0.1085  0.0024 -0.0712
 4243WAT      O18776   8.603   7.235   8.267 -0.1475 -0.0145 -0.0355
 4243WAT     H118777   8.677   7.250   8.326 -0.0605 -1.6082  0.2942
 4243WAT     H218778   8.544   7.179   8.316 -1.7049  1.3759 -0.2254
 4243WAT    EPW18779   8.605   7.230   8.281 -0.3414 -0.0415 -0.0172
 4244WAT      O18780   8.096   1.706   8.140 -0.7049 -0.0731  0.0281
 4244WAT     H118781   8.004   1.729   8.125  0.4564  3.7740 -2.4309
 4244WAT     H218782   8.123   1.662   8.059  0.0955  0.5997 -0.0807
 4244WAT    EPW18783   8.087   1.703   8.128 -0.4458  0.5231 -0.3104
 4245WAT      O18784   8.343   6.282   4.915  0.7721  0.2615 -0.0266
 4245WAT     H118785   8.377   6.356   4.965 -0.0229  0.9232 -0.4543
 4245WAT     H218786   8.360   6.305   4.823  0.0328  0.1690 -0.1912
 4245WAT    EPW18787   8.350   6.295   4.909  0.5703  0.3366 -0.1047
 4246WAT      O18788  10.849   6.832   6.379 -0.5633 -0.1192  0.3694
 4246WAT     H118789  10.813   6.751   6.343 -0.8756  1.2163 -2.6160
 4246WAT     H218790  10.773   6.882   6.409 -0.8984  0.8957 -1.9821
 4246WAT    EPW18791  10.834   6.828   6.378 -0.6485  0.1907 -0.3345
 4247WAT      O18792   1.590   6.658   6.167 -0.3604 -0.2449  0.0824
 4247WAT     H118793   1.497   6.667   6.149 -0.4881 -0.8102  0.4524
 4247WAT     H218794   1.622   6.599   6.099 -0.3448 -0.3486  0.1796
 4247WAT    EPW18795   1.582   6.651   6.155 -0.3751 -0.3328  0.1440
 4248WAT      O18796   6.800   6.770   6.863 -0.0944 -0.2433 -0.4333
 4248WAT     H118797   6.749   6.827   6.806 -0.8367  1.9322  2.1973
 4248WAT     H218798   6.740   6.700   6.888 -0.5235  0.1106 -0.4664
 4248WAT    EPW18799   6.785   6.768   6.859 -0.2491  0.0901 -0.0908
 4249WAT      O18800   9.120   6.249   7.521 -0.4859  0.0408  0.9171
 4249WAT     H118801   9.039   6.210   7.556 -0.4115  0.2762  1.3724
 4249WAT     H218802   9.143   6.315   7.586 -1.7061  2.2658 -0.7630
 4249WAT    EPW18803   9.112   6.253   7.535 -0.6375  0.3653  0.7555
 4250WAT      O18804   0.750   8.700   0.495  0.0295  0.4305  0.2185
 4250WAT     H118805   0.679   8.675   0.554 -1.2297 -0.1555 -1.4654
 4250WAT     H218806   0.769   8.620   0.445  0.8730  0.9678 -0.3545
 4250WAT    EPW18807   0.743   8.686   0.496 -0.0253  0.4244 -0.0792
 4251WAT      O18808   3.083   2.115   0.411  0.0039 -0.0627  0.2411
 4251WAT     H118809   3.098   2.066   0.330 -1.3663  0.1506 -0.1655
 4251WAT     H218810   2.989   2.107   0.427  0.2310 -0.0040  1.7614
 4251WAT    EPW18811   3.073   2.107   0.402 -0.1469 -0.0268  0.3880
 4252WAT      O18812   8.759   6.562   5.978  0.0143 -0.6040  0.1396
 4252WAT     H118813   8.832   6.600   5.929 -0.4104 -1.2276 -1.0161
 4252WAT     H218814   8.800   6.500   6.038  0.4376 -1.0140 -0.5635
 4252WAT    EPW18815   8.774   6.559   5.979  0.0138 -0.7403 -0.1054
 4253WAT      O18816   4.611   0.471   3.244 -0.4834 -0.6123  1.2435
 4253WAT     H118817   4.644   0.559   3.263  0.8466  0.1102 -3.1620
 4253WAT     H218818   4.690   0.417   3.241 -0.7183 -0.9221 -0.3115
 4253WAT    EPW18819   4.626   0.475   3.246 -0.3388 -0.5578  0.4575
 4254WAT      O18820   6.847   3.628   0.766 -0.1431 -0.0916  0.2521
 4254WAT     H118821   6.872   3.570   0.838 -0.3630  0.5549  0.8596
 4254WAT     H218822   6.898   3.708   0.780 -0.5116  0.2034 -0.0606
 4254WAT    EPW18823   6.857   3.631   0.777 -0.2208  0.0325  0.2910
 4255WAT      O18824   2.019   3.523   8.751 -0.5777 -0.1169  0.2095
 4255WAT     H118825   1.973   3.551   8.831 -2.1357 -0.5709 -0.4826
 4255WAT     H218826   1.966   3.450   8.718  0.6424 -0.6376 -0.6767
 4255WAT    EPW18827   2.006   3.517   8.757 -0.6223 -0.2455  0.0014
 4256WAT      O18828   3.071   1.194   0.275 -0.0402 -0.5681  0.4244
 4256WAT     H118829   3.141   1.141   0.313  0.7857  0.2174  0.0363
 4256WAT     H218830   3.006   1.130   0.245  1.3234 -1.4450 -0.8345
 4256WAT    EPW18831   3.071   1.179   0.276  0.2488 -0.5802  0.2072
 4257WAT      O18832   7.192   5.199   5.271  0.3995 -0.0078  0.0014
 4257WAT     H118833   7.135   5.276   5.270  0.1486 -0.1453  1.6444
 4257WAT     H218834   7.132   5.125   5.261  0.2667 -0.1382  1.5023
 4257WAT    EPW18835   7.176   5.199   5.270  0.3490 -0.0434  0.4158
 4258WAT      O18836   9.337   6.625   7.576  0.4753  0.3443  0.3003
 4258WAT     H118837   9.338   6.671   7.660 -3.1006  1.3482 -0.0416
 4258WAT     H218838   9.405   6.668   7.525  1.5705  0.8602  2.0778
 4258WAT    EPW18839   9.346   6.637   7.581  0.1483  0.5448  0.4895
 4259WAT      O18840   6.924   5.928   8.219 -0.0302 -0.5260 -0.3377
 4259WAT     H118841   6.870   5.963   8.289 -1.0086 -0.3521 -1.1513
 4259WAT     H218842   6.941   6.004   8.162 -1.6123 -1.1636 -1.7632
 4259WAT    EPW18843   6.919   5.943   8.221 -0.3681 -0.5872 -0.6323
 4260WAT      O18844   8.408   5.953   7.484  0.4387 -0.0102 -0.5335
 4260WAT     H118845   8.346   5.990   7.548 -0.3297  0.1620 -1.3632
 4260WAT     H218846   8.380   5.989   7.400  2.4063  1.0228 -0.7972
 4260WAT    EPW18847   8.396   5.962   7.482  0.5965  0.1485 -0.6778
 4261WAT      O18848   3.280   7.599   0.018 -0.4441 -0.0674 -0.1304
 4261WAT     H118849   3.301   7.680   0.064 -2.4652  1.1949 -1.2446
 4261WAT     H218850   3.216   7.556   0.074 -1.1413  0.3094 -0.6197
 4261WAT    EPW18851   3.274   7.604   0.031 -0.8028  0.1490 -0.3419
 4262WAT      O18852   6.530   1.176   2.089  0.1277  0.1477  0.3005
 4262WAT     H118853   6.456   1.181   2.150 -1.1086  2.0798 -1.2418
 4262WAT     H218854   6.562   1.266   2.083 -1.2789  0.5722 -3.5324
 4262WAT    EPW18855   6.525   1.188   2.096 -0.2210  0.4585 -0.4085
 4263WAT      O18856  10.797   6.348   5.343  0.4465 -0.1676  0.1642
 4263WAT     H118857  10.791   6.255   5.320 -1.9186  0.1123 -0.6192
 4263WAT     H218858  10.856   6.385   5.277 -3.3704 -0.0708 -3.6096
 4263WAT    EPW18859  10.804   6.340   5.331 -0.3686 -0.1178 -0.4370
 4264WAT      O18860   7.535   7.083   6.841  0.5122 -0.4761 -0.3392
 4264WAT     H118861   7.522   7.138   6.764 -0.3493 -1.0948 -0.6518
 4264WAT     H218862   7.530   6.994   6.808  1.3356 -0.7566  0.2538
 4264WAT    EPW18863   7.532   7.079   6.826  0.5074 -0.5946 -0.3021
 4265WAT      O18864   6.363   6.823   8.940  0.5196 -0.3316  0.3438
 4265WAT     H118865   6.449   6.797   8.909  1.4266  0.2559  2.2190
 4265WAT     H218866   6.369   6.918   8.951 -0.3838 -0.2772  0.4987
 4265WAT    EPW18867   6.375   6.832   8.937  0.5198 -0.2470  0.6118
 4266WAT      O18868   6.919   4.706   7.858  0.7030  0.4697 -0.0078
 4266WAT     H118869   6.854   4.768   7.826  1.1644  0.1938 -1.5653
 4266WAT     H218870   7.003   4.742   7.828  1.1309 -0.0408  0.5455
 4266WAT    EPW18871   6.922   4.719   7.850  0.8199  0.3660 -0.1402
 4267WAT      O18872   6.464   3.976   7.925  0.4070 -0.2482 -0.1067
 4267WAT     H118873   6.460   4.043   7.855 -1.3792  0.7034  0.8401
 4267WAT     H218874   6.374   3.965   7.952  1.2197  1.4072  3.8927
 4267WAT    EPW18875   6.452   3.984   7.919  0.2787  0.0957  0.5453
 4268WAT      O18876   0.787   9.896   1.594 -0.4337 -0.7051 -0.0151
 4268WAT     H118877   0.852   9.965   1.580 -0.1349 -0.8535  0.5865
 4268WAT     H218878   0.779   9.890   1.690 -1.0265 -0.9757 -0.0757
 4268WAT    EPW18879   0.795   9.904   1.605 -0.4725 -0.7606  0.0563
 4269WAT      O18880  10.597   8.301   7.764 -0.2840  0.0393 -0.6952
 4269WAT     H118881  10.650   8.347   7.699 -1.3605  2.3309 -0.0527
 4269WAT     H218882  10.610   8.208   7.744  2.4353  0.5469 -1.7339
 4269WAT    EPW18883  10.606   8.295   7.753 -0.0672  0.4086 -0.7477
 4270WAT      O18884  10.727   6.159   8.609  0.1649  0.4620  0.3935
 4270WAT     H118885  10.701   6.119   8.526  0.0019 -1.3345  1.2703
 4270WAT     H218886  10.823   6.151   8.611  0.0130 -1.5639  1.3402
 4270WAT    EPW18887  10.736   6.153   8.598  0.1235 -0.0422  0.6337
 4271WAT      O18888  10.409   6.811   4.473 -0.0886  0.3475 -0.4646
 4271WAT     H118889  10.323   6.854   4.480  0.3680  1.1249  0.7923
 4271WAT     H218890  10.470   6.875   4.510  0.7780 -0.9297  0.3734
 4271WAT    EPW18891  10.406   6.825   4.479  0.0858  0.2818 -0.1884
 4272WAT      O18892   7.779   6.853   8.870  0.2115  0.2219 -0.1733
 4272WAT     H118893   7.823   6.875   8.952  2.0420 -0.7950 -0.8051
 4272WAT     H218894   7.728   6.931   8.848  2.1073  1.6887  0.3904
 4272WAT    EPW18895   7.778   6.866   8.878  0.7031  0.2813 -0.1822
 4273WAT      O18896   7.217   4.348   8.536  0.3113  0.1289  0.4555
 4273WAT     H118897   7.240   4.426   8.484  2.4418  0.3760  1.6447
 4273WAT     H218898   7.171   4.383   8.613  3.7186  0.6830  2.4460
 4273WAT    EPW18899   7.214   4.363   8.539  1.0417  0.2348  0.8750
 4274WAT      O18900   6.757   5.855   8.493 -0.5768 -0.0019 -0.2553
 4274WAT     H118901   6.705   5.828   8.569 -0.1844  0.0102  0.0210
 4274WAT     H218902   6.752   5.781   8.432 -1.0486  0.0622 -0.3031
 4274WAT    EPW18903   6.749   5.842   8.495 -0.5872  0.0081 -0.2251
 4275WAT      O18904   5.994   2.374   1.526 -0.4817 -0.0963  0.2648
 4275WAT     H118905   6.046   2.399   1.449  1.7384 -2.1485  0.9614
 4275WAT     H218906   6.058   2.371   1.598 -1.8417 -1.3557  1.4875
 4275WAT    EPW18907   6.009   2.377   1.525 -0.3681 -0.5331  0.5178
 4276WAT      O18908   5.433   2.004   6.745 -0.0200 -0.5737 -0.0523
 4276WAT     H118909   5.485   2.040   6.674 -0.3792  1.6018  0.7159
 4276WAT     H218910   5.457   1.911   6.748  0.3869 -0.6212 -2.6152
 4276WAT    EPW18911   5.443   1.996   6.736 -0.0138 -0.2931 -0.2890
 4277WAT      O18912   9.388   6.420   5.913  0.1456 -0.3194 -0.5884
 4277WAT     H118913   9.295   6.440   5.914  0.2157  0.5213  3.1530
 4277WAT     H218914   9.392   6.325   5.903 -1.1906 -0.4747  0.1730
 4277WAT    EPW18915   9.377   6.410   5.911 -0.0215 -0.2291  0.0057
 4278WAT      O18916   5.404   1.899   0.059 -0.1956  0.4314 -0.2449
 4278WAT     H118917   5.317   1.887   0.098 -1.0502  0.1213 -2.0939
 4278WAT     H218918   5.386   1.920  -0.033  1.6887  1.0806 -0.5098
 4278WAT    EPW18919   5.390   1.900   0.052 -0.0598  0.4761 -0.5237
 4279WAT      O18920   4.568  10.023   0.677  0.0789 -0.5614  0.5033
 4279WAT     H118921   4.542  10.104   0.721 -3.0248 -0.6188 -0.9680
 4279WAT     H218922   4.577   9.959   0.747 -0.3311  0.3840  1.4377
 4279WAT    EPW18923   4.566  10.026   0.692 -0.3846 -0.4439  0.4326
 4280WAT      O18924  10.437   3.900   3.073 -0.1914  0.9223  0.0046
 4280WAT     H118925  10.472   3.894   2.985 -2.3294 -0.4403 -0.8458
 4280WAT     H218926  10.410   3.810   3.094 -1.4198  1.5514  1.2840
 4280WAT    EPW18927  10.438   3.887   3.064 -0.6351  0.8255  0.0612
 4281WAT      O18928   8.422   7.106   4.554 -0.7597  0.8354  1.2807
 4281WAT     H118929   8.390   7.099   4.464 -1.4221 -1.2744  1.6173
 4281WAT     H218930   8.461   7.193   4.560 -1.0192  1.1416 -0.9374
 4281WAT    EPW18931   8.423   7.117   4.543 -0.8812  0.5977  1.0326
 4282WAT      O18932   0.851  10.045   0.053 -0.2235  0.3337 -0.3989
 4282WAT     H118933   0.924  10.103   0.072 -0.2571  0.8300 -1.7062
 4282WAT     H218934   0.890   9.968   0.011 -0.1207 -0.8752  1.7604
 4282WAT    EPW18935   0.866  10.042   0.050 -0.2144  0.2394 -0.2865
 4283WAT      O18936   9.527   6.716   8.797 -0.1900 -0.2660  0.4098
 4283WAT     H118937   9.547   6.783   8.863  0.1954  0.7781 -0.7378
 4283WAT     H218938   9.612   6.677   8.776 -0.1833  0.0182 -0.1043
 4283WAT    EPW18939   9.541   6.720   8.803 -0.1383 -0.0906  0.1907
 4284WAT      O18940   9.717   3.273   5.049 -0.4629  0.2006  0.0871
 4284WAT     H118941   9.786   3.295   5.111 -0.3946 -0.2782  0.1874
 4284WAT     H218942   9.677   3.357   5.026 -0.1622  0.4297  0.3944
 4284WAT    EPW18943   9.721   3.287   5.054 -0.4144  0.1676  0.1409
 4285WAT      O18944   5.713   0.989   0.075  0.1121  0.0609 -0.3547
 4285WAT     H118945   5.732   0.914   0.019  0.3687 -0.1395 -0.0075
 4285WAT     H218946   5.618   0.989   0.085  0.0885 -0.0547 -0.5745
 4285WAT    EPW18947   5.703   0.979   0.069  0.1428  0.0192 -0.3379
 4286WAT      O18948   0.303   4.226   8.107  0.1082  1.0244 -0.0418
 4286WAT     H118949   0.258   4.234   8.023 -0.0062 -0.1386 -0.1050
 4286WAT     H218950   0.394   4.210   8.084 -0.5741 -4.4478 -0.2199
 4286WAT    EPW18951   0.309   4.225   8.093  0.0031  0.1493 -0.0734
 4287WAT      O18952   3.968   1.058   2.711 -0.2040  0.5525  0.1308
 4287WAT     H118953   3.913   1.116   2.658  1.7427  2.0469 -0.3957
 4287WAT     H218954   4.026   1.118   2.759  1.3185 -0.9210  0.2351
 4287WAT    EPW18955   3.969   1.074   2.710  0.2537  0.5552  0.0752
 4288WAT      O18956  10.541   2.632   8.355 -0.4631 -0.3789  0.3627
 4288WAT     H118957  10.582   2.655   8.272  0.4886  0.6734  1.1035
 4288WAT     H218958  10.450   2.611   8.331 -0.4981  0.9412 -0.8104
 4288WAT    EPW18959  10.534   2.632   8.341 -0.3419 -0.0659  0.3057
 4289WAT      O18960   0.045   4.745   8.643 -0.0724 -0.2067 -0.1656
 4289WAT     H118961   0.014   4.735   8.733  1.4687 -1.2491  0.2915
 4289WAT     H218962   0.042   4.840   8.627 -0.1940  0.0075  1.0336
 4289WAT    EPW18963   0.040   4.756   8.653  0.1148 -0.3159  0.0534
 4290WAT      O18964   6.261   0.254   1.742  0.5703  0.2278  0.3230
 4290WAT     H118965   6.178   0.235   1.699 -0.8297  3.6579  1.1931
 4290WAT     H218966   6.321   0.276   1.671  1.1127 -3.0644 -0.3729
 4290WAT    EPW18967   6.258   0.254   1.727  0.4570  0.2460  0.3461
 4291WAT      O18968   0.754   7.444   8.325 -0.3247  0.6109  0.6024
 4291WAT     H118969   0.809   7.479   8.395 -0.7081  0.8243  0.7996
 4291WAT     H218970   0.719   7.522   8.281  1.6481  0.5591 -1.2530
 4291WAT    EPW18971   0.757   7.459   8.328 -0.1151  0.6325  0.3834
 4292WAT      O18972   9.485   1.577   8.804 -0.6357 -0.2327 -0.1191
 4292WAT     H118973   9.532   1.536   8.731  0.1745 -0.6715  0.6203
 4292WAT     H218974   9.403   1.529   8.810  0.1911 -1.6338  0.5650
 4292WAT    EPW18975   9.481   1.565   8.795 -0.4196 -0.4754  0.0687
 4293WAT      O18976   9.253   7.824   8.655 -0.2306  0.6768 -0.2737
 4293WAT     H118977   9.346   7.840   8.640 -0.1428 -0.5296 -1.1047
 4293WAT     H218978   9.210   7.899   8.613  0.3970  2.9156  2.7111
 4293WAT    EPW18979   9.260   7.836   8.647 -0.1364  0.8130  0.0100
 4294WAT      O18980  10.762   5.255   7.931 -0.1057 -0.1144 -0.2924
 4294WAT     H118981  10.819   5.189   7.972 -0.7763  0.3142  1.4292
 4294WAT     H218982  10.709   5.205   7.869  1.4617 -0.6725 -1.2455
 4294WAT    EPW18983  10.762   5.240   7.928  0.0119 -0.1314 -0.1910
 4295WAT      O18984   2.590   9.574   1.191  0.5847 -0.1294  0.2057
 4295WAT     H118985   2.515   9.533   1.234  0.7857  0.9248  1.6489
 4295WAT     H218986   2.626   9.633   1.257  4.2024 -2.3612  0.4857
 4295WAT    EPW18987   2.584   9.576   1.205  1.0884 -0.2851  0.4330
 4296WAT      O18988   0.349   4.477   5.395  0.1296 -0.5163  0.0843
 4296WAT     H118989   0.348   4.553   5.336  1.1011  0.2098  0.9558
 4296WAT     H218990   0.322   4.512   5.480  3.8417 -0.2709  1.3628
 4296WAT    EPW18991   0.346   4.492   5.398  0.7473 -0.3884  0.3679
 4297WAT      O18992   6.710   6.222   6.350  0.2214  0.0236  0.5260
 4297WAT     H118993   6.641   6.162   6.379 -3.4149  2.0189 -2.9090
 4297WAT     H218994   6.744   6.182   6.270  0.9758  0.4640  0.6219
 4297WAT    EPW18995   6.705   6.209   6.343 -0.1588  0.3450  0.0856
 4298WAT      O18996   8.511   6.249   6.177 -0.1971  0.2004 -0.0135
 4298WAT     H118997   8.603   6.275   6.165 -0.5742  0.8555 -1.8595
 4298WAT     H218998   8.494   6.189   6.105 -0.5096 -2.0983  1.8679
 4298WAT    EPW18999   8.521   6.245   6.166 -0.2890 -0.0165 -0.0088
 4299WAT      O19000   8.392  10.239   0.936  0.0366 -0.7609 -0.5635
 4299WAT     H119001   8.448  10.313   0.911 -0.3035 -0.1279  0.4857
 4299WAT     H219002   8.325  10.278   0.993  0.0521 -1.9222  0.2845
 4299WAT    EPW19003   8.391  10.254   0.940 -0.0062 -0.8302 -0.3133
 4300WAT      O19004   9.810   8.446   2.792 -0.1149 -0.0531 -0.3579
 4300WAT     H119005   9.785   8.537   2.778  0.7589  0.4592  1.1436
 4300WAT     H219006   9.888   8.433   2.739 -0.7602 -0.2226 -1.2900
 4300WAT    EPW19007   9.817   8.456   2.783 -0.0854 -0.0076 -0.2828
 4301WAT      O19008   1.986   4.752   8.066 -0.0414  0.0846 -0.0913
 4301WAT     H119009   1.894   4.753   8.095 -0.3286  0.5094 -0.9734
 4301WAT     H219010   1.985   4.798   7.982  0.9771  0.0393 -0.1410
 4301WAT    EPW19011   1.973   4.758   8.059  0.0551  0.1347 -0.2141
 4302WAT      O19012   8.997   3.954   6.956  0.4552 -1.2779 -0.4961
 4302WAT     H119013   8.962   4.041   6.976  0.8843 -1.1783 -0.1654
 4302WAT     H219014   8.933   3.894   6.992  1.6744 -1.1153  2.1410
 4302WAT    EPW19015   8.984   3.958   6.963  0.6723 -1.2432 -0.1047
 4303WAT      O19016   5.882   1.654   0.715  0.1816 -1.0839 -0.8566
 4303WAT     H119017   5.904   1.678   0.805 -1.1418 -1.8993 -0.2811
 4303WAT     H219018   5.963   1.617   0.679  0.2172 -2.6397  0.6813
 4303WAT    EPW19019   5.895   1.652   0.722  0.0114 -1.3967 -0.5779
 4304WAT      O19020   0.875   8.689   0.114 -0.1605 -0.0101 -0.3435
 4304WAT     H119021   0.858   8.707   0.206  0.2761  0.6970 -0.4013
 4304WAT     H219022   0.948   8.627   0.115  2.4175  2.8262 -0.2644
 4304WAT    EPW19023   0.883   8.683   0.126  0.2371  0.4573 -0.3407
 4305WAT      O19024  10.646   4.348   6.282  0.0130  0.5178  0.1095
 4305WAT     H119025  10.596   4.408   6.337 -0.3430 -1.5374  2.1467
 4305WAT     H219026  10.736   4.354   6.314  0.1421  0.5833 -0.2542
 4305WAT    EPW19027  10.651   4.357   6.293 -0.0167  0.2553  0.3302
 4306WAT      O19028   9.660   5.848   5.833 -0.8878 -0.4729 -0.0609
 4306WAT     H119029   9.754   5.841   5.815 -1.1075 -2.0240 -0.7104
 4306WAT     H219030   9.646   5.942   5.849  1.3923 -0.5838  3.7235
 4306WAT    EPW19031   9.671   5.860   5.832 -0.6161 -0.6921  0.3529
 4307WAT      O19032   7.013   7.436   8.044  0.0683 -0.3803 -0.4139
 4307WAT     H119033   7.080   7.494   8.008 -0.7319 -0.0463 -1.4093
 4307WAT     H219034   6.947   7.430   7.975 -0.0490 -2.1714 -0.1982
 4307WAT    EPW19035   7.013   7.443   8.030 -0.0529 -0.5724 -0.5169
 4308WAT      O19036   7.482   3.841   8.558  0.2771 -0.4292 -0.3021
 4308WAT     H119037   7.506   3.851   8.650  1.4245  0.0486 -0.6302
 4308WAT     H219038   7.564   3.856   8.511 -0.4731  0.1719 -1.4449
 4308WAT    EPW19039   7.496   3.844   8.564  0.3295 -0.2868 -0.4959
 4309WAT      O19040  10.663   8.658   1.606 -0.2974 -0.0867 -0.1752
 4309WAT     H119041  10.579   8.699   1.627  0.0241  0.6741 -0.3413
 4309WAT     H219042  10.641   8.567   1.586 -1.2319  0.3637 -1.2900
 4309WAT    EPW19043  10.649   8.651   1.606 -0.3777  0.0734 -0.3442
 4310WAT      O19044   7.251   5.045   8.161 -0.2188 -0.5676 -0.5563
 4310WAT     H119045   7.344   5.029   8.145  0.3504  1.8355 -0.0606
 4310WAT     H219046   7.244   5.140   8.167 -1.9551 -0.7410  3.6451
 4310WAT    EPW19047   7.262   5.056   8.160 -0.3729 -0.2737  0.0634
 4311WAT      O19048   5.958   2.319   1.162 -0.4536 -0.6534  0.0306
 4311WAT     H119049   6.012   2.269   1.102  1.1163  1.1567 -0.1734
 4311WAT     H219050   6.020   2.365   1.218 -1.8420 -1.7496  2.6566
 4311WAT    EPW19051   5.973   2.319   1.162 -0.4299 -0.5592  0.3499
 4312WAT      O19052   7.401   5.343   7.187  0.1271  0.1522  0.3484
 4312WAT     H119053   7.480   5.324   7.238 -0.2141 -2.3755  0.0228
 4312WAT     H219054   7.417   5.301   7.102 -2.3805 -2.3726  0.9863
 4312WAT    EPW19055   7.414   5.335   7.183 -0.2487 -0.5143  0.3896
 4313WAT      O19056   9.425   6.896   7.153  0.0409  0.2669 -0.0297
 4313WAT     H119057   9.334   6.865   7.160  0.8811 -2.3702  0.4129
 4313WAT     H219058   9.446   6.886   7.060  0.8422 -2.4697  0.3489
 4313WAT    EPW19059   9.416   6.890   7.141  0.2580 -0.4420  0.0789
 4314WAT      O19060   7.267   6.311   6.657  0.2545 -0.2782 -0.0194
 4314WAT     H119061   7.234   6.373   6.722  1.4610 -1.2744  1.6579
 4314WAT     H219062   7.242   6.225   6.692  3.0320 -0.9936  0.5288
 4314WAT    EPW19063   7.260   6.308   6.670  0.7801 -0.5038  0.2742
 4315WAT      O19064   9.130   4.853   6.559  0.5990 -0.1806 -0.8344
 4315WAT     H119065   9.114   4.946   6.541 -1.8224 -0.2999  0.4007
 4315WAT     H219066   9.177   4.853   6.642 -0.5160 -0.0903 -0.1977
 4315WAT    EPW19067   9.134   4.865   6.567  0.1326 -0.1843 -0.5870
 4316WAT      O19068   9.008   6.281   8.774 -0.5235 -0.8640  0.2762
 4316WAT     H119069   8.945   6.351   8.794 -2.3812 -2.3502 -0.0764
 4316WAT     H219070   8.955   6.201   8.773  1.0460 -1.9708 -1.8592
 4316WAT    EPW19071   8.993   6.280   8.776 -0.5612 -1.2059 -0.0525
 4317WAT      O19072   5.904   6.658   6.189  0.3498  0.2662 -0.2162
 4317WAT     H119073   5.963   6.699   6.126 -0.1389 -1.1003 -1.6306
 4317WAT     H219074   5.847   6.728   6.218  0.9599  1.0433 -0.8520
 4317WAT    EPW19075   5.905   6.672   6.184  0.3660  0.1884 -0.4866
 4318WAT      O19076   7.519   6.640   7.961 -0.4012 -0.2603 -0.1072
 4318WAT     H119077   7.437   6.665   7.918 -0.3757 -1.3447 -0.8109
 4318WAT     H219078   7.500   6.649   8.055 -0.8537  0.9025 -0.2901
 4318WAT    EPW19079   7.506   6.645   7.968 -0.4573 -0.2501 -0.2241
 4319WAT      O19080   9.124   6.144   8.372 -0.3955  0.1702 -0.1633
 4319WAT     H119081   9.093   6.074   8.429 -0.2691  1.6018  1.7891
 4319WAT     H219082   9.131   6.220   8.430  2.0955  1.1246 -1.5545
 4319WAT    EPW19083   9.121   6.145   8.387 -0.0505  0.4849 -0.0896
 4320WAT      O19084   5.186   0.830   2.762 -0.2961  0.5320 -0.1149
 4320WAT     H119085   5.215   0.902   2.819  2.1326 -0.1367 -0.3933
 4320WAT     H219086   5.255   0.822   2.696 -1.6925 -0.5199 -1.5282
 4320WAT    EPW19087   5.199   0.839   2.761 -0.1600  0.3051 -0.3381
 4321WAT      O19088   8.825   6.317   3.695  0.2641 -0.1445  0.4138
 4321WAT     H119089   8.906   6.363   3.673  1.4073 -2.0037  0.5146
 4321WAT     H219090   8.761   6.348   3.630  0.2402  3.3073  1.9044
 4321WAT    EPW19091   8.827   6.327   3.683  0.4120  0.0660  0.6238
 4322WAT      O19092   9.017   5.875   6.547 -0.0403 -0.1292  0.1819
 4322WAT     H119093   8.923   5.859   6.537  0.1558 -0.3078 -1.6303
 4322WAT     H219094   9.023   5.933   6.623 -1.4162 -1.9417  1.7878
 4322WAT    EPW19095   9.006   5.880   6.556 -0.1955 -0.3922  0.1545
 4323WAT      O19096   8.704   2.313   7.055 -0.2520 -0.0986 -0.5198
 4323WAT     H119097   8.617   2.278   7.040 -1.1648  1.5669  0.5564
 4323WAT     H219098   8.689   2.400   7.093  1.8708  0.2980 -0.4472
 4323WAT    EPW19099   8.691   2.320   7.058 -0.0925  0.1734 -0.3684
 4324WAT      O19100   9.111   4.437   7.212  0.6268  0.4650 -0.7233
 4324WAT     H119101   9.205   4.455   7.223 -0.1215  3.3779  2.8586
 4324WAT     H219102   9.086   4.490   7.135  1.4759  1.9673 -0.0160
 4324WAT    EPW19103   9.120   4.447   7.203  0.6404  1.0474 -0.1578
 4325WAT      O19104   4.183   8.714   3.372 -0.0617  0.2427 -0.4491
 4325WAT     H119105   4.188   8.810   3.366  1.8376  0.2356  0.1779
 4325WAT     H219106   4.259   8.690   3.426 -1.2482 -1.5275  0.5142
 4325WAT    EPW19107   4.194   8.724   3.379  0.0324  0.0086 -0.2394
 4326WAT      O19108   7.055   4.345   6.938  0.8681  0.1950 -0.0164
 4326WAT     H119109   7.073   4.280   7.006 -0.6364 -3.1535 -2.5824
 4326WAT     H219110   7.136   4.350   6.887  0.4994 -0.9190 -0.7359
 4326WAT    EPW19111   7.068   4.337   6.940  0.6211 -0.3936 -0.4497
 4327WAT      O19112   3.603   0.677   0.753  0.0706 -0.5282  0.3395
 4327WAT     H119113   3.664   0.636   0.814  1.7574  0.9492 -0.2492
 4327WAT     H219114   3.601   0.769   0.780  0.2804  0.0014 -1.3741
 4327WAT    EPW19115   3.611   0.684   0.765  0.3207 -0.2635  0.0358
 4328WAT      O19116   7.293   6.516   7.346  0.4887 -0.0447  0.1008
 4328WAT     H119117   7.314   6.422   7.344  1.8601  0.0667  3.2564
 4328WAT     H219118   7.199   6.520   7.332  0.5819 -1.7398 -1.4144
 4328WAT    EPW19119   7.284   6.504   7.344  0.6819 -0.2534  0.3171
 4329WAT      O19120   7.856   6.048   6.629  0.2522 -0.0641 -0.0688
 4329WAT     H119121   7.928   6.061   6.568  0.0039 -2.2703 -0.9153
 4329WAT     H219122   7.780   6.085   6.585 -0.0549 -2.2218 -1.4841
 4329WAT    EPW19123   7.855   6.055   6.615  0.1791 -0.6397 -0.3672
 4330WAT      O19124   7.242   1.900   1.328 -0.7211  0.2857  0.4361
 4330WAT     H119125   7.156   1.924   1.362 -0.9296  0.3984 -0.1578
 4330WAT     H219126   7.247   1.805   1.341 -0.8932  0.2966  0.5768
 4330WAT    EPW19127   7.231   1.890   1.334 -0.7713  0.3021  0.3763
 4331WAT      O19128   0.696   6.494   7.118  0.8235 -0.1413  0.4291
 4331WAT     H119129   0.782   6.460   7.143  1.4678  0.4592 -0.8751
 4331WAT     H219130   0.674   6.447   7.038 -0.9546 -1.6553  1.7362
 4331WAT    EPW19131   0.704   6.484   7.110  0.6739 -0.2618  0.4294
 4332WAT      O19132   9.392   5.916   6.686 -0.2751  0.2207  0.3695
 4332WAT     H119133   9.417   6.005   6.710 -1.1792  0.1742  1.6328
 4332WAT     H219134   9.303   5.906   6.720  0.0557 -1.3766  0.8852
 4332WAT    EPW19135   9.384   5.926   6.694 -0.3505  0.0038  0.6044
 4333WAT      O19136   9.225   6.350   8.549  0.1645  0.3882  0.2624
 4333WAT     H119137   9.194   6.332   8.638  3.0159 -1.8362  0.9406
 4333WAT     H219138   9.263   6.438   8.555  0.9568 -0.0105  1.4555
 4333WAT    EPW19139   9.226   6.359   8.562  0.6447  0.0420  0.5093
 4334WAT      O19140   4.193   4.423   8.410 -0.1516  0.4394  0.0596
 4334WAT     H119141   4.213   4.396   8.320 -1.6823 -0.6741  0.0070
 4334WAT     H219142   4.142   4.504   8.399  1.0104  1.1915  0.0290
 4334WAT    EPW19143   4.189   4.430   8.397 -0.2000  0.3917  0.0491
 4335WAT      O19144   3.862   8.865   1.706  0.5871  0.0071 -0.2727
 4335WAT     H119145   3.827   8.830   1.624  2.0053 -1.1682 -0.4000
 4335WAT     H219146   3.798   8.837   1.773 -0.4787  0.8242 -0.9131
 4335WAT    EPW19147   3.849   8.857   1.704  0.6336 -0.0401 -0.3740
 4336WAT      O19148   5.005   1.003   4.988  0.1348 -0.4324 -0.1535
 4336WAT     H119149   4.948   0.939   4.944 -0.0033  0.2423 -0.9577
 4336WAT     H219150   5.046   1.052   4.918  1.0967 -0.3601  0.4448
 4336WAT    EPW19151   5.003   1.001   4.973  0.2434 -0.3339 -0.1805
 4337WAT      O19152   2.406   0.448   1.474 -0.1507  0.3687  0.2187
 4337WAT     H119153   2.407   0.399   1.392  1.7740 -1.0775  1.0396
 4337WAT     H219154   2.336   0.409   1.525  1.3823 -1.6715  0.8778
 4337WAT    EPW19155   2.397   0.437   1.470  0.3054 -0.0911  0.4139
 4338WAT      O19156   9.625   8.638   1.518  0.4560 -0.3461  0.3452
 4338WAT     H119157   9.531   8.650   1.531  0.8366  0.7302  2.6381
 4338WAT     H219158   9.666   8.701   1.578  2.6273 -1.6730  0.3684
 4338WAT    EPW19159   9.618   8.648   1.528  0.7930 -0.3791  0.6508
 4339WAT      O19160  10.051   4.312   8.111  0.2151  0.0997 -0.7050
 4339WAT     H119161  10.127   4.274   8.155  0.2781  0.4681 -0.4878
 4339WAT     H219162  10.065   4.292   8.018 -0.4467 -1.5859 -0.4664
 4339WAT    EPW19163  10.063   4.304   8.105  0.1359 -0.0739 -0.6447
 4340WAT      O19164   4.625   2.134   1.533 -0.5990  0.5590 -0.1097
 4340WAT     H119165   4.653   2.208   1.587 -0.8307  0.5131  0.0720
 4340WAT     H219166   4.622   2.060   1.593 -0.8623  0.5087 -0.1823
 4340WAT    EPW19167   4.628   2.134   1.548 -0.6642  0.5465 -0.0954
 4341WAT      O19168   2.160   9.964   1.875 -0.4533  0.2438 -0.1157
 4341WAT     H119169   2.219   9.896   1.909 -2.5060 -1.3641  0.4692
 4341WAT     H219170   2.215  10.018   1.819  1.8932 -0.2353  1.5874
 4341WAT    EPW19171   2.175   9.962   1.872 -0.4145 -0.0315  0.1861
 4342WAT      O19172   0.778   3.893   8.918  0.0424 -0.3789 -0.5301
 4342WAT     H119173   0.861   3.847   8.928  0.7017  1.1800  2.2233
 4342WAT     H219174   0.712   3.827   8.936  0.7924 -1.0790 -0.2520
 4342WAT    EPW19175   0.781   3.879   8.921  0.2282 -0.2656 -0.1303
 4343WAT      O19176   1.314   1.020   1.922 -0.1231  0.2895 -0.4390
 4343WAT     H119177   1.359   0.936   1.908  0.0930 -0.0372  1.8238
 4343WAT     H219178   1.256   1.029   1.847  2.6628  0.0520 -2.7728
 4343WAT    EPW19179   1.312   1.010   1.910  0.2728  0.2151 -0.4484
 4344WAT      O19180  10.231   3.294   6.408 -0.4445 -0.2622  0.3942
 4344WAT     H119181  10.254   3.316   6.498  0.6098 -2.1206  0.6233
 4344WAT     H219182  10.144   3.256   6.413 -1.2732  1.5242  0.3060
 4344WAT    EPW19183  10.223   3.292   6.420 -0.4148 -0.2717  0.4127
 4345WAT      O19184   6.093   1.082   0.230  0.5504  0.0943  0.4105
 4345WAT     H119185   6.164   1.118   0.284 -0.3681  0.1801  1.6121
 4345WAT     H219186   6.013   1.121   0.267 -0.2080 -0.8404 -0.2021
 4345WAT    EPW19187   6.092   1.092   0.242  0.3290 -0.0177  0.4882
 4346WAT      O19188   7.833   4.518   7.285 -0.8697 -0.3466 -0.5563
 4346WAT     H119189   7.838   4.426   7.259  1.3240  0.2510 -2.5733
 4346WAT     H219190   7.924   4.548   7.286 -1.4376  1.5494  1.1416
 4346WAT    EPW19191   7.846   4.510   7.282 -0.6549 -0.0179 -0.5984
 4347WAT      O19192  10.669   9.168   8.736 -0.2239 -0.2634 -0.0734
 4347WAT     H119193  10.736   9.232   8.762  1.0816 -0.9884 -1.5405
 4347WAT     H219194  10.715   9.084   8.735 -1.6446 -1.0935  0.7369
 4347WAT    EPW19195  10.684   9.166   8.740 -0.2394 -0.4683 -0.1602
 4348WAT      O19196   8.004   4.317   6.732  0.8071 -0.7917 -0.2682
 4348WAT     H119197   7.916   4.326   6.695  0.7554 -3.2802 -0.9089
 4348WAT     H219198   8.030   4.407   6.752 -2.0163  0.0117  0.3017
 4348WAT    EPW19199   7.996   4.330   6.730  0.4280 -1.0140 -0.2778
 4349WAT      O19200   5.300   1.385   1.526  0.3129 -0.3570 -0.3476
 4349WAT     H119201   5.317   1.394   1.620  0.8065  1.0831 -0.5536
 4349WAT     H219202   5.313   1.292   1.508  1.8583 -0.3718  0.7121
 4349WAT    EPW19203   5.304   1.374   1.536  0.5820 -0.1690 -0.2351
 4350WAT      O19204   6.199   5.463   8.217 -0.2145  0.3937 -0.3221
 4350WAT     H119205   6.236   5.550   8.207 -0.8193  1.1161  2.6673
 4350WAT     H219206   6.104   5.478   8.221 -0.4922 -0.7026 -1.9498
 4350WAT    EPW19207   6.191   5.476   8.216 -0.3309  0.3445 -0.1426
 4351WAT      O19208   9.694   6.381   7.547 -0.2176 -0.9008  0.2827
 4351WAT     H119209   9.698   6.378   7.643  0.7697  0.0154  0.2853
 4351WAT     H219210   9.718   6.470   7.524 -1.9053 -0.6832 -0.7796
 4351WAT    EPW19211   9.698   6.392   7.557 -0.3099 -0.7513  0.1428
 4352WAT      O19212   6.484   1.919   0.197 -0.4245  0.6318  0.2557
 4352WAT     H119213   6.397   1.933   0.160 -0.2124 -1.4371 -1.1945
 4352WAT     H219214   6.533   1.998   0.173 -1.3015  0.8734 -0.8028
 4352WAT    EPW19215   6.479   1.931   0.189 -0.5119  0.3909 -0.0752
 4353WAT      O19216   9.151   2.049   0.821  0.0249  0.0034  0.1445
 4353WAT     H119217   9.117   2.105   0.891  1.5594 -2.2231  2.8940
 4353WAT     H219218   9.202   2.108   0.766 -2.4653  2.1160 -0.0886
 4353WAT    EPW19219   9.153   2.064   0.823 -0.1006 -0.0117  0.4764
 4354WAT      O19220   9.672   6.689   5.308 -0.8033 -0.8638  0.1310
 4354WAT     H119221   9.601   6.716   5.250 -0.3216 -3.3832 -1.8282
 4354WAT     H219222   9.745   6.748   5.286 -1.2718 -0.4109 -0.2269
 4354WAT    EPW19223   9.673   6.701   5.298 -0.8016 -1.1365 -0.1745
 4355WAT      O19224   1.066   9.837   0.774 -0.2868 -0.0371  0.1239
 4355WAT     H119225   1.087   9.922   0.735  2.3090 -0.4444  0.4918
 4355WAT     H219226   1.047   9.780   0.699  1.6110 -0.0341 -0.3961
 4355WAT    EPW19227   1.066   9.841   0.759  0.3059 -0.0906  0.1038
 4356WAT      O19228   3.837   0.416   1.089 -0.3194 -0.6735 -0.0237
 4356WAT     H119229   3.809   0.328   1.062  1.5569 -1.0253 -1.0099
 4356WAT     H219230   3.896   0.401   1.163  2.0307 -0.5761 -1.7302
 4356WAT    EPW19231   3.841   0.403   1.095  0.2379 -0.7070 -0.3788
 4357WAT      O19232   1.362   2.569   0.792 -0.1460  0.1029  0.0480
 4357WAT     H119233   1.394   2.533   0.874  0.0339 -1.7193 -0.7766
 4357WAT     H219234   1.279   2.524   0.776 -0.8235  1.3613 -0.1793
 4357WAT    EPW19235   1.355   2.559   0.801 -0.2116  0.0285 -0.0908
 4358WAT      O19236   5.210   0.278   0.050  0.4579  0.0557  0.0094
 4358WAT     H119237   5.267   0.355   0.048  0.1701  0.4609  2.9172
 4358WAT     H219238   5.239   0.229   0.127 -0.6627 -1.7403 -0.6561
 4358WAT    EPW19239   5.222   0.282   0.059  0.2723 -0.1277  0.3052
 4359WAT      O19240   3.336   9.942   0.766 -0.0596 -0.8325 -0.2298
 4359WAT     H119241   3.300  10.029   0.750 -0.6352 -1.6050 -4.3391
 4359WAT     H219242   3.271   9.899   0.821 -0.1507  0.9829  1.1951
 4359WAT    EPW19243   3.323   9.948   0.771 -0.1476 -0.6952 -0.5839
 4360WAT      O19244   1.218   6.972   5.339  0.0044 -0.0945 -0.5307
 4360WAT     H119245   1.181   6.954   5.253  2.3002  1.3649 -1.9284
 4360WAT     H219246   1.188   7.060   5.361  0.4371  0.0322 -0.4277
 4360WAT    EPW19247   1.209   6.981   5.331  0.3642  0.1147 -0.7012
 4361WAT      O19248   7.492   0.846   0.993 -0.7150 -0.8405  0.1479
 4361WAT     H119249   7.549   0.922   0.982  0.4208 -1.7674 -0.6126
 4361WAT     H219250   7.457   0.856   1.082 -0.2596  0.3405  0.2223
 4361WAT    EPW19251   7.495   0.858   1.003 -0.5050 -0.8070  0.0574
 4362WAT      O19252   3.448   1.033   0.678  0.6310 -0.5258 -0.1818
 4362WAT     H119253   3.392   0.957   0.693 -1.6875  1.1734  0.3494
 4362WAT     H219254   3.440   1.052   0.584  2.2432 -1.6157 -0.5894
 4362WAT    EPW19255   3.440   1.026   0.668  0.5379 -0.4454 -0.1655
 4363WAT      O19256  10.733  10.137   1.208 -0.5504  0.3327  0.0819
 4363WAT     H119257  10.829  10.131   1.201 -0.7137 -2.5888 -0.7649
 4363WAT     H219258  10.715  10.120   1.300 -0.3501 -2.4568 -0.3298
 4363WAT    EPW19259  10.744  10.134   1.219 -0.5460 -0.4210 -0.0841
 4364WAT      O19260   3.221   9.930   0.197 -0.2354  0.2255 -0.3127
 4364WAT     H119261   3.221   9.871   0.273 -2.7780  3.1671  2.2139
 4364WAT     H219262   3.148   9.900   0.144  0.4765 -0.7818 -0.7596
 4364WAT    EPW19263   3.212   9.918   0.200 -0.4770  0.4807 -0.0384
 4365WAT      O19264   5.617   4.783   7.511 -0.2823 -0.0281 -0.1653
 4365WAT     H119265   5.539   4.835   7.492  0.1150  0.3839 -0.6512
 4365WAT     H219266   5.584   4.693   7.516 -1.0792  0.3022  1.2748
 4365WAT    EPW19267   5.602   4.778   7.509 -0.3350  0.0696 -0.0396
 4366WAT      O19268   1.048   5.873   5.126 -0.0135 -0.1754 -0.1223
 4366WAT     H119269   1.001   5.955   5.143  0.3330  0.2450 -1.1205
 4366WAT     H219270   1.005   5.836   5.049  0.9208 -0.0734 -0.7060
 4366WAT    EPW19271   1.036   5.879   5.118  0.1555 -0.1066 -0.3309
 4367WAT      O19272   6.124   5.099   6.479  0.1505  1.3332 -0.5784
 4367WAT     H119273   6.156   5.104   6.389 -0.0652  2.6549 -0.5994
 4367WAT     H219274   6.042   5.149   6.477 -0.4752  0.3579  0.0926
 4367WAT    EPW19275   6.117   5.106   6.467  0.0396  1.3788 -0.4928
 4368WAT      O19276   8.521   5.050   7.825  0.0587 -0.3501 -0.5465
 4368WAT     H119277   8.525   5.099   7.907  2.5803  2.1447 -2.0137
 4368WAT     H219278   8.570   4.969   7.844 -0.3170 -0.3188  0.6682
 4368WAT    EPW19279   8.528   5.046   7.838  0.3414 -0.0167 -0.5798
 4369WAT      O19280  10.276   3.655   6.490  0.2824  0.1967 -0.7886
 4369WAT     H119281  10.270   3.712   6.567 -0.2550 -0.9722  0.0570
 4369WAT     H219282  10.280   3.716   6.416 -4.2928  1.4878 -0.3142
 4369WAT    EPW19283  10.276   3.671   6.490 -0.3915  0.2127 -0.6146
 4370WAT      O19284  10.627   5.602   5.399  0.0405 -0.2382  0.6295
 4370WAT     H119285  10.708   5.598   5.350 -0.1691  3.5207 -0.3067
 4370WAT     H219286  10.650   5.645   5.481 -0.8306 -0.0821  0.8070
 4370WAT    EPW19287  10.640   5.607   5.404 -0.1020  0.2780  0.5295
 4371WAT      O19288   4.652   0.747   0.384 -0.2908  0.4653 -0.4066
 4371WAT     H119289   4.742   0.734   0.414 -0.8522  0.3582  1.3430
 4371WAT     H219290   4.636   0.673   0.326  0.5461  0.1397 -0.2450
 4371WAT    EPW19291   4.662   0.735   0.380 -0.2546  0.4082 -0.1545
 4372WAT      O19292   1.340   7.987   5.842  0.2583  0.5374 -0.1251
 4372WAT     H119293   1.308   8.064   5.889  1.6662  2.1058 -1.6483
 4372WAT     H219294   1.374   7.930   5.911 -0.3478  1.4924  0.9944
 4372WAT    EPW19295   1.340   7.989   5.858  0.3641  0.8705 -0.1783
 4373WAT      O19296   8.947   5.400   7.328 -1.0434 -0.1417  0.1404
 4373WAT     H119297   8.986   5.482   7.360  3.6582 -1.9859 -0.0908
 4373WAT     H219298   8.961   5.403   7.233 -3.6053 -0.0442 -0.2968
 4373WAT    EPW19299   8.954   5.412   7.320 -0.7615 -0.3722  0.0522
 4374WAT      O19300  10.315   5.300   8.357 -0.2334  0.2642  0.5258
 4374WAT     H119301  10.294   5.206   8.359 -0.3914  0.2940  0.2529
 4374WAT     H219302  10.245   5.341   8.406 -0.8804  0.3737 -0.4639
 4374WAT    EPW19303  10.303   5.293   8.364 -0.3395  0.2825  0.3591
 4375WAT      O19304   2.376   8.729   1.302  0.1771 -0.5933 -0.6357
 4375WAT     H119305   2.371   8.792   1.231  4.2748  0.3426 -0.2988
 4375WAT     H219306   2.312   8.760   1.366 -0.3407  1.1772 -1.9337
 4375WAT    EPW19307   2.367   8.741   1.301  0.6492 -0.2365 -0.7624
 4376WAT      O19308   2.375   0.269   8.062  0.4348 -0.2654 -0.8321
 4376WAT     H119309   2.407   0.235   8.145  1.4897 -1.5079 -1.7085
 4376WAT     H219310   2.364   0.363   8.077  0.7120 -0.4516  0.6637
 4376WAT    EPW19311   2.378   0.277   8.075  0.6106 -0.4539 -0.7505
 4377WAT      O19312   8.131   6.023   2.700  0.4340  0.0165 -0.0398
 4377WAT     H119313   8.153   5.940   2.658  1.5800  0.1802  0.2095
 4377WAT     H219314   8.079   6.070   2.634  0.7419 -0.4382 -0.6157
 4377WAT    EPW19315   8.127   6.019   2.685  0.6256 -0.0219 -0.0829
 4378WAT      O19316   5.368   0.488   0.108  0.7931 -1.1656 -0.7321
 4378WAT     H119317   5.426   0.437   0.165  0.9682 -0.4290 -0.2421
 4378WAT     H219318   5.382   0.578   0.134 -1.1248 -1.0099 -0.1071
 4378WAT    EPW19319   5.378   0.493   0.119  0.5634 -1.0479 -0.5850
 4379WAT      O19320   7.250   2.014   1.840 -0.3423  0.0119 -0.5377
 4379WAT     H119321   7.275   2.041   1.751  1.3220  1.3018  0.2802
 4379WAT     H219322   7.320   1.954   1.867 -0.8463 -0.3852 -0.0958
 4379WAT    EPW19323   7.263   2.009   1.832 -0.1893  0.1296 -0.3715
 4380WAT      O19324   7.021   9.846   6.756 -0.5608  0.0230 -0.5038
 4380WAT     H119325   7.025   9.837   6.661  0.6863  1.5467 -0.6365
 4380WAT     H219326   7.103   9.807   6.787  1.0699  3.1149 -0.4732
 4380WAT    EPW19327   7.033   9.840   6.748 -0.1812  0.6313 -0.5176
 4381WAT      O19328  10.907   9.154   3.825 -0.2711  0.4253 -0.1513
 4381WAT     H119329  10.975   9.204   3.780  2.2740 -0.9066  1.9331
 4381WAT     H219330  10.848   9.220   3.861  1.2209  1.7816 -0.0838
 4381WAT    EPW19331  10.908   9.169   3.824  0.2618  0.4282  0.1326
 4382WAT      O19332   7.132   8.220   8.724  0.8443  0.0669 -0.4724
 4382WAT     H119333   7.129   8.180   8.811 -0.9944 -1.2898 -1.0893
 4382WAT     H219334   7.219   8.196   8.691  1.5774  0.6160  0.9625
 4382WAT    EPW19335   7.143   8.211   8.731  0.6986 -0.0396 -0.3648
 4383WAT      O19336   6.608   4.722   8.087 -0.6674 -0.3465 -0.5577
 4383WAT     H119337   6.538   4.657   8.097 -2.3785  1.5025  0.2477
 4383WAT     H219338   6.569   4.803   8.118  2.4654  0.4471  1.7244
 4383WAT    EPW19339   6.593   4.724   8.092 -0.4799  0.0019 -0.1502
 4384WAT      O19340   9.571   3.432   1.388 -0.1274 -0.6096  0.1792
 4384WAT     H119341   9.561   3.390   1.473 -3.4710 -2.3406 -0.9010
 4384WAT     H219342   9.578   3.359   1.326 -0.6756  0.5402 -1.2907
 4384WAT    EPW19343   9.571   3.417   1.391 -0.6409 -0.6864 -0.1572
 4385WAT      O19344   1.009   9.556   7.662 -0.7559  0.1987  0.1319
 4385WAT     H119345   0.924   9.520   7.689  0.7936 -1.8812  2.7619
 4385WAT     H219346   1.044   9.491   7.601 -0.0224 -0.2978  1.0566
 4385WAT    EPW19347   1.002   9.543   7.657 -0.4548 -0.1411  0.6006
 4386WAT      O19348  10.537   8.439   8.623  0.3193  0.2544 -0.0985
 4386WAT     H119349  10.550   8.350   8.654 -0.3616  1.0488  2.7488
 4386WAT     H219350  10.442   8.453   8.628  0.5141  1.4857  0.7055
 4386WAT    EPW19351  10.526   8.429   8.628  0.2551  0.5217  0.3834
 4387WAT      O19352   1.154   8.063   4.671 -0.4475 -0.7278 -0.5997
 4387WAT     H119353   1.151   8.032   4.580 -1.4959 -2.6463  0.0245
 4387WAT     H219354   1.077   8.119   4.681 -0.0915 -0.1587 -0.9900
 4387WAT    EPW19355   1.144   8.066   4.660 -0.5388 -0.9050 -0.5689
 4388WAT      O19356  10.328   9.018   7.000 -0.1158  0.1212  0.6475
 4388WAT     H119357  10.366   9.103   6.980  1.2811 -0.6348 -0.0498
 4388WAT     H219358  10.259   9.006   6.935  0.8684 -0.0205 -0.4004
 4388WAT    EPW19359  10.324   9.027   6.989  0.1979  0.0024  0.4172
 4389WAT      O19360   7.817   9.306   8.398  0.4415  0.2617  0.4316
 4389WAT     H119361   7.812   9.385   8.345  2.8242 -0.0579 -0.3940
 4389WAT     H219362   7.736   9.306   8.449 -0.6202  2.0724 -1.1182
 4389WAT    EPW19363   7.806   9.316   8.398  0.6158  0.4587  0.1183
 4390WAT      O19364   5.978   2.414   0.863 -0.2005  1.0587 -0.4380
 4390WAT     H119365   6.066   2.411   0.900 -0.0710  0.1566 -0.7972
 4390WAT     H219366   5.920   2.418   0.940  0.0578 -0.9840 -0.0799
 4390WAT    EPW19367   5.982   2.414   0.878 -0.1495  0.6703 -0.4381
 4391WAT      O19368   3.125   8.983   6.702 -0.6056 -0.0106  0.3990
 4391WAT     H119369   3.099   8.911   6.759  0.2668  1.1581  2.4133
 4391WAT     H219370   3.214   9.005   6.730 -1.2085  2.4980  0.6387
 4391WAT    EPW19371   3.134   8.977   6.713 -0.5701  0.4745  0.6964
 4392WAT      O19372   1.607   7.827   4.187 -0.8643  0.0369  0.5923
 4392WAT     H119373   1.636   7.749   4.234  0.7533 -0.8670 -1.7010
 4392WAT     H219374   1.584   7.889   4.256  0.2662 -1.5698  2.5344
 4392WAT    EPW19375   1.608   7.825   4.202 -0.5019 -0.2940  0.5460
 4393WAT      O19376   6.486   7.307   6.594 -0.4852 -0.5236  0.1445
 4393WAT     H119377   6.500   7.286   6.502  1.1062  0.2736  0.1679
 4393WAT     H219378   6.573   7.298   6.634 -1.2043 -1.1634  1.6370
 4393WAT    EPW19379   6.499   7.303   6.587 -0.3703 -0.5028  0.3443
 4394WAT      O19380   8.061   2.927   1.150  0.2904 -0.4515 -0.0633
 4394WAT     H119381   8.148   2.907   1.183  0.6764 -2.3759 -1.9637
 4394WAT     H219382   8.045   3.017   1.177  1.0344 -1.3474  4.0205
 4394WAT    EPW19383   8.070   2.936   1.158  0.4387 -0.8234  0.2248
 4395WAT      O19384   6.658   3.665   5.858 -0.4686 -0.4535  0.4573
 4395WAT     H119385   6.635   3.586   5.908  0.8260  0.2693  2.3100
 4395WAT     H219386   6.693   3.725   5.924  0.9425  0.7344 -1.2999
 4395WAT    EPW19387   6.660   3.663   5.873 -0.1118 -0.2016  0.4699
 4396WAT      O19388  10.499   4.822   8.117  0.3721  0.0224  0.0811
 4396WAT     H119389  10.469   4.884   8.184 -1.6214  2.5620 -2.8637
 4396WAT     H219390  10.419   4.783   8.082  1.3589 -1.3332 -0.7671
 4396WAT    EPW19391  10.485   4.825   8.121  0.2394  0.1781 -0.4191
 4397WAT      O19392   9.930   8.853   5.293  0.3779  0.3603  0.0105
 4397WAT     H119393  10.007   8.888   5.337  1.7571  1.0027 -2.6685
 4397WAT     H219394   9.891   8.928   5.247  0.6732 -0.6570 -2.0517
 4397WAT    EPW19395   9.935   8.867   5.292  0.5984  0.3114 -0.6149
 4398WAT      O19396   0.555   9.289   7.083  0.0960 -0.5905  0.3901
 4398WAT     H119397   0.539   9.303   6.990  0.1538 -0.6059  0.3778
 4398WAT     H219398   0.545   9.376   7.122 -0.1025 -0.6154  0.3947
 4398WAT    EPW19399   0.552   9.303   7.076  0.0775 -0.5956  0.3889
 4399WAT      O19400   7.078   7.275   7.333  0.1244  0.2945 -0.1070
 4399WAT     H119401   7.167   7.263   7.302  0.0228 -0.9473  0.0274
 4399WAT     H219402   7.034   7.323   7.263  0.5447 -0.2893 -0.7747
 4399WAT    EPW19403   7.084   7.280   7.320  0.1664  0.0539 -0.1771
 4400WAT      O19404   0.838   6.826   4.492  0.6003 -0.4868 -0.2191
 4400WAT     H119405   0.891   6.753   4.461  0.0427 -0.1251 -2.1729
 4400WAT     H219406   0.884   6.904   4.460  0.3687 -0.0442  0.5023
 4400WAT    EPW19407   0.851   6.827   4.483  0.4962 -0.3808 -0.3817
 4401WAT      O19408   2.379   5.832   8.166  0.1978  0.7133  0.1091
 4401WAT     H119409   2.288   5.811   8.185 -0.4369  2.4979 -0.7294
 4401WAT     H219410   2.375   5.914   8.117  2.0758 -0.5351 -2.3790
 4401WAT    EPW19411   2.366   5.840   8.162  0.3618  0.7842 -0.3300
 4402WAT      O19412   0.139   6.211   5.871 -0.3259  0.6894  0.3769
 4402WAT     H119413   0.096   6.167   5.798 -1.5734  2.5158 -0.0477
 4402WAT     H219414   0.147   6.143   5.938 -0.3440 -0.6807 -0.9522
 4402WAT    EPW19415   0.134   6.196   5.871 -0.4928  0.7493  0.1454
 4403WAT      O19416   1.078   5.730   5.964 -0.1654 -0.1671 -0.0110
 4403WAT     H119417   1.021   5.684   6.025  1.5173 -3.6386 -0.7680
 4403WAT     H219418   1.060   5.689   5.879 -0.7100  2.8204 -1.4857
 4403WAT    EPW19419   1.068   5.719   5.961 -0.0153 -0.2308 -0.3057
 4404WAT      O19420   1.349   4.810   6.118  0.1978  0.8822 -0.6323
 4404WAT     H119421   1.427   4.865   6.125 -1.6087  3.5525  0.1998
 4404WAT     H219422   1.281   4.869   6.084 -2.2270 -0.4347  1.5816
 4404WAT    EPW19423   1.350   4.825   6.114 -0.3603  1.0610 -0.2310
 4405WAT      O19424   8.577   7.108   5.977 -0.1647  0.3372 -0.4754
 4405WAT     H119425   8.591   7.015   5.993 -0.4861  0.0971 -1.4765
 4405WAT     H219426   8.586   7.150   6.063  0.9197 -0.4908 -0.1755
 4405WAT    EPW19427   8.580   7.102   5.990 -0.0639  0.1965 -0.5679
 4406WAT      O19428   3.574   2.219   0.652  0.4423 -0.5520 -0.5123
 4406WAT     H119429   3.638   2.250   0.716 -1.5135  0.5174  1.0134
 4406WAT     H219430   3.610   2.246   0.567  1.8842  0.2283  0.3149
 4406WAT    EPW19431   3.587   2.226   0.649  0.3746 -0.3080 -0.2020
 4407WAT      O19432   4.018   1.311   8.022 -0.3692 -0.5097  0.2162
 4407WAT     H119433   4.024   1.264   8.105  0.6679 -1.6780 -0.4914
 4407WAT     H219434   4.009   1.403   8.047 -0.7030 -0.9000  1.6166
 4407WAT    EPW19435   4.018   1.317   8.036 -0.2763 -0.7153  0.3085
 4408WAT      O19436   8.235   7.548   8.777 -0.3226 -0.0788 -0.1396
 4408WAT     H119437   8.280   7.495   8.843  0.2244 -0.7681 -1.0436
 4408WAT     H219438   8.185   7.484   8.726 -1.5008  0.5576  0.1824
 4408WAT    EPW19439   8.234   7.532   8.779 -0.4053 -0.0856 -0.2165
 4409WAT      O19440   8.785   4.715   7.783 -0.8658  0.1206 -0.5003
 4409WAT     H119441   8.717   4.732   7.848  0.6220 -0.2243  1.2477
 4409WAT     H219442   8.806   4.801   7.747  0.0593  0.7495  1.4028
 4409WAT    EPW19443   8.779   4.729   7.787 -0.5474  0.1581 -0.0186
 4410WAT      O19444  10.670   4.404   8.550 -0.1533 -0.5909  0.8835
 4410WAT     H119445  10.736   4.461   8.512  0.5531 -2.0295 -0.1620
 4410WAT     H219446  10.658   4.335   8.485 -2.9559 -0.2046  0.9028
 4410WAT    EPW19447  10.677   4.402   8.536 -0.4301 -0.7298  0.7482
 4411WAT      O19448  10.097   6.716   6.340  0.0600 -0.2764 -0.1135
 4411WAT     H119449  10.152   6.642   6.366  0.5954 -0.3555 -1.3897
 4411WAT     H219450  10.079   6.701   6.248 -0.0012  1.0705 -0.3449
 4411WAT    EPW19451  10.102   6.704   6.331  0.1230 -0.1092 -0.3121
 4412WAT      O19452   7.289   3.474   7.142 -0.2161  0.2628 -0.3314
 4412WAT     H119453   7.349   3.452   7.213  1.2525 -0.8279 -1.8537
 4412WAT     H219454   7.271   3.390   7.099 -3.1945  0.4690  0.2988
 4412WAT    EPW19455   7.294   3.460   7.146 -0.4151  0.1462 -0.4492
 4413WAT      O19456   2.326   7.202   7.293 -0.3701 -0.0001 -0.0425
 4413WAT     H119457   2.373   7.221   7.374 -2.8815  2.0128  1.0760
 4413WAT     H219458   2.287   7.116   7.306 -2.4971  1.1754  1.8556
 4413WAT    EPW19459   2.327   7.193   7.305 -0.9820  0.4203  0.3555
 4414WAT      O19460   7.729   8.335   6.066 -0.3362  0.6036 -0.8799
 4414WAT     H119461   7.792   8.393   6.108 -0.4386  0.0206  0.1153
 4414WAT     H219462   7.732   8.255   6.118 -0.8654  0.0455 -1.6757
 4414WAT    EPW19463   7.738   8.332   6.078 -0.4191  0.4530 -0.8533
 4415WAT      O19464   9.834   6.722   6.764  0.3977 -0.4041  0.6508
 4415WAT     H119465   9.798   6.804   6.796  0.5823 -0.4155  0.8941
 4415WAT     H219466   9.784   6.702   6.685 -1.0931 -1.1488  1.7403
 4415WAT    EPW19467   9.823   6.730   6.758  0.2255 -0.5038  0.8266
 4416WAT      O19468   8.701   2.882   2.700 -0.1668  0.1645 -0.0735
 4416WAT     H119469   8.724   2.910   2.612  1.7760  0.1635  0.3992
 4416WAT     H219470   8.763   2.813   2.721 -1.2879 -0.5946  0.9182
 4416WAT    EPW19471   8.712   2.877   2.691 -0.0587  0.0644  0.1197
 4417WAT      O19472  10.495   0.122   8.964 -0.6690 -0.5224 -0.3120
 4417WAT     H119473  10.556   0.077   9.022 -0.1552  1.6135  0.9235
 4417WAT     H219474  10.425   0.059   8.949  0.8912 -2.3497 -0.2001
 4417WAT    EPW19475  10.494   0.108   8.970 -0.3954 -0.4816 -0.1343
 4418WAT      O19476   4.670   1.322   0.295  0.0478  0.0061  0.3503
 4418WAT     H119477   4.587   1.365   0.313  0.2105  0.2080  0.6319
 4418WAT     H219478   4.655   1.230   0.320 -0.3094 -0.1141 -0.2922
 4418WAT    EPW19479   4.657   1.315   0.301  0.0219  0.0169  0.3027
 4419WAT      O19480   9.936   7.804   7.268 -0.0461  0.0928 -0.9712
 4419WAT     H119481   9.851   7.763   7.258  0.5965 -1.5653 -0.0430
 4419WAT     H219482   9.986   7.775   7.191 -0.6905  2.2238 -2.2857
 4419WAT    EPW19483   9.932   7.795   7.256 -0.0467  0.1550 -1.0219
 4420WAT      O19484   6.416   3.768   0.197  0.1161 -0.1336  0.0109
 4420WAT     H119485   6.420   3.721   0.281 -0.8624  0.3283  0.3385
 4420WAT     H219486   6.438   3.858   0.220  2.7971 -0.5066 -0.7438
 4420WAT    EPW19487   6.420   3.773   0.211  0.3409 -0.1218 -0.0454
 4421WAT      O19488   9.859   8.561   5.205 -0.7793 -0.2063 -1.2467
 4421WAT     H119489   9.907   8.644   5.209 -1.9618  0.5570 -2.1018
 4421WAT     H219490   9.871   8.531   5.115 -2.9219  0.6930 -1.9084
 4421WAT    EPW19491   9.867   8.568   5.194 -1.2183  0.0129 -1.4467
 4422WAT      O19492   1.298   8.332   5.507 -0.1716 -0.1015 -0.0798
 4422WAT     H119493   1.265   8.267   5.570  1.6260  0.5468  1.6207
 4422WAT     H219494   1.222   8.389   5.490 -0.5309  0.1531  2.1209
 4422WAT    EPW19495   1.283   8.331   5.513  0.0181  0.0181  0.4349
 4423WAT      O19496   9.757   7.330   6.685 -0.1789  0.2571  0.6031
 4423WAT     H119497   9.753   7.380   6.767 -1.3814  0.1337  0.6374
 4423WAT     H219498   9.779   7.241   6.712  1.5611  0.6326  0.5776
 4423WAT    EPW19499   9.760   7.325   6.699 -0.1073  0.2906  0.6044
 4424WAT      O19500   9.826   6.205   8.456 -0.1432  0.3211 -0.2050
 4424WAT     H119501   9.804   6.140   8.522  0.4177 -0.8468 -1.1314
 4424WAT     H219502   9.885   6.266   8.501 -1.3974  0.7251  0.9217
 4424WAT    EPW19503   9.831   6.205   8.470 -0.2346  0.2203 -0.1783
 4425WAT      O19504   9.634   7.284   7.153 -0.0682  0.2583 -0.3966
 4425WAT     H119505   9.684   7.213   7.112  3.8505  1.6700  1.5173
 4425WAT     H219506   9.545   7.248   7.160  1.6519 -4.6253  0.6904
 4425WAT    EPW19507   9.629   7.270   7.148  0.6752 -0.1998 -0.0010
 4426WAT      O19508  10.368   9.170   8.570 -1.4643 -0.0491  0.1537
 4426WAT     H119509  10.432   9.100   8.574  0.3177  1.4299 -0.8502
 4426WAT     H219510  10.319   9.152   8.489 -0.9697 -0.1161 -0.1380
 4426WAT    EPW19511  10.370   9.159   8.560 -1.1640  0.1373 -0.0176
 4427WAT      O19512   4.339   0.521   0.244 -1.0099  0.6778  0.1433
 4427WAT     H119513   4.316   0.613   0.228 -0.1857  0.9362  0.4263
 4427WAT     H219514   4.431   0.514   0.219 -0.6399  0.2872  1.5163
 4427WAT    EPW19515   4.348   0.532   0.239 -0.8521  0.6603  0.3617
 4428WAT      O19516   0.865   7.117   8.304 -0.3580 -0.1560 -0.3418
 4428WAT     H119517   0.776   7.118   8.338 -0.0328  0.6076  0.5383
 4428WAT     H219518   0.919   7.148   8.377  0.7823 -1.7613 -0.4677
 4428WAT    EPW19519   0.860   7.121   8.318 -0.1647 -0.2673 -0.2422
 4429WAT      O19520   0.060   6.440   3.743  0.2980 -0.1441  0.4289
 4429WAT     H119521  -0.015   6.456   3.686  0.5362  0.8683  0.3767
 4429WAT     H219522   0.101   6.361   3.707 -0.7114 -0.6861  0.4379
 4429WAT    EPW19523   0.056   6.432   3.730  0.1963 -0.0823  0.4232
 4430WAT      O19524   0.431   4.948   6.148 -0.8160  0.6092  0.1851
 4430WAT     H119525   0.425   4.943   6.053  1.6368 -0.4506  0.0067
 4430WAT     H219526   0.374   4.878   6.180 -0.0270 -0.4262 -0.6224
 4430WAT    EPW19527   0.422   4.938   6.140 -0.3884  0.3328  0.0551
 4431WAT      O19528   6.986   1.795   2.890  0.1472 -0.0767  0.0836
 4431WAT     H119529   7.081   1.782   2.886  0.2004 -0.4823  1.9174
 4431WAT     H219530   6.974   1.861   2.959 -0.8514  0.8913 -0.9704
 4431WAT    EPW19531   6.997   1.802   2.898  0.0226 -0.0026  0.1863
 4432WAT      O19532   8.802   8.118   6.533  0.8278 -0.3551  0.0996
 4432WAT     H119533   8.791   8.078   6.619  0.8993  1.9752  1.2596
 4432WAT     H219534   8.714   8.143   6.506  1.1425  2.8649  1.5945
 4432WAT    EPW19535   8.789   8.116   6.541  0.8783  0.3767  0.4497
 4433WAT      O19536   2.778   4.574   0.144  0.4268 -0.0002  0.0915
 4433WAT     H119537   2.793   4.521   0.221  3.0717 -0.2875 -0.5289
 4433WAT     H219538   2.865   4.606   0.119 -0.6886  2.3486 -1.1821
 4433WAT    EPW19539   2.791   4.571   0.151  0.6284  0.2716 -0.1583
 4434WAT      O19540   9.152   7.760   6.519  0.2065 -0.0320 -0.0556
 4434WAT     H119541   9.172   7.711   6.440 -1.5421  4.7350 -3.9094
 4434WAT     H219542   9.236   7.790   6.552  0.8939 -1.1606 -0.7327
 4434WAT    EPW19543   9.166   7.757   6.513  0.0663  0.4478 -0.6530
 4435WAT      O19544   8.259   6.964   7.499 -0.3577 -0.2680  0.2520
 4435WAT     H119545   8.271   6.923   7.414  1.6230 -0.2920  0.5059
 4435WAT     H219546   8.337   7.019   7.511 -1.0766  0.5218  1.6173
 4435WAT    EPW19547   8.271   6.966   7.490 -0.1917 -0.1674  0.4656
 4436WAT      O19548   3.502   2.633   2.216 -0.2501  0.4479 -0.0013
 4436WAT     H119549   3.506   2.606   2.308 -0.8163 -2.2985 -0.6687
 4436WAT     H219550   3.476   2.725   2.218 -1.4861  0.1318  2.5728
 4436WAT    EPW19551   3.499   2.641   2.228 -0.4878  0.0439  0.2502
 4437WAT      O19552   9.630   7.068   7.962 -0.2709 -0.5846 -0.2683
 4437WAT     H119553   9.544   7.103   7.940  0.4976  0.5599 -1.6460
 4437WAT     H219554   9.655   7.113   8.042 -0.2624  0.3782 -0.7957
 4437WAT    EPW19555   9.622   7.078   7.969 -0.1688 -0.3066 -0.5198
 4438WAT      O19556   3.528   0.799   1.411 -0.1811  1.2674  0.2529
 4438WAT     H119557   3.623   0.800   1.401 -0.0151  0.1898  1.4765
 4438WAT     H219558   3.497   0.736   1.346 -0.1623  2.2224 -0.7104
 4438WAT    EPW19559   3.536   0.791   1.401 -0.1569  1.2513  0.2871
 4439WAT      O19560  10.968   2.857   8.628 -0.1921  0.1168 -0.1677
 4439WAT     H119561  10.954   2.765   8.608  1.1381 -0.8829  2.7943
 4439WAT     H219562  10.972   2.860   8.724  0.6185  3.1201 -0.1881
 4439WAT    EPW19563  10.967   2.845   8.638  0.0906  0.3811  0.2203
 4440WAT      O19564   8.863   7.559   8.413  0.4771  0.9755 -0.1433
 4440WAT     H119565   8.948   7.595   8.438  1.4084 -1.6358  0.7848
 4440WAT     H219566   8.865   7.557   8.317  0.5265  2.8758 -0.2319
 4440WAT    EPW19567   8.874   7.564   8.403  0.6065  0.8819 -0.0329
 4441WAT      O19568   1.712   6.464   6.591 -0.5414 -0.1047  1.0240
 4441WAT     H119569   1.642   6.425   6.644 -0.1243 -1.1135  0.8683
 4441WAT     H219570   1.750   6.532   6.646 -0.5396 -0.6982  1.7769
 4441WAT    EPW19571   1.708   6.468   6.605 -0.4861 -0.3161  1.1029
 4442WAT      O19572   0.578   5.606   8.095  0.2952 -0.5301 -0.6795
 4442WAT     H119573   0.594   5.598   8.001 -0.4297 -0.8001 -0.7850
 4442WAT     H219574   0.483   5.599   8.104  0.3368 -0.2345  0.0482
 4442WAT    EPW19575   0.567   5.604   8.084  0.2051 -0.5264 -0.5970
 4443WAT      O19576   9.822   6.541   5.578  0.3373  0.6542 -0.3028
 4443WAT     H119577   9.780   6.612   5.627  0.1536 -0.7453  1.7432
 4443WAT     H219578   9.825   6.468   5.641  1.8782 -0.6721 -1.8125
 4443WAT    EPW19579   9.816   6.541   5.593  0.5164  0.2949 -0.2322
 4444WAT      O19580   6.983   1.742   2.188  0.0643  0.2702  0.2992
 4444WAT     H119581   7.033   1.742   2.106  0.4398  0.2435  0.5253
 4444WAT     H219582   7.038   1.693   2.249 -0.5762 -0.4090  0.3511
 4444WAT    EPW19583   6.997   1.735   2.185  0.0291  0.1771  0.3359
 4445WAT      O19584   7.008   5.408   6.416  0.0687 -0.1337 -0.0206
 4445WAT     H119585   7.055   5.483   6.379  1.4709  0.1881  2.2284
 4445WAT     H219586   7.075   5.359   6.463 -1.2095 -1.7370  0.2270
 4445WAT    EPW19587   7.023   5.411   6.417  0.0849 -0.3026  0.3085
 4446WAT      O19588   7.697   2.518   0.731 -0.0886 -0.5353  0.2150
 4446WAT     H119589   7.744   2.594   0.699  3.2061 -2.9989 -1.3257
 4446WAT     H219590   7.614   2.553   0.763  0.9017  3.5235 -1.1159
 4446WAT    EPW19591   7.692   2.533   0.731  0.4766 -0.3248 -0.1637
 4447WAT      O19592   0.302   6.604   0.347 -0.2599 -0.1808  0.4088
 4447WAT     H119593   0.378   6.659   0.366 -0.7028  0.5164  0.1874
 4447WAT     H219594   0.236   6.665   0.315  0.2526 -1.1986 -2.9648
 4447WAT    EPW19595   0.303   6.619   0.345 -0.2507 -0.2232 -0.0653
 4448WAT      O19596   9.472   6.849   4.446 -0.4082 -0.8378 -0.5769
 4448WAT     H119597   9.517   6.904   4.382  0.4883 -1.2402 -0.3190
 4448WAT     H219598   9.540   6.830   4.512 -1.1375 -0.9421  0.1595
 4448WAT    EPW19599   9.487   6.854   4.447 -0.3867 -0.9046 -0.4458
 4449WAT      O19600   0.959   9.128   2.580 -0.0018  0.2938 -0.3811
 4449WAT     H119601   0.932   9.077   2.656 -2.0203  0.2211 -1.0943
 4449WAT     H219602   0.959   9.066   2.507 -2.0881  1.1353 -1.1802
 4449WAT    EPW19603   0.956   9.113   2.580 -0.5432  0.3953 -0.5805
 4450WAT      O19604  10.750   7.287   3.926  0.1039 -0.1160 -0.0416
 4450WAT     H119605  10.666   7.299   3.883  0.7490 -2.1230 -2.0548
 4450WAT     H219606  10.800   7.366   3.903 -0.0748 -0.4810 -1.8318
 4450WAT    EPW19607  10.746   7.299   3.918  0.1650 -0.4287 -0.5432
 4451WAT      O19608   0.184   7.871   7.147 -0.3039 -0.2215 -0.6649
 4451WAT     H119609   0.188   7.776   7.136  0.0082 -0.2104 -0.6647
 4451WAT     H219610   0.255   7.890   7.208 -1.4812 -0.1895  0.7340
 4451WAT    EPW19611   0.194   7.861   7.154 -0.4180 -0.2155 -0.4804
 4452WAT      O19612   7.142   6.864   8.819 -0.3546  0.4997 -1.0470
 4452WAT     H119613   7.074   6.797   8.810 -1.1733  1.0909  0.3717
 4452WAT     H219614   7.223   6.815   8.828 -0.7839 -0.2703 -1.3050
 4452WAT    EPW19615   7.144   6.849   8.819 -0.5193  0.4761 -0.8936
 4453WAT      O19616   9.893   6.347   8.076  0.5345  0.1459 -0.0516
 4453WAT     H119617   9.853   6.391   8.001  0.8867  2.1399  0.8494
 4453WAT     H219618   9.824   6.345   8.142  0.6074 -0.4398  0.0102
 4453WAT    EPW19619   9.879   6.353   8.075  0.5903  0.3316  0.0753
 4454WAT      O19620   7.221   4.797   5.526 -0.1993  0.4506 -0.1311
 4454WAT     H119621   7.287   4.761   5.467 -1.9818 -0.9756 -1.3290
 4454WAT     H219622   7.154   4.834   5.469 -0.3827  2.0374  1.0594
 4454WAT    EPW19623   7.221   4.797   5.511 -0.4585  0.4721 -0.1321
 4455WAT      O19624   9.518   4.110   3.123  0.0397 -0.2745 -0.5304
 4455WAT     H119625   9.528   4.023   3.084 -0.8961 -0.5594 -0.1609
 4455WAT     H219626   9.513   4.169   3.048  1.9514 -0.3572 -0.7778
 4455WAT    EPW19627   9.519   4.106   3.108  0.1683 -0.3231 -0.5143
 4456WAT      O19628   9.507   5.567   7.096 -0.1488  0.5686  0.2746
 4456WAT     H119629   9.546   5.480   7.087  0.5818  0.8698  0.4555
 4456WAT     H219630   9.467   5.567   7.183 -2.3973 -0.4478 -0.6720
 4456WAT    EPW19631   9.507   5.555   7.106 -0.3495  0.4742  0.1736
 4457WAT      O19632   9.741   9.063   5.209  0.5305 -0.8644 -0.1146
 4457WAT     H119633   9.824   9.110   5.205  0.0003  0.0140 -1.4099
 4457WAT     H219634   9.684   9.119   5.262  0.6839 -1.3500  0.5743
 4457WAT    EPW19635   9.744   9.077   5.215  0.4807 -0.8121 -0.1948
 4458WAT      O19636   4.991   4.448   1.933  0.3209  0.8133 -0.5492
 4458WAT     H119637   5.058   4.431   1.999 -0.2003 -0.8479 -0.4090
 4458WAT     H219638   5.038   4.452   1.850  1.0943  3.6934 -0.0752
 4458WAT    EPW19639   5.006   4.447   1.931  0.3543  0.9739 -0.4683
 4459WAT      O19640   0.272   7.522   7.542  0.2404  0.1938 -0.2160
 4459WAT     H119641   0.362   7.554   7.541  0.5987 -0.7283  0.9554
 4459WAT     H219642   0.278   7.431   7.512 -0.0502 -0.4005  1.4117
 4459WAT    EPW19643   0.285   7.514   7.538  0.2493 -0.0062  0.1531
 4460WAT      O19644   6.150   0.283   0.474 -0.2023  0.3654 -0.1744
 4460WAT     H119645   6.142   0.202   0.525 -1.3275  1.9615  2.3863
 4460WAT     H219646   6.075   0.281   0.414  0.7561 -1.2293 -1.3895
 4460WAT    EPW19647   6.139   0.272   0.473 -0.2244  0.3655  0.0031
 4461WAT      O19648   9.021   7.342   7.974  0.4255 -0.6125 -0.0377
 4461WAT     H119649   9.068   7.278   7.921 -1.7252 -0.8299 -1.7998
 4461WAT     H219650   9.059   7.332   8.062  4.7695  0.3554 -1.5269
 4461WAT    EPW19651   9.032   7.332   7.979  0.7148 -0.5133 -0.4668
 4462WAT      O19652   6.620   2.002   1.213  0.0313  0.0261 -0.0734
 4462WAT     H119653   6.698   1.946   1.211 -1.0932 -1.5964 -0.4469
 4462WAT     H219654   6.621   2.048   1.129 -0.2092 -1.1434 -0.7296
 4462WAT    EPW19655   6.630   2.001   1.201 -0.1488 -0.3421 -0.2093
 4463WAT      O19656   6.693   2.208   0.381 -0.0409  0.3309  0.3327
 4463WAT     H119657   6.745   2.283   0.410 -3.2385  2.6828  0.5578
 4463WAT     H219658   6.709   2.202   0.287  0.9264  0.7179  0.4685
 4463WAT    EPW19659   6.702   2.217   0.372 -0.3350  0.6921  0.3803
 4464WAT      O19660   8.195   9.425   7.105  0.1440 -0.6494 -0.4948
 4464WAT     H119661   8.197   9.495   7.040 -1.6143 -1.1597 -1.1522
 4464WAT     H219662   8.277   9.378   7.093  1.7197  1.6904  0.4626
 4464WAT    EPW19663   8.206   9.428   7.095  0.1202 -0.4082 -0.4551
 4465WAT      O19664   8.877   5.033   3.748 -0.0839  0.0563  0.2556
 4465WAT     H119665   8.951   5.000   3.698 -0.5602 -2.1349  0.9123
 4465WAT     H219666   8.836   5.098   3.691  1.3484  0.0826 -0.7886
 4465WAT    EPW19667   8.881   5.037   3.734  0.0424 -0.2291  0.2044
 4466WAT      O19668  10.484   8.007   5.966 -0.2373 -0.2231 -0.7697
 4466WAT     H119669  10.529   7.941   6.018 -1.6081  0.0045  0.7877
 4466WAT     H219670  10.444   7.958   5.895  2.1747 -0.4567 -2.0795
 4466WAT    EPW19671  10.485   7.992   5.964 -0.1001 -0.2239 -0.7370
 4467WAT      O19672   7.158   3.404   0.373 -0.2883  0.2818 -0.2792
 4467WAT     H119673   7.092   3.369   0.313 -0.3106 -2.1764  1.0618
 4467WAT     H219674   7.107   3.444   0.443 -0.3082  0.5405 -0.4404
 4467WAT    EPW19675   7.143   3.405   0.374 -0.2937 -0.0085 -0.1236
 4468WAT      O19676   0.759   6.874   6.589  0.3937 -0.2613  0.2621
 4468WAT     H119677   0.733   6.927   6.664  2.2006  1.9092 -0.5195
 4468WAT     H219678   0.684   6.817   6.572 -1.3913  1.5469  1.6436
 4468WAT    EPW19679   0.746   6.874   6.597  0.3966  0.2635  0.3409
 4469WAT      O19680   7.022   3.786   3.204  0.2423 -0.1212  0.4420
 4469WAT     H119681   6.992   3.752   3.289 -1.7914 -0.5785 -0.3916
 4469WAT     H219682   7.096   3.842   3.225  2.6116 -3.5213  2.1103
 4469WAT    EPW19683   7.027   3.789   3.218  0.2866 -0.6300  0.5521
 4470WAT      O19684   8.527   5.038   5.436  0.2131 -0.0253 -0.0607
 4470WAT     H119685   8.578   4.967   5.475  1.0913  0.6875  0.1492
 4470WAT     H219686   8.454   5.052   5.496  1.2564  0.7096  1.1009
 4470WAT    EPW19687   8.524   5.030   5.449  0.4663  0.1657  0.1204
 4471WAT      O19688   1.163   8.958   8.037  0.1217  0.1772  0.8633
 4471WAT     H119689   1.132   8.936   7.950 -0.4384  2.9182  0.2649
 4471WAT     H219690   1.219   8.885   8.062 -1.7420 -1.9165 -0.6655
 4471WAT    EPW19691   1.166   8.946   8.029 -0.1980  0.2627  0.5827
 4472WAT      O19692   9.784  10.341   0.208 -0.0790  0.4768 -0.5938
 4472WAT     H119693   9.773  10.436   0.218  2.4237  0.8223 -0.4268
 4472WAT     H219694   9.717  10.316   0.145 -0.4726  2.4635 -1.0400
 4472WAT    EPW19695   9.774  10.350   0.201  0.1998  0.7844 -0.6306
 4473WAT      O19696   8.695   5.021   6.968  0.2368  0.5393 -0.0844
 4473WAT     H119697   8.747   5.055   7.041  0.4148 -0.1045  0.0961
 4473WAT     H219698   8.746   5.044   6.890  1.0483 -0.4876  0.1151
 4473WAT    EPW19699   8.709   5.029   6.967  0.3676  0.3188 -0.0343
 4474WAT      O19700   1.945  10.080   7.674  0.0762  0.7975 -0.6827
 4474WAT     H119701   1.965  10.172   7.655  4.0519  0.1897 -0.3949
 4474WAT     H219702   1.986  10.065   7.759 -1.7162 -0.9593 -0.0620
 4474WAT    EPW19703   1.953  10.090   7.683  0.3642  0.4854 -0.5627
 4475WAT      O19704  10.021   6.773   5.762 -0.6134  0.1015  0.6903
 4475WAT     H119705  10.061   6.849   5.720  0.3990  0.3708  2.0602
 4475WAT     H219706   9.939   6.758   5.714 -0.5184  1.6673  0.0046
 4475WAT    EPW19707  10.015   6.781   5.750 -0.4678  0.3433  0.7803
 4476WAT      O19708   9.417   0.921   1.035  0.0310  0.2559  0.5494
 4476WAT     H119709   9.332   0.941   1.072 -0.5644 -0.0581 -0.6044
 4476WAT     H219710   9.408   0.939   0.941  0.3338 -2.4147 -0.0844
 4476WAT    EPW19711   9.405   0.926   1.027 -0.0076 -0.1377  0.3136
 4477WAT      O19712   2.430   5.793   7.658 -0.1436 -0.0628 -0.7322
 4477WAT     H119713   2.500   5.759   7.604  1.9462  0.1774  1.6403
 4477WAT     H219714   2.358   5.731   7.646  0.8062 -0.8972 -2.4288
 4477WAT    EPW19715   2.429   5.780   7.650  0.2574 -0.1411 -0.6435
 4478WAT      O19716   7.784   5.586   6.260  0.4355  0.5671  0.1535
 4478WAT     H119717   7.758   5.657   6.201  1.6141  0.9249  0.0241
 4478WAT     H219718   7.846   5.627   6.320  3.3126 -0.8612 -1.6081
 4478WAT    EPW19719   7.789   5.601   6.260  0.9704  0.4258 -0.0958
 4479WAT      O19720   3.229   0.147   7.780  0.1464  0.5909  0.1904
 4479WAT     H119721   3.296   0.183   7.722  0.0711  0.6482  0.1390
 4479WAT     H219722   3.219   0.056   7.751  0.7663  0.3547  0.7125
 4479WAT    EPW19723   3.236   0.139   7.769  0.2182  0.5673  0.2522
 4480WAT      O19724  10.292   9.165   7.243  0.3467  0.3706  0.1398
 4480WAT     H119725  10.324   9.138   7.329 -0.8903 -1.1823  0.1779
 4480WAT     H219726  10.303   9.087   7.188 -0.6935  0.7003 -0.5653
 4480WAT    EPW19727  10.297   9.151   7.247  0.0458  0.2093  0.0520
 4481WAT      O19728   9.421   6.928   5.877  0.2503 -0.6060  0.5962
 4481WAT     H119729   9.478   6.864   5.918  0.8241 -0.5620 -0.1045
 4481WAT     H219730   9.461   6.944   5.791  0.5213  1.2112  1.0275
 4481WAT    EPW19731   9.434   6.922   5.871  0.3614 -0.3607  0.5605
 4482WAT      O19732   2.020   9.626   0.301 -0.2186 -0.5981 -0.4241
 4482WAT     H119733   2.024   9.707   0.251 -0.6217  0.5045  1.2417
 4482WAT     H219734   1.928   9.618   0.326 -0.0200 -1.0469  0.2063
 4482WAT    EPW19735   2.008   9.635   0.298 -0.2456 -0.5121 -0.1213
 4483WAT      O19736   8.145   1.589   2.120  1.0549 -0.1454 -0.2914
 4483WAT     H119737   8.097   1.646   2.181  1.6630 -0.7215  0.7459
 4483WAT     H219738   8.088   1.514   2.108  0.6931  0.2141 -0.8775
 4483WAT    EPW19739   8.132   1.587   2.127  1.0872 -0.1739 -0.2319
 4484WAT      O19740   0.375   8.044   6.272 -0.1289  0.6353  0.4585
 4484WAT     H119741   0.464   8.026   6.243 -1.2397 -3.6444 -1.2066
 4484WAT     H219742   0.338   8.101   6.204  0.5356 -0.0385 -0.4908
 4484WAT    EPW19743   0.382   8.049   6.259 -0.1878 -0.0176  0.1137
 4485WAT      O19744   3.217  10.218   2.339  0.0902 -0.5962 -0.5981
 4485WAT     H119745   3.301  10.257   2.363 -0.5818 -0.1402  1.2161
 4485WAT     H219746   3.199  10.155   2.409 -2.0279  0.8312  0.2441
 4485WAT    EPW19747   3.226  10.215   2.352 -0.2778 -0.3481 -0.2476
 4486WAT      O19748   0.374   7.217   8.425  0.8004 -1.0270 -0.1532
 4486WAT     H119749   0.294   7.170   8.450  0.3631  0.7061  2.0008
 4486WAT     H219750   0.343   7.288   8.369  1.2826 -2.2947 -2.1166
 4486WAT    EPW19751   0.359   7.220   8.421  0.8063 -0.9658 -0.1278
 4487WAT      O19752   4.613   7.733   7.142  0.2077  0.1830  0.2061
 4487WAT     H119753   4.583   7.730   7.052 -0.9781 -1.6566  0.6083
 4487WAT     H219754   4.705   7.705   7.138  0.4309  0.9999 -0.5096
 4487WAT    EPW19755   4.622   7.729   7.130  0.0808  0.0482  0.1647
 4488WAT      O19756   1.816   8.033   4.191  0.0280  0.5302  0.3552
 4488WAT     H119757   1.759   7.956   4.183 -0.5284  1.1145 -1.8315
 4488WAT     H219758   1.900   8.004   4.155 -0.6052  1.2989 -1.9079
 4488WAT    EPW19759   1.820   8.019   4.185 -0.1289  0.7091 -0.2317
 4489WAT      O19760   9.105  10.074   8.291  0.5604 -0.3562  0.0944
 4489WAT     H119761   9.163  10.000   8.309 -0.6438 -1.3422  0.0687
 4489WAT     H219762   9.149  10.121   8.220  2.1464 -0.0993  1.1834
 4489WAT    EPW19763   9.119  10.070   8.284  0.6104 -0.4520  0.2346
 4490WAT      O19764  10.361   0.473   7.281 -0.3434  0.0519 -0.0621
 4490WAT     H119765  10.423   0.451   7.350 -1.7130 -0.6815  0.9947
 4490WAT     H219766  10.402   0.442   7.200 -0.4024 -2.7555  0.9023
 4490WAT    EPW19767  10.375   0.466   7.279 -0.5322 -0.4151  0.2048
 4491WAT      O19768   8.096   6.595   6.643 -0.6910  0.0766 -0.5978
 4491WAT     H119769   8.171   6.573   6.589 -0.0194 -0.3618  0.5012
 4491WAT     H219770   8.038   6.520   6.636 -1.1551  0.5047 -1.6198
 4491WAT    EPW19771   8.098   6.582   6.635 -0.6633  0.0753 -0.5877
 4492WAT      O19772   7.451   1.780   1.509 -0.3531 -0.4359  0.4728
 4492WAT     H119773   7.522   1.831   1.548 -1.0833 -0.1260  1.4463
 4492WAT     H219774   7.449   1.808   1.418  0.9913 -0.7063  0.3435
 4492WAT    EPW19775   7.460   1.790   1.502 -0.2720 -0.4307  0.5841
 4493WAT      O19776   7.223   9.511   8.544  0.3280 -0.5154  0.2219
 4493WAT     H119777   7.191   9.486   8.630 -0.2983  0.1116  0.1715
 4493WAT     H219778   7.152   9.561   8.504  0.2515 -1.5595 -1.0188
 4493WAT    EPW19779   7.210   9.514   8.550  0.2356 -0.5708  0.0510
 4494WAT      O19780   3.748   1.188   1.381 -0.3845 -0.3401  0.7590
 4494WAT     H119781   3.801   1.255   1.337 -1.4278 -0.1051 -0.1879
 4494WAT     H219782   3.739   1.221   1.471 -0.3489  0.4675  0.4752
 4494WAT    EPW19783   3.754   1.201   1.387 -0.5175 -0.2025  0.5967
 4495WAT      O19784   3.389   9.820   3.533  0.3651  0.0690 -0.1780
 4495WAT     H119785   3.375   9.886   3.465  0.0887 -0.3453 -0.5296
 4495WAT     H219786   3.466   9.850   3.581  0.8285  0.1309 -0.9525
 4495WAT    EPW19787   3.397   9.832   3.530  0.3897  0.0219 -0.3265
 4496WAT      O19788   5.895   3.422   1.818  0.1197  0.1144  0.4159
 4496WAT     H119789   5.949   3.467   1.753 -0.8977 -0.4590 -0.8772
 4496WAT     H219790   5.856   3.349   1.770  1.4173 -1.9582  2.3531
 4496WAT    EPW19791   5.897   3.418   1.803  0.1569 -0.2346  0.5007
 4497WAT      O19792  10.605   6.336   4.704  0.0852  0.6690  0.5554
 4497WAT     H119793  10.615   6.364   4.613 -1.2912  1.4212  0.5984
 4497WAT     H219794  10.510   6.333   4.717  0.2598  0.3694  1.9041
 4497WAT    EPW19795  10.594   6.339   4.694 -0.0730  0.7288  0.7389
 4498WAT      O19796   3.620   4.075   2.690  0.0115 -0.2409  0.1816
 4498WAT     H119797   3.603   4.080   2.596  1.0154  1.3379  0.0467
 4498WAT     H219798   3.708   4.038   2.696 -0.4362 -1.2816  0.5645
 4498WAT    EPW19799   3.629   4.071   2.678  0.0850 -0.1700  0.2142
 4499WAT      O19800   6.950   2.875   0.454 -0.4026 -0.7015  0.0888
 4499WAT     H119801   7.022   2.812   0.457  2.2298  2.0525  0.2427
 4499WAT     H219802   6.989   2.952   0.413 -3.6845  0.5496 -0.9209
 4499WAT    EPW19803   6.965   2.877   0.449 -0.4885 -0.1732 -0.0241
 4500WAT      O19804   4.103   3.737   7.473  0.5740  0.0723  0.3185
 4500WAT     H119805   4.119   3.736   7.379 -0.2288 -0.5361  0.1713
 4500WAT     H219806   4.016   3.696   7.483 -0.8083  2.9208  1.0416
 4500WAT    EPW19807   4.093   3.731   7.462  0.2859  0.3676  0.3946
 4501WAT      O19808   2.832   2.369   0.904  0.5104  0.0704 -0.5751
 4501WAT     H119809   2.827   2.409   0.816  1.1735 -1.1489 -1.1933
 4501WAT     H219810   2.860   2.441   0.961 -3.0173  1.7534 -0.7133
 4501WAT    EPW19811   2.835   2.384   0.900  0.1327  0.1315 -0.6748
 4502WAT      O19812  10.483   3.944   0.983  0.4860  0.4650  0.4142
 4502WAT     H119813  10.451   3.979   0.900 -1.8098 -0.7149  0.7277
 4502WAT     H219814  10.439   3.995   1.050 -1.3615 -1.5648  0.8593
 4502WAT    EPW19815  10.473   3.955   0.981 -0.0601  0.0415  0.5142
 4503WAT      O19816  10.522   4.238   7.582 -0.4466  0.0024 -0.1748
 4503WAT     H119817  10.583   4.291   7.633 -0.6967 -1.6100  1.9736
 4503WAT     H219818  10.475   4.301   7.527  0.0351  1.8479  1.4119
 4503WAT    EPW19819  10.523   4.253   7.582 -0.4163  0.0331  0.3178
 4504WAT      O19820   2.986   8.740   6.536  0.1838 -0.0638  0.3965
 4504WAT     H119821   2.998   8.688   6.457  1.3420 -0.7134  0.9692
 4504WAT     H219822   3.074   8.772   6.557 -0.5128  2.4494 -0.1247
 4504WAT    EPW19823   2.999   8.737   6.528  0.2446  0.1822  0.4034
 4505WAT      O19824   4.354   9.835   0.439 -0.2040 -0.1985  0.5292
 4505WAT     H119825   4.361   9.845   0.534 -4.3815 -0.2615  1.0211
 4505WAT     H219826   4.346   9.741   0.424  1.1970 -0.2622 -0.0673
 4505WAT    EPW19827   4.354   9.824   0.449 -0.5703 -0.2155  0.5154
 4506WAT      O19828  10.566   6.471   5.155  0.2695  0.1642  0.2047
 4506WAT     H119829  10.570   6.387   5.110 -0.4228 -0.1890  0.7728
 4506WAT     H219830  10.628   6.461   5.228  1.7177  0.8877 -0.8642
 4506WAT    EPW19831  10.575   6.458   5.159  0.3686  0.2131  0.1383
 4507WAT      O19832   2.188   3.621   8.419  0.6078  0.0083  0.4066
 4507WAT     H119833   2.182   3.710   8.453 -0.6718 -0.1369  0.6046
 4507WAT     H219834   2.271   3.619   8.371  1.7736  0.6323  2.2945
 4507WAT    EPW19835   2.198   3.632   8.417  0.5927  0.0715  0.6819
 4508WAT      O19836  10.994   9.066   5.486  0.1144  0.6290  0.0511
 4508WAT     H119837  11.076   9.114   5.477  1.9585 -2.0521  1.2854
 4508WAT     H219838  10.945   9.114   5.553 -0.3555  3.3953 -2.0651
 4508WAT    EPW19839  10.998   9.079   5.493  0.2957  0.6404 -0.0651
 4509WAT      O19840   8.071   6.236   4.889  0.4857 -1.1709 -0.3062
 4509WAT     H119841   8.164   6.259   4.883  1.0255 -2.1583  2.4683
 4509WAT     H219842   8.069   6.141   4.879 -0.0488 -1.2859  0.7155
 4509WAT    EPW19843   8.083   6.227   4.887  0.4864 -1.3163  0.1943
 4510WAT      O19844   0.527   7.935   8.196  0.6715 -0.4818 -0.7425
 4510WAT     H119845   0.467   7.981   8.138 -2.8106 -3.0966  0.4135
 4510WAT     H219846   0.529   7.988   8.276 -0.6244 -0.6026 -0.6071
 4510WAT    EPW19847   0.519   7.948   8.199  0.0413 -0.8428 -0.5722
 4511WAT      O19848   0.699   9.073   4.272 -0.1924  0.4862  0.5337
 4511WAT     H119849   0.733   9.040   4.188  2.2482  0.2690  1.5242
 4511WAT     H219850   0.771   9.124   4.308 -1.5536  1.3789  2.0854
 4511WAT    EPW19851   0.713   9.075   4.265 -0.0500  0.5755  0.8688
 4512WAT      O19852   8.899   7.891   3.840 -0.3416 -0.2469 -0.2313
 4512WAT     H119853   8.882   7.908   3.747  2.7061 -1.6080 -1.1802
 4512WAT     H219854   8.867   7.801   3.853  1.6887 -1.1188 -0.8169
 4512WAT    EPW19855   8.893   7.881   3.829  0.3281 -0.5417 -0.4336
 4513WAT      O19856   1.904   7.622   2.986 -0.4185  0.5254  0.0242
 4513WAT     H119857   1.812   7.647   2.982 -0.3991  0.7148  0.6311
 4513WAT     H219858   1.910   7.563   3.061  0.1418  1.3422  0.6425
 4513WAT    EPW19859   1.893   7.618   2.995 -0.3421  0.6583  0.1857
 4514WAT      O19860   9.802   5.272   4.417 -0.3329  0.0853  0.2059
 4514WAT     H119861   9.816   5.180   4.439 -0.3170 -0.6529 -2.5367
 4514WAT     H219862   9.710   5.287   4.437 -0.4839 -0.6976  0.1522
 4514WAT    EPW19863   9.792   5.262   4.422 -0.3505 -0.1152 -0.1631
 4515WAT      O19864   0.289  10.220   7.146  0.2720 -0.1379 -0.0039
 4515WAT     H119865   0.284  10.243   7.239 -0.8716 -0.0650 -0.0724
 4515WAT     H219866   0.209  10.257   7.108  0.7745 -0.0834 -1.0410
 4515WAT    EPW19867   0.278  10.228   7.153  0.1875 -0.1211 -0.1497
 4516WAT      O19868   0.912   1.180   4.643  0.0411  0.2582  0.1076
 4516WAT     H119869   0.893   1.256   4.698  0.1361  0.4509 -0.1246
 4516WAT     H219870   0.839   1.120   4.660 -0.2300  0.5566  0.0152
 4516WAT    EPW19871   0.900   1.182   4.652  0.0178  0.3229  0.0651
 4517WAT      O19872  10.721   8.919   8.065  0.4210  0.6530 -0.4074
 4517WAT     H119873  10.649   8.862   8.037 -1.0026  2.5143 -0.7222
 4517WAT     H219874  10.696   9.007   8.036  0.2193  2.3260  4.0247
 4517WAT    EPW19875  10.708   8.923   8.058  0.2065  1.1191  0.1354
 4518WAT      O19876   4.165   2.553   0.373 -0.1606  0.8623 -0.4548
 4518WAT     H119877   4.157   2.466   0.413 -0.3902  1.0203 -0.1476
 4518WAT     H219878   4.236   2.595   0.421 -0.3122  0.9848 -0.3344
 4518WAT    EPW19879   4.173   2.547   0.385 -0.2108  0.8994 -0.3984
 4519WAT      O19880   2.498   9.345   1.675  0.3913 -0.2416 -0.3993
 4519WAT     H119881   2.438   9.389   1.734 -1.5594 -1.6843 -1.1772
 4519WAT     H219882   2.567   9.409   1.658 -1.2244  1.7280  0.0741
 4519WAT    EPW19883   2.499   9.359   1.680 -0.0792 -0.1717 -0.4394
 4520WAT      O19884   8.174   6.954   4.872 -0.8598 -0.2637  0.1265
 4520WAT     H119885   8.248   6.920   4.821 -1.4402 -0.1153 -0.8479
 4520WAT     H219886   8.194   7.047   4.882 -2.5067  0.5999 -3.1833
 4520WAT    EPW19887   8.187   6.962   4.867 -1.1539 -0.1302 -0.4385
 4521WAT      O19888   2.614   0.153   7.473  0.2361 -0.1770 -0.1548
 4521WAT     H119889   2.623   0.237   7.518  5.1312 -1.1844  1.3549
 4521WAT     H219890   2.533   0.116   7.507 -0.6970  2.7537  1.1796
 4521WAT    EPW19891   2.605   0.159   7.483  0.7586  0.0767  0.2205
 4522WAT      O19892   9.731   8.387   8.624 -0.1184 -0.3412 -0.4705
 4522WAT     H119893   9.636   8.372   8.623 -0.3205  0.8222 -0.6824
 4522WAT     H219894   9.752   8.403   8.715 -0.4228  0.9981 -0.6132
 4522WAT    EPW19895   9.721   8.387   8.636 -0.1855 -0.0110 -0.5174
 4523WAT      O19896  10.412   6.295   7.379 -0.5516 -0.0236  0.4091
 4523WAT     H119897  10.424   6.294   7.474 -0.2482 -0.4019  0.3723
 4523WAT     H219898  10.408   6.203   7.355  1.9452 -0.0549 -0.2340
 4523WAT    EPW19899  10.413   6.283   7.389 -0.1822 -0.0777  0.3195
 4524WAT      O19900  10.346   8.730   3.472 -0.1352 -0.1345  0.2054
 4524WAT     H119901  10.284   8.658   3.488  1.0987 -1.7251 -1.7473
 4524WAT     H219902  10.297   8.809   3.496 -2.1199 -1.4826  0.8510
 4524WAT    EPW19903  10.331   8.731   3.477 -0.2346 -0.5217  0.0330
 4525WAT      O19904   8.906   7.270   7.671 -0.4187  0.4308 -0.5851
 4525WAT     H119905   8.958   7.342   7.634 -0.8844  0.1323 -1.8965
 4525WAT     H219906   8.876   7.221   7.594 -2.0438  0.1830  0.1612
 4525WAT    EPW19907   8.909   7.273   7.656 -0.6948  0.3588 -0.6597
 4526WAT      O19908   9.549   8.954   6.474 -0.4387  0.0812  0.2844
 4526WAT     H119909   9.493   9.031   6.483  0.6963  1.1207 -1.0028
 4526WAT     H219910   9.608   8.959   6.550 -1.4348 -0.4764  1.1109
 4526WAT    EPW19911   9.549   8.965   6.486 -0.4210  0.1445  0.2234
 4527WAT      O19912   0.530   3.400   6.377  0.1272 -0.6380 -0.1601
 4527WAT     H119913   0.601   3.342   6.408  1.2017  1.4949  1.6362
 4527WAT     H219914   0.475   3.343   6.323  1.7397 -3.0412  0.5543
 4527WAT    EPW19915   0.532   3.385   6.374  0.4815 -0.6738  0.1707
 4528WAT      O19916   9.185   9.399   6.638  0.1981  0.7285  0.3974
 4528WAT     H119917   9.257   9.450   6.675 -0.8747  2.8329 -0.2610
 4528WAT     H219918   9.143   9.358   6.714  1.5499  0.1636  0.8657
 4528WAT    EPW19919   9.189   9.400   6.653  0.2351  0.9308  0.3722
 4529WAT      O19920  10.908   7.327   6.607  0.9250  0.1169 -0.3132
 4529WAT     H119921  10.976   7.369   6.660  1.1077  0.7022 -1.0069
 4529WAT     H219922  10.893   7.387   6.534 -2.2586  1.3730  1.1640
 4529WAT    EPW19923  10.915   7.340   6.605  0.5288  0.3598 -0.2098
 4530WAT      O19924   7.987   2.645   1.112 -0.4091  0.3066  0.2265
 4530WAT     H119925   8.044   2.608   1.044  0.0432 -0.5389  1.0531
 4530WAT     H219926   8.030   2.727   1.138 -0.5084  0.5610 -0.3827
 4530WAT    EPW19927   8.000   2.651   1.106 -0.3624  0.2285  0.2551
 4531WAT      O19928   2.009   3.295   0.005  0.6341 -0.3588 -0.2974
 4531WAT     H119929   1.929   3.319  -0.043  0.9103 -1.1118 -1.1592
 4531WAT     H219930   2.042   3.218  -0.040 -0.1935 -2.3921  2.3343
 4531WAT    EPW19931   2.003   3.288  -0.007  0.5612 -0.7262 -0.0639
 4532WAT      O19932   8.668   6.075   4.883 -0.3983 -0.4507  0.1538
 4532WAT     H119933   8.722   6.038   4.952 -1.6408  0.7589  1.8525
 4532WAT     H219934   8.578   6.065   4.914 -0.9352  0.9813 -0.8142
 4532WAT    EPW19935   8.663   6.069   4.896 -0.6332 -0.1025  0.2501
 4533WAT      O19936   0.810   8.658   5.020 -0.8933 -0.7141 -0.1691
 4533WAT     H119937   0.753   8.728   4.988  1.0119 -0.0346 -2.2905
 4533WAT     H219938   0.757   8.578   5.009 -2.2118  0.0941  0.0160
 4533WAT    EPW19939   0.795   8.657   5.014 -0.8159 -0.5178 -0.4241
 4534WAT      O19940   2.445   1.011   0.349 -0.5061  0.3121 -0.0190
 4534WAT     H119941   2.520   1.019   0.408 -0.1087 -0.4702 -0.4008
 4534WAT     H219942   2.411   1.100   0.342 -1.2772  0.2830  2.2875
 4534WAT    EPW19943   2.450   1.024   0.356 -0.5553  0.2051  0.2348
 4535WAT      O19944   5.544   2.205   0.828 -0.5772 -0.2673  0.2635
 4535WAT     H119945   5.609   2.213   0.758 -0.3207 -1.4843  0.3354
 4535WAT     H219946   5.559   2.281   0.884  0.7984 -0.5301  0.2821
 4535WAT    EPW19947   5.555   2.216   0.826 -0.3619 -0.4624  0.2755
 4536WAT      O19948   1.211   6.886   7.826  0.2701  0.2770  0.4868
 4536WAT     H119949   1.237   6.976   7.844 -0.0031  0.2658  0.9578
 4536WAT     H219950   1.240   6.836   7.903 -1.6712  0.3693  1.3483
 4536WAT    EPW19951   1.218   6.891   7.839 -0.0220  0.2875  0.6623
 4537WAT      O19952  10.040   5.801   8.007  0.2289  0.3362  0.5534
 4537WAT     H119953  10.091   5.836   7.933 -0.5229  0.8062  0.2417
 4537WAT     H219954   9.981   5.873   8.031 -0.7153 -0.4097  0.5031
 4537WAT    EPW19955  10.039   5.815   8.000  0.0057  0.2997  0.5054
 4538WAT      O19956   1.492   6.504   6.387  0.5336 -0.3193  0.3546
 4538WAT     H119957   1.519   6.552   6.309  0.6538 -1.1809 -0.1366
 4538WAT     H219958   1.539   6.548   6.459  2.8261 -1.3831 -0.3907
 4538WAT    EPW19959   1.502   6.516   6.386  0.8519 -0.5732  0.1915
 4539WAT      O19960   8.496   0.620   0.319 -0.6894 -0.0456 -0.0275
 4539WAT     H119961   8.572   0.655   0.365  2.2066 -0.7860 -3.7109
 4539WAT     H219962   8.453   0.697   0.281  0.0758  0.2090 -0.3978
 4539WAT    EPW19963   8.500   0.635   0.320 -0.2065 -0.1097 -0.5622
 4540WAT      O19964   0.177   4.994   7.717 -0.6736  0.1646 -0.1695
 4540WAT     H119965   0.124   4.985   7.796  2.5688 -1.2652  2.0347
 4540WAT     H219966   0.217   5.081   7.725  0.0780 -0.1992  0.0605
 4540WAT    EPW19967   0.175   5.005   7.728 -0.1468 -0.0720  0.1519
 4541WAT      O19968  10.856   9.913   8.405 -0.0664 -0.1606 -0.8003
 4541WAT     H119969  10.951   9.913   8.417  0.1216 -1.7085 -2.1009
 4541WAT     H219970  10.826   9.836   8.453 -0.9258  1.2210  1.0266
 4541WAT    EPW19971  10.865   9.903   8.413 -0.1550 -0.1822 -0.7310
 4542WAT      O19972   7.514   6.352   5.607  0.5072  0.5550 -0.4179
 4542WAT     H119973   7.561   6.269   5.599 -0.4137 -0.2050  1.5107
 4542WAT     H219974   7.534   6.399   5.525  0.6872 -1.7206 -1.7636
 4542WAT    EPW19975   7.523   6.348   5.595  0.4094  0.1547 -0.3409
 4543WAT      O19976   1.292   3.502   7.640 -0.6404  0.2881 -0.3151
 4543WAT     H119977   1.330   3.440   7.578  0.4926  0.0623  0.5577
 4543WAT     H219978   1.353   3.576   7.641 -0.8292  0.4461  0.2638
 4543WAT    EPW19979   1.305   3.504   7.632 -0.5159  0.2793 -0.1235
 4544WAT      O19980   0.510   4.414   6.381  0.2407 -0.1545  0.0492
 4544WAT     H119981   0.589   4.449   6.422  0.6010 -2.4570  1.4709
 4544WAT     H219982   0.501   4.464   6.300  1.0848  2.6665  1.5584
 4544WAT    EPW19983   0.519   4.426   6.376  0.3996 -0.0858  0.4358
 4545WAT      O19984   7.723   6.781   7.230  0.0237 -0.1528 -0.2552
 4545WAT     H119985   7.630   6.806   7.228  0.1917  0.5280  0.2893
 4545WAT     H219986   7.767   6.847   7.177  0.3169  0.0499  0.2358
 4545WAT    EPW19987   7.716   6.793   7.223  0.0846 -0.0362 -0.1187
 4546WAT      O19988   0.969   7.993   7.446 -0.2847 -0.1830 -0.3215
 4546WAT     H119989   1.030   7.932   7.404  0.7355  1.8165 -1.8870
 4546WAT     H219990   0.910   8.019   7.376 -0.1528  1.2982  0.0974
 4546WAT    EPW19991   0.969   7.988   7.432 -0.1328  0.2759 -0.4728
 4547WAT      O19992   1.121   7.422   8.659  0.3235 -0.4312  0.0410
 4547WAT     H119993   1.111   7.469   8.742 -0.3253  0.5914 -0.5971
 4547WAT     H219994   1.204   7.454   8.624 -0.0278  0.1151 -0.3054
 4547WAT    EPW19995   1.131   7.432   8.666  0.1916 -0.2239 -0.0887
 4548WAT      O19996   9.568   6.152   6.097 -0.8056  0.1649  0.1253
 4548WAT     H119997   9.569   6.232   6.149  0.4700  0.1975  0.0800
 4548WAT     H219998   9.652   6.151   6.051 -1.1606 -0.7606 -0.5615
 4548WAT    EPW19999   9.579   6.162   6.097 -0.6838  0.0470  0.0288
 4549WAT      O20000   7.817   7.036   6.830 -0.1591 -0.5270  0.2586
 4549WAT     H120001   7.796   7.027   6.923  0.1831  0.1503  0.4072
 4549WAT     H220002   7.747   7.090   6.794  0.2576  0.0904  0.3495
 4549WAT    EPW20003   7.805   7.042   6.838 -0.0591 -0.3560  0.2902
 4550WAT      O20004   7.905   6.415   8.936  0.4770 -0.6474 -0.4753
 4550WAT     H120005   7.890   6.394   8.844 -0.4606  1.5153 -0.8655
 4550WAT     H220006   7.944   6.502   8.935  2.3308 -1.3766  1.1272
 4550WAT    EPW20007   7.908   6.424   8.924  0.5980 -0.4587 -0.3157
 4551WAT      O20008   9.997   5.844   8.507 -0.0075 -0.0393 -0.5594
 4551WAT     H120009  10.007   5.939   8.509  2.9070 -0.2936 -0.0670
 4551WAT     H220010   9.946   5.824   8.586  1.4936  0.9547  0.7304
 4551WAT    EPW20011   9.991   5.854   8.518  0.5746  0.0584 -0.3247
 4552WAT      O20012   8.878   2.957   0.692  0.7586  0.1207  0.2785
 4552WAT     H120013   8.919   2.905   0.760  0.0447 -0.3572  0.3587
 4552WAT     H220014   8.914   2.923   0.610  1.1055  0.2357  0.3830
 4552WAT    EPW20015   8.888   2.946   0.690  0.7100  0.0727  0.3029
 4553WAT      O20016   8.868   7.438   5.479 -0.4724  0.6731 -0.4014
 4553WAT     H120017   8.904   7.491   5.550 -0.5922  2.7882 -1.8252
 4553WAT     H220018   8.844   7.501   5.412 -1.3755 -1.1608 -1.9025
 4553WAT    EPW20019   8.869   7.453   5.480 -0.6070  0.7102 -0.7870
 4554WAT      O20020  10.643   6.120   7.914 -0.1189  0.0257  0.2814
 4554WAT     H120021  10.640   6.207   7.874 -0.7018 -0.2751 -0.3377
 4554WAT     H220022  10.559   6.111   7.959 -0.2114 -0.3654  0.0297
 4554WAT    EPW20023  10.632   6.131   7.915 -0.2079 -0.0653  0.1664
 4555WAT      O20024   9.820   3.682   8.379 -0.5759 -0.0690  0.5069
 4555WAT     H120025   9.916   3.680   8.371 -0.4150  0.8425  1.9673
 4555WAT     H220026   9.796   3.590   8.391 -0.1165 -0.5620 -1.8029
 4555WAT    EPW20027   9.830   3.669   8.379 -0.4945 -0.0138  0.3948
 4556WAT      O20028   9.753   8.005   8.339  0.5158  0.6111  0.1770
 4556WAT     H120029   9.774   7.942   8.408 -1.1969  1.8147  1.8942
 4556WAT     H220030   9.836   8.021   8.295  1.3485 -1.4387  0.8516
 4556WAT    EPW20031   9.766   7.999   8.342  0.4001  0.4995  0.4921
 4557WAT      O20032   0.295   6.995   8.797 -0.6202  0.3291  0.4880
 4557WAT     H120033   0.367   6.949   8.839 -0.3107 -0.1705 -0.5626
 4557WAT     H220034   0.233   6.926   8.773 -0.4111  0.5013 -0.6005
 4557WAT    EPW20035   0.296   6.980   8.800 -0.5518  0.2861  0.2060
 4558WAT      O20036   8.168   7.798   8.632  0.6256 -0.2700  0.1251
 4558WAT     H120037   8.165   7.764   8.721 -2.8841  1.2013  0.7288
 4558WAT     H220038   8.099   7.751   8.586  0.2484  1.1937 -0.8912
 4558WAT    EPW20039   8.159   7.787   8.637  0.1130  0.1171  0.0706
 4559WAT      O20040   9.336   7.877   6.192 -0.4318  0.4526 -0.6572
 4559WAT     H120041   9.322   7.796   6.143  0.6835 -0.0774 -0.1332
 4559WAT     H220042   9.357   7.942   6.125  3.7463 -0.8344 -0.8422
 4559WAT    EPW20043   9.337   7.875   6.176  0.2666  0.2131 -0.6125
 4560WAT      O20044   6.229   3.953   0.758 -0.6303 -0.0652 -0.3313
 4560WAT     H120045   6.136   3.953   0.736 -0.9425  0.1004  0.9337
 4560WAT     H220046   6.253   4.046   0.762 -0.3834 -0.1075 -0.7015
 4560WAT    EPW20047   6.220   3.965   0.755 -0.6387 -0.0489 -0.2133
 4561WAT      O20048   7.702   5.645   5.586 -0.0836 -0.0699 -0.0626
 4561WAT     H120049   7.764   5.687   5.527  0.2987 -1.0051 -0.3451
 4561WAT     H220050   7.712   5.551   5.569 -1.9735 -0.2286 -0.5303
 4561WAT    EPW20051   7.711   5.638   5.576 -0.2823 -0.2139 -0.1616
 4562WAT      O20052   1.568   7.447   8.868  0.1678  0.3907  0.2696
 4562WAT     H120053   1.619   7.367   8.863  0.0290  0.3627 -1.4000
 4562WAT     H220054   1.560   7.476   8.777 -3.7050 -0.2157  0.2309
 4562WAT    EPW20055   1.574   7.441   8.855 -0.3613  0.3068  0.0439
 4563WAT      O20056   8.014   1.432   0.949 -0.1594 -0.5060  0.3200
 4563WAT     H120057   8.088   1.370   0.950 -0.1828 -0.7357 -2.8991
 4563WAT     H220058   7.950   1.392   0.891 -1.9756  0.6760  1.4249
 4563WAT    EPW20059   8.015   1.419   0.942 -0.4025 -0.3805  0.0412
 4564WAT      O20060   9.439   8.591   6.643 -0.0947 -0.9338 -0.0040
 4564WAT     H120061   9.452   8.620   6.553 -0.6554 -1.2441 -0.1872
 4564WAT     H220062   9.380   8.516   6.636  0.2596 -1.2750  0.5793
 4564WAT    EPW20063   9.433   8.585   6.630 -0.1225 -1.0200  0.0486
 4565WAT      O20064   4.141   4.478   0.942  0.7250 -0.4769  0.2511
 4565WAT     H120065   4.066   4.469   0.883 -0.6623 -3.4302  2.2292
 4565WAT     H220066   4.210   4.425   0.901  0.7840 -0.0828 -0.1649
 4565WAT    EPW20067   4.141   4.470   0.929  0.5496 -0.8147  0.4571
 4566WAT      O20068  10.157   4.925   5.374 -0.0479 -0.4295  0.5753
 4566WAT     H120069  10.143   4.831   5.364 -1.5737 -0.2977  1.2417
 4566WAT     H220070  10.105   4.949   5.451  1.1601  0.7809  1.0642
 4566WAT    EPW20071  10.149   4.916   5.383 -0.0901 -0.2522  0.7277
 4567WAT      O20072   8.387   3.120   0.676 -0.7832 -0.3060  0.5705
 4567WAT     H120073   8.465   3.162   0.713  0.3083 -1.2345 -0.5812
 4567WAT     H220074   8.358   3.180   0.607 -1.0251 -0.0219  0.9142
 4567WAT    EPW20075   8.393   3.134   0.672 -0.6709 -0.3911  0.4639
 4568WAT      O20076   9.711   7.679   8.265  0.5170  0.2258  0.0988
 4568WAT     H120077   9.721   7.773   8.251  4.8410  0.1537  1.2950
 4568WAT     H220078   9.774   7.639   8.204 -0.2222 -1.8165  0.5835
 4568WAT    EPW20079   9.721   7.686   8.255  0.9899 -0.0532  0.3209
 4569WAT      O20080  10.609   6.528   3.381  0.3734  0.1020 -0.4264
 4569WAT     H120081  10.557   6.603   3.353  0.8096  0.7974  0.5554
 4569WAT     H220082  10.565   6.452   3.343  0.5680  0.9174 -2.4027
 4569WAT    EPW20083  10.597   6.528   3.372  0.4568  0.3011 -0.5577
 4570WAT      O20084   8.206   9.039   8.726  0.5110 -0.0552 -0.0092
 4570WAT     H120085   8.137   9.026   8.791  2.0111 -2.2217  1.2853
 4570WAT     H220086   8.254   8.956   8.724  1.7595  0.6147 -2.4668
 4570WAT    EPW20087   8.204   9.027   8.734  0.8736 -0.2532 -0.1621
 4571WAT      O20088   0.178   8.310   8.946  0.1963  0.1904 -0.9821
 4571WAT     H120089   0.238   8.236   8.937  1.3135  1.2554 -3.1679
 4571WAT     H220090   0.207   8.356   9.025  0.7709 -0.5810 -0.7314
 4571WAT    EPW20091   0.190   8.306   8.955  0.4194  0.2291 -1.2373
 4572WAT      O20092   8.240   8.992   6.231  0.0546  0.5069 -0.3265
 4572WAT     H120093   8.263   8.900   6.216 -0.3803  0.2548  0.4993
 4572WAT     H220094   8.165   8.989   6.291  0.6975  1.4212  0.5684
 4572WAT    EPW20095   8.233   8.980   6.237  0.0825  0.5937 -0.0997
 4573WAT      O20096   8.980   3.720   6.445  0.2712 -0.0068 -0.6403
 4573WAT     H120097   9.002   3.800   6.397  0.3659  0.1512 -0.3379
 4573WAT     H220098   8.972   3.748   6.536  2.4271 -0.6957 -0.1820
 4573WAT    EPW20099   8.982   3.734   6.450  0.5684 -0.0768 -0.5400
 4574WAT      O20100   1.379   5.744   6.165 -0.3278  0.3707  0.1125
 4574WAT     H120101   1.472   5.725   6.159 -0.5499 -1.3172  1.5822
 4574WAT     H220102   1.361   5.798   6.087  1.5830 -0.3856 -0.9146
 4574WAT    EPW20103   1.389   5.749   6.154 -0.1051  0.0484  0.1709
 4575WAT      O20104   9.727   6.725   7.140 -0.0309  0.2902 -0.1931
 4575WAT     H120105   9.736   6.820   7.130  0.6043  0.4315  1.4812
 4575WAT     H220106   9.648   6.703   7.090 -0.2731  1.7154 -0.4781
 4575WAT    EPW20107   9.718   6.735   7.132  0.0210  0.4969 -0.0100
 4576WAT      O20108   0.106   6.881   5.756 -0.0995 -0.0751  0.0590
 4576WAT     H120109   0.195   6.914   5.769  0.2600  0.4862 -3.1629
 4576WAT     H220110   0.116   6.806   5.697 -1.6896 -0.7103  0.5400
 4576WAT    EPW20111   0.119   6.875   5.750 -0.2618 -0.0851 -0.3026
 4577WAT      O20112   3.987   2.396   0.671  0.3858 -0.3332  0.1025
 4577WAT     H120113   4.039   2.351   0.604 -0.5875 -0.2406 -0.7420
 4577WAT     H220114   4.045   2.462   0.707  0.7974 -0.0987 -0.9661
 4577WAT    EPW20115   4.001   2.399   0.667  0.3116 -0.2900 -0.1498
 4578WAT      O20116   8.508   4.935   8.328  0.3571  0.3506  0.1119
 4578WAT     H120117   8.582   4.926   8.388  1.1239 -0.0335 -0.8695
 4578WAT     H220118   8.448   4.865   8.354 -0.9709  2.2579  2.6465
 4578WAT    EPW20119   8.510   4.924   8.339  0.2832  0.5512  0.3171
 4579WAT      O20120  10.317   4.565   8.022  0.2285  0.4509 -0.7511
 4579WAT     H120121  10.324   4.564   8.118 -2.1649  0.2858 -0.5312
 4579WAT     H220122  10.301   4.474   7.998  0.3272  0.5649 -1.2675
 4579WAT    EPW20123  10.316   4.553   8.031 -0.0744  0.4444 -0.7901
 4580WAT      O20124   3.132   4.413   8.321  0.3068 -0.0033 -0.1114
 4580WAT     H120125   3.040   4.398   8.299  1.5111 -3.4903 -3.8013
 4580WAT     H220126   3.139   4.508   8.329 -3.7348  0.3572  1.6426
 4580WAT    EPW20127   3.121   4.424   8.319 -0.0675 -0.4158 -0.3667
 4581WAT      O20128   0.276   6.385   6.369  0.1411  1.0868  0.1058
 4581WAT     H120129   0.367   6.379   6.398 -0.0592 -2.2368  0.3537
 4581WAT     H220130   0.277   6.357   6.278 -0.8703 -1.5361  0.8201
 4581WAT    EPW20131   0.288   6.381   6.361 -0.0187  0.3028  0.2329
 4582WAT      O20132  10.727   6.106   4.632 -0.6057 -0.0867 -0.3187
 4582WAT     H120133  10.682   6.184   4.665  0.9145  0.3136  0.9342
 4582WAT     H220134  10.813   6.138   4.606  0.2545 -1.4087  0.7457
 4582WAT    EPW20135  10.732   6.121   4.633 -0.2918 -0.2084 -0.0131
 4583WAT      O20136   5.878   1.982   0.050 -0.0674  0.4183 -0.1102
 4583WAT     H120137   5.914   1.898   0.078  1.4625  1.4314  1.1131
 4583WAT     H220138   5.829   1.961  -0.029  2.9154 -1.1809 -1.7230
 4583WAT    EPW20139   5.877   1.968   0.043  0.5279  0.3410 -0.1616
 4584WAT      O20140   8.584   9.189   6.947 -0.6491 -0.8071  0.1730
 4584WAT     H120141   8.595   9.135   7.025 -1.2637  0.0722  0.8945
 4584WAT     H220142   8.673   9.204   6.915 -0.2974 -0.2855  1.3435
 4584WAT    EPW20143   8.597   9.184   6.953 -0.6843 -0.6223  0.4222
 4585WAT      O20144   0.461   8.930   7.009  0.0401 -0.2313  0.3404
 4585WAT     H120145   0.444   8.997   7.074  0.5018  1.1236 -0.8811
 4585WAT     H220146   0.549   8.898   7.029  0.8011  1.2401 -0.4451
 4585WAT    EPW20147   0.471   8.934   7.020  0.2014  0.1411  0.0753
 4586WAT      O20148   4.985   7.206   7.853  0.4596 -0.1902  0.3547
 4586WAT     H120149   4.915   7.250   7.901 -0.6564 -2.4097  0.9017
 4586WAT     H220150   5.057   7.199   7.915  0.5376  0.5298  0.3561
 4586WAT    EPW20151   4.985   7.211   7.867  0.3231 -0.3879  0.4272
 4587WAT      O20152  10.699  10.005   5.987  0.1514  0.1108  0.3946
 4587WAT     H120153  10.717   9.920   5.946  2.1198  1.0228 -0.8073
 4587WAT     H220154  10.760  10.009   6.061  1.5459  1.2536 -0.7674
 4587WAT    EPW20155  10.709   9.994   5.991  0.5951  0.3819  0.0827
 4588WAT      O20156   2.062   8.401   8.695  0.0061 -0.2172 -0.5938
 4588WAT     H120157   2.147   8.389   8.653 -0.0315  1.9015 -1.4314
 4588WAT     H220158   2.044   8.495   8.684 -1.6853 -0.3062  1.0201
 4588WAT    EPW20159   2.071   8.412   8.688 -0.2218  0.0501 -0.4911
 4589WAT      O20160   2.448   1.089   8.319 -0.4464  0.0859  0.3343
 4589WAT     H120161   2.510   1.121   8.253 -1.4437  0.2069 -0.5947
 4589WAT     H220162   2.480   1.003   8.343  0.1615  0.2060 -0.0224
 4589WAT    EPW20163   2.460   1.082   8.313 -0.4977  0.1177  0.1640
 4590WAT      O20164  10.213   7.070   6.130  0.3659  0.7158  0.9350
 4590WAT     H120165  10.121   7.076   6.157  0.0757 -1.2895  0.5501
 4590WAT     H220166  10.252   7.008   6.192  0.6901 -0.7737 -0.6822
 4590WAT    EPW20167  10.206   7.063   6.142  0.3700  0.2546  0.6711
 4591WAT      O20168   7.677   5.565   4.843  0.3011  0.0565  0.0561
 4591WAT     H120169   7.686   5.510   4.766  3.1442 -0.5598  0.6993
 4591WAT     H220170   7.713   5.650   4.816 -3.4408  1.6071 -0.7303
 4591WAT    EPW20171   7.683   5.569   4.829  0.1826  0.1798  0.0370
 4592WAT      O20172   0.086   8.742   8.169  0.4503 -0.0741 -0.1261
 4592WAT     H120173   0.014   8.688   8.203  0.7270 -0.8661 -0.7867
 4592WAT     H220174   0.064   8.756   8.077  0.4713  0.8063 -0.0081
 4592WAT    EPW20175   0.073   8.737   8.161  0.4896 -0.0625 -0.1984
 4593WAT      O20176  10.909   5.585   6.580 -0.5695  0.4665 -0.9816
 4593WAT     H120177  10.851   5.565   6.507 -0.7773  0.0406 -0.7048
 4593WAT     H220178  10.976   5.643   6.543  1.4601 -2.5467 -2.4161
 4593WAT    EPW20179  10.910   5.590   6.566 -0.3295  0.0129 -1.1342
 4594WAT      O20180  10.526   8.902   8.551  0.6556 -0.0960  0.2178
 4594WAT     H120181  10.608   8.855   8.562  1.2049  0.0719 -2.4683
 4594WAT     H220182  10.489   8.867   8.470 -2.1603 -0.4582  1.5434
 4594WAT    EPW20183  10.532   8.891   8.541  0.3567 -0.1216  0.0386
 4595WAT      O20184   9.241   8.798   7.738  0.8222 -0.0903 -1.2970
 4595WAT     H120185   9.267   8.869   7.796  2.7689 -1.0780 -0.8963
 4595WAT     H220186   9.215   8.727   7.797  1.0408 -0.4679 -1.6479
 4595WAT    EPW20187   9.241   8.798   7.753  1.1077 -0.2699 -1.2903
 4596WAT      O20188   9.436   8.720   6.872  0.3293  0.7067 -0.7920
 4596WAT     H120189   9.457   8.677   6.789 -3.1588 -0.0566 -1.4417
 4596WAT     H220190   9.380   8.794   6.847 -3.7184 -1.4720  0.7983
 4596WAT    EPW20191   9.431   8.724   6.858 -0.6642  0.3185 -0.6678
 4597WAT      O20192   3.911   5.727   3.380 -0.1830  0.0045  0.1763
 4597WAT     H120193   3.994   5.775   3.389  1.0410 -2.3497  2.6792
 4597WAT     H220194   3.862   5.749   3.458 -0.3578 -1.3577  0.4774
 4597WAT    EPW20195   3.916   5.736   3.391 -0.0447 -0.4857  0.5462
 4598WAT      O20196   6.344   1.071   0.681  0.2317  0.0932  0.6662
 4598WAT     H120197   6.324   0.977   0.688  0.8246 -0.0114  1.0523
 4598WAT     H220198   6.440   1.075   0.680  0.2354  0.5765 -1.1913
 4598WAT    EPW20199   6.354   1.059   0.682  0.3104  0.1432  0.4721
 4599WAT      O20200   9.745   6.201   5.205  0.4885  0.3537 -0.5155
 4599WAT     H120201   9.801   6.124   5.216 -0.2252 -0.1940 -0.6066
 4599WAT     H220202   9.658   6.171   5.231  0.4155  1.4779  0.6225
 4599WAT    EPW20203   9.741   6.186   5.210  0.3843  0.4296 -0.3769
 4600WAT      O20204   6.861   4.460   0.064  0.0218  0.3590 -0.6626
 4600WAT     H120205   6.820   4.517  -0.001 -0.5774  0.8132  0.0852
 4600WAT     H220206   6.954   4.483   0.062 -0.2035  1.3310 -0.4236
 4600WAT    EPW20207   6.868   4.471   0.055 -0.0868  0.5469 -0.5325
 4601WAT      O20208  10.463   9.661   6.595  0.0807  0.2904  0.5328
 4601WAT     H120209  10.477   9.719   6.520  2.9886  3.1041  2.9487
 4601WAT     H220210  10.516   9.584   6.575  1.5865  1.3968  0.0171
 4601WAT    EPW20211  10.472   9.659   6.582  0.6628  0.8073  0.7832
 4602WAT      O20212   9.294   5.508   0.593  0.3307  0.2089  0.1267
 4602WAT     H120213   9.225   5.451   0.559  1.5512 -0.9913 -0.4685
 4602WAT     H220214   9.369   5.490   0.537  0.6692  2.7603 -0.3382
 4602WAT    EPW20215   9.295   5.498   0.581  0.5360  0.3870 -0.0131
 4603WAT      O20216   1.097   8.341   2.854  0.5549 -0.0359  0.4290
 4603WAT     H120217   1.081   8.414   2.914  0.6045 -0.1508  0.5846
 4603WAT     H220218   1.173   8.297   2.891  1.7466  0.9585 -0.7279
 4603WAT    EPW20219   1.105   8.345   2.867  0.7186  0.0806  0.2968
 4604WAT      O20220   9.099   7.587   8.552 -0.4193 -0.0015 -0.2213
 4604WAT     H120221   9.144   7.660   8.595  0.7940 -1.6381  1.4134
 4604WAT     H220222   9.156   7.564   8.479 -1.0585  0.9429 -1.0597
 4604WAT    EPW20223   9.112   7.594   8.548 -0.3438 -0.0930 -0.1163
 4605WAT      O20224   9.319   7.794   5.611  0.4432  0.7666 -0.2106
 4605WAT     H120225   9.348   7.871   5.563  1.0576  0.2798 -0.6336
 4605WAT     H220226   9.366   7.721   5.571  0.3433  0.2455  0.5832
 4605WAT    EPW20227   9.329   7.795   5.600  0.5112  0.6335 -0.1619
 4606WAT      O20228   9.080   4.478   4.909 -0.0574  0.0376 -0.8844
 4606WAT     H120229   9.126   4.558   4.934  2.3748 -1.5055 -0.1629
 4606WAT     H220230   9.139   4.434   4.848  0.4987 -3.0085  1.6344
 4606WAT    EPW20231   9.094   4.483   4.904  0.3362 -0.5677 -0.4568
 4607WAT      O20232   5.619   2.130   3.447 -0.2543 -0.2725 -0.2621
 4607WAT     H120233   5.569   2.211   3.432  2.3233  1.2899 -1.0613
 4607WAT     H220234   5.660   2.144   3.533  0.8893 -0.3132 -0.7860
 4607WAT    EPW20235   5.618   2.143   3.456  0.2365 -0.0719 -0.4365
 4608WAT      O20236   9.573   8.792   8.884 -0.6021 -0.1356 -0.5669
 4608WAT     H120237   9.639   8.822   8.822  1.1559 -4.6916 -1.2086
 4608WAT     H220238   9.619   8.786   8.967 -1.1784 -0.1552 -0.2420
 4608WAT    EPW20239   9.587   8.795   8.887 -0.4458 -0.7391 -0.6094
 4609WAT      O20240   4.172   8.965   2.018  0.1753  0.3008 -0.1241
 4609WAT     H120241   4.219   9.024   2.077  0.4566  0.7531 -0.7811
 4609WAT     H220242   4.087   8.951   2.059  1.5196 -2.1562  2.1671
 4609WAT    EPW20243   4.167   8.971   2.031  0.3898  0.0367  0.0914
 4610WAT      O20244   1.368   5.590   4.895  0.8582  0.5749  0.3166
 4610WAT     H120245   1.327   5.540   4.824  1.1945  0.3439  0.2796
 4610WAT     H220246   1.312   5.575   4.971  0.0822  1.4186 -0.0668
 4610WAT    EPW20247   1.355   5.581   4.895  0.8002  0.6559  0.2611
 4611WAT      O20248  10.895   9.244   8.210 -0.1557 -0.3212 -0.0872
 4611WAT     H120249  10.863   9.216   8.296 -0.3080 -2.8955 -0.9048
 4611WAT     H220250  10.984   9.276   8.226  0.4836 -2.3939  0.8368
 4611WAT    EPW20251  10.902   9.244   8.223 -0.0916 -0.9341 -0.0739
 4612WAT      O20252   6.288   1.526   0.654 -0.1695  0.4346 -0.4156
 4612WAT     H120253   6.249   1.439   0.643  2.9944 -1.6535  2.9008
 4612WAT     H220254   6.271   1.548   0.745  2.9166  1.1555  0.0698
 4612WAT    EPW20255   6.281   1.517   0.665  0.6547  0.2543  0.0858
 4613WAT      O20256   1.328  10.173   5.862  0.7782  0.6724  0.1125
 4613WAT     H120257   1.328  10.078   5.873  5.4931  0.4043 -0.3810
 4613WAT     H220258   1.236  10.197   5.870 -0.6693 -3.8814  0.2662
 4613WAT    EPW20259   1.316  10.164   5.864  1.2091  0.0362  0.0677
 4614WAT      O20260   9.105   6.912   7.626  0.8184 -0.0679  0.2705
 4614WAT     H120261   9.033   6.965   7.659 -0.5270  0.9869 -3.8135
 4614WAT     H220262   9.063   6.834   7.589  1.8144  0.0321 -1.1781
 4614WAT    EPW20263   9.090   6.909   7.625  0.7730  0.0844 -0.4592
 4615WAT      O20264   7.156   4.551   0.119 -0.0053  0.3425  0.1237
 4615WAT     H120265   7.134   4.584   0.031 -0.8898 -0.6009 -0.0365
 4615WAT     H220266   7.203   4.623   0.160 -0.0260  1.0020 -0.9462
 4615WAT    EPW20267   7.159   4.565   0.113 -0.1245  0.3049 -0.0385
 4616WAT      O20268  10.112   1.005   0.904 -0.6191  0.2466 -0.2130
 4616WAT     H120269  10.109   0.941   0.975 -0.7506 -0.4837 -0.8651
 4616WAT     H220270  10.142   1.086   0.946 -4.2533  0.9297  1.4771
 4616WAT    EPW20271  10.115   1.008   0.919 -1.1158  0.2404 -0.0762
 4617WAT      O20272   4.193   2.010   4.496 -0.3542  0.3595  0.0195
 4617WAT     H120273   4.220   1.921   4.516  0.0890  0.0540 -1.8100
 4617WAT     H220274   4.098   2.009   4.504 -0.5339 -0.7914 -1.8222
 4617WAT    EPW20275   4.184   1.998   4.500 -0.3197  0.1674 -0.4647
 4618WAT      O20276   5.651   2.422   1.240 -0.7153 -0.6813  0.2603
 4618WAT     H120277   5.623   2.398   1.151 -1.7578  0.1629  0.3381
 4618WAT     H220278   5.723   2.362   1.259 -2.2561 -2.7707 -0.0918
 4618WAT    EPW20279   5.657   2.411   1.231 -1.0562 -0.8454  0.2241
 4619WAT      O20280   8.578   1.187   3.001 -0.4244 -0.2904  0.1487
 4619WAT     H120281   8.573   1.270   3.049 -4.1969 -0.2000 -0.1161
 4619WAT     H220282   8.598   1.122   3.068 -0.2737  0.4991  0.8866
 4619WAT    EPW20283   8.580   1.189   3.016 -0.9017 -0.1743  0.2111
 4620WAT      O20284   9.056   6.522   6.241  0.0021 -0.0571 -0.7171
 4620WAT     H120285   9.124   6.461   6.271 -0.3444 -0.0832  0.0566
 4620WAT     H220286   9.100   6.606   6.234  0.2260 -0.1705 -0.6808
 4620WAT    EPW20287   9.070   6.525   6.244 -0.0138 -0.0751 -0.6104
 4621WAT      O20288  10.991   6.954   7.419 -0.3679 -0.2215  0.6903
 4621WAT     H120289  10.948   6.982   7.500  1.4619  1.0687  1.2792
 4621WAT     H220290  11.061   6.896   7.447  0.2271  0.1629  0.0476
 4621WAT    EPW20291  10.994   6.950   7.433 -0.0477 -0.0007  0.6828
 4622WAT      O20292   2.594   1.487   7.730 -0.4554 -0.1414  0.3933
 4622WAT     H120293   2.635   1.570   7.706  0.6002  0.2008  3.0185
 4622WAT     H220294   2.508   1.489   7.689 -1.5290  3.4601  2.4170
 4622WAT    EPW20295   2.588   1.498   7.721 -0.4578  0.3788  1.0066
 4623WAT      O20296   4.119   2.562   8.637  0.6234  0.1455 -0.1042
 4623WAT     H120297   4.122   2.468   8.657  1.1998 -0.0558 -1.0799
 4623WAT     H220298   4.180   2.573   8.564 -1.9616  0.6641 -2.3603
 4623WAT    EPW20299   4.127   2.551   8.630  0.3586  0.1872 -0.5302
 4624WAT      O20300  10.045   7.679   5.987 -0.4265 -0.3397 -0.2176
 4624WAT     H120301  10.102   7.659   6.061 -1.0783  0.1159  0.4247
 4624WAT     H220302   9.957   7.673   6.023 -0.8067 -1.2556 -1.2503
 4624WAT    EPW20303  10.041   7.676   6.002 -0.5622 -0.4001 -0.2689
 4625WAT      O20304   7.781   5.829   5.872  0.4705  0.3447  0.5077
 4625WAT     H120305   7.857   5.790   5.916  0.2021 -1.2689 -0.3803
 4625WAT     H220306   7.715   5.837   5.942  0.9350  0.2875  0.9571
 4625WAT    EPW20307   7.782   5.825   5.887  0.4964  0.1245  0.4497
 4626WAT      O20308   7.862   8.529   7.764  0.3037  0.8162  0.6003
 4626WAT     H120309   7.832   8.480   7.687  0.5191  3.1328 -1.0665
 4626WAT     H220310   7.807   8.497   7.836  0.1631 -1.4987 -0.4661
 4626WAT    EPW20311   7.851   8.519   7.763  0.3135  0.8163  0.2398
 4627WAT      O20312   7.359   9.240   8.442 -0.4305  0.5367  0.0784
 4627WAT     H120313   7.315   9.309   8.492 -1.9284  0.5353 -1.1594
 4627WAT     H220314   7.395   9.286   8.366 -1.6328 -0.0367 -0.8717
 4627WAT    EPW20315   7.358   9.255   8.438 -0.7868  0.4611 -0.2098
 4628WAT      O20316   7.131   4.681   1.017  0.0984 -1.2857  0.0434
 4628WAT     H120317   7.106   4.687   1.109  2.0827 -1.7753  0.6571
 4628WAT     H220318   7.086   4.602   0.985  0.6811 -2.0611  1.0620
 4628WAT    EPW20319   7.122   4.671   1.025  0.4370 -1.4522  0.2587
 4629WAT      O20320   7.570   2.068   4.007  0.9492 -0.3728  0.5036
 4629WAT     H120321   7.620   2.086   3.927  1.4605 -0.2130  0.8569
 4629WAT     H220322   7.515   2.146   4.019  2.1774  0.3902  1.2879
 4629WAT    EPW20323   7.569   2.081   3.998  1.1785 -0.2511  0.6536
 4630WAT      O20324  10.017  10.069   4.049  0.2104 -0.0427 -0.1003
 4630WAT     H120325   9.952  10.010   4.011 -0.1232  0.1974  0.1017
 4630WAT     H220326  10.058  10.111   3.974  0.4047 -0.4797 -0.2441
 4630WAT    EPW20327  10.014  10.067   4.034  0.1922 -0.0687 -0.0927
 4631WAT      O20328  10.720   7.817   8.598 -0.2495 -0.1796  0.2698
 4631WAT     H120329  10.786   7.763   8.557 -0.2258 -0.3284  0.5016
 4631WAT     H220330  10.638   7.769   8.584 -0.7710  1.2993 -2.4213
 4631WAT    EPW20331  10.718   7.804   8.591 -0.3147 -0.0041 -0.0544
 4632WAT      O20332  10.144   9.038   8.921  0.0830  0.2086  0.7023
 4632WAT     H120333  10.236   9.026   8.895  0.2377  0.2589  1.2152
 4632WAT     H220334  10.128   8.969   8.985 -0.4014 -0.1316  0.2271
 4632WAT    EPW20335  10.154   9.027   8.926  0.0396  0.1702  0.7076
 4633WAT      O20336   8.400   6.976   5.740 -0.2614  0.0055 -0.1824
 4633WAT     H120337   8.375   7.051   5.793 -2.0389 -1.7190  1.5803
 4633WAT     H220338   8.465   6.930   5.793  1.6176  0.7767 -1.7065
 4633WAT    EPW20339   8.405   6.980   5.754 -0.2480 -0.1204 -0.1509
 4634WAT      O20340   6.586   0.340   1.253  0.4376 -0.1605 -0.3264
 4634WAT     H120341   6.620   0.427   1.274  0.3979 -0.8224  3.0768
 4634WAT     H220342   6.496   0.342   1.284  0.7099 -1.6286  0.6776
 4634WAT    EPW20343   6.579   0.351   1.260  0.4683 -0.4414  0.2548
 4635WAT      O20344   8.790   9.378   7.714  0.0553  0.6197  0.7457
 4635WAT     H120345   8.779   9.320   7.790 -2.0626  0.8880  0.7127
 4635WAT     H220346   8.770   9.465   7.748  3.1491  1.4281  0.7779
 4635WAT    EPW20347   8.785   9.381   7.729  0.1836  0.7625  0.7458
 4636WAT      O20348   9.743   8.816   8.631  0.7041 -0.4733  0.1921
 4636WAT     H120349   9.713   8.759   8.560 -0.4616  0.5197 -0.1406
 4636WAT     H220350   9.839   8.810   8.627  0.6733 -0.2795 -1.6184
 4636WAT    EPW20351   9.752   8.807   8.621  0.5460 -0.3171 -0.0906
 4637WAT      O20352   1.146   9.134   8.502  0.3187  0.5821 -0.3107
 4637WAT     H120353   1.111   9.215   8.464 -2.9723 -0.2144  0.7391
 4637WAT     H220354   1.103   9.127   8.587  0.6726 -2.1685 -0.2787
 4637WAT    EPW20355   1.136   9.144   8.508 -0.0686  0.1144 -0.1678
 4638WAT      O20356   7.129   3.493   3.144  0.6836  0.1541  0.1897
 4638WAT     H120357   7.048   3.450   3.173  1.8657 -1.4258  1.2652
 4638WAT     H220358   7.133   3.474   3.050  1.1017 -2.1131  0.5923
 4638WAT    EPW20359   7.119   3.485   3.135  0.8945 -0.3532  0.3847
 4639WAT      O20360   9.541   3.842   0.082 -0.4901 -0.0470 -0.5144
 4639WAT     H120361   9.503   3.910   0.026 -0.3889  1.6527  1.3874
 4639WAT     H220362   9.466   3.802   0.126 -0.4778 -0.5972 -0.9781
 4639WAT    EPW20363   9.526   3.846   0.080 -0.4754  0.1047 -0.3247
 4640WAT      O20364  10.014   7.127   7.602  0.0467 -0.6143  0.6394
 4640WAT     H120365   9.931   7.140   7.648 -0.3537  1.4595 -0.5472
 4640WAT     H220366  10.068   7.203   7.627  0.9367 -1.0344  0.0553
 4640WAT    EPW20367  10.010   7.139   7.611  0.1111 -0.3960  0.4058
 4641WAT      O20368   7.510   8.324   6.394 -0.1513 -0.6282  0.1701
 4641WAT     H120369   7.578   8.273   6.437 -0.4633 -0.5020  0.8325
 4641WAT     H220370   7.535   8.415   6.408 -2.3234 -0.3733  3.8052
 4641WAT    EPW20371   7.522   8.330   6.401 -0.4790 -0.5779  0.7372
 4642WAT      O20372   6.836   2.934   0.012  0.1140  0.0710  0.3317
 4642WAT     H120373   6.921   2.975   0.030  0.7982 -2.0338  2.3785
 4642WAT     H220374   6.829   2.936  -0.084  0.9393  3.1247  0.2454
 4642WAT    EPW20375   6.846   2.939   0.002  0.3133  0.1960  0.5903
 4643WAT      O20376  10.164   7.568   5.278 -0.6184  0.2702 -0.1528
 4643WAT     H120377  10.161   7.645   5.220  2.8342  0.6057 -0.0986
 4643WAT     H220378  10.169   7.605   5.366  2.3710  0.1991 -0.1807
 4643WAT    EPW20379  10.164   7.583   5.282  0.2317  0.3054 -0.1495
 4644WAT      O20380  10.606   6.679   8.962  0.5316  0.1053 -0.6610
 4644WAT     H120381  10.520   6.662   9.002 -0.2927 -0.2938 -2.5133
 4644WAT     H220382  10.610   6.774   8.953 -0.0484  0.0857 -1.2189
 4644WAT    EPW20383  10.595   6.689   8.966  0.3462  0.0501 -0.9789
 4645WAT      O20384   8.758   5.688   1.871  0.6413  0.4159 -0.7830
 4645WAT     H120385   8.678   5.672   1.921  2.4297 -2.0294  1.6059
 4645WAT     H220386   8.774   5.782   1.881 -0.5330  0.4702  0.9912
 4645WAT    EPW20387   8.750   5.698   1.879  0.7224  0.1004 -0.2339
 4646WAT      O20388   6.990   3.686   2.434  0.1518  0.0140 -1.0502
 4646WAT     H120389   6.960   3.722   2.518  1.1741  0.7832 -0.9850
 4646WAT     H220390   6.923   3.623   2.409 -1.4926  1.6353 -0.9188
 4646WAT    EPW20391   6.978   3.683   2.442  0.0699  0.3293 -1.0242
 4647WAT      O20392   7.634   2.883   0.503 -0.3281  0.1572  0.4393
 4647WAT     H120393   7.710   2.841   0.462 -1.3896 -0.5515 -0.8928
 4647WAT     H220394   7.666   2.914   0.587  0.3945 -3.8400  1.8246
 4647WAT    EPW20395   7.648   2.882   0.508 -0.3729 -0.4634  0.4463
 4648WAT      O20396   0.195  10.042   7.450  0.5794 -0.1627  0.3394
 4648WAT     H120397   0.161  10.120   7.406 -0.3271 -0.9487 -0.4255
 4648WAT     H220398   0.163  10.049   7.540  0.1116  0.1285  0.1552
 4648WAT    EPW20399   0.186  10.053   7.456  0.3981 -0.2284  0.2143
 4649WAT      O20400  10.423   8.724   3.191  0.3298 -0.8065  0.1968
 4649WAT     H120401  10.386   8.725   3.279  0.1978 -1.4214  0.1469
 4649WAT     H220402  10.463   8.638   3.182  0.1934 -0.8148 -0.4083
 4649WAT    EPW20403  10.424   8.713   3.201  0.2942 -0.8888  0.1104
 4650WAT      O20404  10.143   5.964   2.579  0.4944  0.1110 -0.3432
 4650WAT     H120405  10.126   6.058   2.587  2.4528  0.6235 -1.5144
 4650WAT     H220406  10.236   5.954   2.602  0.9363 -1.1654 -2.3936
 4650WAT    EPW20407  10.153   5.975   2.583  0.8111  0.0100 -0.7683
 4651WAT      O20408   7.333   0.796   2.322  0.2475 -0.2902  0.0323
 4651WAT     H120409   7.262   0.820   2.263  0.9007 -1.3733 -1.2553
 4651WAT     H220410   7.298   0.813   2.410 -1.1165  0.4133 -0.6122
 4651WAT    EPW20411   7.319   0.801   2.326  0.1538 -0.3403 -0.2224
 4652WAT      O20412   8.850  10.330   4.751  0.2181  0.3765 -0.2548
 4652WAT     H120413   8.820  10.416   4.782  0.3879 -0.0348  1.1212
 4652WAT     H220414   8.909  10.350   4.678 -1.0756  1.3327 -1.0932
 4652WAT    EPW20415   8.854  10.344   4.745  0.0696  0.4487 -0.1841
 4653WAT      O20416   7.942   7.485   6.908 -0.3638  0.4212 -0.5533
 4653WAT     H120417   7.972   7.466   6.819 -1.0056  0.7601 -0.8500
 4653WAT     H220418   7.919   7.578   6.906 -0.1106  0.5046  0.0480
 4653WAT    EPW20419   7.943   7.495   6.896 -0.4151  0.4771 -0.5131
 4654WAT      O20420   7.903   2.428   0.282 -0.5248  0.0632 -0.0486
 4654WAT     H120421   7.982   2.374   0.277 -1.1203 -0.8524  0.3297
 4654WAT     H220422   7.832   2.366   0.296 -1.0079  1.0810  2.4221
 4654WAT    EPW20423   7.904   2.413   0.283 -0.6669  0.0767  0.3272
 4655WAT      O20424   6.315   2.650   1.116 -0.4338  0.3065 -0.3409
 4655WAT     H120425   6.240   2.604   1.078 -2.2313  3.9793 -1.7741
 4655WAT     H220426   6.279   2.693   1.194  0.4795  1.1980 -0.3878
 4655WAT    EPW20427   6.300   2.649   1.121 -0.5505  0.9086 -0.5361
 4656WAT      O20428   9.665   7.946   4.450  0.0576  0.2148 -0.6099
 4656WAT     H120429   9.680   8.041   4.450  0.6861  0.1203 -0.4184
 4656WAT     H220430   9.711   7.914   4.373  0.9455 -0.0911  0.0316
 4656WAT    EPW20431   9.673   7.955   4.440  0.2575  0.1621 -0.5000
 4657WAT      O20432   4.931  10.344   6.245  0.2402 -0.0670  0.5480
 4657WAT     H120433   5.008  10.400   6.240  0.8118 -0.7505  1.4318
 4657WAT     H220434   4.879  10.382   6.316 -1.0344  1.3088 -1.0153
 4657WAT    EPW20435   4.934  10.356   6.253  0.1478  0.0242  0.4585
 4658WAT      O20436   9.867   3.532   2.099 -0.4131  0.0143 -0.0124
 4658WAT     H120437   9.775   3.512   2.084  0.4386 -1.6787 -4.6835
 4658WAT     H220438   9.906   3.449   2.126  0.1000  0.1920 -0.1903
 4658WAT    EPW20439   9.860   3.519   2.101 -0.2332 -0.1856 -0.6518
 4659WAT      O20440   8.015   6.166   0.132  0.1304  0.2722 -0.5147
 4659WAT     H120441   7.949   6.146   0.066 -0.3929 -0.6135  0.2542
 4659WAT     H220442   7.970   6.222   0.196  0.5903  0.9984 -0.8114
 4659WAT    EPW20443   8.000   6.171   0.132  0.1216  0.2511 -0.4525
 4660WAT      O20444   9.231   9.816   8.585 -0.0230 -1.1958  0.1388
 4660WAT     H120445   9.284   9.813   8.505  1.2750 -1.6846  0.9939
 4660WAT     H220446   9.144   9.788   8.557 -0.4533  1.6126 -1.7336
 4660WAT    EPW20447   9.226   9.812   8.571  0.0920 -0.8898  0.0048
 4661WAT      O20448   2.442  10.152   6.641  0.8610 -0.3536  0.1333
 4661WAT     H120449   2.421  10.079   6.583  4.3998 -0.8893 -0.7148
 4661WAT     H220450   2.528  10.130   6.677  1.4115  2.7172  0.9920
 4661WAT    EPW20451   2.451  10.140   6.638  1.4004 -0.0196  0.1347
 4662WAT      O20452  10.847   9.584   5.464  0.2044 -0.1256 -0.2109
 4662WAT     H120453  10.822   9.665   5.508  1.2258 -0.0939  0.3492
 4662WAT     H220454  10.785   9.576   5.391  0.6002  1.5799 -0.7746
 4662WAT    EPW20455  10.835   9.594   5.460  0.3910  0.1030 -0.2112
 4663WAT      O20456   3.632   1.773   5.627  0.0436 -0.7756 -0.6389
 4663WAT     H120457   3.587   1.822   5.558  1.6966 -2.0452 -2.7478
 4663WAT     H220458   3.572   1.701   5.648 -0.4254 -0.4564 -0.8556
 4663WAT    EPW20459   3.618   1.770   5.620  0.1997 -0.9009 -0.9456
 4664WAT      O20460   4.023   9.189   4.315  0.6197  0.2233  0.5777
 4664WAT     H120461   4.039   9.221   4.227 -1.7443  1.3916  0.4724
 4664WAT     H220462   4.032   9.266   4.371  1.1069 -0.2911  1.2241
 4664WAT    EPW20463   4.026   9.203   4.311  0.3719  0.3099  0.6490
 4665WAT      O20464   7.697   0.775   5.287  0.0515  0.2430 -0.2735
 4665WAT     H120465   7.699   0.785   5.192 -2.3400 -0.2939 -0.4305
 4665WAT     H220466   7.777   0.726   5.308  0.3349 -0.1033 -2.0628
 4665WAT    EPW20467   7.708   0.770   5.278 -0.2265  0.1265 -0.5302
 4666WAT      O20468   6.691   3.277   6.794  0.2380 -0.3520  1.2195
 4666WAT     H120469   6.638   3.294   6.716  1.3852  0.6019  0.6067
 4666WAT     H220470   6.628   3.269   6.865 -0.7229  3.4566  1.0156
 4666WAT    EPW20471   6.676   3.278   6.793  0.2625  0.2762  1.1120
 4667WAT      O20472   7.084   0.738   6.711 -0.3980  0.0195  0.0423
 4667WAT     H120473   7.107   0.825   6.680  0.2878 -0.4170 -0.6918
 4667WAT     H220474   7.125   0.678   6.649 -2.3354 -0.8199 -0.5107
 4667WAT    EPW20475   7.092   0.742   6.699 -0.5634 -0.1488 -0.1276
 4668WAT      O20476   8.411   7.792   0.009  0.0587  0.4859 -0.1307
 4668WAT     H120477   8.392   7.720   0.068  0.7096  0.3781 -0.0448
 4668WAT     H220478   8.337   7.853   0.020 -0.3863 -0.0638 -0.0543
 4668WAT    EPW20479   8.399   7.791   0.018  0.0858  0.3989 -0.1093
 4669WAT      O20480   8.982   1.115   7.101 -0.2859 -0.1176 -0.0688
 4669WAT     H120481   9.029   1.197   7.115  0.2138 -0.4786  0.4119
 4669WAT     H220482   9.003   1.062   7.178 -0.4959 -0.7453 -0.4359
 4669WAT    EPW20483   8.991   1.119   7.113 -0.2475 -0.2480 -0.0539
 4670WAT      O20484   6.512   3.428   8.566 -0.4379  0.0376 -0.0075
 4670WAT     H120485   6.498   3.520   8.588 -1.5084  0.3852 -1.9225
 4670WAT     H220486   6.524   3.385   8.651  0.7508  2.0126  0.9050
 4670WAT    EPW20487   6.512   3.434   8.580 -0.4225  0.3439 -0.1388
 4671WAT      O20488   5.715   1.483   1.169  0.3533 -0.6957 -0.0937
 4671WAT     H120489   5.679   1.490   1.080  0.4800 -0.8533 -0.1589
 4671WAT     H220490   5.643   1.448   1.221 -0.0353  0.3235  0.0748
 4671WAT    EPW20491   5.701   1.479   1.164  0.3188 -0.5821 -0.0800
 4672WAT      O20492   9.541   5.002   7.158  0.0266  0.1189 -0.2363
 4672WAT     H120493   9.555   5.092   7.186 -0.5284  0.6795 -1.6511
 4672WAT     H220494   9.617   4.981   7.104  0.2148 -0.3103  0.1879
 4672WAT    EPW20495   9.553   5.011   7.155 -0.0215  0.1361 -0.3669
 4673WAT      O20496   8.830   0.488   2.563  0.3321  0.8526  0.4043
 4673WAT     H120497   8.888   0.563   2.547  3.5253 -1.1312  1.6733
 4673WAT     H220498   8.764   0.522   2.624  1.5918  2.6759  0.8359
 4673WAT    EPW20499   8.829   0.502   2.569  0.9193  0.8315  0.6286
 4674WAT      O20500   4.868   7.729   4.749 -0.2343  0.7510 -0.3701
 4674WAT     H120501   4.854   7.634   4.757 -0.9475  0.8502 -0.3165
 4674WAT     H220502   4.793   7.767   4.794  0.0129  1.3449 -0.4587
 4674WAT    EPW20503   4.856   7.721   4.756 -0.2954  0.8423 -0.3748
 4675WAT      O20504   1.823   0.128   6.255  0.2510 -0.0862 -0.2936
 4675WAT     H120505   1.838   0.155   6.164  0.2978 -0.9392 -0.5478
 4675WAT     H220506   1.769   0.050   6.248 -1.5830  1.0510  0.5048
 4675WAT    EPW20507   1.818   0.121   6.242  0.0153 -0.0487 -0.2220
 4676WAT      O20508   1.461   9.668   6.285  0.1172  0.1763  0.2172
 4676WAT     H120509   1.489   9.614   6.212  3.3168  1.9332 -0.0355
 4676WAT     H220510   1.399   9.614   6.333  0.4212 -2.2733 -1.9469
 4676WAT    EPW20511   1.456   9.654   6.282  0.5794  0.0849 -0.1016
 4677WAT      O20512   4.924   7.952   6.468  0.2156 -0.5614 -0.3198
 4677WAT     H120513   4.866   7.877   6.482  1.2464 -1.1118  1.2272
 4677WAT     H220514   5.012   7.915   6.464  0.6405  0.4491 -0.7628
 4677WAT    EPW20515   4.928   7.937   6.469  0.4077 -0.5007 -0.1740
 4678WAT      O20516   8.318   1.534   4.584  0.1833  0.0276  0.3094
 4678WAT     H120517   8.339   1.448   4.549  1.4771  0.1258  0.8132
 4678WAT     H220518   8.344   1.531   4.676  1.7764  1.4479 -0.0506
 4678WAT    EPW20519   8.324   1.523   4.591  0.5636  0.2279  0.3281
 4679WAT      O20520   7.341   3.753   4.922 -0.8689 -0.1318  0.4520
 4679WAT     H120521   7.358   3.660   4.905  0.0643  0.1951 -0.5653
 4679WAT     H220522   7.259   3.754   4.971 -2.3333 -1.3636 -1.7779
 4679WAT    EPW20523   7.333   3.741   4.926 -0.9391 -0.2513  0.0236
 4680WAT      O20524   2.118   9.036   5.821  0.0385 -0.0814  0.0483
 4680WAT     H120525   2.128   9.085   5.739 -1.5369  0.9055  0.4230
 4680WAT     H220526   2.124   8.944   5.794  1.5682  0.2499 -0.8625
 4680WAT    EPW20527   2.120   9.030   5.806  0.0324  0.0925 -0.0226
 4681WAT      O20528   6.071   2.836   5.648  0.0782 -0.5272 -0.4016
 4681WAT     H120529   6.009   2.765   5.665  2.0365 -1.8933  1.4558
 4681WAT     H220530   6.116   2.810   5.567  0.5075 -1.2375  0.0555
 4681WAT    EPW20531   6.069   2.823   5.639  0.3934 -0.8010 -0.0963
 4682WAT      O20532   2.068   9.963   6.393  0.1246  0.4737  0.1213
 4682WAT     H120533   2.158   9.979   6.422  0.9294 -1.8737 -0.7545
 4682WAT     H220534   2.074   9.964   6.297 -0.8990  0.7945  0.0520
 4682WAT    EPW20535   2.081   9.965   6.384  0.0956  0.2069 -0.0033
 4683WAT      O20536   8.054   0.178   6.001 -0.0300 -0.0678  0.8258
 4683WAT     H120537   7.981   0.223   6.044 -1.2133 -0.7792 -0.3598
 4683WAT     H220538   8.045   0.087   6.029 -2.1132 -1.0239 -2.3709
 4683WAT    EPW20539   8.043   0.172   6.011 -0.4601 -0.2878  0.2480
 4684WAT      O20540   7.634   1.408   6.004  0.5153 -0.4512 -0.4391
 4684WAT     H120541   7.707   1.348   5.996  1.1711 -0.1254  2.2385
 4684WAT     H220542   7.672   1.495   5.990  0.0191 -0.4363 -1.9327
 4684WAT    EPW20543   7.648   1.412   6.001  0.5367 -0.4063 -0.2830
 4685WAT      O20544   8.098   2.840   5.353 -0.3898 -0.0584 -0.4837
 4685WAT     H120545   8.132   2.897   5.422  2.0266 -2.5310  0.5392
 4685WAT     H220546   8.171   2.829   5.293 -1.6314 -0.0742 -2.0668
 4685WAT    EPW20547   8.112   2.846   5.354 -0.2351 -0.3866 -0.5577
 4686WAT      O20548   4.817   1.259   6.868 -0.8202 -0.4689 -0.2581
 4686WAT     H120549   4.903   1.284   6.835 -0.2422 -1.3741  0.4918
 4686WAT     H220550   4.763   1.336   6.856 -0.8525 -0.9053 -3.8738
 4686WAT    EPW20551   4.821   1.272   6.862 -0.7482 -0.6459 -0.6361
 4687WAT      O20552   1.305   0.111   6.117 -0.1714  0.0903  0.1818
 4687WAT     H120553   1.241   0.068   6.060 -1.4427  1.3269  0.5956
 4687WAT     H220554   1.380   0.129   6.060 -1.4825  1.4871 -1.2089
 4687WAT    EPW20555   1.306   0.108   6.102 -0.5120  0.4376  0.0532
 4688WAT      O20556   9.619   2.850   5.887  0.1933 -0.2022  0.0720
 4688WAT     H120557   9.591   2.869   5.976 -2.1077 -0.2828 -0.5648
 4688WAT     H220558   9.565   2.775   5.861  1.4739 -0.7523 -1.0798
 4688WAT    EPW20559   9.608   2.843   5.895  0.0587 -0.2855 -0.1638
 4689WAT      O20560   4.957   2.581   4.749 -0.6537 -0.0387  0.4627
 4689WAT     H120561   4.928   2.612   4.835 -2.4503  1.6745 -0.6824
 4689WAT     H220562   4.913   2.638   4.686  2.0703  0.0009 -1.6142
 4689WAT    EPW20563   4.947   2.592   4.752 -0.5314  0.1924  0.0377
 4690WAT      O20564   2.233   9.053   4.279 -0.4177 -0.2475  0.1803
 4690WAT     H120565   2.327   9.031   4.277  0.5382  3.1911 -2.2875
 4690WAT     H220566   2.230   9.136   4.327 -2.2689 -0.4535  0.4655
 4690WAT    EPW20567   2.245   9.061   4.285 -0.5357  0.1788 -0.1075
 4691WAT      O20568   6.546  10.292   6.531 -0.6902 -0.2098 -0.6845
 4691WAT     H120569   6.563  10.385   6.544  1.1738 -0.5903 -0.0831
 4691WAT     H220570   6.594  10.248   6.601  0.3414 -1.7317 -2.2444
 4691WAT    EPW20571   6.554  10.298   6.542 -0.3080 -0.4606 -0.8109
 4692WAT      O20572   8.888   2.017   7.380  0.5036 -0.3786  0.2492
 4692WAT     H120573   8.822   2.019   7.311  3.2654 -0.3834 -2.6779
 4692WAT     H220574   8.839   2.007   7.461 -2.9594 -1.3614 -1.7642
 4692WAT    EPW20575   8.873   2.016   7.381  0.4115 -0.5090 -0.4025
 4693WAT      O20576   2.453   8.552   7.621 -0.5311 -0.1550  0.0568
 4693WAT     H120577   2.530   8.595   7.586 -1.4161  0.0503 -1.7432
 4693WAT     H220578   2.471   8.458   7.610 -0.6453 -0.1009 -0.6566
 4693WAT    EPW20579   2.465   8.545   7.615 -0.6628 -0.1206 -0.2749
 4694WAT      O20580   3.802   9.420   8.410 -0.7046 -0.5682 -0.2156
 4694WAT     H120581   3.746   9.343   8.405 -0.1088 -1.0497  0.3788
 4694WAT     H220582   3.859   9.413   8.333  0.1470 -1.3755  0.4561
 4694WAT    EPW20583   3.802   9.409   8.399 -0.5136 -0.7381 -0.0491
 4695WAT      O20584   4.212   2.704   6.019 -0.3322 -0.5721  0.1363
 4695WAT     H120585   4.296   2.749   6.010 -0.7658  0.0437 -1.0076
 4695WAT     H220586   4.195   2.668   5.932 -2.6666  1.9405 -0.5871
 4695WAT    EPW20587   4.221   2.705   6.006 -0.6971 -0.1595 -0.1099
 4696WAT      O20588   6.177   8.998   7.082 -0.1578 -0.0634 -0.4369
 4696WAT     H120589   6.200   9.081   7.123  2.0572  0.3983 -2.4365
 4696WAT     H220590   6.113   8.959   7.142  0.9328  1.7250  2.0750
 4696WAT    EPW20591   6.172   9.004   7.095  0.2778  0.2332 -0.3691
 4697WAT      O20592   4.762   9.340   6.624  0.5475  0.1255 -0.0090
 4697WAT     H120593   4.755   9.246   6.612  1.1119 -0.3270  2.5597
 4697WAT     H220594   4.726   9.378   6.544  0.0655 -2.2483 -0.9825
 4697WAT    EPW20595   4.756   9.333   6.612  0.5584 -0.2470  0.2015
 4698WAT      O20596   1.813   2.027   7.308  0.5885  0.2857 -0.3518
 4698WAT     H120597   1.896   2.052   7.349 -1.3024  1.3875  3.2663
 4698WAT     H220598   1.814   1.931   7.307  1.0272  0.2155  1.9268
 4698WAT    EPW20599   1.824   2.018   7.313  0.3969  0.4216  0.4261
 4699WAT      O20600   1.891   9.214   8.956  0.1192  0.7768 -0.2699
 4699WAT     H120601   1.798   9.237   8.951 -0.3072 -0.8264 -0.4093
 4699WAT     H220602   1.904   9.186   9.047  0.0852 -0.4094 -0.6157
 4699WAT    EPW20603   1.880   9.214   8.967  0.0582  0.4089 -0.3339
 4700WAT      O20604   7.370   3.321   1.073 -0.6330  0.0308 -0.2204
 4700WAT     H120605   7.405   3.295   1.158  0.5993 -1.0747 -1.0244
 4700WAT     H220606   7.316   3.247   1.046  2.2855 -1.5648 -2.1861
 4700WAT    EPW20607   7.367   3.308   1.081 -0.0858 -0.3256 -0.5857
 4701WAT      O20608   6.150   1.674   3.766 -0.2629  0.0176  0.6261
 4701WAT     H120609   6.194   1.645   3.686 -1.1236 -1.1622  0.5587
 4701WAT     H220610   6.188   1.761   3.783  0.2792  0.0988 -0.7916
 4701WAT    EPW20611   6.161   1.682   3.757 -0.3052 -0.1273  0.4302
 4702WAT      O20612   5.801   1.234   8.696 -0.8948  0.3317  0.3060
 4702WAT     H120613   5.862   1.300   8.729  0.2287 -1.0949  1.2573
 4702WAT     H220614   5.834   1.213   8.609  0.2901 -0.7227  0.9697
 4702WAT    EPW20615   5.814   1.240   8.689 -0.5903  0.0044  0.5188
 4703WAT      O20616   9.055   2.695   5.491  0.2940  0.1349  0.4989
 4703WAT     H120617   9.146   2.722   5.508 -0.2407  1.8419  0.8635
 4703WAT     H220618   9.003   2.770   5.517 -1.1077  0.1012 -1.9076
 4703WAT    EPW20619   9.060   2.708   5.497  0.0386  0.3557  0.2296
 4704WAT      O20620   4.741   0.540   7.376 -0.2341  0.0317 -0.2294
 4704WAT     H120621   4.707   0.511   7.292 -1.1933  0.5202 -0.0250
 4704WAT     H220622   4.735   0.635   7.373 -0.2399  0.0557  0.3727
 4704WAT    EPW20623   4.736   0.548   7.365 -0.3614  0.0993 -0.1228
 4705WAT      O20624   0.766   9.231   3.204  1.3472 -0.2272 -0.8953
 4705WAT     H120625   0.733   9.181   3.130  2.7517  1.0697 -2.4739
 4705WAT     H220626   0.793   9.165   3.268 -3.8951 -1.4368  0.5543
 4705WAT    EPW20627   0.765   9.216   3.203  0.8411 -0.2155 -0.9124
 4706WAT      O20628   0.813   3.371   1.013 -0.2504  0.1019  0.5823
 4706WAT     H120629   0.894   3.320   1.020 -0.9926 -0.9496  2.1835
 4706WAT     H220630   0.834   3.456   1.051  0.5557  0.4812 -0.6414
 4706WAT    EPW20631   0.827   3.375   1.019 -0.2419  0.0132  0.6321
 4707WAT      O20632   7.655   4.397   5.914  0.1310  0.4809 -1.0137
 4707WAT     H120633   7.561   4.413   5.921  0.3245  1.0416  0.8798
 4707WAT     H220634   7.663   4.328   5.849 -1.5284  0.8960 -1.7116
 4707WAT    EPW20635   7.644   4.390   5.906 -0.0625  0.6099 -0.8562
 4708WAT      O20636   9.277   1.476   6.339 -0.4719  0.5138 -0.7915
 4708WAT     H120637   9.203   1.435   6.294  1.5634  0.3120 -4.3695
 4708WAT     H220638   9.278   1.566   6.307 -0.9077  1.4656  1.6781
 4708WAT    EPW20639   9.268   1.483   6.329 -0.2608  0.6127 -0.9377
 4709WAT      O20640   5.773   3.060   7.330 -0.1467  0.5469  0.1904
 4709WAT     H120641   5.715   3.104   7.268  1.4959  0.8663 -1.1617
 4709WAT     H220642   5.787   3.124   7.400  0.3387  1.3060 -0.5884
 4709WAT    EPW20643   5.767   3.074   7.331  0.1342  0.6890 -0.0906
 4710WAT      O20644   5.803   9.783   7.713 -0.1651 -0.2010 -0.0810
 4710WAT     H120645   5.820   9.789   7.619  0.1446 -0.9653 -0.0800
 4710WAT     H220646   5.777   9.872   7.738 -0.6879 -0.0916 -0.9689
 4710WAT    EPW20647   5.802   9.796   7.703 -0.1931 -0.2875 -0.1979
 4711WAT      O20648   9.126   4.221   2.697  0.8344 -0.7111  0.0245
 4711WAT     H120649   9.035   4.244   2.713  1.3570  1.9122 -0.3178
 4711WAT     H220650   9.125   4.175   2.613 -0.1702 -0.6438 -0.0071
 4711WAT    EPW20651   9.114   4.218   2.688  0.7710 -0.3562 -0.0249
 4712WAT      O20652   5.785   0.229   4.455  0.8251  0.3530  0.6449
 4712WAT     H120653   5.713   0.181   4.495  0.3446  0.8102  0.3432
 4712WAT     H220654   5.742   0.292   4.396  1.4968 -1.4535 -1.9602
 4712WAT    EPW20655   5.770   0.231   4.452  0.8504  0.1750  0.2611
 4713WAT      O20656   9.164   4.353   0.081 -0.5994 -0.4052  0.6998
 4713WAT     H120657   9.100   4.297   0.038 -1.9381  0.1033  1.9472
 4713WAT     H220658   9.164   4.433   0.030 -2.3404  0.2781  1.6590
 4713WAT    EPW20659   9.156   4.356   0.069 -1.0056 -0.2480  0.9908
 4714WAT      O20660   5.655   1.715   3.470 -0.1274 -0.3286  0.1482
 4714WAT     H120661   5.660   1.620   3.467 -2.6077 -0.5668  1.4264
 4714WAT     H220662   5.740   1.742   3.506  0.5975 -2.0262 -0.1932
 4714WAT    EPW20663   5.667   1.706   3.474 -0.3588 -0.5839  0.2718
 4715WAT      O20664   6.039   1.861   5.545  0.0986  0.1298  0.4450
 4715WAT     H120665   5.945   1.840   5.540  0.1809 -0.2482  0.4306
 4715WAT     H220666   6.054   1.881   5.638 -0.0993  0.6915  0.3568
 4715WAT    EPW20667   6.028   1.861   5.557  0.0832  0.1540  0.4315
 4716WAT      O20668   4.686   2.466   7.681  0.7152  0.1487 -0.2552
 4716WAT     H120669   4.649   2.512   7.756  2.1196  0.7378  0.0989
 4716WAT     H220670   4.729   2.534   7.629  1.2787 -0.5072 -0.6678
 4716WAT    EPW20671   4.687   2.481   7.684  0.9747  0.1400 -0.2630
 4717WAT      O20672   6.177   3.105   5.679 -0.0548 -0.3110 -0.0474
 4717WAT     H120673   6.156   3.015   5.656  1.1357 -0.5598 -0.2188
 4717WAT     H220674   6.094   3.152   5.670 -0.2627 -0.9662 -2.0315
 4717WAT    EPW20675   6.164   3.100   5.675  0.0749 -0.4302 -0.3314
 4718WAT      O20676   5.061   2.868   6.209  0.3179 -0.6363  0.1199
 4718WAT     H120677   5.050   2.924   6.133 -1.7222  1.5086  1.8600
 4718WAT     H220678   5.147   2.892   6.245  0.3660 -0.1277 -0.3269
 4718WAT    EPW20679   5.071   2.878   6.204  0.0553 -0.2862  0.2904
 4719WAT      O20680   2.814   9.823   3.853 -0.2150 -0.2033 -0.0001
 4719WAT     H120681   2.772   9.894   3.902  1.9061  1.2896 -0.1970
 4719WAT     H220682   2.754   9.806   3.779 -2.6831 -1.4234  2.1235
 4719WAT    EPW20683   2.800   9.830   3.849 -0.2608 -0.1674  0.2542
 4720WAT      O20684   2.027   9.133   7.647 -0.0727  0.5013  0.2885
 4720WAT     H120685   1.973   9.128   7.726  0.3729  1.0571  0.6361
 4720WAT     H220686   1.969   9.170   7.580 -0.3434  0.3767  0.4510
 4720WAT    EPW20687   2.012   9.137   7.649 -0.0496  0.5589  0.3557
 4721WAT      O20688   7.824   4.251   5.249 -0.3169 -0.3456  0.3192
 4721WAT     H120689   7.831   4.187   5.178 -2.3223  1.6326 -1.8481
 4721WAT     H220690   7.892   4.316   5.229  1.1073 -1.2232  1.9972
 4721WAT    EPW20691   7.834   4.251   5.237 -0.3936 -0.2005  0.2544
 4722WAT      O20692   5.633   2.906   6.217 -0.2447 -0.1703  0.1682
 4722WAT     H120693   5.574   2.891   6.144 -0.9744  0.1072  0.6939
 4722WAT     H220694   5.676   2.822   6.231 -1.4328 -0.7269  0.5781
 4722WAT    EPW20695   5.631   2.893   6.209 -0.4981 -0.2072  0.2913
 4723WAT      O20696   7.284   1.839   5.319  0.0364 -0.1961 -0.3101
 4723WAT     H120697   7.324   1.773   5.262 -1.5729 -0.2908 -1.3939
 4723WAT     H220698   7.356   1.900   5.338  1.4722 -2.0300  0.4420
 4723WAT    EPW20699   7.299   1.838   5.314  0.0136 -0.4505 -0.3536
 4724WAT      O20700   1.667   0.784   6.465  0.3491 -0.7882  0.3444
 4724WAT     H120701   1.605   0.753   6.399 -0.4953 -0.6230  1.0386
 4724WAT     H220702   1.672   0.878   6.452  2.0554 -1.0209 -1.0357
 4724WAT    EPW20703   1.659   0.792   6.455  0.4628 -0.7971  0.2539
 4725WAT      O20704   5.409   2.429   6.314  0.1913  0.7991 -0.2306
 4725WAT     H120705   5.337   2.472   6.269  0.3619  1.2398 -0.0802
 4725WAT     H220706   5.417   2.344   6.269  1.0624  1.6532 -1.7895
 4725WAT    EPW20707   5.401   2.423   6.302  0.3288  0.9699 -0.4160
 4726WAT      O20708   8.370   4.526   8.615  0.6038  0.8676 -0.8841
 4726WAT     H120709   8.435   4.482   8.669 -1.1393 -0.1681  0.4746
 4726WAT     H220710   8.367   4.475   8.534 -1.3519 -1.7050  0.6388
 4726WAT    EPW20711   8.378   4.514   8.611  0.1159  0.3917 -0.5040
 4727WAT      O20712   3.335   2.988   7.676 -0.2206  0.4482 -0.2092
 4727WAT     H120713   3.346   2.970   7.583 -0.6645  2.5690 -0.7432
 4727WAT     H220714   3.402   2.934   7.719  1.6346  1.1854 -1.9732
 4727WAT    EPW20715   3.345   2.979   7.669 -0.0345  0.8252 -0.5124
 4728WAT      O20716   1.009   8.035   5.270 -0.4809  0.3067 -0.4118
 4728WAT     H120717   1.028   8.020   5.363  0.2766  1.1774 -0.4046
 4728WAT     H220718   0.955   8.114   5.270  0.4285  0.9530 -0.7547
 4728WAT    EPW20719   1.005   8.044   5.282 -0.2611  0.5064 -0.4561
 4729WAT      O20720   0.452   9.181   5.143 -0.3303 -0.4310  0.2191
 4729WAT     H120721   0.443   9.274   5.121 -0.8424 -1.1949 -3.4753
 4729WAT     H220722   0.542   9.159   5.119 -1.1556 -1.4989 -2.3019
 4729WAT    EPW20723   0.463   9.190   5.137 -0.5067 -0.6733 -0.6003
 4730WAT      O20724   9.904   2.862   6.801 -0.4870  0.0259  0.2001
 4730WAT     H120725   9.877   2.932   6.860 -0.3540  0.5686 -0.3659
 4730WAT     H220726   9.916   2.785   6.857  0.6199  0.7781  1.0367
 4730WAT    EPW20727   9.902   2.861   6.816 -0.3233  0.1969  0.2358
 4731WAT      O20728   4.131   8.026   5.775  0.1124  0.5827  0.2255
 4731WAT     H120729   4.106   8.087   5.706  2.9419  2.0785  0.3960
 4731WAT     H220730   4.169   7.952   5.729 -0.7696  0.1781  0.1219
 4731WAT    EPW20731   4.133   8.025   5.760  0.3688  0.7262  0.2341
 4732WAT      O20732   4.896   2.699   6.585 -0.1980  0.0967  0.1790
 4732WAT     H120733   4.830   2.701   6.655 -1.4724 -0.8448 -0.9356
 4732WAT     H220734   4.854   2.744   6.512  1.9294  3.0248  0.5919
 4732WAT    EPW20735   4.882   2.705   6.585 -0.0854  0.3589  0.0865
 4733WAT      O20736   6.720   2.351   7.038  0.5271  0.1151 -0.0827
 4733WAT     H120737   6.644   2.298   7.015  0.6367  0.2947 -0.8827
 4733WAT     H220738   6.770   2.359   6.957  0.6241  1.2552  0.0665
 4733WAT    EPW20739   6.717   2.345   7.024  0.5543  0.2892 -0.1688
 4734WAT      O20740   6.019   2.115   4.949 -0.3362  0.0775 -0.4852
 4734WAT     H120741   6.102   2.134   4.905  0.8565 -2.2046  0.6188
 4734WAT     H220742   5.999   2.194   4.999  1.5200  0.4615 -0.2871
 4734WAT    EPW20743   6.027   2.128   4.950  0.0663 -0.1729 -0.3135
 4735WAT      O20744   8.714   1.155   7.020 -0.7227  0.0080  0.3797
 4735WAT     H120745   8.699   1.124   6.931  0.0315  1.0640 -0.1401
 4735WAT     H220746   8.809   1.162   7.028 -0.8066  0.5987  1.0254
 4735WAT    EPW20747   8.724   1.152   7.010 -0.6342  0.2252  0.3963
 4736WAT      O20748   8.289   0.871   7.339 -0.3920 -0.1010 -0.4587
 4736WAT     H120749   8.300   0.957   7.381  4.3323  0.7888 -2.8224
 4736WAT     H220750   8.340   0.811   7.394 -0.5347 -0.5694 -0.8351
 4736WAT    EPW20751   8.298   0.875   7.352  0.2127 -0.0454 -0.8199
 4737WAT      O20752   4.532   1.343   4.463 -0.0549 -0.6259 -0.2268
 4737WAT     H120753   4.476   1.270   4.437 -3.2521  1.8112 -0.7380
 4737WAT     H220754   4.593   1.353   4.391 -2.4130 -0.1498 -2.2764
 4737WAT    EPW20755   4.533   1.334   4.450 -0.7875 -0.2416 -0.5646
 4738WAT      O20756   4.040   9.365   4.882  0.5806 -0.1215 -0.3043
 4738WAT     H120757   3.964   9.412   4.917 -0.2934 -0.4920 -1.6231
 4738WAT     H220758   4.062   9.412   4.801  0.9530 -0.7944 -0.6001
 4738WAT    EPW20759   4.033   9.377   4.876  0.5145 -0.2594 -0.5174
 4739WAT      O20760   9.554   1.386   5.992  0.3200  0.3031 -0.4232
 4739WAT     H120761   9.588   1.398   6.081 -1.0940 -1.0850  0.3398
 4739WAT     H220762   9.504   1.465   5.975  1.3203  0.9748 -0.3540
 4739WAT    EPW20763   9.552   1.398   6.002  0.2656  0.2086 -0.3133
 4740WAT      O20764   3.272  10.023   7.037  0.3305  0.4687 -0.0246
 4740WAT     H120765   3.323  10.085   6.984 -0.7105  1.1445 -0.2762
 4740WAT     H220766   3.206   9.989   6.977 -1.5397  2.0362  1.0454
 4740WAT    EPW20767   3.270  10.027   7.022 -0.0534  0.7648  0.0832
 4741WAT      O20768   8.281   1.313   5.711  0.6676  0.0062 -0.3015
 4741WAT     H120769   8.240   1.335   5.627  0.7465  0.6624 -0.1750
 4741WAT     H220770   8.276   1.218   5.716  0.9238 -0.0640 -1.1899
 4741WAT    EPW20771   8.275   1.303   5.700  0.7119  0.0834 -0.4020
 4742WAT      O20772  10.517  10.289   7.114 -0.3469 -0.0312  0.0159
 4742WAT     H120773  10.537  10.325   7.200 -2.3070  0.8718  0.1505
 4742WAT     H220774  10.455  10.351   7.076 -1.0591 -1.4407 -1.2332
 4742WAT    EPW20775  10.511  10.302   7.120 -0.6990 -0.0982 -0.1311
 4743WAT      O20776   5.341   9.779   4.225 -0.0252 -0.1715  0.2206
 4743WAT     H120777   5.324   9.708   4.162 -2.3133  0.2478  0.2845
 4743WAT     H220778   5.304   9.747   4.307 -1.0495  1.0739  0.2582
 4743WAT    EPW20779   5.334   9.765   4.227 -0.4623  0.0477  0.2341
 4744WAT      O20780   5.431   1.465   6.460 -0.7157  0.6100 -0.0247
 4744WAT     H120781   5.387   1.544   6.428 -0.9204  0.1707 -0.8586
 4744WAT     H220782   5.379   1.393   6.424 -0.2046  0.0915  0.2627
 4744WAT    EPW20783   5.418   1.466   6.451 -0.6752  0.4837 -0.0968
 4745WAT      O20784   3.445   8.538   7.348  0.1782  0.3065  0.7627
 4745WAT     H120785   3.463   8.627   7.379  1.5462  0.3399 -0.0402
 4745WAT     H220786   3.443   8.484   7.427 -1.8671  1.1921  1.3839
 4745WAT    EPW20787   3.447   8.543   7.362  0.0889  0.4277  0.7386
 4746WAT      O20788   7.936   2.297   3.312  0.2200  0.4488 -0.2351
 4746WAT     H120789   8.013   2.249   3.342  0.7191  0.1184 -1.9635
 4746WAT     H220790   7.969   2.384   3.290 -0.3563  1.0607  1.1715
 4746WAT    EPW20791   7.951   2.302   3.313  0.2100  0.4860 -0.2776
 4747WAT      O20792   6.582   3.540   5.242  0.4400 -0.0185 -0.0641
 4747WAT     H120793   6.513   3.566   5.304  0.5639 -0.2624  0.1792
 4747WAT     H220794   6.589   3.446   5.253 -0.3402 -0.2363 -1.2914
 4747WAT    EPW20795   6.574   3.531   5.252  0.3536 -0.0794 -0.1938
 4748WAT      O20796  10.420   2.935   3.698 -0.6318  0.3959  0.4830
 4748WAT     H120797  10.389   2.923   3.788  0.8558  1.1394  1.1257
 4748WAT     H220798  10.513   2.913   3.701 -0.1940  1.9057 -0.5253
 4748WAT    EPW20799  10.428   2.931   3.710 -0.3777  0.6930  0.4348
 4749WAT      O20800   6.856   3.622   8.076  0.3622 -0.2627  0.2007
 4749WAT     H120801   6.776   3.673   8.064  0.3017 -0.2537  0.6428
 4749WAT     H220802   6.827   3.542   8.119  0.2524 -1.2725 -1.6326
 4749WAT    EPW20803   6.841   3.618   8.080  0.3397 -0.3946  0.0167
 4750WAT      O20804   4.033  10.003   6.610  0.8104  0.2721  0.2179
 4750WAT     H120805   3.954  10.058   6.611  1.0297  0.6080  2.1453
 4750WAT     H220806   4.080  10.026   6.690  1.3045 -2.1552  0.7287
 4750WAT    EPW20807   4.029  10.013   6.620  0.9046 -0.0038  0.5398
 4751WAT      O20808   5.918   2.616   5.767 -0.3295 -0.7219  0.6395
 4751WAT     H120809   5.852   2.606   5.836 -0.9495 -1.2329 -0.0108
 4751WAT     H220810   5.917   2.532   5.721  1.4380 -1.0752  1.1692
 4751WAT    EPW20811   5.909   2.604   5.770 -0.1783 -0.8359  0.6235
 4752WAT      O20812   4.815   0.504   7.068 -0.5986  0.0219  0.4655
 4752WAT     H120813   4.808   0.595   7.039 -0.8530 -0.0579  0.2744
 4752WAT     H220814   4.898   0.500   7.115 -0.5088  0.3139  0.3313
 4752WAT    EPW20815   4.825   0.516   7.071 -0.6199  0.0499  0.4227
 4753WAT      O20816   8.277   2.984   7.392 -0.2119  0.7501  0.2578
 4753WAT     H120817   8.208   3.028   7.443  2.2843  3.0919  1.8819
 4753WAT     H220818   8.307   2.914   7.449 -1.3840 -0.5029 -0.5985
 4753WAT    EPW20819   8.272   2.981   7.406 -0.0372  0.8937  0.3591
 4754WAT      O20820   3.415   7.920   7.293  0.0751  0.1140  0.1416
 4754WAT     H120821   3.508   7.941   7.304  0.1869 -0.0615 -0.4551
 4754WAT     H220822   3.382   7.912   7.383  0.7425 -0.2884  0.3638
 4754WAT    EPW20823   3.423   7.922   7.306  0.1777  0.0379  0.0923
 4755WAT      O20824   2.481   8.551   7.241 -0.7848 -0.4585 -0.3874
 4755WAT     H120825   2.435   8.525   7.162  1.0613 -0.9507 -1.3649
 4755WAT     H220826   2.413   8.588   7.298 -2.3964 -1.4506 -1.5880
 4755WAT    EPW20827   2.466   8.552   7.238 -0.7540 -0.6547 -0.6747
 4756WAT      O20828   0.374   9.758   6.980  0.3212 -0.3672 -0.8103
 4756WAT     H120829   0.332   9.697   6.919  0.0141  0.0689 -1.0444
 4756WAT     H220830   0.406   9.703   7.051  0.5619 -0.8719 -1.2969
 4756WAT    EPW20831   0.372   9.743   6.981  0.3124 -0.3767 -0.9053
 4757WAT      O20832   4.817   2.740   4.557  0.7991  0.0754 -0.3106
 4757WAT     H120833   4.723   2.758   4.563  0.4326 -2.0913  2.1288
 4757WAT     H220834   4.827   2.688   4.478 -0.0149  0.5316 -0.7255
 4757WAT    EPW20835   4.806   2.736   4.548  0.6435 -0.1502 -0.0434
 4758WAT      O20836   9.048   0.998   4.992 -0.1450  0.6099  0.2279
 4758WAT     H120837   9.097   0.988   5.073 -0.2987 -0.0549  0.2403
 4758WAT     H220838   8.976   0.935   4.999  1.5007 -1.6134 -1.6894
 4758WAT    EPW20839   9.045   0.988   5.004  0.0520  0.2289 -0.0236
 4759WAT      O20840   7.422   0.991   5.931  0.8137 -0.1581  0.3020
 4759WAT     H120841   7.442   1.022   5.843  1.2958 -1.6946 -0.1612
 4759WAT     H220842   7.329   1.008   5.942  0.6046 -0.5399 -0.7622
 4759WAT    EPW20843   7.412   0.997   5.921  0.8495 -0.4111  0.1004
 4760WAT      O20844   5.279   1.651   6.060 -0.5825 -0.4715 -0.2263
 4760WAT     H120845   5.266   1.662   5.966  0.1146  1.0949 -0.1772
 4760WAT     H220846   5.362   1.603   6.066 -0.2904 -0.0111 -0.4291
 4760WAT    EPW20847   5.288   1.646   6.048 -0.4520 -0.2042 -0.2465
 4761WAT      O20848   4.430   1.839   5.566 -0.4631 -0.1009  0.3810
 4761WAT     H120849   4.400   1.930   5.567  1.1808  0.5029 -0.7242
 4761WAT     H220850   4.383   1.799   5.492  1.9917  1.1184 -2.0205
 4761WAT    EPW20851   4.419   1.846   5.556  0.0775  0.1395 -0.0813
 4762WAT      O20852   0.669   9.774   2.885  0.5623  0.3429  0.2568
 4762WAT     H120853   0.677   9.809   2.973  1.6821 -0.0483  0.3288
 4762WAT     H220854   0.683   9.680   2.895 -1.2683 -0.0101 -0.0835
 4762WAT    EPW20855   0.672   9.766   2.898  0.4685  0.2446  0.2215
 4763WAT      O20856   7.875   3.652   7.471 -0.3395 -0.3352  0.6269
 4763WAT     H120857   7.798   3.654   7.527  1.2679 -2.5113  3.1771
 4763WAT     H220858   7.933   3.719   7.508 -1.4088  2.3659 -2.1947
 4763WAT    EPW20859   7.873   3.661   7.483 -0.2687 -0.2660  0.5910
 4764WAT      O20860   5.760   1.323   7.108  0.1701 -0.5913  0.2986
 4764WAT     H120861   5.783   1.265   7.181  0.8089 -2.5416 -1.3543
 4764WAT     H220862   5.665   1.313   7.098  0.1511 -0.6831  0.5677
 4764WAT    EPW20863   5.750   1.314   7.116  0.2522 -0.8606  0.1159
 4765WAT      O20864   7.087   1.424   7.615  0.1340 -0.4311 -0.2722
 4765WAT     H120865   7.010   1.478   7.632  1.3151  0.4865  2.9214
 4765WAT     H220866   7.102   1.432   7.521 -3.4380 -0.4575 -1.0041
 4765WAT    EPW20867   7.078   1.432   7.605 -0.1814 -0.3136  0.0525
 4766WAT      O20868   5.309   0.578   5.058 -0.7176 -0.1484  0.3743
 4766WAT     H120869   5.231   0.632   5.069 -0.2543  0.6073 -0.0093
 4766WAT     H220870   5.285   0.494   5.097 -1.8855 -0.0774 -0.1412
 4766WAT    EPW20871   5.295   0.574   5.064 -0.8104 -0.0394  0.2556
 4767WAT      O20872   5.012   8.877   5.505 -0.1623  0.0784  0.1445
 4767WAT     H120873   5.076   8.935   5.545  2.1925 -1.4271 -1.1630
 4767WAT     H220874   4.972   8.831   5.578  1.6053 -0.2348  0.9718
 4767WAT    EPW20875   5.016   8.879   5.520  0.3812 -0.1616  0.0813
 4768WAT      O20876   2.877   8.836   4.783  0.0130  0.5178  0.8083
 4768WAT     H120877   2.962   8.864   4.750 -0.4577  0.4550 -0.5262
 4768WAT     H220878   2.873   8.871   4.872  2.2364 -1.1456  1.6416
 4768WAT    EPW20879   2.887   8.844   4.790  0.2441  0.2899  0.7424
 4769WAT      O20880   2.883   8.627   5.599 -0.6194 -0.1664 -0.7433
 4769WAT     H120881   2.911   8.715   5.624 -0.1560 -0.8282  1.2496
 4769WAT     H220882   2.787   8.631   5.605 -0.5292 -0.4814  2.0955
 4769WAT    EPW20883   2.874   8.639   5.603 -0.5463 -0.2947 -0.1061
 4770WAT      O20884   6.040   0.318   5.183 -0.5479 -0.8069 -0.0771
 4770WAT     H120885   6.118   0.267   5.205 -1.2073 -1.6760  0.3402
 4770WAT     H220886   5.967   0.261   5.208 -1.3363 -0.6594 -1.8841
 4770WAT    EPW20887   6.040   0.303   5.189 -0.7386 -0.9020 -0.2601
 4771WAT      O20888   4.101   9.074   4.837  0.0840  0.0973 -0.5412
 4771WAT     H120889   4.103   9.167   4.815 -2.2890 -0.2292 -2.5246
 4771WAT     H220890   4.061   9.071   4.924  0.6825  0.9375 -0.2291
 4771WAT    EPW20891   4.096   9.086   4.846 -0.1500  0.1650 -0.7615
 4772WAT      O20892   0.438   9.706   5.504 -0.0640 -0.7404 -0.5604
 4772WAT     H120893   0.453   9.765   5.431 -0.6261  0.3315  0.1624
 4772WAT     H220894   0.508   9.725   5.566 -1.7734  1.2059  0.9031
 4772WAT    EPW20895   0.449   9.716   5.503 -0.3636 -0.3428 -0.2718
 4773WAT      O20896   8.896   1.907   6.696 -0.4670  0.8164 -0.2572
 4773WAT     H120897   8.901   1.870   6.784 -0.2403 -1.9152 -1.3110
 4773WAT     H220898   8.987   1.930   6.675 -0.3173  0.2667 -0.2307
 4773WAT    EPW20899   8.909   1.905   6.705 -0.4172  0.3836 -0.3927
 4774WAT      O20900   9.937   1.083   6.001  0.0493  0.1080 -0.1287
 4774WAT     H120901   9.881   1.024   6.051  3.1567 -2.1561  1.0641
 4774WAT     H220902   9.931   1.167   6.047  0.7831 -1.2219  2.5984
 4774WAT    EPW20903   9.929   1.086   6.014  0.5560 -0.3660  0.3884
 4775WAT      O20904   6.065   1.470   8.228 -0.1860 -0.1851 -0.1087
 4775WAT     H120905   6.058   1.375   8.224 -0.6161 -0.1935  0.6318
 4775WAT     H220906   6.099   1.496   8.143  0.3036 -1.0370 -0.1757
 4775WAT    EPW20907   6.068   1.461   8.216 -0.1781 -0.2985 -0.0205
 4776WAT      O20908  10.118   9.943   3.714 -0.3578 -0.0167 -0.3249
 4776WAT     H120909  10.036   9.994   3.716 -0.6387 -0.3467 -1.8039
 4776WAT     H220910  10.185  10.007   3.692 -0.4073  0.0588 -0.2575
 4776WAT    EPW20911  10.116   9.958   3.711 -0.4015 -0.0496 -0.5111
 4777WAT      O20912   4.608   0.182   7.706  0.3906 -0.5103 -1.3509
 4777WAT     H120913   4.611   0.261   7.652  0.7103  0.2352 -0.2928
 4777WAT     H220914   4.515   0.160   7.712 -0.1626  1.8721  1.1583
 4777WAT    EPW20915   4.596   0.190   7.700  0.3595 -0.0978 -0.8805
 4778WAT      O20916   5.585   0.877   4.916 -0.0039  0.2206 -0.8503
 4778WAT     H120917   5.549   0.964   4.930  2.0407  1.1035 -0.5990
 4778WAT     H220918   5.544   0.822   4.983 -0.3959  1.2819 -0.2030
 4778WAT    EPW20919   5.575   0.881   4.927  0.2141  0.4770 -0.7319
 4779WAT      O20920   3.622   3.566   3.360  0.4350 -0.0834 -0.1058
 4779WAT     H120921   3.706   3.605   3.336 -0.4075  1.2857 -0.9864
 4779WAT     H220922   3.638   3.472   3.357  1.4722  0.0964 -2.1231
 4779WAT    EPW20923   3.635   3.559   3.356  0.4606  0.1209 -0.4880
 4780WAT      O20924   2.866   9.240   4.811  0.0985 -0.0727 -0.1566
 4780WAT     H120925   2.958   9.255   4.786 -0.4686  0.2778 -2.2461
 4780WAT     H220926   2.818   9.244   4.728 -1.3807 -4.0791  0.2890
 4780WAT    EPW20927   2.872   9.243   4.797 -0.1713 -0.5555 -0.3734
 4781WAT      O20928   6.492   1.037   4.189  0.1559  0.0845  0.1119
 4781WAT     H120929   6.429   0.990   4.134 -0.0788  1.8546 -1.2331
 4781WAT     H220930   6.475   1.130   4.172  3.4973  0.6830 -0.8105
 4781WAT    EPW20931   6.482   1.043   4.179  0.5658  0.3969 -0.1872
 4782WAT      O20932   8.798   0.991   5.276  0.0377 -0.6021  0.3252
 4782WAT     H120933   8.802   0.941   5.194  0.5568 -1.3567  0.7915
 4782WAT     H220934   8.762   0.928   5.340 -2.7271  0.6900  0.1764
 4782WAT    EPW20935   8.793   0.976   5.274 -0.2584 -0.5312  0.3672
 4783WAT      O20936   8.530   2.239   4.020  0.4647  0.7340 -0.0159
 4783WAT     H120937   8.489   2.325   4.014 -1.8880 -0.3985 -2.1417
 4783WAT     H220938   8.557   2.218   3.930  2.5887 -0.0901  0.7332
 4783WAT    EPW20939   8.528   2.247   4.007  0.4349  0.4758 -0.1972
 4784WAT      O20940   6.563   4.222   5.288  0.2630 -0.3683 -0.2388
 4784WAT     H120941   6.607   4.195   5.369 -0.8252 -0.1735  0.4405
 4784WAT     H220942   6.632   4.222   5.222  1.1645 -0.5817  0.6773
 4784WAT    EPW20943   6.577   4.218   5.290  0.2387 -0.3707 -0.0284
 4785WAT      O20944   6.330  10.151   5.089 -0.6620  0.0109  0.2460
 4785WAT     H120945   6.241  10.116   5.082 -0.3267 -1.0476  0.9324
 4785WAT     H220946   6.386  10.078   5.062  0.0457  0.2716  0.9765
 4785WAT    EPW20947   6.326  10.136   5.084 -0.5245 -0.0944  0.4330
 4786WAT      O20948   9.855   1.427   6.417 -0.1028 -0.5830 -1.0232
 4786WAT     H120949   9.833   1.490   6.485 -0.0428  0.4463 -1.9203
 4786WAT     H220950   9.815   1.345   6.446  3.7019 -1.5368  2.5823
 4786WAT    EPW20951   9.847   1.424   6.430  0.4072 -0.5730 -0.6661
 4787WAT      O20952  10.604   0.490   6.131  0.7933 -0.3676  0.0686
 4787WAT     H120953  10.640   0.414   6.177 -2.0209 -0.7914  1.7911
 4787WAT     H220954  10.571   0.547   6.201 -2.8496 -0.5718 -1.2824
 4787WAT    EPW20955  10.605   0.488   6.147 -0.0582 -0.4504  0.1175
 4788WAT      O20956   9.017   0.400   4.209  0.2369  0.4611  0.1149
 4788WAT     H120957   8.961   0.472   4.180  0.4543 -0.1752 -2.1197
 4788WAT     H220958   8.955   0.331   4.233 -0.0045  0.1117 -1.3838
 4788WAT    EPW20959   9.001   0.400   4.208  0.2337  0.3311 -0.3777
 4789WAT      O20960   5.599   1.820   1.334 -0.2931 -0.1337 -0.0435
 4789WAT     H120961   5.615   1.743   1.389  3.9445 -0.1300 -0.8974
 4789WAT     H220962   5.527   1.794   1.277 -1.2942 -2.1163  1.9737
 4789WAT    EPW20963   5.592   1.807   1.334  0.1340 -0.3947  0.1100
 4790WAT      O20964  10.358   9.335   0.902 -0.1397 -0.7682 -0.0902
 4790WAT     H120965  10.270   9.326   0.867 -0.2846 -2.8800  0.6602
 4790WAT     H220966  10.396   9.248   0.896  1.3357 -0.2626  1.0663
 4790WAT    EPW20967  10.352   9.323   0.897  0.0358 -0.9799  0.1613
 4791WAT      O20968   6.669   4.032   6.413 -0.5733  0.0981  0.4462
 4791WAT     H120969   6.626   4.099   6.360 -0.9289 -0.2675  0.2713
 4791WAT     H220970   6.612   4.021   6.489  0.6863  1.7070  1.7013
 4791WAT    EPW20971   6.656   4.039   6.416 -0.4542  0.2620  0.5891
 4792WAT      O20972   5.840   5.382   8.109  0.1030 -0.7200 -0.3230
 4792WAT     H120973   5.863   5.463   8.154  1.6146 -1.6981  0.7571
 4792WAT     H220974   5.835   5.407   8.017 -0.5924  0.8166  0.0942
 4792WAT    EPW20975   5.843   5.396   8.103  0.2108 -0.6466 -0.1259
 4793WAT      O20976   4.791   9.135   4.360 -0.0441  0.1401  0.1017
 4793WAT     H120977   4.779   9.223   4.396  1.7713  0.3743  0.2311
 4793WAT     H220978   4.843   9.149   4.281 -0.8092 -0.7244 -0.5773
 4793WAT    EPW20979   4.796   9.148   4.354  0.0942  0.0572  0.0293
 4794WAT      O20980   9.038   4.599   7.838 -0.3708  0.4565  0.4319
 4794WAT     H120981   8.947   4.629   7.835 -0.6150 -0.3069  0.0471
 4794WAT     H220982   9.052   4.558   7.752  0.5115  1.0738  0.2724
 4794WAT    EPW20983   9.028   4.598   7.826 -0.2866  0.4370  0.3603
 4795WAT      O20984   1.700   2.644   5.944 -0.3244  0.4606  0.0079
 4795WAT     H120985   1.605   2.637   5.954 -0.2679 -1.2289 -0.3708
 4795WAT     H220986   1.736   2.607   6.025  0.0475  2.2844  0.7360
 4795WAT    EPW20987   1.693   2.638   5.956 -0.2679  0.4784  0.0539
 4796WAT      O20988   6.830   2.361   4.877  0.3558  0.1590  0.0347
 4796WAT     H120989   6.779   2.441   4.873 -0.0167 -0.0775  0.0311
 4796WAT     H220990   6.883   2.362   4.796 -0.0324  0.1431 -0.2210
 4796WAT    EPW20991   6.830   2.372   4.866  0.2553  0.1256  0.0007
 4797WAT      O20992   6.568   6.026   7.634 -0.3070 -0.8425 -0.2053
 4797WAT     H120993   6.628   5.964   7.592  0.0743 -0.1432 -0.7073
 4797WAT     H220994   6.483   6.009   7.592 -0.7693 -2.6234  1.3009
 4797WAT    EPW20995   6.565   6.015   7.623 -0.3176 -0.9851 -0.0727
 4798WAT      O20996   9.663   2.098   4.215 -0.8592 -0.5587  0.3511
 4798WAT     H120997   9.596   2.091   4.282 -0.2433 -0.3387  0.9989
 4798WAT     H220998   9.742   2.063   4.256 -0.8260 -1.8847 -0.7815
 4798WAT    EPW20999   9.665   2.093   4.229 -0.7734 -0.7046  0.2871
 4799WAT      O21000   6.077   2.713   6.517  0.1763 -0.2019  0.1930
 4799WAT     H121001   6.084   2.620   6.496  1.7457 -0.0981  0.1317
 4799WAT     H221002   6.056   2.715   6.611 -1.6192 -0.6099 -0.1703
 4799WAT    EPW21003   6.075   2.701   6.527  0.1466 -0.2420  0.1369
 4800WAT      O21004   9.011   6.381   0.175 -0.0857  0.2265 -0.4797
 4800WAT     H121005   8.984   6.461   0.221 -1.6094  0.9281 -2.4332
 4800WAT     H221006   8.933   6.325   0.177  0.6575 -0.8260 -0.0046
 4800WAT    EPW21007   8.997   6.384   0.181 -0.1888  0.1800 -0.6747
 4801WAT      O21008   5.266   2.285   7.526  0.6821  0.3396  0.9015
 4801WAT     H121009   5.232   2.208   7.573 -1.0878  1.2097  1.1311
 4801WAT     H221010   5.348   2.306   7.571  0.7425 -0.8785  1.4014
 4801WAT    EPW21011   5.272   2.277   7.538  0.4568  0.2939  0.9978
 4802WAT      O21012   8.627   2.472   2.518  0.3674  0.2156  0.0329
 4802WAT     H121013   8.663   2.433   2.598  1.0829 -0.4858 -0.6049
 4802WAT     H221014   8.580   2.550   2.547  0.8345  0.1051  1.1061
 4802WAT    EPW21015   8.626   2.477   2.532  0.5231  0.1086  0.0902
 4803WAT      O21016   6.430   0.344   7.911 -0.5321  0.0013  0.1857
 4803WAT     H121017   6.430   0.263   7.859  2.1276  1.0174 -1.6096
 4803WAT     H221018   6.460   0.316   7.997 -0.4084 -1.0500 -0.1783
 4803WAT    EPW21019   6.434   0.330   7.915 -0.1650 -0.0034 -0.0992
 4804WAT      O21020  10.180   7.712   0.275  0.0095 -0.2258 -0.4619
 4804WAT     H121021  10.198   7.773   0.347  1.3540  0.7770 -1.6003
 4804WAT     H221022  10.129   7.764   0.213 -0.6277 -0.9058 -0.5170
 4804WAT    EPW21023  10.176   7.727   0.277  0.1025 -0.1831 -0.6193
 4805WAT      O21024   8.443   2.638   3.774 -0.5763  0.3675 -0.6402
 4805WAT     H121025   8.366   2.688   3.744 -0.9655  0.5088  0.5460
 4805WAT     H221026   8.470   2.588   3.697 -2.0571  0.0755 -1.0053
 4805WAT    EPW21027   8.436   2.638   3.760 -0.8225  0.3475 -0.5319
 4806WAT      O21028   6.228   0.398   5.806 -0.5021  0.1391 -0.1006
 4806WAT     H121029   6.212   0.349   5.725 -1.1221 -2.5293  1.5002
 4806WAT     H221030   6.318   0.377   5.829 -1.2917 -1.8550  1.4969
 4806WAT    EPW21031   6.238   0.389   5.798 -0.6881 -0.4759  0.3211
 4807WAT      O21032   7.577   4.554   4.957 -0.2587 -0.3319  0.2838
 4807WAT     H121033   7.597   4.630   5.012 -2.1726 -1.1847  2.3067
 4807WAT     H221034   7.523   4.589   4.886  0.4967  0.4783  0.0992
 4807WAT    EPW21035   7.573   4.569   4.955 -0.4115 -0.3374  0.5262
 4808WAT      O21036   7.352   3.462   5.151 -0.1587 -0.1579  0.5566
 4808WAT     H121037   7.296   3.385   5.157  1.5337 -1.8015 -2.3297
 4808WAT     H221038   7.423   3.446   5.213 -0.6537 -0.1204  1.1371
 4808WAT    EPW21039   7.354   3.450   5.160 -0.0007 -0.3698  0.2525
 4809WAT      O21040   7.491   1.965   5.979  0.5719 -0.3091 -0.0062
 4809WAT     H121041   7.469   1.985   5.888  0.1895  1.5378  0.4536
 4809WAT     H221042   7.586   1.966   5.982  0.5828 -0.2112 -0.3386
 4809WAT    EPW21043   7.500   1.968   5.967  0.5226 -0.0526  0.0103
 4810WAT      O21044   6.569   0.087   7.032 -0.3595  0.2870 -0.1048
 4810WAT     H121045   6.481   0.074   6.998 -0.9389 -0.5019  1.6085
 4810WAT     H221046   6.616   0.008   7.007 -0.4687  0.1946 -0.0167
 4810WAT    EPW21047   6.564   0.075   7.024 -0.4504  0.1707  0.1328
 4811WAT      O21048   9.444   1.978   5.517  0.1349 -0.4949 -0.1632
 4811WAT     H121049   9.426   2.070   5.494  1.1330 -0.1408  0.4251
 4811WAT     H221050   9.378   1.957   5.583  0.9489  0.3596  0.9684
 4811WAT    EPW21051   9.433   1.988   5.522  0.3738 -0.3355  0.0637
 4812WAT      O21052   7.067   3.607   6.756  0.2920 -0.2255  0.5229
 4812WAT     H121053   7.004   3.580   6.823 -2.3127 -0.1274 -1.6896
 4812WAT     H221054   7.082   3.700   6.773  0.4644 -0.4322  1.5529
 4812WAT    EPW21055   7.060   3.615   6.767 -0.0288 -0.2398  0.3669
 4813WAT      O21056   9.446   2.402   2.672 -0.1589 -0.8019 -0.4046
 4813WAT     H121057   9.366   2.352   2.683 -0.6463  0.1057  0.3721
 4813WAT     H221058   9.500   2.350   2.613 -1.3569 -1.3855 -1.0036
 4813WAT    EPW21059   9.443   2.389   2.666 -0.3815 -0.7592 -0.3811
 4814WAT      O21060   4.640   3.595   6.579 -0.3884 -0.6683 -0.0740
 4814WAT     H121061   4.631   3.517   6.634 -1.8315 -1.0704 -0.8077
 4814WAT     H221062   4.728   3.627   6.597 -0.6927 -0.9312  2.2431
 4814WAT    EPW21063   4.650   3.589   6.589 -0.6192 -0.7561  0.1347
 4815WAT      O21064  10.261   2.484   3.325 -1.0583  0.6712  0.8625
 4815WAT     H121065  10.354   2.497   3.344 -0.7758 -0.3290  0.2275
 4815WAT     H221066  10.231   2.568   3.290  0.3315  0.2234 -1.6540
 4815WAT    EPW21067  10.269   2.497   3.323 -0.8373  0.4803  0.4469
 4816WAT      O21068   8.148   5.128   6.572  0.0555 -0.7712 -0.1125
 4816WAT     H121069   8.148   5.191   6.500  1.6625  1.7149  1.8805
 4816WAT     H221070   8.161   5.044   6.529 -0.7301  0.3603 -2.8274
 4816WAT    EPW21071   8.150   5.126   6.556  0.1640 -0.2942 -0.2079
 4817WAT      O21072   6.940   2.880   5.981  0.0440 -0.0069 -0.1488
 4817WAT     H121073   7.026   2.864   6.021  2.4353  1.5054 -4.0776
 4817WAT     H221074   6.884   2.905   6.054  2.5663 -2.0527  2.7777
 4817WAT    EPW21075   6.944   2.881   5.996  0.6921 -0.0772 -0.2809
 4818WAT      O21076   5.733  10.358   6.295  0.9990 -0.2644  0.4488
 4818WAT     H121077   5.817  10.398   6.319  0.9818  0.2474 -0.3139
 4818WAT     H221078   5.689  10.425   6.243  0.2643 -0.6674  0.5411
 4818WAT    EPW21079   5.738  10.372   6.291  0.8998 -0.2503  0.3603
 4819WAT      O21080   6.810   2.639   7.973 -0.2954 -0.3007  0.4049
 4819WAT     H121081   6.827   2.566   7.914 -0.0086 -0.7544  1.0369
 4819WAT     H221082   6.754   2.698   7.923 -0.1456 -0.7287 -0.2782
 4819WAT    EPW21083   6.805   2.637   7.959 -0.2379 -0.4170  0.3982
 4820WAT      O21084   8.978   4.227   6.695  0.2663 -0.0180 -0.3971
 4820WAT     H121085   8.884   4.222   6.680 -0.1194  2.6138  0.7062
 4820WAT     H221086   8.993   4.176   6.774 -1.0686  3.1208  2.0978
 4820WAT    EPW21087   8.968   4.220   6.703  0.0396  0.7432  0.0775
 4821WAT      O21088   8.429   2.995   2.761 -0.4717  0.1645  0.7510
 4821WAT     H121089   8.358   2.940   2.729 -0.7148 -0.5519  2.3958
 4821WAT     H221090   8.509   2.952   2.729 -0.7190  1.0026 -1.1459
 4821WAT    EPW21091   8.430   2.982   2.753 -0.5360  0.1806  0.7178
 4822WAT      O21092   6.631   2.549   5.028 -0.4947  0.1119  0.5727
 4822WAT     H121093   6.568   2.520   5.094 -1.0852  1.6320  0.7159
 4822WAT     H221094   6.577   2.582   4.956  0.1407 -1.3830 -0.6412
 4822WAT    EPW21095   6.615   2.549   5.027 -0.4885  0.1153  0.4315
 4823WAT      O21096   6.641   2.628   2.670 -0.5145  0.3854  0.4457
 4823WAT     H121097   6.720   2.593   2.712 -0.9664 -0.8117  0.3456
 4823WAT     H221098   6.668   2.712   2.633  1.3080 -0.9415 -1.4774
 4823WAT    EPW21099   6.655   2.635   2.671 -0.3338  0.0525  0.1788
 4824WAT      O21100   9.456   2.842   7.998 -0.3658 -0.0053  0.1162
 4824WAT     H121101   9.536   2.869   7.952  0.6529 -1.0917  1.1733
 4824WAT     H221102   9.461   2.887   8.082 -1.5918  0.9973 -0.3225
 4824WAT    EPW21103   9.467   2.852   8.003 -0.3934 -0.0165  0.1979
 4825WAT      O21104   0.717   2.971   5.935 -0.9115 -0.4727  0.1976
 4825WAT     H121105   0.733   3.009   6.021  1.4035 -0.7203 -0.0713
 4825WAT     H221106   0.656   3.032   5.893 -1.3775  0.1199  1.6524
 4825WAT    EPW21107   0.711   2.984   5.941 -0.6676 -0.4272  0.3543
 4826WAT      O21108   8.527   1.635   6.549 -0.5786  0.5414  0.5105
 4826WAT     H121109   8.452   1.632   6.609  0.3914 -0.0156  1.7313
 4826WAT     H221110   8.546   1.728   6.538 -1.3374  0.6827  0.3015
 4826WAT    EPW21111   8.519   1.647   6.555 -0.5507  0.4866  0.6437
 4827WAT      O21112   6.529  10.083   3.417 -0.0019  0.0477 -0.4489
 4827WAT     H121113   6.533  10.152   3.484  1.1921  0.0246 -0.4902
 4827WAT     H221114   6.487  10.010   3.462 -1.0503  0.6957 -0.3247
 4827WAT    EPW21115   6.524  10.083   3.432  0.0176  0.1302 -0.4380
 4828WAT      O21116   8.178   1.953   5.253  0.1324  0.0014  0.2351
 4828WAT     H121117   8.091   1.940   5.292 -0.3109 -3.5867 -1.5279
 4828WAT     H221118   8.172   2.038   5.210 -1.1183  1.6251  3.2603
 4828WAT    EPW21119   8.165   1.963   5.253 -0.0906 -0.2577  0.4015
 4829WAT      O21120   7.914   1.578   7.569 -0.1480  0.0863 -0.3618
 4829WAT     H121121   7.988   1.621   7.611  0.1157  1.3338 -1.9804
 4829WAT     H221122   7.841   1.639   7.581 -0.9908 -1.1688  1.2977
 4829WAT    EPW21123   7.914   1.592   7.576 -0.2241  0.0854 -0.3562
 4830WAT      O21124   7.215   2.078   5.604 -0.0587  0.3301  0.0576
 4830WAT     H121125   7.160   2.153   5.625  1.0852  1.5680 -1.1538
 4830WAT     H221126   7.165   2.002   5.635 -1.5007  1.5365  0.8088
 4830WAT    EPW21127   7.201   2.078   5.611 -0.0980  0.6524 -0.0029
 4831WAT      O21128   8.963   3.170   5.487  0.5495 -0.1559 -0.5201
 4831WAT     H121129   8.943   3.085   5.526 -1.6176  0.3473 -0.4093
 4831WAT     H221130   8.947   3.159   5.394 -2.4730  0.7471 -0.2192
 4831WAT    EPW21131   8.958   3.157   5.480 -0.1354  0.0296 -0.4661
 4832WAT      O21132   9.723   0.461   4.867 -0.4973  0.5416  0.0485
 4832WAT     H121133   9.635   0.432   4.887 -0.1508  0.2326  1.2465
 4832WAT     H221134   9.771   0.381   4.846  0.2833  0.2241  2.6671
 4832WAT    EPW21135   9.718   0.447   4.867 -0.3486  0.4590  0.5517
 4833WAT      O21136  10.960   4.340   0.288  0.1299 -0.2701  0.1908
 4833WAT     H121137  10.892   4.309   0.228  0.0239 -2.1774  1.2215
 4833WAT     H221138  11.040   4.297   0.257  0.9293  1.9159 -0.9776
 4833WAT    EPW21139  10.962   4.330   0.276  0.2213 -0.2332  0.1726
 4834WAT      O21140   9.547   6.140   5.573 -0.4909 -0.0675 -0.0448
 4834WAT     H121141   9.563   6.168   5.483 -2.2240  0.0682 -0.3502
 4834WAT     H221142   9.452   6.128   5.578 -0.4097 -0.2911  1.7091
 4834WAT    EPW21143   9.536   6.142   5.562 -0.7091 -0.0792  0.1464
 4835WAT      O21144   9.609   3.698   7.760 -0.2006 -0.3363 -0.2082
 4835WAT     H121145   9.603   3.789   7.733  2.0636  0.5052  1.7825
 4835WAT     H221146   9.703   3.678   7.759 -0.6701 -2.9428 -1.3803
 4835WAT    EPW21147   9.621   3.707   7.757  0.0358 -0.5691 -0.1004
 4836WAT      O21148   6.289   3.615   5.933 -0.4197 -0.0601  0.2242
 4836WAT     H121149   6.325   3.545   5.987  0.4027  0.3295  0.1849
 4836WAT     H221150   6.261   3.571   5.852  0.9710 -0.2177 -0.1973
 4836WAT    EPW21151   6.290   3.600   5.929 -0.1276 -0.0296  0.1633
 4837WAT      O21152   9.591   2.237   6.720  0.2355  0.3276 -0.2319
 4837WAT     H121153   9.607   2.287   6.800  0.5095 -0.2186  0.0626
 4837WAT     H221154   9.569   2.303   6.654  1.2755  0.9037 -0.0255
 4837WAT    EPW21155   9.590   2.252   6.722  0.4091  0.3315 -0.1659
 4838WAT      O21156   5.913   3.623   7.709 -0.2570 -0.4755  0.6214
 4838WAT     H121157   5.976   3.577   7.765 -0.2617  0.6044  1.5362
 4838WAT     H221158   5.899   3.707   7.752  1.8279  1.5936 -2.4064
 4838WAT    EPW21159   5.919   3.628   7.722  0.0172 -0.0601  0.3426
 4839WAT      O21160   6.414   4.077   3.239 -0.0384  0.0157  0.3440
 4839WAT     H121161   6.395   4.171   3.237 -1.2191 -0.1825  1.2390
 4839WAT     H221162   6.393   4.050   3.329  0.3080 -1.0984  0.1081
 4839WAT    EPW21163   6.409   4.086   3.251 -0.1485 -0.1574  0.4309
 4840WAT      O21164   2.383   4.871   1.500  0.3101 -0.1503  0.4845
 4840WAT     H121165   2.418   4.942   1.447 -1.7801  0.9525  0.4695
 4840WAT     H221166   2.391   4.793   1.445  1.0777  0.3749 -0.1709
 4840WAT    EPW21167   2.389   4.870   1.486  0.1357  0.0646  0.3961
 4841WAT      O21168  10.181   2.781   7.078 -0.2433  0.0280  0.1275
 4841WAT     H121169  10.223   2.695   7.086  1.0118  0.2536 -2.8975
 4841WAT     H221170  10.087   2.762   7.085  0.0709 -1.0462  2.8703
 4841WAT    EPW21171  10.174   2.767   7.080 -0.0362 -0.0839  0.0904
 4842WAT      O21172  10.427   2.603   7.206  0.8064  0.0079  0.3201
 4842WAT     H121173  10.382   2.531   7.163  0.7106  0.3651 -0.1834
 4842WAT     H221174  10.393   2.602   7.296  1.0964 -0.8126  0.4293
 4842WAT    EPW21175  10.416   2.593   7.212  0.8316 -0.0533  0.2682
 4843WAT      O21176   8.337   0.993   3.211  0.2596  0.8166  0.0182
 4843WAT     H121177   8.432   1.001   3.207  0.4284 -0.8596  0.1007
 4843WAT     H221178   8.321   0.930   3.281 -0.8251  0.0272 -0.8967
 4843WAT    EPW21179   8.347   0.986   3.219  0.1392  0.4914 -0.0917
 4844WAT      O21180   3.876   9.107   0.905 -0.2020  0.6115 -0.3407
 4844WAT     H121181   3.813   9.179   0.902 -2.8903 -1.6322 -1.7868
 4844WAT     H221182   3.839   9.040   0.848  3.8091 -0.7006 -1.7370
 4844WAT    EPW21183   3.863   9.108   0.897 -0.0275  0.1426 -0.7156
 4845WAT      O21184   8.569   2.135   8.774  0.5556 -0.0492 -0.3203
 4845WAT     H121185   8.526   2.187   8.841  1.2718 -0.0819  0.1708
 4845WAT     H221186   8.642   2.189   8.745 -0.8150  0.8042 -2.4479
 4845WAT    EPW21187   8.573   2.149   8.779  0.4692  0.0590 -0.5360
 4846WAT      O21188   9.048   5.113   6.574 -0.1366  0.5390 -0.0532
 4846WAT     H121189   9.082   5.203   6.577 -1.7643  1.2928 -1.8780
 4846WAT     H221190   8.963   5.119   6.617 -0.2703 -0.1096 -0.2255
 4846WAT    EPW21191   9.042   5.126   6.580 -0.3691  0.5529 -0.3166
 4847WAT      O21192   3.993   3.318   8.120  0.1118 -0.6731 -0.3056
 4847WAT     H121193   4.041   3.368   8.186  1.7330 -1.2890 -0.9755
 4847WAT     H221194   4.060   3.268   8.073 -1.1055 -1.0395 -1.7519
 4847WAT    EPW21195   4.008   3.318   8.122  0.1650 -0.8029 -0.5846
 4848WAT      O21196   6.518   1.330   6.688 -0.6133 -0.1360 -0.3184
 4848WAT     H121197   6.490   1.318   6.598 -1.7368  1.7953 -0.2835
 4848WAT     H221198   6.450   1.384   6.728 -0.7995 -1.9147  2.0616
 4848WAT    EPW21199   6.505   1.335   6.682 -0.7861 -0.1159  0.0000
 4849WAT      O21200   7.868   2.835   7.633  0.8734 -0.1506 -0.5151
 4849WAT     H121201   7.894   2.850   7.542  1.3185  0.9756 -0.2250
 4849WAT     H221202   7.822   2.915   7.658 -2.1063 -1.6804 -0.6874
 4849WAT    EPW21203   7.866   2.848   7.624  0.5391 -0.2037 -0.4992
 4850WAT      O21204   6.598   3.854   5.241  0.9625  0.1786  0.7540
 4850WAT     H121205   6.660   3.892   5.303 -1.6933  0.5669  3.4298
 4850WAT     H221206   6.549   3.789   5.293 -2.0663  1.1985 -0.5984
 4850WAT    EPW21207   6.599   3.850   5.256  0.2127  0.3642  0.9284
 4851WAT      O21208   8.466   1.630   8.343  0.1750  0.3160  0.7013
 4851WAT     H121209   8.555   1.666   8.352  0.9923 -1.5738  0.7604
 4851WAT     H221210   8.422   1.652   8.425  0.4610  1.5466  0.5458
 4851WAT    EPW21211   8.472   1.637   8.355  0.3204  0.2290  0.6886
 4852WAT      O21212   4.988   1.442   4.278  0.0992 -0.5246 -0.1249
 4852WAT     H121213   5.057   1.376   4.266  3.0207  2.2487  0.0948
 4852WAT     H221214   5.021   1.520   4.234 -2.5802  1.2260  0.7002
 4852WAT    EPW21215   5.001   1.443   4.271  0.1309  0.0721  0.0129
 4853WAT      O21216   8.852   1.367   1.807  0.6474 -0.7404  0.5443
 4853WAT     H121217   8.793   1.426   1.855  1.2774  0.1131  0.2925
 4853WAT     H221218   8.794   1.315   1.752  0.2517  3.2183 -3.2762
 4853WAT    EPW21219   8.837   1.368   1.806  0.6785 -0.1056  0.0072
 4854WAT      O21220   4.987   1.875   2.199 -0.3434  0.2798 -0.2425
 4854WAT     H121221   5.006   1.818   2.273 -2.7557 -1.3581 -0.7412
 4854WAT     H221222   5.036   1.837   2.126 -0.7156 -0.2565 -0.2230
 4854WAT    EPW21223   4.996   1.863   2.199 -0.7105 -0.0070 -0.3058
 4855WAT      O21224   4.797  10.046   4.265  0.0954 -0.0037  0.1854
 4855WAT     H121225   4.844  10.129   4.264 -2.5476  1.6394 -2.0317
 4855WAT     H221226   4.842   9.992   4.200  2.2329 -0.6834  2.1014
 4855WAT    EPW21227   4.809  10.050   4.256  0.0286  0.1235  0.1459
 4856WAT      O21228   3.069   9.112   5.636  0.0759 -0.4483 -0.6445
 4856WAT     H121229   3.043   9.021   5.627  0.9446 -0.5925 -1.9249
 4856WAT     H221230   2.987   9.159   5.649 -0.2749 -1.5504  1.7476
 4856WAT    EPW21231   3.055   9.106   5.636  0.1442 -0.6127 -0.4978
 4857WAT      O21232   3.868   9.028   6.777 -0.1397 -0.0524  0.1788
 4857WAT     H121233   3.786   9.076   6.781 -1.6309 -2.3162 -1.0826
 4857WAT     H221234   3.888   9.007   6.869 -2.8591 -2.3534  0.3715
 4857WAT    EPW21235   3.860   9.032   6.790 -0.6950 -0.6537  0.0379
 4858WAT      O21236   8.563   2.854   8.764  0.6830  0.2125 -1.1105
 4858WAT     H121237   8.543   2.930   8.709  1.0523  1.1711  0.0219
 4858WAT     H221238   8.656   2.864   8.785  0.4178  0.2102  0.1463
 4858WAT    EPW21239   8.573   2.865   8.759  0.6967  0.3386 -0.7958
 4859WAT      O21240   4.388   9.384   3.505 -0.1963 -0.8625  0.2280
 4859WAT     H121241   4.465   9.391   3.562 -1.2051 -2.5113  1.8894
 4859WAT     H221242   4.420   9.335   3.429  1.0616  1.0044 -0.5297
 4859WAT    EPW21243   4.403   9.378   3.502 -0.1633 -0.8335  0.3473
 4860WAT      O21244   7.839   5.547   5.812 -0.8624  0.5774  0.7921
 4860WAT     H121245   7.819   5.466   5.766 -0.5628  0.9718 -0.0590
 4860WAT     H221246   7.793   5.615   5.762  0.4772  1.1694  0.3254
 4860WAT    EPW21247   7.830   5.545   5.800 -0.6466  0.7074  0.6182
 4861WAT      O21248   5.571   8.596   8.718  0.2093 -0.3093  0.6588
 4861WAT     H121249   5.592   8.639   8.635 -0.8600 -0.7956  0.1307
 4861WAT     H221250   5.616   8.512   8.714 -0.6691 -0.7628  0.1249
 4861WAT    EPW21251   5.580   8.591   8.707 -0.0479 -0.4339  0.5188
 4862WAT      O21252   6.772   5.105   7.157 -0.0097 -0.6966 -0.8684
 4862WAT     H121253   6.832   5.178   7.172 -1.8935  0.9061 -0.6971
 4862WAT     H221254   6.782   5.083   7.065 -0.0768  0.4147 -1.1483
 4862WAT    EPW21255   6.781   5.111   7.147 -0.2670 -0.3388 -0.8831
 4863WAT      O21256  10.636   9.108   0.751 -0.4257  0.1142  0.3207
 4863WAT     H121257  10.673   9.138   0.668 -0.9960  0.2014  0.0945
 4863WAT     H221258  10.711   9.106   0.812  0.1090 -0.5099 -0.3410
 4863WAT    EPW21259  10.651   9.112   0.748 -0.4301  0.0434  0.2037
 4864WAT      O21260   0.962   9.719   6.529 -0.3565 -0.6592 -0.6289
 4864WAT     H121261   0.878   9.672   6.535  1.3477 -3.7877  1.9552
 4864WAT     H221262   0.999   9.713   6.617  0.9526  4.1843 -0.5780
 4864WAT    EPW21263   0.956   9.712   6.542  0.0409 -0.4334 -0.2813
 4865WAT      O21264   6.317   4.032   5.184 -0.6030 -0.0446 -0.6118
 4865WAT     H121265   6.299   3.945   5.219 -2.4035  0.2772 -0.6228
 4865WAT     H221266   6.401   4.057   5.222 -0.8310 -1.1373  0.6689
 4865WAT    EPW21267   6.325   4.024   5.193 -0.8705 -0.1462 -0.4444
 4866WAT      O21268  10.302   0.154   6.072  0.5364  0.4745  0.3446
 4866WAT     H121269  10.238   0.207   6.024 -0.5258 -2.2825 -1.5576
 4866WAT     H221270  10.272   0.157   6.163 -0.6289  1.5117 -0.0424
 4866WAT    EPW21271  10.289   0.161   6.078  0.2427  0.2477  0.0427
 4867WAT      O21272   9.395   1.855   7.362  0.6544  0.5486 -0.0575
 4867WAT     H121273   9.315   1.854   7.309  4.1866  2.2852 -6.5113
 4867WAT     H221274   9.388   1.934   7.415 -0.9168  2.3050 -2.6547
 4867WAT    EPW21275   9.384   1.865   7.362  0.9131  1.0093 -1.2515
 4868WAT      O21276   6.622   2.191   2.469 -0.0828  0.0008 -0.0872
 4868WAT     H121277   6.563   2.150   2.531  3.1123 -0.6176  2.8916
 4868WAT     H221278   6.596   2.283   2.468 -1.7618 -0.4481  0.1957
 4868WAT    EPW21279   6.611   2.198   2.477  0.1171 -0.1401  0.3431
 4869WAT      O21280   5.083  10.170   0.507 -0.5778  0.2654  0.2647
 4869WAT     H121281   5.127  10.089   0.533 -0.7189 -0.0804 -0.5387
 4869WAT     H221282   5.154  10.226   0.476 -0.7773 -0.8778 -2.5565
 4869WAT    EPW21283   5.098  10.167   0.506 -0.6227  0.0691 -0.2133
 4870WAT      O21284   6.706   2.022   8.824 -0.8056 -0.4538 -0.0551
 4870WAT     H121285   6.787   1.997   8.868 -1.1195  0.1849  0.9121
 4870WAT     H221286   6.722   2.002   8.732 -0.0835 -1.6925  0.3193
 4870WAT    EPW21287   6.719   2.016   8.817 -0.7517 -0.5330  0.1216
 4871WAT      O21288   5.417   0.829   8.979 -0.3588  0.0850  0.3023
 4871WAT     H121289   5.380   0.900   8.926  2.1621  1.5536  0.3168
 4871WAT     H221290   5.446   0.764   8.916 -0.8074  0.0384  0.1439
 4871WAT    EPW21291   5.416   0.830   8.964 -0.0854  0.2726  0.2832
 4872WAT      O21292   0.759   5.180   0.487  0.0391  0.4322 -0.0380
 4872WAT     H121293   0.699   5.238   0.440  0.4713  0.9967  0.1011
 4872WAT     H221294   0.701   5.122   0.537 -0.4024  0.5136 -0.4451
 4872WAT    EPW21295   0.743   5.180   0.488  0.0379  0.5171 -0.0733
 4873WAT      O21296   9.652   1.675   7.302 -0.1229 -0.6435  0.2309
 4873WAT     H121297   9.593   1.739   7.343 -1.8412  0.1786 -3.1737
 4873WAT     H221298   9.698   1.635   7.376 -1.8351  1.7120  2.8037
 4873WAT    EPW21299   9.650   1.678   7.318 -0.5751 -0.2244  0.1211
 4874WAT      O21300   8.345   4.233   5.047  0.1146  0.1510  0.3930
 4874WAT     H121301   8.428   4.272   5.072 -0.2422  1.2686 -0.1015
 4874WAT     H221302   8.282   4.270   5.109 -0.9791  3.7593 -2.4696
 4874WAT    EPW21303   8.347   4.243   5.058 -0.0768  0.7746 -0.0498
 4875WAT      O21304   9.114   1.990   6.893 -0.0813 -0.9378 -0.2043
 4875WAT     H121305   9.106   1.930   6.967 -0.0624 -0.4468  0.2061
 4875WAT     H221306   9.070   2.070   6.923  0.5334 -0.4963 -0.4553
 4875WAT    EPW21307   9.107   1.993   6.907  0.0024 -0.8149 -0.1833
 4876WAT      O21308   8.686   4.782   3.674 -0.2886 -0.9350  0.2056
 4876WAT     H121309   8.763   4.839   3.669  0.4126 -1.9071 -0.3845
 4876WAT     H221310   8.618   4.832   3.629  0.0154 -0.1069  0.6327
 4876WAT    EPW21311   8.687   4.796   3.667 -0.1559 -0.9539  0.1839
 4877WAT      O21312   5.323   2.894   6.264 -0.0678 -0.3037 -0.4477
 4877WAT     H121313   5.356   2.842   6.338  0.2636  1.2781  0.5711
 4877WAT     H221314   5.312   2.982   6.300  0.0056  0.4934 -2.2710
 4877WAT    EPW21315   5.326   2.899   6.278 -0.0145  0.0100 -0.5538
 4878WAT      O21316   5.468   2.300   3.125  0.6058 -0.6744 -1.2659
 4878WAT     H121317   5.538   2.362   3.102  1.5911 -0.7604  1.1362
 4878WAT     H221318   5.513   2.217   3.138  0.0096 -0.8449 -0.1567
 4878WAT    EPW21319   5.483   2.298   3.124  0.6573 -0.7082 -0.8028
 4879WAT      O21320   7.741   2.984   6.544  0.2497  0.3923 -0.6553
 4879WAT     H121321   7.741   2.891   6.566  1.5781  0.2943 -1.0192
 4879WAT     H221322   7.705   2.988   6.456  0.3039  0.2195 -0.6847
 4879WAT    EPW21323   7.736   2.972   6.536  0.4320  0.3566 -0.7074
 4880WAT      O21324   9.489   1.875   4.154 -0.3770  0.9709  0.3254
 4880WAT     H121325   9.566   1.897   4.207  0.5153 -0.5503 -0.2855
 4880WAT     H221326   9.462   1.959   4.116  0.6241  1.6330  1.0246
 4880WAT    EPW21327   9.495   1.889   4.156 -0.1278  0.8575  0.3371
 4881WAT      O21328   3.115   1.652   2.729  0.5769 -0.3162  0.1465
 4881WAT     H121329   3.129   1.565   2.690  0.9956 -0.0790 -0.2453
 4881WAT     H221330   3.020   1.659   2.738  0.4993 -0.5497 -0.4492
 4881WAT    EPW21331   3.105   1.642   2.725  0.6218 -0.3157  0.0165
 4882WAT      O21332   6.639   0.271   4.821  0.3875  0.2725  0.2093
 4882WAT     H121333   6.578   0.325   4.771  0.6114 -0.7307 -1.1793
 4882WAT     H221334   6.723   0.282   4.778  0.3163 -1.6493 -0.5061
 4882WAT    EPW21335   6.642   0.280   4.809  0.4075 -0.1132 -0.0682
 4883WAT      O21336   8.750   0.915   6.709  0.2189  0.1460  0.1392
 4883WAT     H121337   8.715   1.004   6.708 -2.1708 -0.6863  1.4432
 4883WAT     H221338   8.815   0.915   6.779  0.2268  0.8496  0.1400
 4883WAT    EPW21339   8.754   0.926   6.718 -0.0954  0.1290  0.3111
 4884WAT      O21340  10.412   4.564   4.887 -0.7915  0.1319 -0.5535
 4884WAT     H121341  10.392   4.651   4.853 -1.6470 -0.6112 -2.0833
 4884WAT     H221342  10.336   4.511   4.862 -0.0758 -1.1562 -0.0789
 4884WAT    EPW21343  10.399   4.569   4.879 -0.8097 -0.1359 -0.6926
 4885WAT      O21344   9.092   2.709   6.290  0.6353 -0.1296 -0.1915
 4885WAT     H121345   9.054   2.715   6.202 -2.2967 -0.7501  0.9217
 4885WAT     H221346   9.061   2.624   6.323  1.7030  0.0876  1.4481
 4885WAT    EPW21347   9.083   2.698   6.282  0.3896 -0.1830  0.1717
 4886WAT      O21348   8.210   3.956   4.049  0.0201 -0.4983  0.1036
 4886WAT     H121349   8.267   3.962   4.126  0.0045 -2.0316  0.2717
 4886WAT     H221350   8.252   3.890   3.994 -1.1414 -1.0407 -0.1598
 4886WAT    EPW21351   8.223   3.948   4.052 -0.1349 -0.7721  0.0911
 4887WAT      O21352   8.923   1.761   8.679 -0.1807 -0.6248 -0.1793
 4887WAT     H121353   8.853   1.767   8.744 -0.6024 -2.3365 -0.4241
 4887WAT     H221354   9.003   1.762   8.731 -0.2872  1.8692  0.0734
 4887WAT    EPW21355   8.924   1.762   8.694 -0.2499 -0.5216 -0.1783
 4888WAT      O21356   0.721   9.413   5.403  0.0059  0.1205 -0.6686
 4888WAT     H121357   0.723   9.362   5.322 -1.8945 -0.1927 -0.5649
 4888WAT     H221358   0.641   9.385   5.448  1.2059  0.0000  1.5410
 4888WAT    EPW21359   0.710   9.403   5.398 -0.0865  0.0629 -0.3633
 4889WAT      O21360  10.409   4.334   5.331 -0.2347  0.4898  0.0185
 4889WAT     H121361  10.343   4.306   5.267  0.7181  1.3659 -1.4101
 4889WAT     H221362  10.359   4.380   5.399 -1.1469  0.6674 -0.7571
 4889WAT    EPW21363  10.394   4.337   5.332 -0.2298  0.6285 -0.2723
 4890WAT      O21364   5.993   3.866   7.086  0.3028  0.1519  0.3589
 4890WAT     H121365   6.082   3.893   7.061 -0.0673  0.3142 -0.8603
 4890WAT     H221366   6.005   3.813   7.165  1.3512  1.2271  0.9516
 4890WAT    EPW21367   6.007   3.862   7.093  0.3924  0.3150  0.2763
 4891WAT      O21368  10.267   3.854   6.299  0.2628  0.6809  0.3544
 4891WAT     H121369  10.220   3.829   6.220 -0.6637 -1.2172  1.4315
 4891WAT     H221370  10.216   3.926   6.336  2.0008  3.2829 -1.8891
 4891WAT    EPW21371  10.254   3.860   6.293  0.3700  0.7738  0.2007
 4892WAT      O21372   2.128   7.825   4.918 -0.4494  1.0543  0.3745
 4892WAT     H121373   2.034   7.815   4.903 -0.6017  0.7750  1.4441
 4892WAT     H221374   2.168   7.777   4.846 -1.1575 -0.3717  0.8827
 4892WAT    EPW21375   2.121   7.817   4.907 -0.5629  0.8297  0.5825
 4893WAT      O21376   7.521   1.544   5.474 -0.5269 -0.0711 -0.9108
 4893WAT     H121377   7.460   1.562   5.403 -1.6639  1.0329  0.3082
 4893WAT     H221378   7.508   1.451   5.494 -1.2808 -0.0141 -1.1333
 4893WAT    EPW21379   7.511   1.534   5.467 -0.7763  0.0821 -0.7792
 4894WAT      O21380   6.953   2.151   7.060  0.0993  0.2341  0.0671
 4894WAT     H121381   6.908   2.096   6.996  0.1984 -0.2936  0.4414
 4894WAT     H221382   6.901   2.231   7.064  0.5996  0.6567 -1.3347
 4894WAT    EPW21383   6.940   2.155   7.052  0.1781  0.2204 -0.0687
 4895WAT      O21384   0.906  10.226   6.552 -0.2679 -0.6143  0.3215
 4895WAT     H121385   0.934  10.293   6.489  1.3562 -0.1539  1.4796
 4895WAT     H221386   0.849  10.272   6.613 -0.1171 -0.5788  0.4332
 4895WAT    EPW21387   0.902  10.241   6.551 -0.0338 -0.5488  0.4890
 4896WAT      O21388   8.142   2.290   7.068 -0.1148  0.0113  0.3507
 4896WAT     H121389   8.129   2.324   6.980  1.0184 -1.8560 -0.5906
 4896WAT     H221390   8.224   2.241   7.063 -0.9144 -1.6189  1.9659
 4896WAT    EPW21391   8.151   2.288   7.056 -0.0710 -0.4501  0.4396
 4897WAT      O21392   7.616   3.594   7.869 -0.3814  0.0502  0.0707
 4897WAT     H121393   7.648   3.623   7.954  3.0555 -0.4481 -0.9263
 4897WAT     H221394   7.575   3.673   7.831  1.1513  1.2534  0.8073
 4897WAT    EPW21395   7.615   3.609   7.875  0.2739  0.1433  0.0362
 4898WAT      O21396   0.028   0.573   5.700 -0.2137  0.2699  0.3583
 4898WAT     H121397   0.048   0.481   5.715 -2.5871 -0.7504 -1.8538
 4898WAT     H221398   0.083   0.598   5.626 -0.2710  0.3373  0.3385
 4898WAT    EPW21399   0.038   0.564   5.692 -0.5343  0.1442  0.0637
 4899WAT      O21400  10.578   1.241   6.795  0.0155 -0.0541  0.4429
 4899WAT     H121401  10.488   1.275   6.798 -0.5689 -0.9093 -2.9504
 4899WAT     H221402  10.567   1.146   6.787  1.2754 -0.2538  0.8685
 4899WAT    EPW21403  10.564   1.233   6.794  0.1054 -0.1932  0.0513
 4900WAT      O21404   8.653   2.027   6.708 -0.3560 -0.7151 -0.1697
 4900WAT     H121405   8.656   2.111   6.662  0.0028 -0.7636 -0.2378
 4900WAT     H221406   8.743   2.012   6.737 -0.3958 -1.1221 -0.2428
 4900WAT    EPW21407   8.666   2.036   6.706 -0.3142 -0.7751 -0.1881
 4901WAT      O21408   7.738   3.483   6.260 -0.0147 -0.0213 -0.0243
 4901WAT     H121409   7.818   3.432   6.249  0.6860  1.0830 -0.1031
 4901WAT     H221410   7.705   3.496   6.171  0.9286  1.4105 -0.1911
 4901WAT    EPW21411   7.744   3.478   6.247  0.2022  0.3133 -0.0567
 4902WAT      O21412   7.734   3.895   8.449 -0.2262 -0.0710 -0.2400
 4902WAT     H121413   7.755   3.951   8.523 -1.8090 -1.2938  1.2226
 4902WAT     H221414   7.740   3.953   8.373  2.9652  0.8610  0.5750
 4902WAT    EPW21415   7.738   3.910   8.449 -0.0138 -0.1094  0.0601
 4903WAT      O21416   7.752   1.461   5.314  1.1051  0.0826  0.0933
 4903WAT     H121417   7.799   1.545   5.307  0.1519  0.6704  0.5673
 4903WAT     H221418   7.684   1.477   5.379  1.7904 -1.4937  1.2621
 4903WAT    EPW21419   7.750   1.474   5.322  1.0698 -0.0478  0.3099
 4904WAT      O21420  10.090   4.303   6.751  0.3727  0.0623  0.5178
 4904WAT     H121421  10.044   4.329   6.671  2.4925  0.0808 -0.7643
 4904WAT     H221422  10.025   4.254   6.801 -0.4189 -1.9130 -2.2328
 4904WAT    EPW21423  10.076   4.300   6.747  0.5479 -0.1957 -0.0143
 4905WAT      O21424   6.216   1.733   6.614 -0.5484 -0.4970 -0.0128
 4905WAT     H121425   6.206   1.668   6.545 -1.1259  0.8318 -1.2309
 4905WAT     H221426   6.264   1.804   6.573  0.9021 -0.5041  1.5632
 4905WAT    EPW21427   6.221   1.734   6.600 -0.4334 -0.3227  0.0343
 4906WAT      O21428  10.699   0.430   6.762  0.4078 -0.1005 -0.2513
 4906WAT     H121429  10.658   0.345   6.776 -0.5670  0.2813 -0.6600
 4906WAT     H221430  10.774   0.431   6.821  0.0243 -0.9670  0.2682
 4906WAT    EPW21431  10.703   0.419   6.771  0.2289 -0.1644 -0.2367
 4907WAT      O21432   5.865   3.680   6.330  0.3704  0.3691 -0.5406
 4907WAT     H121433   5.804   3.607   6.325  0.2747  0.4619 -0.7772
 4907WAT     H221434   5.818   3.748   6.378  0.8542 -0.1013  0.6246
 4907WAT    EPW21435   5.851   3.680   6.335  0.4215  0.3192 -0.4182
 4908WAT      O21436   6.276   9.704   3.249  0.6301 -0.2208  0.5745
 4908WAT     H121437   6.265   9.734   3.158  1.9443 -1.4998 -0.0551
 4908WAT     H221438   6.301   9.782   3.297 -1.0397  0.6783  0.0594
 4908WAT    EPW21439   6.278   9.718   3.243  0.5832 -0.2704  0.4236
 4909WAT      O21440   6.449   1.850   5.317 -0.5568  0.5601 -0.3334
 4909WAT     H121441   6.374   1.808   5.275  0.7768  0.9949 -3.3892
 4909WAT     H221442   6.438   1.943   5.297  0.9116  0.5921 -1.1106
 4909WAT    EPW21443   6.438   1.857   5.309 -0.1874  0.6217 -0.8392
 4910WAT      O21444   9.688   0.665   8.275 -0.3091  0.4151  0.1142
 4910WAT     H121445   9.740   0.745   8.284  0.4096  0.1589 -1.5333
 4910WAT     H221446   9.665   0.661   8.183 -0.5885 -1.1340  0.2272
 4910WAT    EPW21447   9.692   0.675   8.264 -0.2513  0.1769 -0.0877
 4911WAT      O21448  10.256   2.569   7.795 -0.2051 -0.5348  0.0017
 4911WAT     H121449  10.283   2.485   7.757  1.0156 -0.1601  0.0108
 4911WAT     H221450  10.260   2.555   7.890 -1.8235 -1.0176  0.0294
 4911WAT    EPW21451  10.260   2.556   7.803 -0.2575 -0.5491  0.0064
 4912WAT      O21452   8.110   0.753   2.417  0.0155  0.4953  0.2199
 4912WAT     H121453   8.153   0.771   2.500  0.0331  0.0607  0.3119
 4912WAT     H221454   8.016   0.755   2.438  0.0117  0.7061  0.1802
 4912WAT    EPW21455   8.103   0.755   2.430  0.0176  0.4658  0.2267
 4913WAT      O21456   0.144   2.455   4.711 -0.2345  1.3243  0.9573
 4913WAT     H121457   0.098   2.537   4.692 -0.1253  0.9485 -1.2415
 4913WAT     H221458   0.078   2.399   4.753 -1.3976  1.3166 -0.7732
 4913WAT    EPW21459   0.129   2.459   4.714 -0.3735  1.2736  0.4387
 4914WAT      O21460  10.776   3.881   6.552 -0.0502  0.7527  0.5672
 4914WAT     H121461  10.736   3.967   6.537 -0.6734  0.3970  0.1211
 4914WAT     H221462  10.870   3.896   6.540 -0.0821  1.5138  1.2054
 4914WAT    EPW21463  10.783   3.894   6.548 -0.1364  0.8062  0.5927
 4915WAT      O21464   4.229   8.520   3.133  0.3162  0.1197  0.3734
 4915WAT     H121465   4.229   8.605   3.177  0.2502  0.8555 -1.0082
 4915WAT     H221466   4.216   8.457   3.204  2.3638  1.0945  1.7244
 4915WAT    EPW21467   4.228   8.523   3.148  0.5774  0.3452  0.3694
 4916WAT      O21468   8.478   1.830   6.268  0.0437  0.6587  0.2631
 4916WAT     H121469   8.405   1.834   6.330 -0.6705  1.8839 -0.6167
 4916WAT     H221470   8.556   1.846   6.322 -0.3624 -0.1821  1.1376
 4916WAT    EPW21471   8.479   1.832   6.284 -0.1044  0.7094  0.2625
 4917WAT      O21472   3.215  10.324   6.570  0.0744 -0.4843  0.2127
 4917WAT     H121473   3.266  10.300   6.647  0.2627 -0.8325 -0.0157
 4917WAT     H221474   3.259  10.402   6.536  1.0754 -1.3515 -0.5523
 4917WAT    EPW21475   3.228  10.331   6.576  0.2311 -0.6452  0.0815
 4918WAT      O21476  10.144   0.001   5.239 -0.0303  0.0025 -0.1856
 4918WAT     H121477  10.122  -0.058   5.167 -0.9833 -0.7757  0.7065
 4918WAT     H221478  10.231  -0.028   5.268  0.1794  0.0557 -0.7426
 4918WAT    EPW21479  10.153  -0.011   5.233 -0.1285 -0.0925 -0.1411
 4919WAT      O21480   9.937   9.005   3.487 -0.7009  0.2175  0.1598
 4919WAT     H121481  10.023   8.979   3.520 -0.3030 -1.3585 -1.9000
 4919WAT     H221482   9.878   8.991   3.561  0.5348 -0.3944  1.0713
 4919WAT    EPW21483   9.941   9.000   3.501 -0.4854 -0.0710  0.0085
 4920WAT      O21484   6.767   2.646   5.650 -0.0034 -0.2842 -0.2228
 4920WAT     H121485   6.741   2.565   5.695  1.1349  0.2839  1.5889
 4920WAT     H221486   6.863   2.645   5.655  0.3544 -0.9659 -4.2057
 4920WAT    EPW21487   6.777   2.635   5.657  0.1938 -0.2992 -0.5090
 4921WAT      O21488  10.428   0.231   7.872 -0.1201 -0.4571 -0.4295
 4921WAT     H121489  10.447   0.325   7.880  0.8206 -0.6445 -0.2955
 4921WAT     H221490  10.382   0.209   7.953  1.2953 -0.4703  0.4195
 4921WAT    EPW21491  10.425   0.241   7.884  0.1907 -0.4835 -0.2997
 4922WAT      O21492   6.651   0.484   2.404  0.1559  0.4617  0.7194
 4922WAT     H121493   6.640   0.561   2.348 -0.0192  0.5583  0.8847
 4922WAT     H221494   6.576   0.488   2.464  1.3212  1.3759  2.1902
 4922WAT    EPW21495   6.639   0.495   2.405  0.2863  0.5950  0.9353
 4923WAT      O21496   3.100   9.622   1.386 -0.3276 -0.3319  0.0944
 4923WAT     H121497   3.044   9.613   1.463  0.7172 -0.4337  0.8716
 4923WAT     H221498   3.080   9.546   1.332 -1.3528 -0.0560  0.0809
 4923WAT    EPW21499   3.090   9.611   1.389 -0.3251 -0.3090  0.1951
 4924WAT      O21500   8.030   2.463   8.151  0.3536 -0.1384 -0.1432
 4924WAT     H121501   7.997   2.500   8.069  1.3333  0.2473 -0.3811
 4924WAT     H221502   7.952   2.432   8.197 -0.4960  2.0757  0.0019
 4924WAT    EPW21503   8.016   2.464   8.146  0.3710  0.2046 -0.1554
 4925WAT      O21504  10.338   0.588   2.631 -0.2889  0.9012  0.2499
 4925WAT     H121505  10.346   0.682   2.619  2.3756  1.0439  2.2628
 4925WAT     H221506  10.292   0.578   2.714 -0.7657  0.3950 -0.0663
 4925WAT    EPW21507  10.333   0.599   2.640 -0.0005  0.8532  0.4737
 4926WAT      O21508   9.493   3.955   5.333  0.9553  0.4831 -0.6790
 4926WAT     H121509   9.489   4.045   5.363  0.1406  0.8293 -1.7298
 4926WAT     H221510   9.418   3.947   5.274  1.8698 -0.4396 -1.7627
 4926WAT    EPW21511   9.482   3.966   5.329  0.9685  0.4070 -0.9606
 4927WAT      O21512   0.174   1.412   6.143 -0.2714 -0.5749 -0.9625
 4927WAT     H121513   0.179   1.473   6.216 -1.4318  1.4476 -2.4812
 4927WAT     H221514   0.262   1.375   6.137  0.0047 -0.3463  1.0472
 4927WAT    EPW21515   0.187   1.415   6.152 -0.3880 -0.2780 -0.8976
 4928WAT      O21516   7.402   2.077   7.081  0.3800  0.4890 -0.1510
 4928WAT     H121517   7.369   2.045   6.997 -0.2637 -1.1097  0.6467
 4928WAT     H221518   7.456   2.005   7.114 -0.9154  0.2398  1.6201
 4928WAT    EPW21519   7.404   2.063   7.075  0.1242  0.2453  0.1879
 4929WAT      O21520   7.603   0.416   6.810  0.4118 -0.4309 -0.1468
 4929WAT     H121521   7.582   0.508   6.796 -3.1404 -0.8779  1.2839
 4929WAT     H221522   7.665   0.395   6.740  2.9964  3.4639  0.6832
 4929WAT    EPW21523   7.608   0.425   6.799  0.2842  0.0239  0.1512
 4930WAT      O21524   6.816   3.160   7.515  0.0728 -0.0695  0.1123
 4930WAT     H121525   6.906   3.136   7.493  0.2212 -0.5490  1.1840
 4930WAT     H221526   6.804   3.248   7.478  1.8540  1.1296  2.1705
 4930WAT    EPW21527   6.826   3.169   7.507  0.3273  0.0254  0.5250
 4931WAT      O21528   6.726   1.468   8.317 -0.3148 -0.2537 -0.0543
 4931WAT     H121529   6.644   1.435   8.355  1.0023 -1.4409  1.9739
 4931WAT     H221530   6.716   1.454   8.223 -2.9927  1.0086 -0.0600
 4931WAT    EPW21531   6.714   1.462   8.310 -0.4945 -0.2438  0.2122
 4932WAT      O21532   4.319   3.221   3.591 -0.0388 -0.8562  0.0112
 4932WAT     H121533   4.238   3.219   3.539  0.7568  2.4033 -1.5915
 4932WAT     H221534   4.289   3.224   3.682 -1.7399  0.1390 -0.5400
 4932WAT    EPW21535   4.304   3.221   3.596 -0.1583 -0.2950 -0.2729
 4933WAT      O21536   8.870   2.455   5.409  0.3681 -0.0002  0.1824
 4933WAT     H121537   8.870   2.371   5.454  1.8646  0.0959  0.4321
 4933WAT     H221538   8.936   2.507   5.455  1.0452  0.5458 -1.3218
 4933WAT    EPW21539   8.879   2.451   5.421  0.6547  0.0844  0.0169
 4934WAT      O21540   5.110   1.858   7.941  0.0525  0.4543 -0.4299
 4934WAT     H121541   5.164   1.831   8.015 -0.8196  0.5376  0.2481
 4934WAT     H221542   5.120   1.787   7.877  1.7060  0.9214 -0.7261
 4934WAT    EPW21543   5.118   1.845   7.942  0.1552  0.5268 -0.3798
 4935WAT      O21544   5.774   9.679   4.629  0.8933  0.1027 -0.5611
 4935WAT     H121545   5.763   9.592   4.591 -1.0389  0.5075 -1.0230
 4935WAT     H221546   5.729   9.737   4.568  0.4004  1.1680  0.7758
 4935WAT    EPW21547   5.767   9.675   4.616  0.5732  0.2966 -0.4458
 4936WAT      O21548   1.802   9.903   0.247  0.0734  0.0474 -0.5548
 4936WAT     H121549   1.796   9.868   0.336  1.2485 -2.0069 -1.1990
 4936WAT     H221550   1.848   9.986   0.256  3.1297 -1.6179  0.5414
 4936WAT    EPW21551   1.808   9.909   0.260  0.6315 -0.4435 -0.4952
 4937WAT      O21552   8.611   1.405   3.359  0.1801 -0.0733  0.5446
 4937WAT     H121553   8.595   1.379   3.449  4.5302  0.8568  1.8624
 4937WAT     H221554   8.695   1.365   3.337  0.9661  2.5047 -1.7996
 4937WAT    EPW21555   8.620   1.397   3.368  0.8574  0.3893  0.4091
 4938WAT      O21556   5.111   0.482   6.090 -0.3184  0.4287  0.1865
 4938WAT     H121557   5.031   0.493   6.039 -0.5435 -1.0596  0.1871
 4938WAT     H221558   5.182   0.489   6.025 -0.5737 -0.7452 -0.2445
 4938WAT    EPW21559   5.110   0.485   6.074 -0.3819  0.0776  0.1299
 4939WAT      O21560   8.952   4.505   6.997 -0.7427  0.0619  0.5569
 4939WAT     H121561   8.951   4.600   6.998 -1.1664  0.0563  1.0151
 4939WAT     H221562   9.027   4.482   6.942  0.9871  0.6459  2.5457
 4939WAT    EPW21563   8.961   4.514   6.989 -0.5703  0.1380  0.8800
 4940WAT      O21564   9.974   9.858   0.280  0.1463  0.3174 -0.2333
 4940WAT     H121565   9.908   9.806   0.233  0.2235 -1.6092  1.6098
 4940WAT     H221566   9.931   9.941   0.298 -0.8560  0.0486 -1.2897
 4940WAT    EPW21567   9.959   9.862   0.277  0.0238  0.0272 -0.1295
 4941WAT      O21568   2.479   9.950   6.966  0.3111  0.9630  0.2280
 4941WAT     H121569   2.436   9.880   6.916 -1.2715 -0.0006  2.7261
 4941WAT     H221570   2.475  10.026   6.909 -1.3549 -0.0702 -1.1321
 4941WAT    EPW21571   2.473   9.951   6.952 -0.1173  0.7000  0.3781
 4942WAT      O21572  10.155   3.545   6.271  0.8041  0.2196 -0.0906
 4942WAT     H121573  10.211   3.473   6.299 -0.7927 -0.8476  0.4462
 4942WAT     H221574  10.173   3.615   6.335  1.7501  0.0120 -0.1197
 4942WAT    EPW21575  10.165   3.545   6.284  0.7186  0.0515 -0.0238
 4943WAT      O21576   4.832   1.415   7.984 -0.3983 -0.5620  0.1278
 4943WAT     H121577   4.762   1.354   8.007  1.3084 -2.5247  0.4198
 4943WAT     H221578   4.908   1.385   8.035  0.7469  1.3194 -0.3464
 4943WAT    EPW21579   4.833   1.403   7.994 -0.0222 -0.5726  0.1037
 4944WAT      O21580   9.467   2.061   7.523  1.3008  0.0610  0.0469
 4944WAT     H121581   9.544   2.039   7.470 -0.1625 -2.7814 -1.1233
 4944WAT     H221582   9.497   2.051   7.614  3.1175  2.3259 -0.2155
 4944WAT    EPW21583   9.481   2.057   7.528  1.3475 -0.0153 -0.1419
 4945WAT      O21584   9.579   2.056   2.257  0.4910 -0.4360 -0.6247
 4945WAT     H121585   9.600   2.117   2.186  0.2060  1.6284  0.9437
 4945WAT     H221586   9.497   2.091   2.294  0.8847 -1.1573  0.9926
 4945WAT    EPW21587   9.571   2.069   2.252  0.5054 -0.2588 -0.2047
 4946WAT      O21588   2.052   5.470   0.106  0.1893 -0.4631 -0.7820
 4946WAT     H121589   2.018   5.501   0.190  1.5842 -1.7851  0.3329
 4946WAT     H221590   2.143   5.445   0.125  1.3533  1.4663 -3.2490
 4946WAT    EPW21591   2.060   5.471   0.120  0.5267 -0.3829 -0.9603
 4947WAT      O21592   5.302   9.813   5.567 -0.4667  0.0847 -1.0839
 4947WAT     H121593   5.213   9.829   5.536 -0.2193  2.9421 -0.5530
 4947WAT     H221594   5.353   9.794   5.488 -1.1111  0.7622 -1.6701
 4947WAT    EPW21595   5.297   9.812   5.553 -0.5190  0.5512 -1.0912
 4948WAT      O21596   8.339   3.595   6.625  0.0810  0.0894 -0.0356
 4948WAT     H121597   8.427   3.567   6.602 -0.4414 -1.4948 -0.2548
 4948WAT     H221598   8.304   3.523   6.677 -0.9475  0.8626  0.3749
 4948WAT    EPW21599   8.346   3.582   6.629 -0.1235 -0.0175 -0.0105
 4949WAT      O21600   6.629   4.803   7.108 -0.2775  0.4996  0.0155
 4949WAT     H121601   6.606   4.717   7.142  0.3656  0.3987  0.2061
 4949WAT     H221602   6.644   4.857   7.186  0.5772  0.4367 -0.0975
 4949WAT    EPW21603   6.628   4.799   7.123 -0.0801  0.4780  0.0257
 4950WAT      O21604   0.024   2.747   7.481 -0.0098  0.5207 -0.1253
 4950WAT     H121605  -0.068   2.768   7.468 -0.4779 -0.2532  1.6079
 4950WAT     H221606   0.058   2.728   7.394 -1.3051  1.4897 -0.8656
 4950WAT    EPW21607   0.017   2.747   7.468 -0.2424  0.5465  0.0052
 4951WAT      O21608   6.448   9.796   5.747 -0.3862  0.2154  0.0828
 4951WAT     H121609   6.477   9.715   5.789  0.1093 -0.5024 -1.5771
 4951WAT     H221610   6.360   9.811   5.782  0.0490 -0.2826  1.4312
 4951WAT    EPW21611   6.440   9.788   5.757 -0.2632  0.0553  0.0417
 4952WAT      O21612   7.859   2.013   3.865 -0.4696  0.2223  0.5147
 4952WAT     H121613   7.907   1.948   3.916  0.1823 -0.8589 -1.3784
 4952WAT     H221614   7.796   1.961   3.815 -1.7029  1.3442  0.8540
 4952WAT    EPW21615   7.857   1.997   3.865 -0.5462  0.2277  0.3099
 4953WAT      O21616   9.149   1.955   7.470  0.0883 -0.0861 -0.1584
 4953WAT     H121617   9.143   2.013   7.546  0.3167 -1.3448  0.8457
 4953WAT     H221618   9.062   1.957   7.431  0.1581  1.1246 -0.3070
 4953WAT    EPW21619   9.137   1.963   7.475  0.1273 -0.0924 -0.0455
 4954WAT      O21620   8.049   1.394   8.184 -0.0341  0.5483  0.4555
 4954WAT     H121621   8.093   1.439   8.256 -2.0076  1.8703  0.9181
 4954WAT     H221622   7.965   1.366   8.221  0.1685 -1.5545 -0.4859
 4954WAT    EPW21623   8.043   1.396   8.198 -0.2680  0.4453  0.3924
 4955WAT      O21624   5.960   9.356   8.060 -0.2497  0.6851  0.0056
 4955WAT     H121625   5.964   9.336   7.967  0.7828 -0.4839  0.2741
 4955WAT     H221626   5.940   9.272   8.102 -0.3219  1.1182  0.8719
 4955WAT    EPW21627   5.958   9.342   8.054 -0.1228  0.5879  0.1554
 4956WAT      O21628   6.445   1.952   8.845  0.0066 -0.5248  1.0056
 4956WAT     H121629   6.391   2.031   8.839  0.0931 -0.5679 -0.5141
 4956WAT     H221630   6.535   1.985   8.853 -0.0248 -0.4673  1.1252
 4956WAT    EPW21631   6.450   1.967   8.846  0.0138 -0.5229  0.8206
 4957WAT      O21632   9.259   0.551   8.679  0.1861  0.4281  0.1867
 4957WAT     H121633   9.241   0.611   8.607 -0.6583 -0.5713 -0.4691
 4957WAT     H221634   9.181   0.496   8.684 -0.4170  1.3644  2.8231
 4957WAT    EPW21635   9.247   0.552   8.671 -0.0052  0.4198  0.4473
 4958WAT      O21636  10.141   3.556   5.723  0.4233 -0.8103 -0.1405
 4958WAT     H121637  10.177   3.483   5.774  2.4710  0.6220  0.6059
 4958WAT     H221638  10.214   3.618   5.714 -0.9112  0.6597 -1.7119
 4958WAT    EPW21639  10.156   3.555   5.729  0.5169 -0.4276 -0.2491
 4959WAT      O21640   9.192   0.666   5.039 -0.5321  0.2487  0.1794
 4959WAT     H121641   9.140   0.608   4.985 -1.5714 -1.1598  2.5388
 4959WAT     H221642   9.156   0.753   5.023 -1.2650 -0.2283 -0.8289
 4959WAT    EPW21643   9.181   0.670   5.030 -0.7658  0.0001  0.3576
 4960WAT      O21644  10.362   1.571   6.963 -0.2148 -0.3995 -0.0856
 4960WAT     H121645  10.378   1.651   7.015  0.0948  1.0564 -2.2761
 4960WAT     H221646  10.443   1.560   6.912 -0.2394 -2.1881  0.2104
 4960WAT    EPW21647  10.375   1.580   6.963 -0.1769 -0.4433 -0.3357
 4961WAT      O21648   8.459   3.990   7.750  0.2871 -0.1594 -0.7593
 4961WAT     H121649   8.515   4.063   7.777 -1.0664  0.5053  0.3080
 4961WAT     H221650   8.427   4.015   7.663 -0.1900  0.5330 -0.3880
 4961WAT    EPW21651   8.462   4.003   7.742  0.0458  0.0193 -0.5696
 4962WAT      O21652   8.284   4.804   8.419 -0.3100  0.5836  0.0731
 4962WAT     H121653   8.213   4.751   8.382  0.0687  1.1025 -1.5063
 4962WAT     H221654   8.259   4.819   8.510  0.1458 -3.3004  1.0363
 4962WAT    EPW21655   8.272   4.799   8.426 -0.1993  0.1397 -0.0081
 4963WAT      O21656   5.182   3.007   4.527 -0.3024 -0.3979 -0.1825
 4963WAT     H121657   5.233   3.039   4.452 -0.9171 -0.4496 -0.6340
 4963WAT     H221658   5.113   3.072   4.538  1.5126  1.2879  2.3107
 4963WAT    EPW21659   5.179   3.020   4.519 -0.1442 -0.1824  0.0868
 4964WAT      O21660   4.988   0.242   5.672  0.3944  0.3165  0.3076
 4964WAT     H121661   5.070   0.249   5.721 -0.7874  0.4191  2.3732
 4964WAT     H221662   4.977   0.328   5.631  1.4063  0.2275 -0.1921
 4964WAT    EPW21663   4.997   0.254   5.673  0.3722  0.3183  0.5140
 4965WAT      O21664   7.812   1.326   5.706 -0.5129 -0.4400 -0.2850
 4965WAT     H121665   7.852   1.336   5.792 -0.8641 -0.8737 -0.0736
 4965WAT     H221666   7.886   1.328   5.645  0.1072 -3.4077  0.2289
 4965WAT    EPW21667   7.827   1.328   5.709 -0.4776 -0.8886 -0.1893
 4966WAT      O21668   6.062   3.693   8.102 -0.0258 -0.4406 -0.6668
 4966WAT     H121669   6.124   3.665   8.169 -0.5476  0.4092  0.2001
 4966WAT     H221670   6.074   3.631   8.030  0.9490 -1.0238 -0.0166
 4966WAT    EPW21671   6.071   3.681   8.101  0.0341 -0.4054 -0.4668
 4967WAT      O21672   6.914   3.343   4.346 -0.4458 -0.0677 -0.6472
 4967WAT     H121673   6.866   3.333   4.263 -2.4796  0.7106  0.3528
 4967WAT     H221674   6.857   3.399   4.399  0.4698 -1.1330  1.5570
 4967WAT    EPW21675   6.900   3.349   4.342 -0.5934 -0.1055 -0.2244
 4968WAT      O21676   9.554   1.047   7.817 -0.0506 -0.3231 -0.2489
 4968WAT     H121677   9.486   0.990   7.782 -0.5863 -0.6066  1.1885
 4968WAT     H221678   9.609   1.067   7.742 -3.0385  1.8873 -2.0866
 4968WAT    EPW21679   9.552   1.042   7.803 -0.5155 -0.0690 -0.3018
 4969WAT      O21680   6.054   2.222   6.329 -0.3105 -0.6084 -0.1933
 4969WAT     H121681   6.064   2.254   6.419 -1.8151 -3.1745  1.0161
 4969WAT     H221682   6.044   2.301   6.276 -0.0554  0.9731  1.9828
 4969WAT    EPW21683   6.054   2.237   6.334 -0.4752 -0.7383  0.2532
 4970WAT      O21684   6.472   2.487   5.260  0.2559 -0.5400 -0.2812
 4970WAT     H121685   6.481   2.443   5.345 -1.0739 -1.1362 -0.4353
 4970WAT     H221686   6.378   2.486   5.242  0.4949 -0.1905 -1.6458
 4970WAT    EPW21687   6.461   2.481   5.269  0.1118 -0.5726 -0.4811
 4971WAT      O21688   7.500   0.326   4.357  0.5427 -0.5321  0.7317
 4971WAT     H121689   7.571   0.321   4.293  1.0107 -1.1500  1.2768
 4971WAT     H221690   7.509   0.413   4.396  0.3047 -0.1844  0.0205
 4971WAT    EPW21691   7.511   0.337   4.354  0.5732 -0.5677  0.7098
 4972WAT      O21692   5.312   1.674   6.349  0.4708  0.0948  0.4507
 4972WAT     H121693   5.287   1.653   6.259 -1.6444  0.0991  0.9742
 4972WAT     H221694   5.341   1.765   6.346 -0.8652  0.5309 -0.0394
 4972WAT    EPW21695   5.312   1.683   6.337  0.0157  0.1529  0.4549
 4973WAT      O21696   0.791   3.192   8.437 -0.8032  0.2723  0.7419
 4973WAT     H121697   0.705   3.176   8.396 -2.0185  1.3055  2.7295
 4973WAT     H221698   0.795   3.288   8.446  0.8990  0.2988  0.0747
 4973WAT    EPW21699   0.780   3.203   8.432 -0.7390  0.4121  0.9165
 4974WAT      O21700   6.545   4.662   6.558  0.2370 -0.9513  0.3231
 4974WAT     H121701   6.527   4.600   6.628 -2.2109 -1.0667 -0.3105
 4974WAT     H221702   6.552   4.608   6.479 -3.6023 -0.5230 -0.5329
 4974WAT    EPW21703   6.543   4.647   6.557 -0.5920 -0.9100  0.1268
 4975WAT      O21704   8.586   3.464   4.919  0.2591  0.5693  0.0311
 4975WAT     H121705   8.669   3.469   4.871 -0.4602  0.2806 -1.2781
 4975WAT     H221706   8.600   3.396   4.984  0.7778 -0.0934 -0.7603
 4975WAT    EPW21707   8.599   3.456   4.921  0.2327  0.4438 -0.2458
 4976WAT      O21708   4.422   9.498   3.821  0.3053 -0.7444 -0.2193
 4976WAT     H121709   4.406   9.432   3.753  1.6528 -1.7073  0.3659
 4976WAT     H221710   4.469   9.451   3.890  0.3555  0.5897  0.6904
 4976WAT    EPW21711   4.426   9.483   3.821  0.4897 -0.6952 -0.0221
 4977WAT      O21712   7.482   3.316   8.219  0.1915 -0.3637  0.2292
 4977WAT     H121713   7.542   3.248   8.249  1.8144  0.8491 -0.1531
 4977WAT     H221714   7.489   3.314   8.124  1.9739  1.7525  0.2471
 4977WAT    EPW21715   7.491   3.307   8.211  0.6409  0.0753  0.1812
 4978WAT      O21716   5.234   1.690   6.671 -0.0167 -0.2184  0.1545
 4978WAT     H121717   5.161   1.635   6.644  1.0298 -1.4629 -0.2718
 4978WAT     H221718   5.260   1.737   6.592  1.0493 -1.4964 -0.3008
 4978WAT    EPW21719   5.228   1.689   6.657  0.2620 -0.5512  0.0381
 4979WAT      O21720   7.234   0.666   5.090  0.0864 -0.4063  0.5031
 4979WAT     H121721   7.292   0.657   5.165  1.5163  1.4854 -0.3124
 4979WAT     H221722   7.289   0.702   5.021 -0.6633 -3.6976 -2.1218
 4979WAT    EPW21723   7.249   0.669   5.091  0.1760 -0.5909  0.0496
 4980WAT      O21724   8.174   3.374   7.212  0.4726 -0.7762  0.4379
 4980WAT     H121725   8.189   3.279   7.205  0.0027 -0.8526  0.4278
 4980WAT     H221726   8.234   3.413   7.149  0.3105 -1.0982  0.0829
 4980WAT    EPW21727   8.184   3.366   7.203  0.3891 -0.8286  0.3898
 4981WAT      O21728   7.224   2.382   6.485 -0.0359  0.7359  0.5849
 4981WAT     H121729   7.298   2.344   6.437 -0.2700  1.7799 -0.6456
 4981WAT     H221730   7.149   2.327   6.461 -0.1142  1.1368 -0.0960
 4981WAT    EPW21731   7.224   2.369   6.476 -0.0770  0.9265  0.3328
 4982WAT      O21732   7.139   1.407   3.428 -0.2960 -0.3061 -0.1882
 4982WAT     H121733   7.073   1.341   3.449  0.4343 -0.9503  0.0869
 4982WAT     H221734   7.213   1.358   3.394  0.7320  0.2493  1.1785
 4982WAT    EPW21735   7.140   1.392   3.426 -0.0641 -0.3178  0.0284
 4983WAT      O21736   6.951   0.013   6.220 -0.1491 -0.3798 -0.2510
 4983WAT     H121737   6.864   0.018   6.261 -0.4063 -0.1265 -0.8148
 4983WAT     H221738   6.985  -0.072   6.247  0.5260  0.5768  2.1094
 4983WAT    EPW21739   6.944   0.002   6.229 -0.0939 -0.2203 -0.0141
 4984WAT      O21740   3.402   8.802   7.409  0.7352 -0.2138 -0.7131
 4984WAT     H121741   3.396   8.818   7.315 -0.1739  2.1159 -0.3299
 4984WAT     H221742   3.312   8.802   7.439  0.8547 -3.1225 -0.0676
 4984WAT    EPW21743   3.390   8.804   7.401  0.6310 -0.2904 -0.5772
 4985WAT      O21744  10.159   2.596   4.302  0.4721  0.7785  0.1404
 4985WAT     H121745  10.099   2.663   4.267  0.3782  0.1949 -0.8395
 4985WAT     H221746  10.106   2.517   4.308 -0.0732  1.2398  3.4492
 4985WAT    EPW21747  10.144   2.595   4.298  0.3877  0.7623  0.4478
 4986WAT      O21748   3.819  10.358   6.002  0.3762  0.6230  0.0699
 4986WAT     H121749   3.792  10.333   5.913  1.0881 -1.3414  0.3404
 4986WAT     H221750   3.743  10.334   6.056  0.7543 -0.2775  0.2284
 4986WAT    EPW21751   3.805  10.351   5.997  0.5198  0.2451  0.1264
 4987WAT      O21752   7.106   2.955   8.130 -0.3373 -0.3351 -0.0680
 4987WAT     H121753   7.118   3.023   8.196 -1.2694 -1.3931  1.2357
 4987WAT     H221754   7.157   2.880   8.162  0.2006 -0.4785 -1.1882
 4987WAT    EPW21755   7.114   2.954   8.143 -0.3896 -0.4936 -0.0439
 4988WAT      O21756   9.870   3.544   3.697 -0.4301  0.1165  0.4228
 4988WAT     H121757   9.819   3.595   3.634 -0.1241  2.2849  1.8325
 4988WAT     H221758   9.923   3.486   3.643 -2.1481 -0.0526 -1.1927
 4988WAT    EPW21759   9.870   3.543   3.682 -0.6166  0.3803  0.3955
 4989WAT      O21760   3.875   8.648   7.813 -0.4608 -0.3008  0.2171
 4989WAT     H121761   3.887   8.683   7.902  1.8125  1.3702 -0.6468
 4989WAT     H221762   3.895   8.555   7.821  1.4057  0.1340  1.1975
 4989WAT    EPW21763   3.879   8.640   7.826  0.0852 -0.0234  0.2325
 4990WAT      O21764   4.623   9.781   5.094  1.7209  0.4984  0.0748
 4990WAT     H121765   4.569   9.745   5.164  0.6220 -1.4793 -1.6755
 4990WAT     H221766   4.693   9.717   5.082 -0.5179 -1.5812 -3.3991
 4990WAT    EPW21767   4.625   9.768   5.102  1.2805 -0.0367 -0.6144
 4991WAT      O21768  10.509   0.153   5.882  0.6924  0.8918 -0.0558
 4991WAT     H121769  10.480   0.085   5.822 -1.9206  1.6828  0.1762
 4991WAT     H221770  10.466   0.133   5.965  1.0248  2.0312  0.4222
 4991WAT    EPW21771  10.500   0.142   5.885  0.3915  1.1464  0.0381
 4992WAT      O21772   9.237   2.055   6.084  0.0285  0.1973  0.5611
 4992WAT     H121773   9.284   1.991   6.031  0.1300  1.0524 -0.4361
 4992WAT     H221774   9.297   2.077   6.155  0.7503  0.5238 -0.1256
 4992WAT    EPW21775   9.251   2.050   6.086  0.1369  0.3531  0.3390
 4993WAT      O21776   7.467   1.806   7.956  0.3146  1.0528 -0.5737
 4993WAT     H121777   7.561   1.821   7.948  0.6758  0.5143  1.7345
 4993WAT     H221778   7.448   1.825   8.048 -2.1401  2.5804 -1.3078
 4993WAT    EPW21779   7.477   1.810   7.967  0.0381  1.1833 -0.3660
 4994WAT      O21780   3.307   4.811   6.248  0.3207 -0.3032 -0.8552
 4994WAT     H121781   3.363   4.826   6.324 -0.9998  0.3450  0.0378
 4994WAT     H221782   3.244   4.746   6.277 -0.8823  0.7505 -0.9898
 4994WAT    EPW21783   3.306   4.805   6.262 -0.0122 -0.0789 -0.7551
 4995WAT      O21784  10.862   4.955   7.255  0.0294  0.9366 -0.1549
 4995WAT     H121785  10.927   4.886   7.262 -0.7978 -0.2459 -2.9603
 4995WAT     H221786  10.800   4.937   7.325  0.7743 -0.0762  0.2620
 4995WAT    EPW21787  10.863   4.944   7.265  0.0186  0.6473 -0.4699
 4996WAT      O21788  10.291   7.383   8.115  0.4993  0.1180  0.0544
 4996WAT     H121789  10.247   7.332   8.047  0.6835  1.0833 -0.8058
 4996WAT     H221790  10.236   7.460   8.128  1.0443  0.4971  0.1843
 4996WAT    EPW21791  10.278   7.386   8.108  0.5951  0.2956 -0.0420
 4997WAT      O21792   6.612   2.121   7.903  0.5186 -0.7164  0.3480
 4997WAT     H121793   6.691   2.115   7.850 -0.0336 -0.2796 -0.5341
 4997WAT     H221794   6.546   2.074   7.853  0.3040 -1.4192  1.2656
 4997WAT    EPW21795   6.614   2.114   7.890  0.4175 -0.7515  0.3529
 4998WAT      O21796   8.659   3.190   6.805 -0.2275  0.2527 -0.2617
 4998WAT     H121797   8.754   3.194   6.792  0.0839 -1.0306  1.2003
 4998WAT     H221798   8.648   3.193   6.900 -1.7045  0.9445 -0.4258
 4998WAT    EPW21799   8.670   3.191   6.816 -0.3815  0.1746 -0.0904
 4999WAT      O21800   6.056   6.658   6.439 -0.2839 -0.1427 -0.7155
 4999WAT     H121801   6.031   6.571   6.469  0.9449 -0.5711 -0.9012
 4999WAT     H221802   6.041   6.656   6.344  3.6362 -1.6185 -1.4647
 4999WAT    EPW21803   6.051   6.646   6.430  0.3953 -0.3939 -0.8390
 5000WAT      O21804   8.539   2.575   5.692  0.2556  0.5138 -0.3308
 5000WAT     H121805   8.596   2.646   5.722  2.0522 -1.6648  1.8047
 5000WAT     H221806   8.457   2.589   5.740  0.7056  0.9801  0.3338
 5000WAT    EPW21807   8.536   2.586   5.702  0.5522  0.2879  0.0386
 5001WAT      O21808   7.504   0.427   7.453 -0.3688 -0.0523 -0.6889
 5001WAT     H121809   7.471   0.497   7.396  1.2631  1.8941  0.5782
 5001WAT     H221810   7.432   0.408   7.512 -0.9545  0.3589 -1.2575
 5001WAT    EPW21811   7.490   0.434   7.454 -0.2308  0.2586 -0.5970
 5002WAT      O21812   2.033   6.221   6.277  0.1979  0.0200 -0.8198
 5002WAT     H121813   2.036   6.147   6.338  0.4803  0.0743 -0.7661
 5002WAT     H221814   1.941   6.245   6.273  0.4571  1.7545  1.6894
 5002WAT    EPW21815   2.022   6.214   6.284  0.2693  0.2561 -0.4821
 5003WAT      O21816   9.857   5.674   7.804  0.4185  0.4879  0.7180
 5003WAT     H121817   9.848   5.756   7.755  0.9866 -0.5430 -1.2499
 5003WAT     H221818   9.923   5.692   7.870 -0.2150  1.8840  1.0115
 5003WAT    EPW21819   9.864   5.687   7.806  0.4096  0.5362  0.4973
 5004WAT      O21820   9.815   4.704   4.798  0.9108 -0.0793 -0.0598
 5004WAT     H121821   9.792   4.744   4.881  2.0022  1.6222 -0.5268
 5004WAT     H221822   9.859   4.622   4.822  0.1606 -0.2060  0.9651
 5004WAT    EPW21823   9.818   4.698   4.812  0.9556  0.1283  0.0141
 5005WAT      O21824   8.446  10.265   5.391 -0.1332  0.6683  0.0877
 5005WAT     H121825   8.407  10.200   5.332 -1.8128 -0.2462  2.0816
 5005WAT     H221826   8.371  10.311   5.428  0.8605  1.1269  1.5960
 5005WAT    EPW21827   8.431  10.262   5.388 -0.2232  0.6080  0.5496
 5006WAT      O21828   8.120   4.066   4.747  0.5589  0.3267 -0.4918
 5006WAT     H121829   8.137   4.048   4.839  1.7388 -0.7486 -0.8943
 5006WAT     H221830   8.188   4.127   4.720  1.2006 -0.6006 -1.0304
 5006WAT    EPW21831   8.131   4.071   4.755  0.7992  0.0627 -0.6158
 5007WAT      O21832   1.547   6.077   1.313  0.3544  0.3829  0.0218
 5007WAT     H121833   1.549   5.985   1.286 -1.0644  0.5135 -0.5890
 5007WAT     H221834   1.605   6.080   1.390 -0.4327 -1.2506  0.7332
 5007WAT    EPW21835   1.555   6.065   1.320  0.0635  0.1845  0.0350
 5008WAT      O21836  10.637   4.732   6.846 -0.9614  0.0583 -0.2094
 5008WAT     H121837  10.669   4.642   6.856 -0.3365  0.2792 -0.1513
 5008WAT     H221838  10.542   4.724   6.841 -0.8462 -0.7451 -1.6270
 5008WAT    EPW21839  10.629   4.719   6.847 -0.8640 -0.0186 -0.3886
 5009WAT      O21840   1.192   4.166   5.140 -0.1886  0.3018  0.1599
 5009WAT     H121841   1.134   4.118   5.081 -0.5749  0.5045  0.3760
 5009WAT     H221842   1.203   4.108   5.216  2.5072 -1.2222 -1.2174
 5009WAT    EPW21843   1.186   4.152   5.142  0.1161  0.1276  0.0069
 5010WAT      O21844   1.353   5.548   6.876  0.2421 -0.0364 -0.3812
 5010WAT     H121845   1.380   5.463   6.841 -0.9977 -0.8669  0.6045
 5010WAT     H221846   1.258   5.549   6.866  0.0636  0.5313  1.1071
 5010WAT    EPW21847   1.344   5.537   6.870  0.0551 -0.0710 -0.0548
 5011WAT      O21848   8.044   2.130   6.758 -0.5738  0.4544  0.2430
 5011WAT     H121849   7.982   2.176   6.701  0.5299  2.0106  0.2168
 5011WAT     H221850   8.106   2.089   6.697 -1.1095 -0.4564  0.2886
 5011WAT    EPW21851   8.044   2.131   6.742 -0.4988  0.5394  0.2456
 5012WAT      O21852   8.929   2.936   6.696  0.3960 -0.2535  0.2302
 5012WAT     H121853   8.834   2.931   6.690  0.1199  3.1591  0.0852
 5012WAT     H221854   8.959   2.937   6.605  0.5375 -0.7280  0.2681
 5012WAT    EPW21855   8.921   2.935   6.683  0.3781  0.1340  0.2160
 5013WAT      O21856   8.619   5.090   4.749  0.2744 -0.0862  0.1801
 5013WAT     H121857   8.695   5.071   4.803 -0.8050 -1.5122  1.2865
 5013WAT     H221858   8.576   5.006   4.738 -0.3010  0.4176 -1.7682
 5013WAT    EPW21859   8.623   5.077   4.755  0.0563 -0.2077  0.0689
 5014WAT      O21860   3.060  10.105   2.873 -0.6811  0.7164  0.1976
 5014WAT     H121861   3.011  10.156   2.938 -1.2449  0.0250  0.3261
 5014WAT     H221862   3.137  10.158   2.854 -1.5933  1.9557 -0.1898
 5014WAT    EPW21863   3.063  10.119   2.879 -0.8758  0.7892  0.1637
 5015WAT      O21864  10.015   2.135   7.818  0.1506  0.1371 -0.0461
 5015WAT     H121865   9.945   2.170   7.762 -0.7777  0.9573  1.5517
 5015WAT     H221866  10.061   2.073   7.762  0.7951  2.6344 -2.5048
 5015WAT    EPW21867  10.012   2.132   7.803  0.1135  0.5746 -0.1597
 5016WAT      O21868   5.928   0.120   8.910  0.7495 -1.2236  0.1342
 5016WAT     H121869   5.944   0.171   8.831  1.7389 -1.9309 -0.1411
 5016WAT     H221870   5.846   0.155   8.945  1.4143  0.6042  0.0031
 5016WAT    EPW21871   5.920   0.132   8.904  0.9677 -1.0758  0.0806
 5017WAT      O21872   9.283   5.628   7.968  0.6610 -0.0840 -0.4335
 5017WAT     H121873   9.236   5.673   8.039  1.2836  1.0560 -0.7083
 5017WAT     H221874   9.350   5.691   7.941  0.3321 -0.4327 -2.1464
 5017WAT    EPW21875   9.286   5.642   7.974  0.6995  0.0205 -0.6959
 5018WAT      O21876   2.290   6.363   0.417  0.1676  0.0499 -0.1871
 5018WAT     H121877   2.279   6.328   0.329 -0.1339  2.2278 -1.0953
 5018WAT     H221878   2.219   6.323   0.468  0.6118 -1.5771 -0.7860
 5018WAT    EPW21879   2.279   6.353   0.412  0.1866  0.1228 -0.3859
 5019WAT      O21880   7.045   3.650   3.932 -0.0765  0.6405  0.8560
 5019WAT     H121881   7.107   3.722   3.938  1.7354 -0.6914 -0.8085
 5019WAT     H221882   7.059   3.598   4.011 -1.0620  1.7819  1.8265
 5019WAT    EPW21883   7.055   3.653   3.943  0.0324  0.6156  0.7645
 5020WAT      O21884  10.062   6.549   4.708 -0.2077 -0.4208  0.0060
 5020WAT     H121885  10.025   6.528   4.623  0.4470  1.1365 -0.7083
 5020WAT     H221886   9.990   6.592   4.755  0.3772  2.0037 -1.1399
 5020WAT    EPW21887  10.048   6.552   4.703 -0.0443  0.1042 -0.2391
 5021WAT      O21888   8.736   4.147   5.022  0.4103  0.0525  0.0946
 5021WAT     H121889   8.699   4.231   5.051 -0.3323 -0.5968  1.0996
 5021WAT     H221890   8.703   4.135   4.933  0.2972  0.6929  0.0460
 5021WAT    EPW21891   8.727   4.157   5.014  0.2975  0.0513  0.2205
 5022WAT      O21892   6.609   5.974   5.184 -0.6073  0.2200  0.0210
 5022WAT     H121893   6.633   5.968   5.276  1.2209 -2.9979 -0.5364
 5022WAT     H221894   6.554   5.897   5.168 -2.7631  1.8846 -1.1725
 5022WAT    EPW21895   6.605   5.963   5.194 -0.6506  0.0150 -0.2103
 5023WAT      O21896   1.735   2.015   8.827 -0.2673  0.0287  0.1168
 5023WAT     H121897   1.663   1.952   8.832  0.0111 -0.2288  1.3390
 5023WAT     H221898   1.742   2.049   8.916  0.3234  0.9586 -0.2737
 5023WAT    EPW21899   1.726   2.011   8.840 -0.1526  0.1173  0.2265
 5024WAT      O21900  10.873   2.048   7.255 -0.0845 -0.3412 -0.4023
 5024WAT     H121901  10.879   2.032   7.161 -2.4337 -2.1086 -0.3390
 5024WAT     H221902  10.791   2.096   7.266 -0.6040 -1.4413  0.8299
 5024WAT    EPW21903  10.863   2.052   7.244 -0.4630 -0.7194 -0.2313
 5025WAT      O21904   7.105   2.853   8.691 -0.7273  0.0410 -0.5615
 5025WAT     H121905   7.173   2.801   8.735  0.1016  0.4487 -1.3354
 5025WAT     H221906   7.023   2.811   8.717 -0.2296 -0.0575  0.9260
 5025WAT    EPW21907   7.103   2.841   8.700 -0.5522  0.0819 -0.4673
 5026WAT      O21908   9.717   3.627   7.103  0.1719 -0.4169 -0.2368
 5026WAT     H121909   9.685   3.653   7.017  1.5271 -2.2688 -1.3614
 5026WAT     H221910   9.742   3.710   7.145  0.1767  0.4528 -1.8976
 5026WAT    EPW21911   9.716   3.642   7.098  0.3514 -0.5466 -0.6039
 5027WAT      O21912   1.405   6.498   1.161 -1.0439 -0.4939  0.3903
 5027WAT     H121913   1.396   6.415   1.208  2.0606 -0.6245  0.9782
 5027WAT     H221914   1.468   6.479   1.092 -1.2714  1.0887 -0.2912
 5027WAT    EPW21915   1.412   6.485   1.158 -0.6644 -0.3026  0.3780
 5028WAT      O21916   9.480   6.883   4.889 -0.2432 -0.3869 -0.2752
 5028WAT     H121917   9.519   6.970   4.876 -0.1406 -0.7965 -3.9291
 5028WAT     H221918   9.453   6.882   4.981 -1.5877  4.1030 -0.3469
 5028WAT    EPW21919   9.481   6.894   4.899 -0.4067  0.1512 -0.7668
 5029WAT      O21920   9.675   4.158   6.666 -0.0816 -0.0621 -0.0449
 5029WAT     H121921   9.728   4.217   6.721 -2.3501  2.0836  0.0141
 5029WAT     H221922   9.691   4.071   6.703  0.2412  1.0144  2.5922
 5029WAT    EPW21923   9.684   4.154   6.679 -0.3386  0.3631  0.3109
 5030WAT      O21924   3.937   3.137   7.396 -0.2793  0.1669 -0.0908
 5030WAT     H121925   3.951   3.044   7.413 -1.5420 -0.0262 -0.0243
 5030WAT     H221926   4.024   3.171   7.372  0.2552 -0.9439  0.2410
 5030WAT    EPW21927   3.950   3.129   7.395 -0.3754 -0.0050 -0.0379
 5031WAT      O21928   1.671   7.692   3.733  0.1579 -0.1614  0.0674
 5031WAT     H121929   1.635   7.736   3.810 -0.5631  0.2288 -0.4855
 5031WAT     H221930   1.601   7.633   3.705  0.8660 -1.1849  0.4087
 5031WAT    EPW21931   1.657   7.690   3.739  0.1562 -0.2449  0.0396
 5032WAT      O21932   8.133   3.585   8.201  0.0719 -0.1583  0.5642
 5032WAT     H121933   8.078   3.508   8.188 -2.0239  1.3488 -0.0698
 5032WAT     H221934   8.199   3.579   8.131 -0.1076 -1.3287  0.4836
 5032WAT    EPW21935   8.134   3.574   8.190 -0.2284 -0.1137  0.4702
 5033WAT      O21936   4.580   9.951   8.652  0.4844  0.1557 -0.2407
 5033WAT     H121937   4.564   9.973   8.744 -0.3468 -0.3392 -0.2526
 5033WAT     H221938   4.675   9.952   8.643  0.5434  2.2527  0.1127
 5033WAT    EPW21939   4.590   9.954   8.663  0.3824  0.3672 -0.1950
 5034WAT      O21940   3.790   6.182   0.064  0.8206 -0.1506  0.1829
 5034WAT     H121941   3.765   6.089   0.064 -1.5728  0.4089 -0.9604
 5034WAT     H221942   3.789   6.207  -0.029  0.0468  1.3375  0.5660
 5034WAT    EPW21943   3.787   6.173   0.051  0.4029  0.1197  0.0827
 5035WAT      O21944   5.533   3.884   8.200  0.0367 -0.4476  0.2162
 5035WAT     H121945   5.625   3.868   8.179  0.1561  0.0763  0.3224
 5035WAT     H221946   5.534   3.966   8.249 -0.9521  2.3735 -3.9636
 5035WAT    EPW21947   5.545   3.893   8.204 -0.0780 -0.0066 -0.3209
 5036WAT      O21948   7.773   5.255   7.109  0.2189 -0.1898 -0.5986
 5036WAT     H121949   7.748   5.225   7.021 -2.7945  2.6239 -0.8762
 5036WAT     H221950   7.827   5.332   7.094  0.3998 -0.1850  0.0440
 5036WAT    EPW21951   7.777   5.261   7.096 -0.1547  0.1822 -0.5505
 5037WAT      O21952   7.966   3.254   5.963 -0.5692  0.1370  0.6449
 5037WAT     H121953   8.046   3.211   5.933 -0.5293 -1.3880  2.7041
 5037WAT     H221954   7.896   3.192   5.942 -0.5970 -0.7546  3.0413
 5037WAT    EPW21955   7.967   3.240   5.956 -0.5674 -0.1818  1.2324
 5038WAT      O21956   0.519   4.940   5.303 -0.2707  0.2411  0.2321
 5038WAT     H121957   0.586   5.005   5.281 -0.6453  0.1731 -1.2259
 5038WAT     H221958   0.567   4.860   5.320 -0.0055 -0.4575 -3.1515
 5038WAT    EPW21959   0.534   4.938   5.302 -0.2851  0.1397 -0.4063
 5039WAT      O21960  10.861   5.965   8.048  0.6889  0.2499 -0.1294
 5039WAT     H121961  10.865   5.884   7.998  0.7584 -0.3155  0.7703
 5039WAT     H221962  10.799   6.020   8.000 -3.5773 -2.2738  1.8945
 5039WAT    EPW21963  10.853   5.961   8.035  0.1349 -0.1576  0.2561
 5040WAT      O21964   9.735   6.158   7.865  0.3372 -0.1079  0.0275
 5040WAT     H121965   9.671   6.224   7.890 -0.6381 -1.1295  0.3180
 5040WAT     H221966   9.755   6.112   7.947  2.6849  1.1977  0.2689
 5040WAT    EPW21967   9.729   6.161   7.879  0.5178 -0.0706  0.0975
 5041WAT      O21968   7.564   4.216   6.320  0.2760 -0.2502  0.0779
 5041WAT     H121969   7.472   4.201   6.298  0.3527 -0.2564 -0.2466
 5041WAT     H221970   7.612   4.191   6.241  0.6455 -1.3642  0.6280
 5041WAT    EPW21971   7.558   4.210   6.307  0.3347 -0.3979  0.1075
 5042WAT      O21972  10.718   7.583   0.579  0.3398  0.6359  0.5260
 5042WAT     H121973  10.738   7.490   0.578 -1.2721  0.2715 -0.1700
 5042WAT     H221974  10.758   7.615   0.660  1.7112 -0.4502  0.3126
 5042WAT    EPW21975  10.726   7.575   0.590  0.3076  0.4447  0.4061
 5043WAT      O21976   6.151   4.587   6.493  0.0327 -0.4411  0.4363
 5043WAT     H121977   6.137   4.493   6.506  2.9258 -1.0397 -0.0577
 5043WAT     H221978   6.140   4.600   6.399  0.2894 -0.4310  0.4067
 5043WAT    EPW21979   6.148   4.576   6.482  0.4480 -0.5188  0.3676
 5044WAT      O21980   9.474   5.997   8.848  0.0431 -0.3723  0.0325
 5044WAT     H121981   9.550   6.031   8.801 -0.3217 -0.7762 -0.8858
 5044WAT     H221982   9.507   5.921   8.895 -0.2968 -2.3248 -2.6335
 5044WAT    EPW21983   9.488   5.992   8.848 -0.0496 -0.6831 -0.4406
 5045WAT      O21984   8.715   3.319   4.518  0.5957 -0.1690 -0.1716
 5045WAT     H121985   8.640   3.342   4.573  0.8316 -2.1738  1.1142
 5045WAT     H221986   8.720   3.388   4.453 -2.6580 -0.2158 -0.6202
 5045WAT    EPW21987   8.706   3.331   4.517  0.1979 -0.4395 -0.0610
 5046WAT      O21988   9.833   2.713   6.538  0.5188  0.2869 -0.2630
 5046WAT     H121989   9.877   2.629   6.520  1.1917  0.8328 -1.2772
 5046WAT     H221990   9.883   2.750   6.611 -0.2868 -0.5406  0.7443
 5046WAT    EPW21991   9.846   2.707   6.545  0.5012  0.2497 -0.2642
 5047WAT      O21992   5.195   5.371   8.280  0.4847 -0.4470  0.4990
 5047WAT     H121993   5.144   5.451   8.268  1.7884  0.3813  0.2906
 5047WAT     H221994   5.138   5.302   8.247 -0.1700  0.5510 -0.5407
 5047WAT    EPW21995   5.181   5.372   8.274  0.5705 -0.2062  0.3343
 5048WAT      O21996   0.759   3.165   7.899 -0.2616 -0.0739  0.8477
 5048WAT     H121997   0.690   3.180   7.834  0.2325 -2.0013 -0.2014
 5048WAT     H221998   0.793   3.252   7.918  0.6545  0.5208 -2.7322
 5048WAT    EPW21999   0.754   3.178   7.893 -0.0756 -0.2496  0.2370
 5049WAT      O22000   6.923   1.614   8.459 -0.0475  0.6842  0.0717
 5049WAT     H122001   6.857   1.566   8.409  0.8498  1.0555 -1.5456
 5049WAT     H222002   6.942   1.691   8.406  0.7109  1.2778  1.1630
 5049WAT    EPW22003   6.917   1.618   8.445  0.1707  0.8116  0.0024
 5050WAT      O22004   8.417   3.628   5.050  0.0702 -0.6692 -0.1299
 5050WAT     H122005   8.442   3.719   5.067 -1.3489  0.1292 -1.9885
 5050WAT     H222006   8.496   3.588   5.013  0.1306  0.3968 -1.2037
 5050WAT    EPW22007   8.431   3.635   5.048 -0.1092 -0.4233 -0.5167
 5051WAT      O22008   9.873   5.288   7.761 -0.0631 -0.2152  1.0551
 5051WAT     H122009   9.931   5.251   7.695  0.0216 -0.3892  1.2244
 5051WAT     H222010   9.866   5.220   7.828  1.7437  0.8109  2.3911
 5051WAT    EPW22011   9.880   5.274   7.761  0.1864 -0.1028  1.2536
 5052WAT      O22012   9.347   5.554   3.980 -0.2734 -0.0443  0.1702
 5052WAT     H122013   9.324   5.555   3.887  0.7073  0.4984 -0.0803
 5052WAT     H222014   9.414   5.487   3.987  2.0387  2.0750 -0.1567
 5052WAT    EPW22015   9.353   5.545   3.969  0.1612  0.3068  0.0941
 5053WAT      O22016   7.028  10.030   5.335  0.4449 -0.6309 -0.6369
 5053WAT     H122017   7.038   9.937   5.357 -0.0882 -0.8406 -1.2442
 5053WAT     H222018   7.115  10.067   5.346  0.2213 -0.6801  1.9703
 5053WAT    EPW22019   7.040  10.022   5.340  0.3452 -0.6657 -0.3731
 5054WAT      O22020  10.648   4.248   6.678 -0.1971 -0.7684  0.2156
 5054WAT     H122021  10.589   4.224   6.750 -1.1008  1.4213  0.2922
 5054WAT     H222022  10.612   4.202   6.602 -0.2416 -1.7629  0.8098
 5054WAT    EPW22023  10.635   4.239   6.677 -0.3219 -0.6111  0.3040
 5055WAT      O22024  10.912   1.704   8.639  0.2229  0.0861  0.1873
 5055WAT     H122025  10.918   1.797   8.658 -0.5085  0.1302  0.2140
 5055WAT     H222026  10.889   1.664   8.723  1.4241 -0.2287  0.3846
 5055WAT    EPW22027  10.910   1.711   8.653  0.2847  0.0504  0.2165
 5056WAT      O22028   0.558   5.450   4.985 -0.0021  0.1871  0.5490
 5056WAT     H122029   0.622   5.489   4.926  1.3027 -0.7599  1.2862
 5056WAT     H222030   0.480   5.506   4.976  0.0631 -0.0259 -2.1628
 5056WAT    EPW22031   0.556   5.463   4.976  0.1785  0.0339  0.2887
 5057WAT      O22032   6.394   5.645   5.617 -0.1855  0.2142  0.5693
 5057WAT     H122033   6.307   5.609   5.602 -0.7899  1.4422  0.9593
 5057WAT     H222034   6.423   5.607   5.700  0.2654 -1.2875 -0.2525
 5057WAT    EPW22035   6.387   5.635   5.626 -0.2055  0.1779  0.5121
 5058WAT      O22036   4.004   1.659   5.716 -0.7372  0.2786 -0.3082
 5058WAT     H122037   4.094   1.660   5.750 -0.2912  0.8478 -1.4582
 5058WAT     H222038   3.991   1.568   5.687  0.7499  0.9026 -3.3159
 5058WAT    EPW22039   4.014   1.647   5.716 -0.4823  0.4360 -0.8566
 5059WAT      O22040   1.986   2.644   8.808  0.8091  0.2846 -0.1983
 5059WAT     H122041   2.019   2.720   8.856 -0.2969  0.1655  0.8059
 5059WAT     H222042   1.961   2.678   8.722  0.2903  1.0806  0.2597
 5059WAT    EPW22043   1.987   2.658   8.803  0.5947  0.3737 -0.0052
 5060WAT      O22044   8.205   1.489   6.964 -1.3494  0.1160 -1.1171
 5060WAT     H122045   8.114   1.505   6.989 -0.8068  2.6296 -0.4851
 5060WAT     H222046   8.250   1.571   6.985  1.7554 -2.0552  1.7831
 5060WAT    EPW22047   8.199   1.502   6.970 -0.8683  0.1612 -0.6514
 5061WAT      O22048   6.820   1.914   7.231  0.4119 -0.1048 -0.0795
 5061WAT     H122049   6.740   1.954   7.197 -0.0194 -0.4107  0.5517
 5061WAT     H222050   6.891   1.971   7.201 -0.1835  1.0763  0.6991
 5061WAT    EPW22051   6.819   1.927   7.223  0.2763  0.0107  0.1063
 5062WAT      O22052   3.616   9.704   7.631  0.4822  0.2613 -0.2469
 5062WAT     H122053   3.542   9.764   7.644  1.7151  1.7351  0.3083
 5062WAT     H222054   3.674   9.752   7.572  0.9650 -0.9093 -0.7324
 5062WAT    EPW22055   3.614   9.719   7.625  0.7085  0.3018 -0.2377
 5063WAT      O22056   7.933   3.428   7.300 -0.2489  0.2002 -0.0898
 5063WAT     H122057   7.943   3.498   7.363  0.8810  0.2611 -0.3306
 5063WAT     H222058   8.021   3.394   7.286 -0.4650  0.1779 -1.6119
 5063WAT    EPW22059   7.946   3.432   7.306 -0.1285  0.2053 -0.3223
 5064WAT      O22060   8.735   1.592   4.310 -1.0466  0.0794  0.4745
 5064WAT     H122061   8.659   1.604   4.254 -1.2432  0.6763  0.8660
 5064WAT     H222062   8.782   1.518   4.270 -0.1274  1.6817 -1.6339
 5064WAT    EPW22063   8.731   1.584   4.297 -0.9513  0.3695  0.2482
 5065WAT      O22064   4.504   8.118   8.258 -0.0764  0.0481 -0.3283
 5065WAT     H122065   4.561   8.117   8.181  2.5532  1.8145  1.4191
 5065WAT     H222066   4.416   8.105   8.223  0.8995  1.4818 -3.7245
 5065WAT    EPW22067   4.500   8.116   8.243  0.3991  0.4706 -0.5460
 5066WAT      O22068   9.617   0.401   7.221  0.1507 -0.2672  0.7627
 5066WAT     H122069   9.579   0.459   7.155 -1.0125  1.2771  2.6726
 5066WAT     H222070   9.599   0.313   7.189 -1.4751  0.4301 -0.3941
 5066WAT    EPW22071   9.610   0.397   7.208 -0.2170  0.0285  0.8621
 5067WAT      O22072   6.794   5.322   7.782 -0.5183  0.3596 -0.1035
 5067WAT     H122073   6.872   5.339   7.729 -1.8916  3.0538 -1.4761
 5067WAT     H222074   6.791   5.395   7.844 -1.2582 -0.4438  0.8463
 5067WAT    EPW22075   6.804   5.334   7.783 -0.7973  0.6092 -0.1595
 5068WAT      O22076  10.707   6.774   3.636 -0.7307 -0.2764 -0.1435
 5068WAT     H122077  10.711   6.745   3.545 -1.1263 -0.1302 -0.2125
 5068WAT     H222078  10.648   6.850   3.634 -3.2666 -2.0959  0.6749
 5068WAT    EPW22079  10.699   6.780   3.624 -1.1177 -0.4971 -0.0447
 5069WAT      O22080   9.939   1.751   6.191  0.0918  0.0962 -0.2366
 5069WAT     H122081   9.888   1.833   6.185 -0.6114 -0.3310 -0.2612
 5069WAT     H222082   9.996   1.764   6.267 -0.0423  0.5997 -0.2160
 5069WAT    EPW22083   9.939   1.764   6.200 -0.0191  0.1063 -0.2372
 5070WAT      O22084   9.844   5.961   7.692 -0.6250 -0.2831  0.2162
 5070WAT     H122085   9.924   5.998   7.729 -0.3534  1.2301 -1.7387
 5070WAT     H222086   9.774   6.020   7.720 -0.7631 -0.4673  0.2649
 5070WAT    EPW22087   9.845   5.974   7.700 -0.6075 -0.1078 -0.0350
 5071WAT      O22088   9.509   5.761   7.899  0.2352 -0.4793  0.3640
 5071WAT     H122089   9.521   5.768   7.994  1.1592  1.9974  0.1361
 5071WAT     H222090   9.541   5.674   7.877  2.5010 -0.1408  2.0263
 5071WAT    EPW22091   9.515   5.750   7.909  0.6557 -0.1080  0.5531
 5072WAT      O22092   8.170   0.318   5.436 -0.4505 -0.0893  0.0952
 5072WAT     H122093   8.093   0.260   5.433 -1.0366  0.7060 -1.3058
 5072WAT     H222094   8.134   0.404   5.460  0.3003 -0.1139  1.3711
 5072WAT    EPW22095   8.155   0.322   5.439 -0.4282  0.0123  0.0787
 5073WAT      O22096  10.869   3.678   8.809 -0.6901 -0.2185 -0.2907
 5073WAT     H122097  10.784   3.710   8.782 -1.3376 -1.5095  0.1371
 5073WAT     H222098  10.864   3.583   8.800  0.5646 -0.3549  0.1167
 5073WAT    EPW22099  10.857   3.670   8.805 -0.6099 -0.4069 -0.1802
 5074WAT      O22100  10.473   5.172   8.582  0.3760 -0.1780 -0.6623
 5074WAT     H122101  10.471   5.240   8.649  0.3035 -1.9684  1.2557
 5074WAT     H222102  10.432   5.212   8.505 -1.9928  1.1488  1.1604
 5074WAT    EPW22103  10.468   5.186   8.580  0.0544 -0.2391 -0.1688
 5075WAT      O22104   6.451   1.507   8.417 -0.7166  0.2790 -0.1051
 5075WAT     H122105   6.424   1.454   8.492  1.6093  0.3033  0.8449
 5075WAT     H222106   6.428   1.454   8.340 -1.0452 -0.8078  0.7225
 5075WAT    EPW22107   6.445   1.493   8.416 -0.4532  0.1389  0.1292
 5076WAT      O22108   6.303   1.764   0.008 -0.2330  0.3917  0.4482
 5076WAT     H122109   6.339   1.688  -0.036  1.7190  0.4443  1.8541
 5076WAT     H222110   6.244   1.804  -0.057  1.2094 -0.4608 -1.4612
 5076WAT    EPW22111   6.300   1.759  -0.007  0.2146  0.2861  0.3819
 5077WAT      O22112   9.458   4.842   7.896  0.0311 -0.2251 -0.1498
 5077WAT     H122113   9.412   4.901   7.955  1.8412  0.4122  0.6974
 5077WAT     H222114   9.389   4.803   7.841 -1.5265  0.2894  1.3768
 5077WAT    EPW22115   9.443   4.844   7.896  0.0639 -0.0732  0.1636
 5078WAT      O22116   9.797   2.498   5.817 -0.0757 -0.4629  0.5067
 5078WAT     H122117   9.748   2.547   5.750  0.2409 -0.5359  0.2158
 5078WAT     H222118   9.730   2.450   5.865 -0.1233 -2.7697 -1.6669
 5078WAT    EPW22119   9.781   2.498   5.814 -0.0401 -0.7768  0.1814
 5079WAT      O22120   9.368   4.709   7.506  0.3220 -0.1624 -0.9011
 5079WAT     H122121   9.319   4.751   7.435 -0.0396  0.9657 -0.0218
 5079WAT     H222122   9.440   4.769   7.525  0.1028 -0.1757  0.0345
 5079WAT    EPW22123   9.371   4.722   7.499  0.2456 -0.0153 -0.6616
 5080WAT      O22124  10.260   2.418   3.791  0.5197  0.5867 -0.9044
 5080WAT     H122125  10.314   2.466   3.855  2.1279  1.3698 -2.7588
 5080WAT     H222126  10.310   2.422   3.710 -1.7805  0.2309 -2.4183
 5080WAT    EPW22127  10.274   2.425   3.789  0.4282  0.6430 -1.3487
 5081WAT      O22128   7.263   4.148   4.420  0.0609 -1.0383  0.5492
 5081WAT     H122129   7.249   4.232   4.464 -0.6689 -1.6698  1.5740
 5081WAT     H222130   7.190   4.094   4.449 -1.6641 -0.8862 -3.0658
 5081WAT    EPW22131   7.252   4.152   4.430 -0.2632 -1.1015  0.2077
 5082WAT      O22132  10.685   4.330   5.419  0.1508 -0.5745 -0.3225
 5082WAT     H122133  10.592   4.324   5.401  0.1093  1.6505 -1.2179
 5082WAT     H222134  10.710   4.418   5.389  2.5918 -1.1953 -0.3904
 5082WAT    EPW22135  10.676   4.341   5.413  0.4678 -0.3629 -0.4497
 5083WAT      O22136   8.632   3.538   3.341  0.5962 -0.7252 -0.4146
 5083WAT     H122137   8.727   3.526   3.341  0.8224  0.7710 -1.4857
 5083WAT     H222138   8.601   3.479   3.272  0.9538 -0.0716 -1.1577
 5083WAT    EPW22139   8.641   3.529   3.332  0.6738 -0.4416 -0.6539
 5084WAT      O22140   6.290   1.049   5.998  0.4267 -0.2783  0.0186
 5084WAT     H122141   6.214   1.038   5.942  0.8516  0.1088 -0.6422
 5084WAT     H222142   6.296   0.967   6.047 -1.4715  0.3653  1.4170
 5084WAT    EPW22143   6.281   1.037   5.997  0.2325 -0.1424  0.1159
 5085WAT      O22144   5.966   4.834   7.739 -0.5131 -0.1295 -0.1572
 5085WAT     H122145   6.019   4.845   7.660 -1.0112 -0.9625 -0.6255
 5085WAT     H222146   5.981   4.914   7.789 -1.8536  1.4184 -2.0789
 5085WAT    EPW22147   5.975   4.846   7.735 -0.7558 -0.0355 -0.4725
 5086WAT      O22148  10.190   4.481   6.110 -0.3209 -0.4532  0.7862
 5086WAT     H122149  10.247   4.483   6.033 -0.8431 -1.9408  0.3187
 5086WAT     H222150  10.123   4.547   6.091 -0.3662 -0.7012  0.0082
 5086WAT    EPW22151  10.188   4.490   6.097 -0.3963 -0.6821  0.6220
 5087WAT      O22152   6.045   0.287   7.429  0.0820  0.3764  0.1853
 5087WAT     H122153   6.036   0.258   7.339 -0.0573 -0.5987  0.5027
 5087WAT     H222154   6.050   0.206   7.480 -0.3856  0.9117  1.1020
 5087WAT    EPW22155   6.045   0.273   7.424  0.0019  0.3184  0.3479
 5088WAT      O22156  10.202   9.622   0.653 -0.2422 -0.4706 -0.8672
 5088WAT     H122157  10.152   9.703   0.664 -0.9196 -0.7924 -1.5168
 5088WAT     H222158  10.163   9.580   0.576 -0.4377 -1.8147 -0.0596
 5088WAT    EPW22159  10.190   9.627   0.644 -0.3572 -0.6900 -0.8464
 5089WAT      O22160   6.583   5.501   4.548 -0.5067 -0.7298  0.5135
 5089WAT     H122161   6.505   5.473   4.500 -0.2867  1.6841 -1.4465
 5089WAT     H222162   6.649   5.517   4.480  0.6383  0.4410  1.8314
 5089WAT    EPW22163   6.582   5.499   4.533 -0.3266 -0.2573  0.4289
 5090WAT      O22164   9.937   3.479   7.188 -0.3170 -0.1323 -0.3946
 5090WAT     H122165   9.970   3.470   7.099  3.5258  1.3788  0.6519
 5090WAT     H222166   9.862   3.537   7.181  0.6604  0.9863 -2.5666
 5090WAT    EPW22167   9.932   3.485   7.176  0.3185  0.2146 -0.5431
 5091WAT      O22168   4.850   4.874   4.394 -0.6353  0.3467  0.1026
 5091WAT     H122169   4.800   4.847   4.317  0.5174 -0.5928 -0.3586
 5091WAT     H222170   4.941   4.856   4.370 -0.2194  0.4256  1.5369
 5091WAT    EPW22171   4.856   4.868   4.380 -0.4282  0.2332  0.2310
 5092WAT      O22172   8.428   5.132   3.681 -0.1267  0.3790 -0.1781
 5092WAT     H122173   8.426   5.227   3.672 -3.3278  0.2176 -3.9232
 5092WAT     H222174   8.453   5.100   3.594 -1.1283 -2.1725  0.3711
 5092WAT    EPW22175   8.431   5.140   3.668 -0.6814  0.0212 -0.5996
 5093WAT      O22176   2.039  10.019   0.532 -0.1202  0.7184 -0.2353
 5093WAT     H122177   2.116  10.076   0.537 -0.4139  1.0826  0.3732
 5093WAT     H222178   1.989  10.052   0.458  0.2975  0.4953 -0.6176
 5093WAT    EPW22179   2.043  10.031   0.523 -0.1038  0.7367 -0.2054
 5094WAT      O22180   8.863   0.010   0.100 -0.1033  0.4893 -0.3963
 5094WAT     H122181   8.880  -0.004   0.007  0.2461 -2.7285  0.0053
 5094WAT     H222182   8.943   0.049   0.134  0.4500  0.0746 -1.1896
 5094WAT    EPW22183   8.876   0.013   0.092  0.0157  0.0102 -0.4480
 5095WAT      O22184  10.337   2.104   5.469  0.2783 -0.2387 -0.0791
 5095WAT     H122185  10.334   2.191   5.430  1.9862 -0.6625 -1.2583
 5095WAT     H222186  10.261   2.101   5.527 -0.1975  1.7754 -0.5336
 5095WAT    EPW22187  10.327   2.115   5.472  0.4411 -0.0290 -0.2944
 5096WAT      O22188   7.442   4.122   4.826 -0.6426  0.1313 -0.6593
 5096WAT     H122189   7.426   4.212   4.798 -2.2447  0.0888  0.0212
 5096WAT     H222190   7.413   4.119   4.917  2.2162 -0.3364  0.3723
 5096WAT    EPW22191   7.436   4.133   4.834 -0.4766  0.0641 -0.4337
 5097WAT      O22192   6.781   1.037   1.205 -0.6764 -0.0752 -0.6169
 5097WAT     H122193   6.735   1.089   1.139  0.4855 -0.9561 -2.1858
 5097WAT     H222194   6.790   1.096   1.280 -1.8947  1.0107 -1.2903
 5097WAT    EPW22195   6.776   1.052   1.206 -0.6838 -0.0482 -0.9126
 5098WAT      O22196   9.332   3.325   4.547  0.4428  0.6525 -0.2459
 5098WAT     H122197   9.389   3.264   4.593 -0.1238  0.2533 -0.0590
 5098WAT     H222198   9.256   3.271   4.521  0.8171  0.8112 -1.7887
 5098WAT    EPW22199   9.329   3.310   4.549  0.4172  0.6208 -0.4249
 5099WAT      O22200  10.139   4.831   6.576 -0.1021 -0.8315  0.0493
 5099WAT     H122201  10.211   4.799   6.631 -0.2775 -0.5429  0.4538
 5099WAT     H222202  10.183   4.870   6.501  0.2296  0.4109  0.8597
 5099WAT    EPW22203  10.155   4.832   6.574 -0.0815 -0.6297  0.2096
 5100WAT      O22204   8.767   5.529   6.230 -0.4843 -0.0563 -0.2882
 5100WAT     H122205   8.803   5.472   6.162  0.1208  0.4905 -0.4413
 5100WAT     H222206   8.751   5.612   6.186  0.6892  0.5665  0.3864
 5100WAT    EPW22207   8.770   5.533   6.215 -0.2494  0.0982 -0.2193
 5101WAT      O22208   7.821   4.595   6.348  0.1946 -0.0539  0.1508
 5101WAT     H122209   7.756   4.583   6.417 -0.2674 -0.8445 -0.3971
 5101WAT     H222210   7.880   4.662   6.381 -0.7737  0.5181  0.7531
 5101WAT    EPW22211   7.820   4.602   6.362  0.0062 -0.0825  0.1581
 5102WAT      O22212   5.153   5.142   4.853  0.0793  0.3249 -0.6920
 5102WAT     H122213   5.095   5.108   4.785 -1.0998 -1.3817  1.0734
 5102WAT     H222214   5.139   5.237   4.850 -1.2786  0.1322 -1.6565
 5102WAT    EPW22215   5.143   5.150   4.843 -0.2553  0.0744 -0.5863
 5103WAT      O22216   2.117   0.406   7.242  0.5721 -0.1517  0.4356
 5103WAT     H122217   2.188   0.409   7.177  0.8735 -1.4981  0.6648
 5103WAT     H222218   2.131   0.483   7.296  0.9232  0.4457 -0.4714
 5103WAT    EPW22219   2.128   0.417   7.240  0.6580 -0.2505  0.3462
 5104WAT      O22220   9.575   4.960   6.464  0.1917 -0.3574  0.3922
 5104WAT     H122221   9.545   5.026   6.527  1.2837 -0.2561  0.8242
 5104WAT     H222222   9.508   4.961   6.396 -0.9475 -0.3737  1.4755
 5104WAT    EPW22223   9.562   4.969   6.463  0.1855 -0.3462  0.5920
 5105WAT      O22224   4.976   1.957   5.122 -0.2154  0.1688  0.4093
 5105WAT     H122225   4.959   1.872   5.163  2.5061 -1.3027 -1.1635
 5105WAT     H222226   4.904   1.969   5.060 -0.1367 -1.5385 -0.0686
 5105WAT    EPW22227   4.965   1.947   5.119  0.1540 -0.2505  0.1390
 5106WAT      O22228   5.637   4.037   7.638 -0.0186 -0.4317  0.2817
 5106WAT     H122229   5.603   4.061   7.552 -3.5997 -2.6324  0.8797
 5106WAT     H222230   5.687   3.957   7.623  1.1622  0.3283  0.0272
 5106WAT    EPW22231   5.639   4.030   7.624 -0.3352 -0.6218  0.3271
 5107WAT      O22232   9.548   0.865   6.600 -0.3821  0.3012  0.2999
 5107WAT     H122233   9.488   0.823   6.538 -0.9544  1.4275  0.0626
 5107WAT     H222234   9.533   0.820   6.683  0.3241 -1.1609 -0.3392
 5107WAT    EPW22235   9.538   0.854   6.603 -0.3643  0.2569  0.1843
 5108WAT      O22236   9.787   5.129   6.339 -0.1653  0.1505  0.7301
 5108WAT     H122237   9.728   5.077   6.395  0.5397  1.3547  2.7031
 5108WAT     H222238   9.828   5.191   6.399  0.0007  2.1362 -1.3104
 5108WAT    EPW22239   9.785   5.130   6.355 -0.0505  0.5710  0.7212
 5109WAT      O22240  10.036   3.082   4.546  0.1516 -0.5335  0.4394
 5109WAT     H122241  10.063   3.158   4.597 -1.1889 -0.1326  0.5960
 5109WAT     H222242  10.114   3.057   4.497  0.5224  1.1806  0.0915
 5109WAT    EPW22243  10.049   3.089   4.546  0.0238 -0.2545  0.4141
 5110WAT      O22244   7.125   4.110   3.984 -0.3824 -0.3202 -0.4699
 5110WAT     H122245   7.182   4.143   3.914 -1.1428  1.9789 -0.1012
 5110WAT     H222246   7.179   4.117   4.063 -0.8134  0.9015 -0.2686
 5110WAT    EPW22247   7.140   4.115   3.985 -0.5395  0.1442 -0.3948
 5111WAT      O22248   9.222   5.213   5.096  0.2309  0.3515 -0.2004
 5111WAT     H122249   9.187   5.124   5.087 -0.3197  0.4996  0.4194
 5111WAT     H222250   9.263   5.231   5.011  0.8558 -0.7062 -0.1361
 5111WAT    EPW22251   9.222   5.203   5.084  0.2403  0.2315 -0.1101
 5112WAT      O22252   9.665   0.769   7.707  0.6376 -0.0684 -0.4184
 5112WAT     H122253   9.720   0.846   7.695  1.7428 -0.6178  0.9170
 5112WAT     H222254   9.726   0.696   7.716 -0.0886 -0.4398  3.0944
 5112WAT    EPW22255   9.680   0.769   7.707  0.6876 -0.1898  0.2210
 5113WAT      O22256   9.935   4.144   5.542  0.0739 -1.1351 -0.4289
 5113WAT     H122257   9.880   4.188   5.477  0.3185  0.8841  0.6201
 5113WAT     H222258   9.893   4.060   5.556 -0.6769 -1.1177 -2.2725
 5113WAT    EPW22259   9.922   4.139   5.536  0.0072 -0.8669 -0.5336
 5114WAT      O22260   7.222   2.373   5.872  0.1845 -0.1597  0.3797
 5114WAT     H122261   7.211   2.394   5.779 -1.7005  0.3874  0.6747
 5114WAT     H222262   7.236   2.458   5.914  1.9754 -0.4922  0.5143
 5114WAT    EPW22263   7.222   2.387   5.865  0.1719 -0.1314  0.4365
 5115WAT      O22264   8.983   2.633   5.792  0.2857  0.4960 -0.4386
 5115WAT     H122265   8.957   2.546   5.763  0.4569  0.1041  0.5284
 5115WAT     H222266   9.044   2.664   5.725  0.8106 -0.4438 -0.3989
 5115WAT    EPW22267   8.988   2.626   5.779  0.3777  0.3204 -0.3059
 5116WAT      O22268   9.142   2.107   5.549  1.2662  0.0710  0.1035
 5116WAT     H122269   9.154   2.027   5.600  1.1317 -2.1748 -3.1104
 5116WAT     H222270   9.176   2.177   5.605 -0.9945 -1.7533  4.1809
 5116WAT    EPW22271   9.148   2.106   5.563  0.9499 -0.4659  0.2174
 5117WAT      O22272   0.770   4.663   3.838 -0.2662  0.3456  0.2672
 5117WAT     H122273   0.811   4.712   3.910  0.0100 -0.2580  0.5246
 5117WAT     H222274   0.788   4.572   3.857 -0.1548  0.1756 -0.6005
 5117WAT    EPW22275   0.778   4.658   3.850 -0.2151  0.2437  0.1868
 5118WAT      O22276  10.084   6.219   5.085 -0.5189 -0.4308  0.2972
 5118WAT     H122277  10.144   6.291   5.064 -2.2324  0.4364 -2.2751
 5118WAT     H222278  10.003   6.263   5.112 -1.7930 -1.2599 -1.8817
 5118WAT    EPW22279  10.081   6.234   5.086 -0.9127 -0.4261 -0.3297
 5119WAT      O22280   9.956   2.165   5.565 -0.8601 -0.2745  0.1337
 5119WAT     H122281  10.003   2.112   5.630 -0.8396 -0.7289 -0.2390
 5119WAT     H222282  10.025   2.202   5.510 -0.8766  0.1163  0.3740
 5119WAT    EPW22283   9.971   2.163   5.566 -0.8597 -0.2828  0.1161
 5120WAT      O22284   4.127   0.627   0.797 -0.7273 -0.6080 -0.2742
 5120WAT     H122285   4.070   0.552   0.814  1.0028 -2.1672 -0.9440
 5120WAT     H222286   4.157   0.654   0.884  0.2570 -2.0842 -0.1198
 5120WAT    EPW22287   4.124   0.620   0.811 -0.3691 -1.0084 -0.3422
 5121WAT      O22288   5.162   7.469   0.466 -0.2549 -0.3067 -0.2231
 5121WAT     H122289   5.216   7.390   0.459 -1.4937 -1.4581  2.0807
 5121WAT     H222290   5.147   7.495   0.375  2.5629 -0.9808 -0.9984
 5121WAT    EPW22291   5.167   7.462   0.453 -0.0467 -0.5474 -0.0215
 5122WAT      O22292  10.992   0.847   8.652  0.2064 -0.3958 -0.6072
 5122WAT     H122293  10.970   0.762   8.691 -0.8128  0.7901  1.5824
 5122WAT     H222294  10.991   0.908   8.726 -1.3064  1.9578 -2.4322
 5122WAT    EPW22295  10.989   0.843   8.667 -0.1273  0.0710 -0.5593
 5123WAT      O22296   9.009   2.525   0.600 -0.1397 -0.0802 -0.3462
 5123WAT     H122297   9.003   2.609   0.555  1.6404 -0.5134 -1.5093
 5123WAT     H222298   9.097   2.492   0.578 -0.8762 -2.3628 -0.1654
 5123WAT    EPW22299   9.020   2.531   0.591 -0.0019 -0.4383 -0.4757
 5124WAT      O22300   6.447  10.126   7.354  0.1172 -0.3230 -0.5426
 5124WAT     H122301   6.430  10.197   7.292  0.2147 -0.2448 -0.4799
 5124WAT     H222302   6.458  10.049   7.299  1.1292 -0.0903 -0.6951
 5124WAT    EPW22303   6.447  10.125   7.339  0.2632 -0.2823 -0.5543
 5125WAT      O22304   3.495   8.684   0.130 -0.4966 -0.0073 -0.6859
 5125WAT     H122305   3.517   8.682   0.223  2.5915  0.5424 -1.3043
 5125WAT     H222306   3.415   8.738   0.126 -0.0783  0.8930  1.5353
 5125WAT    EPW22307   3.487   8.691   0.142 -0.0341  0.1841 -0.4745
 5126WAT      O22308  10.687   5.602   7.056 -0.3521  0.2399 -0.3494
 5126WAT     H122309  10.684   5.696   7.070  0.9592  0.2646 -0.1278
 5126WAT     H222310  10.601   5.571   7.085  0.3711  0.9321  2.9296
 5126WAT    EPW22311  10.675   5.610   7.061 -0.0844  0.3345  0.1125
 5127WAT      O22312   8.546   1.553   6.277 -0.5249  0.5095 -0.2290
 5127WAT     H122313   8.561   1.544   6.371 -1.6839 -0.4652 -0.1044
 5127WAT     H222314   8.498   1.636   6.269 -0.7720  0.4036  0.0976
 5127WAT    EPW22315   8.542   1.563   6.288 -0.7100  0.3670 -0.1698
 5128WAT      O22316   9.811   4.221   4.811 -0.8208  0.0834  0.3906
 5128WAT     H122317   9.748   4.160   4.774 -0.3043  0.3506 -0.9717
 5128WAT     H222318   9.871   4.242   4.739  1.0343 -0.4145  1.7102
 5128WAT    EPW22319   9.811   4.216   4.797 -0.5078  0.0527  0.3853
 5129WAT      O22320   8.374   4.656   5.784 -0.1245  0.1405  0.1110
 5129WAT     H122321   8.295   4.622   5.742 -1.5620  1.9262  1.2275
 5129WAT     H222322   8.375   4.616   5.871 -0.6070  1.1855  0.6135
 5129WAT    EPW22323   8.364   4.646   5.790 -0.3781  0.5140  0.3245
 5130WAT      O22324   7.100   4.323   7.733 -0.3749  0.9590  0.0781
 5130WAT     H122325   7.115   4.408   7.692 -0.5921  1.7517  1.5745
 5130WAT     H222326   7.095   4.342   7.827 -0.9082 -0.6401  0.4073
 5130WAT    EPW22327   7.101   4.336   7.740 -0.4740  0.8528  0.3188
 5131WAT      O22328   7.314   1.119   6.277 -0.9893  0.3728 -0.0661
 5131WAT     H122329   7.312   1.100   6.371  2.9426 -1.3891 -0.1371
 5131WAT     H222330   7.338   1.211   6.271 -2.9061  0.9590  0.5468
 5131WAT    EPW22331   7.317   1.128   6.289 -0.7238  0.2177  0.0052
 5132WAT      O22332   1.275   8.134   1.562  0.8633  0.4552  0.0968
 5132WAT     H122333   1.321   8.212   1.531  1.1153 -0.0443 -0.8184
 5132WAT     H222334   1.301   8.065   1.502  1.8352 -0.7120  1.7825
 5132WAT    EPW22335   1.284   8.135   1.550  1.0248  0.2351  0.1985
 5133WAT      O22336   9.671   2.374   6.446  0.3732 -0.0108  0.0723
 5133WAT     H122337   9.642   2.399   6.358  0.0840 -0.1898  0.1172
 5133WAT     H222338   9.722   2.449   6.476  1.3479 -0.3560 -0.6512
 5133WAT    EPW22339   9.674   2.388   6.438  0.4640 -0.0799 -0.0176
 5134WAT      O22340   1.514   0.320   0.028 -1.1941 -0.1164 -0.0461
 5134WAT     H122341   1.522   0.287  -0.062 -0.5041  1.9360 -0.8040
 5134WAT     H222342   1.578   0.270   0.078 -2.0626 -1.7674 -0.5303
 5134WAT    EPW22343   1.524   0.309   0.022 -1.2176 -0.0634 -0.2099
 5135WAT      O22344  10.712   5.499   7.460  0.2459  0.1504 -0.8234
 5135WAT     H122345  10.682   5.437   7.394 -1.5297 -0.3477  0.3819
 5135WAT     H222346  10.662   5.477   7.538  0.9568  1.9049  0.1850
 5135WAT    EPW22347  10.702   5.488   7.462  0.1059  0.3164 -0.5314
 5136WAT      O22348   0.683   2.610   7.069  0.1076 -0.4495 -0.2265
 5136WAT     H122349   0.604   2.600   7.016  0.2174 -0.2152 -0.4377
 5136WAT     H222350   0.654   2.659   7.145 -0.6948 -3.2396  1.3979
 5136WAT    EPW22351   0.669   2.615   7.072  0.0162 -0.7867 -0.0401
 5137WAT      O22352   7.054   0.862   8.520  0.0297  0.3767  0.0086
 5137WAT     H122353   7.042   0.954   8.542 -0.1031  0.6355 -1.1100
 5137WAT     H222354   6.990   0.845   8.451  1.2253 -0.0769 -1.0341
 5137WAT    EPW22355   7.044   0.872   8.514  0.1702  0.3510 -0.2761
 5138WAT      O22356   6.222   2.286   7.914 -0.5262  0.5997 -0.1279
 5138WAT     H122357   6.238   2.309   7.823  0.0431 -1.2514 -0.5405
 5138WAT     H222358   6.270   2.203   7.927 -2.2998 -0.2893  1.2547
 5138WAT    EPW22359   6.231   2.278   7.904 -0.6850  0.2383  0.0002
 5139WAT      O22360   8.529   2.744   4.587  0.0029  0.3883  0.2863
 5139WAT     H122361   8.438   2.731   4.559 -0.0611 -2.1784  1.4301
 5139WAT     H222362   8.570   2.658   4.576  2.1001  1.3058  0.5432
 5139WAT    EPW22363   8.522   2.731   4.582  0.2708  0.1708  0.4709
 5140WAT      O22364  10.426   5.039   5.248 -0.1864 -0.5849 -0.5541
 5140WAT     H122365  10.336   5.034   5.280  0.3365 -1.8051  0.7981
 5140WAT     H222366  10.461   4.951   5.261  1.4497  0.0682 -0.3243
 5140WAT    EPW22367  10.418   5.027   5.254  0.0987 -0.6597 -0.3457
 5141WAT      O22368   9.739   4.852   7.736  0.5982  0.1505  0.4924
 5141WAT     H122369   9.810   4.892   7.786  1.1415  0.7650 -0.7455
 5141WAT     H222370   9.662   4.860   7.794  1.9310 -2.7397  2.9222
 5141WAT    EPW22371   9.738   4.859   7.751  0.8459 -0.1497  0.6495
 5142WAT      O22372   9.181   1.526   8.864 -0.2467 -0.5756 -0.4304
 5142WAT     H122373   9.225   1.455   8.911  1.4837 -0.6105 -1.9917
 5142WAT     H222374   9.190   1.503   8.772 -0.3597  1.2868 -0.9387
 5142WAT    EPW22375   9.188   1.514   8.858 -0.0329 -0.3346 -0.7033
 5143WAT      O22376   8.203   4.082   6.836 -0.4745  0.1107  0.0775
 5143WAT     H122377   8.139   4.134   6.789 -0.6585 -0.2375 -0.0650
 5143WAT     H222378   8.184   3.992   6.809  1.2587  0.1430 -1.4371
 5143WAT    EPW22379   8.192   4.077   6.826 -0.2699  0.0689 -0.1411
 5144WAT      O22380   6.441   2.192   6.686  0.2592  0.2715 -0.2571
 5144WAT     H122381   6.532   2.192   6.655  0.6740  2.6605  0.7873
 5144WAT     H222382   6.447   2.216   6.778 -1.2681 -2.6562  0.7459
 5144WAT    EPW22383   6.454   2.195   6.694  0.1125  0.2004  0.0131
 5145WAT      O22384   7.633   3.544   5.998 -0.3784 -0.0319  0.2171
 5145WAT     H122385   7.576   3.483   6.045  1.0487 -2.2556 -0.7733
 5145WAT     H222386   7.675   3.491   5.931 -0.6637  2.5514 -2.1795
 5145WAT    EPW22387   7.631   3.529   5.996 -0.2279  0.0156 -0.2296
 5146WAT      O22388   1.035   8.879   3.142 -0.1117 -0.1030  1.0231
 5146WAT     H122389   0.994   8.809   3.192 -0.8387  0.3588  1.0804
 5146WAT     H222390   0.963   8.920   3.094  0.6055 -0.7617 -0.6985
 5146WAT    EPW22391   1.020   8.876   3.142 -0.1130 -0.1287  0.8036
 5147WAT      O22392   7.756   2.647   5.402  0.8541  0.1861  0.1661
 5147WAT     H122393   7.719   2.676   5.485  1.9108 -1.3210  1.2152
 5147WAT     H222394   7.844   2.617   5.424  0.8215 -1.1572 -1.3306
 5147WAT    EPW22395   7.763   2.647   5.416  0.9892 -0.1900  0.1068
 5148WAT      O22396   9.622   4.860   5.539 -0.9391  0.0598 -0.3162
 5148WAT     H122397   9.646   4.838   5.629 -0.4565  2.3740  0.1714
 5148WAT     H222398   9.685   4.927   5.512 -0.0247 -1.7019 -2.9992
 5148WAT    EPW22399   9.633   4.866   5.547 -0.7548  0.1328 -0.6056
 5149WAT      O22400   7.312   4.206   6.244 -0.5483  0.5172 -0.0752
 5149WAT     H122401   7.246   4.274   6.259  0.0805  0.7167  2.1179
 5149WAT     H222402   7.264   4.124   6.249 -0.7676  0.6881  0.8264
 5149WAT    EPW22403   7.297   4.204   6.247 -0.4942  0.5665  0.3328
 5150WAT      O22404   8.975   0.067   8.649  0.1024  0.3623  0.5626
 5150WAT     H122405   8.994  -0.023   8.622 -0.5831  0.8895 -1.9348
 5150WAT     H222406   9.059   0.112   8.640 -0.3843  0.9195 -2.8038
 5150WAT    EPW22407   8.989   0.061   8.644 -0.0520  0.5054 -0.2108
 5151WAT      O22408   4.369  10.189   7.536 -0.6845 -0.1533  0.3463
 5151WAT     H122409   4.400  10.225   7.619  0.0748 -0.6235  0.2748
 5151WAT     H222410   4.449  10.167   7.488 -1.0977  0.5777 -0.7225
 5151WAT    EPW22411   4.383  10.191   7.541 -0.6387 -0.1192  0.1960
 5152WAT      O22412   4.745   9.975   1.862  0.2182 -0.0812 -1.1029
 5152WAT     H122413   4.767   9.931   1.780 -0.7514  2.0130 -2.5861
 5152WAT     H222414   4.789  10.059   1.857 -2.5387  1.4852 -1.1050
 5152WAT    EPW22415   4.753   9.980   1.851 -0.2732  0.4015 -1.2988
 5153WAT      O22416   8.077   4.367   3.632 -0.3046  0.5205  0.7370
 5153WAT     H122417   7.988   4.371   3.598 -0.7645  2.9090  2.0114
 5153WAT     H222418   8.133   4.390   3.557 -0.7870 -0.2075  0.1374
 5153WAT    EPW22419   8.073   4.371   3.617 -0.4282  0.7393  0.8260
 5154WAT      O22420   8.742   5.220   5.528 -0.1088  0.1147 -0.4417
 5154WAT     H122421   8.680   5.226   5.601  0.0303 -0.3676 -0.2743
 5154WAT     H222422   8.702   5.158   5.468  0.1339 -0.0777 -0.4077
 5154WAT    EPW22423   8.729   5.212   5.530 -0.0582  0.0262 -0.4148
 5155WAT      O22424   7.346   5.646   7.041  0.1844  0.5158 -0.3725
 5155WAT     H122425   7.269   5.610   6.999  0.2350  1.0750 -0.9509
 5155WAT     H222426   7.358   5.593   7.120 -1.1779  0.8444  0.0795
 5155WAT    EPW22427   7.338   5.635   7.046  0.0114  0.6328 -0.3889
 5156WAT      O22428   9.749   3.812   4.936 -0.2624 -0.0805 -0.2076
 5156WAT     H122429   9.714   3.876   4.998 -1.5758 -1.2457  0.3097
 5156WAT     H222430   9.789   3.744   4.990 -1.3193 -1.0535 -0.6084
 5156WAT    EPW22431   9.750   3.811   4.951 -0.5751 -0.3628 -0.1919
 5157WAT      O22432   7.051   4.762   5.040 -0.2252  0.3578  0.2740
 5157WAT     H122433   7.017   4.691   5.094 -0.9412 -0.3028 -1.0267
 5157WAT     H222434   6.979   4.787   4.983  0.5348  1.0146 -0.4359
 5157WAT    EPW22435   7.037   4.756   5.040 -0.2193  0.3574  0.0088
 5158WAT      O22436   8.738   1.727   7.605  0.2232 -0.4906 -1.1341
 5158WAT     H122437   8.738   1.686   7.691  2.0991 -0.7793 -1.2262
 5158WAT     H222438   8.828   1.760   7.594 -0.4130  0.9650 -2.3146
 5158WAT    EPW22439   8.750   1.726   7.615  0.3867 -0.3366 -1.3018
 5159WAT      O22440   5.737   4.477   6.434  0.2087 -0.6865  0.5474
 5159WAT     H122441   5.787   4.396   6.431  1.2466 -0.2041  2.6994
 5159WAT     H222442   5.655   4.453   6.476  0.7280 -0.5727  1.6725
 5159WAT    EPW22443   5.733   4.463   6.439  0.4144 -0.6080  0.9794
 5160WAT      O22444   2.083   6.235   0.543 -0.0364  0.0788 -0.1659
 5160WAT     H122445   2.047   6.227   0.455  0.6657 -2.5396 -0.2907
 5160WAT     H222446   2.026   6.179   0.597  1.1502 -0.5179  0.4968
 5160WAT    EPW22447   2.070   6.226   0.538  0.2128 -0.3452 -0.0950
 5161WAT      O22448   8.230   4.912   7.012  0.1753 -0.6904  0.4030
 5161WAT     H122449   8.276   4.853   6.952  1.3788 -0.2558  0.8732
 5161WAT     H222450   8.150   4.865   7.035  0.7093 -1.7700  0.1171
 5161WAT    EPW22451   8.225   4.898   7.007  0.4044 -0.7758  0.4272
 5162WAT      O22452   8.785   4.674   7.191 -0.4427  0.4106  0.0381
 5162WAT     H122453   8.705   4.627   7.165 -0.8392  1.4205 -0.6659
 5162WAT     H222454   8.831   4.614   7.249 -1.0718 -0.7181 -0.5972
 5162WAT    EPW22455   8.780   4.660   7.195 -0.5774  0.3946 -0.1388
 5163WAT      O22456   7.500   1.999   8.667  1.2901 -0.2200 -0.1420
 5163WAT     H122457   7.439   1.955   8.608  1.9014 -0.8010 -0.3451
 5163WAT     H222458   7.513   1.937   8.738 -0.4976  0.9975  1.3553
 5163WAT    EPW22459   7.493   1.985   8.668  1.1349 -0.1360  0.0286
 5164WAT      O22460   8.592   1.247   6.405 -0.2024 -0.1252 -0.1276
 5164WAT     H122461   8.662   1.199   6.361  1.1756  0.4273  1.4047
 5164WAT     H222462   8.613   1.243   6.498 -1.6456  0.9504  0.2940
 5164WAT    EPW22463   8.604   1.240   6.411 -0.2112  0.0894  0.1302
 5165WAT      O22464   8.995   5.524   8.605  0.1414  0.7147 -0.0527
 5165WAT     H122465   9.044   5.564   8.676  2.5591 -0.3392 -1.0050
 5165WAT     H222466   9.002   5.430   8.621 -1.5663  0.5177 -0.2796
 5165WAT    EPW22467   9.002   5.517   8.616  0.2356  0.5496 -0.2079
 5166WAT      O22468   7.928   0.430   7.834 -0.4134 -0.1239 -0.3157
 5166WAT     H122469   7.895   0.461   7.918  1.3059 -0.1639  0.4276
 5166WAT     H222470   7.857   0.378   7.797 -1.3660  0.2855  0.8986
 5166WAT    EPW22471   7.914   0.427   7.840 -0.3121 -0.0752 -0.0575
 5167WAT      O22472   4.387   9.934   5.890  0.2915  0.2439  0.1071
 5167WAT     H122473   4.434   9.880   5.827  1.3156 -0.5563  1.4908
 5167WAT     H222474   4.336   9.995   5.837  2.5468  0.8797 -1.4734
 5167WAT    EPW22475   4.386   9.935   5.875  0.7241  0.2227  0.0808
 5168WAT      O22476  10.126   6.147   4.794 -0.4811  0.3112 -0.4881
 5168WAT     H122477  10.103   6.102   4.875  0.3895 -1.4025 -1.1480
 5168WAT     H222478  10.075   6.102   4.727  1.8119 -1.0480 -1.4325
 5168WAT    EPW22479  10.116   6.135   4.796 -0.0634 -0.0939 -0.6998
 5169WAT      O22480   9.045   9.041   2.104  0.5814 -0.4787  0.3596
 5169WAT     H122481   9.009   8.961   2.065 -0.0673 -0.0105 -0.0189
 5169WAT     H222482   8.992   9.054   2.183  0.5271 -0.2866  0.2911
 5169WAT    EPW22483   9.033   9.032   2.110  0.4888 -0.3915  0.3006
 5170WAT      O22484   1.404   3.080   4.342  0.3096 -0.5219 -0.4974
 5170WAT     H122485   1.458   3.092   4.420 -0.0643  1.2753 -0.4800
 5170WAT     H222486   1.463   3.040   4.278  1.3317  0.2627 -0.0773
 5170WAT    EPW22487   1.419   3.076   4.344  0.3951 -0.1813 -0.4399
 5171WAT      O22488   1.001   4.161   4.487  0.2956  0.3880 -0.2733
 5171WAT     H122489   0.968   4.167   4.577 -0.9992  0.1433 -0.7120
 5171WAT     H222490   1.096   4.163   4.497  0.2324 -1.1474  1.2212
 5171WAT    EPW22491   1.009   4.162   4.500  0.1165  0.1533 -0.1340
 5172WAT      O22492   7.258   0.185   8.667 -0.2165 -0.7361  1.0027
 5172WAT     H122493   7.292   0.128   8.737 -2.0927 -0.5679  2.1568
 5172WAT     H222494   7.163   0.178   8.677 -0.6030 -1.4709 -2.2152
 5172WAT    EPW22495   7.250   0.176   8.678 -0.5150 -0.8108  0.7300
 5173WAT      O22496   8.015   3.284   5.263  0.2198 -1.1430 -0.6317
 5173WAT     H122497   8.046   3.207   5.216  0.1451  0.2683 -3.1399
 5173WAT     H222498   7.920   3.285   5.249  0.3585 -0.0059 -1.6253
 5173WAT    EPW22499   8.007   3.274   5.255  0.2279 -0.8068 -1.0939
 5174WAT      O22500   7.910   4.130   2.394 -0.0052  0.8331  0.2497
 5174WAT     H122501   7.864   4.214   2.392 -2.9844 -0.6559 -0.3822
 5174WAT     H222502   7.875   4.085   2.471  0.6522 -0.2577 -0.0626
 5174WAT    EPW22503   7.899   4.135   2.404 -0.3114  0.4926  0.1253
 5175WAT      O22504   8.932   0.839   8.569  0.1610 -0.3900 -0.2033
 5175WAT     H122505   8.904   0.760   8.615 -0.1786 -0.6439 -0.8404
 5175WAT     H222506   9.027   0.831   8.562  0.1122 -0.7989 -0.3767
 5175WAT    EPW22507   8.941   0.828   8.575  0.1092 -0.4774 -0.3099
 5176WAT      O22508  10.410   5.218   4.280  1.1789  0.4462 -0.6973
 5176WAT     H122509  10.436   5.209   4.188 -0.3592  0.7710 -1.2013
 5176WAT     H222510  10.380   5.130   4.304 -2.0311  1.1110 -1.7533
 5176WAT    EPW22511  10.409   5.205   4.271  0.5522  0.5765 -0.9031
 5177WAT      O22512   8.898   0.429   0.149 -0.1561  0.3890  0.8003
 5177WAT     H122513   8.826   0.405   0.208  0.2974 -1.0164  0.8296
 5177WAT     H222514   8.866   0.405   0.062  0.1206  0.1149  0.7705
 5177WAT    EPW22515   8.884   0.423   0.145 -0.0596  0.1675  0.8003
 5178WAT      O22516  10.254   4.132   7.606 -0.0297  0.7568 -0.5407
 5178WAT     H122517  10.261   4.132   7.511  2.6613  2.1754 -0.4377
 5178WAT     H222518  10.337   4.168   7.636 -0.3605 -0.6563  2.4119
 5178WAT    EPW22519  10.266   4.137   7.598  0.2809  0.7575 -0.1378
 5179WAT      O22520  10.721   7.189   5.771  0.0532  0.0621  0.2372
 5179WAT     H122521  10.743   7.183   5.864 -2.0403 -0.8783  0.7311
 5179WAT     H222522  10.790   7.138   5.727 -1.5453 -3.8827  1.7977
 5179WAT    EPW22523  10.733   7.181   5.777 -0.4334 -0.5822  0.5083
 5180WAT      O22524   8.543   4.741   6.027 -0.0830 -0.2924  0.7747
 5180WAT     H122525   8.630   4.702   6.033  0.2459  0.1565 -0.6641
 5180WAT     H222526   8.557   4.824   5.981 -1.0540  0.5590  1.9472
 5180WAT    EPW22527   8.556   4.747   6.022 -0.1678 -0.1211  0.7396
 5181WAT      O22528   9.833   5.315   7.117  0.5992  0.2888 -0.1915
 5181WAT     H122529   9.869   5.386   7.065 -1.5768  1.0778 -0.7393
 5181WAT     H222530   9.895   5.303   7.189  0.9516  2.8504  0.0056
 5181WAT    EPW22531   9.846   5.323   7.119  0.3586  0.7305 -0.2379
 5182WAT      O22532   6.359   1.809   3.138  0.5025  0.1430 -0.0723
 5182WAT     H122533   6.324   1.853   3.215  0.1849  1.2802 -0.8341
 5182WAT     H222534   6.420   1.743   3.172 -0.2271  0.0906  1.1603
 5182WAT    EPW22535   6.363   1.806   3.152  0.3643  0.2860 -0.0101
 5183WAT      O22536   7.258   3.483   6.547 -0.5235 -0.0133 -0.5802
 5183WAT     H122537   7.213   3.544   6.489  1.1052 -0.3374 -2.2935
 5183WAT     H222538   7.242   3.517   6.635 -0.5143  2.3132 -1.4065
 5183WAT    EPW22539   7.250   3.495   6.551 -0.3073  0.2508 -0.9151
 5184WAT      O22540   7.241   1.387   7.025 -0.2486 -0.2268 -0.4384
 5184WAT     H122541   7.160   1.354   7.065  0.3008  1.5777  2.3768
 5184WAT     H222542   7.274   1.452   7.086  2.1157  0.8491 -2.6668
 5184WAT    EPW22543   7.234   1.391   7.038  0.1359  0.1531 -0.3612
 5185WAT      O22544   4.199   3.049   7.163  0.3336  0.7549  0.1004
 5185WAT     H122545   4.193   3.002   7.080  1.7827 -0.5511  0.6756
 5185WAT     H222546   4.128   3.113   7.160 -0.2355  0.0996 -1.7279
 5185WAT    EPW22547   4.189   3.051   7.152  0.4497  0.4963 -0.0651
 5186WAT      O22548  10.299   2.858   5.826 -0.1858 -0.9005 -0.1181
 5186WAT     H122549  10.352   2.917   5.771 -3.0447  2.4862  0.3653
 5186WAT     H222550  10.245   2.810   5.765 -1.3770  0.8150 -0.4983
 5186WAT    EPW22551  10.299   2.860   5.811 -0.7205 -0.2276 -0.1042
 5187WAT      O22552   9.433   7.096   1.973 -0.2133 -0.2409  0.4148
 5187WAT     H122553   9.369   7.090   2.044  0.4331 -3.5328  0.8667
 5187WAT     H222554   9.386   7.064   1.896  0.4434 -1.3703  0.4598
 5187WAT    EPW22555   9.419   7.091   1.972 -0.0410 -0.8240  0.4802
 5188WAT      O22556   5.560   2.752   5.965  0.0563  0.2288 -0.3847
 5188WAT     H122557   5.475   2.713   5.944  0.3907 -0.4557 -0.4917
 5188WAT     H222558   5.599   2.772   5.880 -0.7304  2.2082 -0.3295
 5188WAT    EPW22559   5.554   2.750   5.951 -0.0033  0.3995 -0.3917
 5189WAT      O22560   4.708   7.116   1.378 -0.0821 -0.5428  0.1570
 5189WAT     H122561   4.748   7.202   1.392  0.2533 -0.6581 -0.0941
 5189WAT     H222562   4.781   7.055   1.382  0.7542 -0.4097 -5.2551
 5189WAT    EPW22563   4.723   7.119   1.380  0.0725 -0.5405 -0.5900
 5190WAT      O22564   8.164   1.217   4.549 -0.2602 -0.3987  0.1656
 5190WAT     H122565   8.101   1.272   4.503  1.1373  0.9132 -0.2567
 5190WAT     H222566   8.140   1.225   4.642 -0.6284  0.2157  0.0225
 5190WAT    EPW22567   8.152   1.225   4.555 -0.1245 -0.1446  0.0913
 5191WAT      O22568   9.626   1.386   5.738 -0.0288 -0.2028 -0.3759
 5191WAT     H122569   9.692   1.318   5.726 -0.2806 -0.6120  0.4827
 5191WAT     H222570   9.607   1.385   5.832 -1.2710 -0.1200 -0.6066
 5191WAT    EPW22571   9.632   1.377   5.749 -0.2265 -0.2459 -0.2930
 5192WAT      O22572   7.014   1.363   1.293  0.1404 -0.0144 -0.8553
 5192WAT     H122573   7.011   1.271   1.268 -0.4620 -0.3098  0.2293
 5192WAT     H222574   7.107   1.380   1.311  0.2050 -0.5115 -0.7115
 5192WAT    EPW22575   7.026   1.354   1.292  0.0694 -0.1190 -0.6933
 5193WAT      O22576   6.695  10.224   4.550 -0.5752 -0.3104 -0.7151
 5193WAT     H122577   6.676  10.139   4.510 -0.3313 -0.5843 -0.2579
 5193WAT     H222578   6.621  10.279   4.526 -1.0875 -0.8591 -0.4268
 5193WAT    EPW22579   6.683  10.220   4.542 -0.6106 -0.4191 -0.6168
 5194WAT      O22580   8.392   0.959   8.323 -0.1828 -0.5903 -0.0329
 5194WAT     H122581   8.358   1.000   8.403  1.7414  0.0485  0.5139
 5194WAT     H222582   8.348   0.874   8.319  0.1247 -0.9166  2.0890
 5194WAT    EPW22583   8.382   0.953   8.333  0.1116 -0.5491  0.3195
 5195WAT      O22584   9.380   2.499   6.972 -0.5050 -0.3369  0.1309
 5195WAT     H122585   9.364   2.579   6.922 -0.7377  0.9434  2.1459
 5195WAT     H222586   9.331   2.431   6.925 -1.9916  1.1115 -0.5117
 5195WAT    EPW22587   9.371   2.501   6.959 -0.7319  0.0230  0.3121
 5196WAT      O22588   9.597   2.479   7.717 -0.2279  0.0613 -0.4058
 5196WAT     H122589   9.659   2.435   7.660 -0.9734 -2.2649  0.4700
 5196WAT     H222590   9.560   2.549   7.663 -0.2283 -1.4432 -2.4689
 5196WAT    EPW22591   9.600   2.482   7.703 -0.3262 -0.4439 -0.5622
 5197WAT      O22592   9.150   6.759   8.625  0.4253  0.0040 -0.3434
 5197WAT     H122593   9.145   6.752   8.720 -0.6061 -2.8687 -0.5227
 5197WAT     H222594   9.207   6.687   8.598 -1.7287 -1.2202 -2.0161
 5197WAT    EPW22595   9.157   6.749   8.634  0.0052 -0.5364 -0.5875
 5198WAT      O22596   5.056   0.546   7.936 -0.1114 -0.0285  0.2383
 5198WAT     H122597   5.043   0.463   7.982  0.9788 -0.3718 -0.0447
 5198WAT     H222598   5.046   0.613   8.005  2.1369 -0.5620  1.1948
 5198WAT    EPW22599   5.053   0.544   7.951  0.3290 -0.1442  0.3271
 5199WAT      O22600   0.687   2.074   5.859  0.2777 -0.0117 -0.3139
 5199WAT     H122601   0.611   2.051   5.806  1.6940 -0.5638 -2.1986
 5199WAT     H222602   0.678   2.020   5.938 -1.4506  0.2152 -0.3179
 5199WAT    EPW22603   0.676   2.064   5.863  0.2366 -0.0546 -0.5629
 5200WAT      O22604  10.801   3.143   7.890  0.2988 -0.4833 -0.5622
 5200WAT     H122605  10.875   3.128   7.949  0.1897  0.3825 -0.1978
 5200WAT     H222606  10.842   3.156   7.804  0.5363 -0.4626 -0.4458
 5200WAT    EPW22607  10.817   3.142   7.886  0.3157 -0.3664 -0.4990
 5201WAT      O22608   1.756   7.913   3.177  0.6860 -0.5773 -0.2823
 5201WAT     H122609   1.789   7.980   3.236  1.3045 -1.0232 -0.1218
 5201WAT     H222610   1.810   7.922   3.098 -0.6347  0.5332 -1.1150
 5201WAT    EPW22611   1.767   7.923   3.174  0.5934 -0.4900 -0.3710
 5202WAT      O22612   1.046   8.938   1.167  0.4884 -0.1295  0.1026
 5202WAT     H122613   1.041   9.029   1.197 -0.3830 -0.2039  0.1926
 5202WAT     H222614   1.140   8.921   1.159  0.6518  0.9214 -0.3640
 5202WAT    EPW22615   1.058   8.948   1.170  0.3949 -0.0014  0.0529
 5203WAT      O22616   3.761   3.166   7.624  0.2683  0.0768 -0.1357
 5203WAT     H122617   3.807   3.123   7.552  1.9878  0.7480  0.5089
 5203WAT     H222618   3.808   3.249   7.636 -1.2908  0.9300  0.4037
 5203WAT    EPW22619   3.773   3.171   7.616  0.2893  0.2778  0.0203
 5204WAT      O22620   9.839   6.001   7.399  0.0564  0.4602 -1.3261
 5204WAT     H122621   9.848   5.965   7.488 -0.7227 -1.0522 -1.8351
 5204WAT     H222622   9.745   6.006   7.385  0.1765  0.1556 -2.2813
 5204WAT    EPW22623   9.828   5.997   7.409 -0.0300  0.2208 -1.5190
 5205WAT      O22624   5.316   1.807   7.298  0.9530  0.2500 -0.8715
 5205WAT     H122625   5.314   1.781   7.206  0.9416  1.1395 -1.1359
 5205WAT     H222626   5.350   1.897   7.297  1.3248  0.1395  0.0282
 5205WAT    EPW22627   5.321   1.815   7.286  1.0004  0.3527 -0.7877
 5206WAT      O22628   7.376   4.379   4.757  0.5882  0.0986 -0.0293
 5206WAT     H122629   7.354   4.460   4.803 -1.6437  0.2300 -1.1712
 5206WAT     H222630   7.420   4.409   4.677 -2.2440  0.4904 -1.5986
 5206WAT    EPW22631   7.379   4.394   4.753 -0.0796  0.1678 -0.3870
 5207WAT      O22632   8.834   2.105   5.902  0.1662  0.1059 -0.3275
 5207WAT     H122633   8.769   2.047   5.942 -0.1778  0.7140  0.0109
 5207WAT     H222634   8.876   2.051   5.835  0.1021 -0.6435  0.2204
 5207WAT    EPW22635   8.831   2.090   5.899  0.1125  0.0873 -0.2103
 5208WAT      O22636   1.314   9.923   1.191  0.3439 -0.3224  0.6030
 5208WAT     H122637   1.321   9.919   1.095 -2.1105  2.8665  0.1056
 5208WAT     H222638   1.389   9.975   1.218  1.7177 -2.2323  0.6401
 5208WAT    EPW22639   1.325   9.929   1.182  0.2013 -0.1535  0.5422
 5209WAT      O22640   0.005   0.521   5.013  0.0287  0.3390 -0.6468
 5209WAT     H122641  -0.033   0.508   5.100  3.3353  1.0539  1.1087
 5209WAT     H222642   0.052   0.604   5.020  2.0686 -0.5566 -2.4268
 5209WAT    EPW22643   0.006   0.530   5.025  0.7339  0.3152 -0.6502
 5210WAT      O22644   4.367   9.539   4.723 -0.0601  0.5810  0.3814
 5210WAT     H122645   4.291   9.542   4.665 -1.2017  1.2063  1.8832
 5210WAT     H222646   4.409   9.455   4.701 -1.0891  0.2790 -0.5563
 5210WAT    EPW22647   4.363   9.528   4.712 -0.3464  0.6232  0.4561
 5211WAT      O22648   0.539   5.708   5.798 -0.3612  0.2702  0.7261
 5211WAT     H122649   0.467   5.681   5.855 -1.7604 -2.8460 -2.1553
 5211WAT     H222650   0.496   5.729   5.714  1.8050  1.8143 -0.0703
 5211WAT    EPW22651   0.523   5.707   5.794 -0.2601  0.0629  0.2410
 5212WAT      O22652   8.153   5.555   7.159 -0.2511 -0.2088 -0.0353
 5212WAT     H122653   8.115   5.537   7.246 -0.1844 -0.3474 -0.0354
 5212WAT     H222654   8.098   5.506   7.099 -1.2079  1.0543 -0.2270
 5212WAT    EPW22655   8.141   5.546   7.163 -0.3686 -0.0606 -0.0606
 5213WAT      O22656   8.613   5.121   5.100  0.7534  0.0952  0.5906
 5213WAT     H122657   8.585   5.192   5.042 -1.8409 -1.6153 -0.4181
 5213WAT     H222658   8.567   5.138   5.182 -0.1396 -0.5273  0.2412
 5213WAT    EPW22659   8.603   5.132   5.103  0.2933 -0.2124  0.4115
 5214WAT      O22660   9.992   3.700   6.829 -0.8896  0.6421 -0.5750
 5214WAT     H122661   9.912   3.744   6.802 -1.2262 -0.4177 -1.3450
 5214WAT     H222662   9.963   3.614   6.861 -0.0629  0.1987 -0.9827
 5214WAT    EPW22663   9.978   3.694   6.830 -0.8254  0.4437 -0.7303
 5215WAT      O22664   0.578   5.702   7.447 -0.5547  0.1087 -0.6827
 5215WAT     H122665   0.589   5.634   7.381  0.2873  1.4127 -1.9537
 5215WAT     H222666   0.597   5.658   7.530  0.6372 -1.0539 -1.5249
 5215WAT    EPW22667   0.582   5.687   7.450 -0.2865  0.1273 -0.9613
 5216WAT      O22668   9.690   5.592   5.101 -0.0172  0.2663 -0.2874
 5216WAT     H122669   9.744   5.581   5.180 -2.6684 -1.6065  1.4366
 5216WAT     H222670   9.601   5.602   5.134 -1.1892 -0.0386 -3.0596
 5216WAT    EPW22671   9.686   5.592   5.116 -0.5212 -0.0207 -0.4258
 5217WAT      O22672   7.280   4.583   7.238 -0.1012 -0.6851  0.4380
 5217WAT     H122673   7.278   4.512   7.174 -0.5158 -0.5673  0.3187
 5217WAT     H222674   7.343   4.646   7.202 -0.0491 -0.7949  0.3348
 5217WAT    EPW22675   7.288   4.582   7.225 -0.1493 -0.6840  0.4086
 5218WAT      O22676   7.413   0.236   0.931  0.0592 -0.1682  0.0986
 5218WAT     H122677   7.425   0.323   0.892 -0.3942  0.1148  0.5687
 5218WAT     H222678   7.395   0.179   0.857  0.4009  0.1311 -0.2187
 5218WAT    EPW22679   7.412   0.240   0.916  0.0446 -0.0914  0.1188
 5219WAT      O22680   7.362   5.808   6.360  0.0098  0.2421  0.4257
 5219WAT     H122681   7.421   5.733   6.349 -2.7479 -1.9754 -0.4211
 5219WAT     H222682   7.381   5.864   6.286 -0.3964 -1.5474 -1.1122
 5219WAT    EPW22683   7.372   5.805   6.349 -0.4075 -0.2863  0.1111
 5220WAT      O22684   2.173   5.157   6.986  0.1837  0.1324 -0.1177
 5220WAT     H122685   2.182   5.211   7.064 -1.9697  0.2304  0.1121
 5220WAT     H222686   2.259   5.115   6.976  0.1238 -1.0976  3.2234
 5220WAT    EPW22687   2.186   5.158   6.995 -0.1081 -0.0172  0.3533
 5221WAT      O22688   8.791   5.130   5.870 -0.1446  0.2127  0.4838
 5221WAT     H122689   8.796   5.072   5.946  0.0801  0.3248  0.5572
 5221WAT     H222690   8.841   5.085   5.802  0.7010  0.6787  0.7817
 5221WAT    EPW22691   8.799   5.116   5.871 -0.0033  0.2890  0.5329
 5222WAT      O22692  10.167   6.891   4.573  0.5140 -0.0604 -0.1894
 5222WAT     H122693  10.082   6.854   4.549  0.1909  1.1798 -1.0308
 5222WAT     H222694  10.199   6.833   4.642 -1.4384 -0.0259  0.8206
 5222WAT    EPW22695  10.160   6.878   4.579  0.2141  0.1078 -0.1671
 5223WAT      O22696   3.104   3.326   4.606  0.3753 -0.5214 -0.1256
 5223WAT     H122697   3.197   3.329   4.584 -0.4433 -1.4961 -4.5530
 5223WAT     H222698   3.071   3.414   4.587  0.2146 -0.4017  0.6636
 5223WAT    EPW22699   3.112   3.338   4.601  0.2464 -0.6343 -0.6053
 5224WAT      O22700   8.942   6.480   6.698  0.5398  0.2535 -0.5810
 5224WAT     H122701   8.956   6.569   6.665 -1.3077  0.1775 -1.7342
 5224WAT     H222702   9.014   6.429   6.660  0.6070  0.9275 -1.3994
 5224WAT    EPW22703   8.953   6.485   6.689  0.3047  0.3321 -0.8411
 5225WAT      O22704   1.096   8.094   4.163 -0.1148  0.1700  0.3807
 5225WAT     H122705   1.028   8.029   4.148  1.2381 -0.7550 -2.7230
 5225WAT     H222706   1.052   8.179   4.152 -1.0580 -0.3647 -0.0349
 5225WAT    EPW22707   1.081   8.097   4.159 -0.0608 -0.0229 -0.0834
 5226WAT      O22708   9.794   5.074   7.482  0.1576  0.3480  0.3234
 5226WAT     H122709   9.746   5.156   7.479  0.8184  0.8195  1.7914
 5226WAT     H222710   9.728   5.009   7.507 -0.2800  0.4871 -0.4354
 5226WAT    EPW22711   9.779   5.076   7.485  0.1874  0.4287  0.4170
 5227WAT      O22712   8.675   9.518   7.155 -0.8383 -0.0094  0.3031
 5227WAT     H122713   8.693   9.499   7.247 -2.5508 -1.4060  0.4057
 5227WAT     H222714   8.652   9.611   7.154 -0.2157  0.1633  1.1770
 5227WAT    EPW22715   8.674   9.528   7.167 -0.9818 -0.1712  0.4318
 5228WAT      O22716   9.097   0.670   8.960  0.0687 -0.1655 -0.6612
 5228WAT     H122717   9.123   0.759   8.935 -0.2397  0.1592  0.1204
 5228WAT     H222718   9.029   0.684   9.026  0.3060 -0.9913 -0.2407
 5228WAT    EPW22719   9.091   0.684   8.965  0.0596 -0.2315 -0.5026
 5229WAT      O22720   1.034   5.608   5.712 -0.6015  0.7214  0.0113
 5229WAT     H122721   1.125   5.635   5.700 -0.0209  0.2775  2.7415
 5229WAT     H222722   1.025   5.531   5.657  1.2782 -0.3161  1.0500
 5229WAT    EPW22723   1.045   5.602   5.703 -0.2770  0.5260  0.5081
 5230WAT      O22724   1.766   3.580   5.091  0.9000 -0.6124  0.0661
 5230WAT     H122725   1.751   3.669   5.060  0.8369  0.0646  1.9457
 5230WAT     H222726   1.844   3.552   5.044  1.1031  0.5478 -0.3249
 5230WAT    EPW22727   1.774   3.588   5.081  0.9185 -0.3700  0.2625
 5231WAT      O22728   9.208   1.613   4.571  0.0643  0.4641  0.2233
 5231WAT     H122729   9.176   1.543   4.515  0.3456 -1.0109  1.8466
 5231WAT     H222730   9.146   1.617   4.643  2.6063 -1.5375  2.7386
 5231WAT    EPW22731   9.196   1.605   4.573  0.4373  0.0055  0.7689
 5232WAT      O22732   9.296   8.145   8.807 -0.1959  0.1645  0.7608
 5232WAT     H122733   9.247   8.063   8.812 -0.5285  0.3031 -0.0055
 5232WAT     H222734   9.246   8.207   8.860 -2.1816  0.9317 -1.8193
 5232WAT    EPW22735   9.283   8.142   8.814 -0.5016  0.2842  0.3195
 5233WAT      O22736  10.204   4.251   6.249 -0.2840 -0.1693  0.2227
 5233WAT     H122737  10.283   4.208   6.217  0.4298  1.3335 -0.1080
 5233WAT     H222738  10.208   4.339   6.213 -2.0094  0.0204  0.3841
 5233WAT    EPW22739  10.215   4.257   6.240 -0.4172  0.0539  0.2003
 5234WAT      O22740   8.722   9.743   6.300 -0.1157 -0.1044  0.0781
 5234WAT     H122741   8.817   9.743   6.285  0.3210 -3.5795  1.6992
 5234WAT     H222742   8.712   9.702   6.386 -3.1308 -0.3974 -0.3056
 5234WAT    EPW22743   8.734   9.737   6.309 -0.4559 -0.6013  0.2410
 5235WAT      O22744  10.046   5.659   5.154 -0.1356  0.1335  0.2382
 5235WAT     H122745  10.036   5.644   5.248  0.6064 -0.4414  0.2418
 5235WAT     H222746  10.000   5.585   5.114 -0.1216  0.1685  0.1583
 5235WAT    EPW22747  10.039   5.647   5.161 -0.0362  0.0622  0.2282
 5236WAT      O22748   0.279   4.051   6.390  0.7595  0.0681  0.2011
 5236WAT     H122749   0.266   4.124   6.329  2.2487  0.7268  0.6363
 5236WAT     H222750   0.353   4.077   6.444  0.9394 -1.5053  0.7772
 5236WAT    EPW22751   0.287   4.064   6.389  0.9796 -0.0525  0.3345
 5237WAT      O22752   9.679   4.632   7.381  0.6226  0.5164 -0.0574
 5237WAT     H122753   9.673   4.728   7.385  0.9936  0.6599 -2.1941
 5237WAT     H222754   9.772   4.613   7.390  0.7566  0.4826 -1.4227
 5237WAT    EPW22755   9.690   4.642   7.383  0.6890  0.5307 -0.5193
 5238WAT      O22756   8.996   4.830   4.078 -0.4491  0.3054 -0.1716
 5238WAT     H122757   8.970   4.764   4.142 -0.9697  0.2261 -0.4597
 5238WAT     H222758   8.925   4.831   4.014  0.4527 -0.2329 -1.2292
 5238WAT    EPW22759   8.983   4.822   4.078 -0.3982  0.2239 -0.3493
 5239WAT      O22760   6.820   6.904   7.109  0.5190 -0.3185  0.1322
 5239WAT     H122761   6.909   6.908   7.143  0.4399  0.3525  0.2794
 5239WAT     H222762   6.831   6.877   7.018  0.9371  0.4669 -0.0644
 5239WAT    EPW22763   6.833   6.901   7.101  0.5636 -0.1264  0.1256
 5240WAT      O22764   0.979   5.379   5.525 -0.5266  0.3759  0.1504
 5240WAT     H122765   0.972   5.432   5.445 -1.0136 -4.3044 -3.3428
 5240WAT     H222766   1.061   5.331   5.513 -0.3264 -0.0891  2.8690
 5240WAT    EPW22767   0.989   5.380   5.513 -0.5644 -0.3026  0.0484
 5241WAT      O22768   1.009   3.098   5.001  0.2617  0.3369 -0.2076
 5241WAT     H122769   1.082   3.046   5.035  0.7255  1.9609  1.4023
 5241WAT     H222770   0.946   3.101   5.073 -0.4065  0.8172 -0.7912
 5241WAT    EPW22771   1.010   3.091   5.015  0.2347  0.6145 -0.0720
 5242WAT      O22772   7.619   5.771   5.253  0.2311 -0.3668 -0.2116
 5242WAT     H122773   7.583   5.852   5.216 -0.2087 -0.5823 -0.2586
 5242WAT     H222774   7.578   5.701   5.203 -3.8260 -0.9504  3.3507
 5242WAT    EPW22775   7.609   5.772   5.242 -0.3619 -0.4721  0.2520
 5243WAT      O22776   0.212   6.942   5.215  0.1528 -0.1901  0.1214
 5243WAT     H122777   0.144   6.988   5.165  0.3352 -1.5592 -1.4874
 5243WAT     H222778   0.289   6.997   5.207  0.7173 -1.2225 -2.8270
 5243WAT    EPW22779   0.213   6.955   5.208  0.2513 -0.5069 -0.4797
 5244WAT      O22780  10.487   6.608   8.353 -0.4777  0.3094 -0.3115
 5244WAT     H122781  10.417   6.549   8.325 -1.4125  1.2277  0.0304
 5244WAT     H222782  10.547   6.552   8.402 -1.7831 -0.2201  0.7480
 5244WAT    EPW22783  10.486   6.593   8.356 -0.7730  0.3605 -0.1268
 5245WAT      O22784   9.920   2.926   5.440  0.1197  0.0715 -0.1875
 5245WAT     H122785   9.926   2.981   5.362  0.1533 -0.0097 -0.2426
 5245WAT     H222786   9.921   2.836   5.407  2.3432 -0.0420  0.0246
 5245WAT    EPW22787   9.921   2.921   5.426  0.4172  0.0458 -0.1669
 5246WAT      O22788   9.385   1.390   7.498 -0.0570  0.1940 -0.7648
 5246WAT     H122789   9.308   1.334   7.492 -0.2475  0.5560 -1.7895
 5246WAT     H222790   9.418   1.396   7.409  0.9159  0.4043 -0.4136
 5246WAT    EPW22791   9.379   1.383   7.486  0.0467  0.2695 -0.8538
 5247WAT      O22792   9.337   5.382   8.090  0.0105 -0.2603 -0.3080
 5247WAT     H122793   9.305   5.409   8.176  1.9272 -0.6395  0.5931
 5247WAT     H222794   9.343   5.463   8.040  0.8452  0.2796  0.6349
 5247WAT    EPW22795   9.334   5.396   8.095  0.3734 -0.2391 -0.0648
 5248WAT      O22796   0.739   1.948   7.146  0.3595  1.0663 -0.5846
 5248WAT     H122797   0.743   2.027   7.200 -1.2171  0.7463  0.0663
 5248WAT     H222798   0.724   1.878   7.210  0.9696  0.3335 -1.2301
 5248WAT    EPW22799   0.738   1.949   7.162  0.2320  0.9274 -0.5839
 5249WAT      O22800   9.602   6.122   6.739  0.4049 -0.1517  0.0680
 5249WAT     H122801   9.633   6.151   6.654  0.7416 -1.0044 -0.1042
 5249WAT     H222802   9.675   6.072   6.776  1.3374  2.3686  2.0093
 5249WAT    EPW22803   9.616   6.119   6.733  0.5722  0.0679  0.3014
 5250WAT      O22804   8.864   5.795   5.516 -0.2311  0.6633  0.1589
 5250WAT     H122805   8.955   5.782   5.489  0.5165  4.0045  0.6067
 5250WAT     H222806   8.817   5.810   5.434 -0.1962 -0.0415  0.0016
 5250WAT    EPW22807   8.870   5.795   5.502 -0.1273  1.0111  0.1974
 5251WAT      O22808   7.880   5.059   6.215  0.2240 -0.7210 -0.8896
 5251WAT     H122809   7.969   5.041   6.187  0.6619 -1.5102  0.8993
 5251WAT     H222810   7.854   4.983   6.266 -0.2788  0.8151  1.3114
 5251WAT    EPW22811   7.888   5.047   6.218  0.2155 -0.6220 -0.3633
 5252WAT      O22812   0.347   5.179   5.021 -0.1284  0.0169  0.3859
 5252WAT     H122813   0.298   5.176   5.103 -1.6097  2.5753 -0.2965
 5252WAT     H222814   0.379   5.089   5.009 -2.0226 -1.0357  2.4349
 5252WAT    EPW22815   0.345   5.166   5.031 -0.5736  0.2155  0.5662
 5253WAT      O22816   5.385   6.817   5.131  0.1099  0.2953 -0.4933
 5253WAT     H122817   5.447   6.748   5.105 -0.8920 -2.2343  3.0314
 5253WAT     H222818   5.300   6.786   5.101  0.0918  2.6216 -3.2562
 5253WAT    EPW22819   5.382   6.804   5.123 -0.0246  0.2685 -0.3929
 5254WAT      O22820   6.976   9.072   1.160  0.7337  0.8174  0.7528
 5254WAT     H122821   6.914   9.106   1.223  0.1600 -2.7421  2.3789
 5254WAT     H222822   6.927   9.064   1.078 -0.7689 -0.9731  1.7543
 5254WAT    EPW22823   6.962   9.075   1.157  0.4597  0.1116  1.0993
 5255WAT      O22824   0.979   2.935   8.338  0.2112 -0.0286 -0.4067
 5255WAT     H122825   0.903   2.961   8.286  0.9474 -0.0391 -1.5224
 5255WAT     H222826   1.026   3.016   8.353 -0.8296  0.2393  1.6829
 5255WAT    EPW22827   0.975   2.949   8.333  0.1710  0.0052 -0.2785
 5256WAT      O22828   3.919   1.739   0.601  0.7309  0.3747 -0.5034
 5256WAT     H122829   3.868   1.787   0.665  0.5228  0.8563 -1.0276
 5256WAT     H222830   3.864   1.735   0.524  0.0363 -2.1815  0.0410
 5256WAT    EPW22831   3.905   1.745   0.599  0.6118  0.1011 -0.5008
 5257WAT      O22832   0.555   8.247   7.297 -0.4362  0.5732  0.1693
 5257WAT     H122833   0.607   8.249   7.377  0.4761  2.1467 -0.4159
 5257WAT     H222834   0.547   8.339   7.271 -2.3817  0.2525 -0.5053
 5257WAT    EPW22835   0.561   8.260   7.304 -0.5725  0.7381  0.0033
 5258WAT      O22836   7.722   2.086   4.902 -0.2205  0.2274 -0.3919
 5258WAT     H122837   7.766   2.003   4.886  0.5331  0.2506  1.3288
 5258WAT     H222838   7.629   2.065   4.906 -0.3081 -0.0719 -2.5193
 5258WAT    EPW22839   7.716   2.072   4.900 -0.1328  0.1909 -0.4456
 5259WAT      O22840   9.235   5.176   5.653  0.4631 -0.6799 -0.1035
 5259WAT     H122841   9.300   5.148   5.717  0.2685  0.7838  0.7869
 5259WAT     H222842   9.284   5.233   5.593  1.0651 -3.4272 -2.4364
 5259WAT    EPW22843   9.250   5.180   5.654  0.5169 -0.8492 -0.2935
 5260WAT      O22844   9.903   3.574   7.835 -0.1014  0.1915  0.1592
 5260WAT     H122845   9.961   3.608   7.767  0.6581 -1.2104  0.0848
 5260WAT     H222846   9.938   3.487   7.856 -1.1428  0.0354  1.3596
 5260WAT    EPW22847   9.915   3.567   7.829 -0.1388 -0.0139  0.3080
 5261WAT      O22848   4.024   8.118   0.189 -0.1330  0.0569 -0.0481
 5261WAT     H122849   4.112   8.083   0.196 -0.0558  0.0083 -1.0803
 5261WAT     H222850   4.020   8.187   0.255  0.2059 -0.8762  0.9656
 5261WAT    EPW22851   4.035   8.122   0.199 -0.0780 -0.0720 -0.0506
 5262WAT      O22852  10.454   2.737   4.715  0.3967 -0.4621  0.4931
 5262WAT     H122853  10.414   2.803   4.771  1.4162 -1.5328  2.6047
 5262WAT     H222854  10.421   2.654   4.748  1.4263 -1.1523 -0.1501
 5262WAT    EPW22855  10.445   2.735   4.727  0.6671 -0.6944  0.6869
 5263WAT      O22856   9.124   4.434   5.235  0.3323  0.7770 -0.0079
 5263WAT     H122857   9.034   4.457   5.259  1.1344  2.7527  1.3763
 5263WAT     H222858   9.120   4.416   5.141 -1.8925 -1.5615  0.3974
 5263WAT    EPW22859   9.112   4.434   5.226  0.1445  0.7291  0.2282
 5264WAT      O22860   6.719   5.536   7.607  0.0257 -0.4090  0.3236
 5264WAT     H122861   6.770   5.513   7.685  0.0786  0.6225  0.5983
 5264WAT     H222862   6.651   5.594   7.639  1.8528  2.5464 -0.7862
 5264WAT    EPW22863   6.717   5.540   7.622  0.2735  0.1168  0.2134
 5265WAT      O22864   1.568   4.196   5.115  0.5904  1.1788 -0.7998
 5265WAT     H122865   1.558   4.275   5.168 -1.7866  0.0392  0.6359
 5265WAT     H222866   1.616   4.135   5.171 -2.0055 -0.0613  0.2762
 5265WAT    EPW22867   1.573   4.198   5.130 -0.0655  0.8650 -0.4685
 5266WAT      O22868   2.821   9.394   0.258  0.3191 -0.2193  0.1786
 5266WAT     H122869   2.762   9.462   0.226  0.4532 -0.1252  0.1281
 5266WAT     H222870   2.907   9.436   0.258  0.2538 -0.0589  1.1132
 5266WAT    EPW22871   2.824   9.409   0.254  0.3282 -0.1860  0.2952
 5267WAT      O22872  10.951   3.122   6.129 -0.2628 -0.3258 -0.0454
 5267WAT     H122873  10.885   3.068   6.173  0.1742 -0.7653  0.0856
 5267WAT     H222874  11.010   3.058   6.089  1.9017 -0.0963  2.4814
 5267WAT    EPW22875  10.950   3.106   6.130  0.0801 -0.3535  0.3054
 5268WAT      O22876   8.872   2.730   8.160 -0.1372 -0.5005  0.0289
 5268WAT     H122877   8.829   2.721   8.245  0.6625  0.1142  0.5120
 5268WAT     H222878   8.863   2.822   8.138  0.7805 -0.3900  0.0666
 5268WAT    EPW22879   8.865   2.741   8.168  0.0892 -0.4048  0.0978
 5269WAT      O22880   5.902   5.856   7.432 -0.0424 -0.5599  0.3467
 5269WAT     H122881   5.990   5.827   7.407  0.5966  0.2928  1.5160
 5269WAT     H222882   5.890   5.938   7.384 -0.2990 -0.7862  0.0182
 5269WAT    EPW22883   5.912   5.863   7.422  0.0081 -0.4773  0.4575
 5270WAT      O22884   6.925   4.714   6.533  0.2848 -0.7645 -0.6858
 5270WAT     H122885   6.925   4.641   6.594  0.8570  1.4693  2.2654
 5270WAT     H222886   6.863   4.777   6.570  3.2799  2.2434 -0.1965
 5270WAT    EPW22887   6.917   4.713   6.546  0.7553 -0.0732 -0.2317
 5271WAT      O22888   2.306   3.197   6.346  0.1548 -0.1697  0.1690
 5271WAT     H122889   2.238   3.177   6.411 -0.0766 -1.6970 -0.5051
 5271WAT     H222890   2.386   3.205   6.398 -0.5230  1.9281  1.0109
 5271WAT    EPW22891   2.308   3.196   6.361  0.0349 -0.0945  0.1912
 5272WAT      O22892   8.129   4.473   6.431 -0.3049  0.5132  0.4464
 5272WAT     H122893   8.140   4.502   6.341 -0.8885  3.0851  1.1217
 5272WAT     H222894   8.034   4.476   6.446 -0.3245 -1.0214  0.8526
 5272WAT    EPW22895   8.118   4.477   6.421 -0.3848  0.6502  0.5891
 5273WAT      O22896   9.236   6.139   5.897 -0.3167  0.8965 -0.5364
 5273WAT     H122897   9.196   6.209   5.948 -1.5849 -0.1034 -0.1069
 5273WAT     H222898   9.288   6.090   5.960  2.3918  2.6324 -1.2193
 5273WAT    EPW22899   9.238   6.142   5.912 -0.1268  0.9935 -0.5698
 5274WAT      O22900   8.785   2.849   7.733  0.0003 -0.8223  0.5680
 5274WAT     H122901   8.767   2.849   7.827  0.0018 -1.0031  0.5700
 5274WAT     H222902   8.739   2.926   7.699 -0.8569 -1.3144  0.5616
 5274WAT    EPW22903   8.776   2.859   7.741 -0.1125 -0.9110  0.5677
 5275WAT      O22904  10.601   4.105   6.435  0.1043 -0.2765  0.0480
 5275WAT     H122905  10.611   4.192   6.397 -2.0873  0.0275  0.0471
 5275WAT     H222906  10.571   4.050   6.363 -1.5007 -0.2958  0.6819
 5275WAT    EPW22907  10.598   4.110   6.420 -0.3963 -0.2389  0.1316
 5276WAT      O22908   0.476   2.717   6.655  0.5957 -0.1761  0.3465
 5276WAT     H122909   0.462   2.721   6.750 -0.9565 -1.4589  0.2367
 5276WAT     H222910   0.432   2.795   6.621  0.4220 -0.1442  0.6375
 5276WAT    EPW22911   0.468   2.728   6.663  0.3680 -0.3411  0.3703
 5277WAT      O22912   8.647   2.827   3.702 -0.2648 -0.2775  0.5885
 5277WAT     H122913   8.657   2.873   3.619  0.3660 -0.4477  0.5671
 5277WAT     H222914   8.566   2.777   3.693  0.4389 -1.2763 -0.3873
 5277WAT    EPW22915   8.638   2.827   3.690 -0.0892 -0.4315  0.4569
 5278WAT      O22916   9.108   5.620   6.473  0.0985 -0.6269  0.4664
 5278WAT     H122917   9.162   5.607   6.395 -0.7535 -1.2815 -0.0359
 5278WAT     H222918   9.086   5.713   6.471 -0.2241 -0.7137 -0.2882
 5278WAT    EPW22919   9.112   5.631   6.462 -0.0567 -0.7248  0.3006
 5279WAT      O22920  10.272   4.717   7.436  0.2656 -0.0284  1.0972
 5279WAT     H122921  10.266   4.812   7.445 -0.3088  0.0942 -0.2973
 5279WAT     H222922  10.351   4.702   7.384 -0.6014 -0.1678 -0.2301
 5279WAT    EPW22923  10.281   4.728   7.430  0.0753 -0.0305  0.7381
 5280WAT      O22924   0.621   7.393   2.860 -0.2295 -0.5994 -0.0914
 5280WAT     H122925   0.585   7.352   2.782  1.4556  0.7908 -1.6927
 5280WAT     H222926   0.549   7.446   2.894 -0.5143  0.1260 -1.7291
 5280WAT    EPW22927   0.606   7.395   2.854 -0.0448 -0.3204 -0.5187
 5281WAT      O22928  10.487   3.521   4.373  0.7085 -0.0464  0.0013
 5281WAT     H122929  10.462   3.595   4.428 -0.3904 -0.4859  0.1290
 5281WAT     H222930  10.404   3.487   4.339  1.2498 -0.7429 -0.6734
 5281WAT    EPW22931  10.473   3.526   4.376  0.6347 -0.1961 -0.0706
 5282WAT      O22932   0.395   6.254   6.701  0.3958  0.8543 -0.1968
 5282WAT     H122933   0.340   6.324   6.737 -0.1584  0.0318  0.6062
 5282WAT     H222934   0.335   6.180   6.691  1.4473 -0.2207  1.1468
 5282WAT    EPW22935   0.380   6.253   6.704  0.4614  0.6044  0.0865
 5283WAT      O22936  10.896   3.924   4.880  0.4430  0.1682 -0.6224
 5283WAT     H122937  10.878   3.989   4.948 -1.2480 -0.9980  0.1120
 5283WAT     H222938  10.965   3.964   4.826  2.0943  0.9945  1.9258
 5283WAT    EPW22939  10.903   3.938   4.882  0.4377  0.1234 -0.1898
 5284WAT      O22940   8.242   4.794   4.190  0.2454  0.4815 -0.0090
 5284WAT     H122941   8.250   4.703   4.161  1.5249  0.6104 -0.1199
 5284WAT     H222942   8.183   4.835   4.126 -1.0871 -0.4715  0.5693
 5284WAT    EPW22943   8.235   4.787   4.178  0.2384  0.3726  0.0525
 5285WAT      O22944  10.397   4.473   4.375  0.7337  0.0250 -0.4283
 5285WAT     H122945  10.344   4.544   4.412  0.8088 -0.1026 -0.0724
 5285WAT     H222946  10.433   4.428   4.452 -0.9845 -1.6902 -0.5452
 5285WAT    EPW22947  10.395   4.476   4.390  0.5164 -0.2179 -0.3967
 5286WAT      O22948   0.551   7.308   7.367 -0.2057 -0.4916  0.0810
 5286WAT     H122949   0.610   7.380   7.389 -0.2910 -0.3645 -0.1009
 5286WAT     H222950   0.575   7.237   7.427 -0.3722 -0.1841  0.5145
 5286WAT    EPW22951   0.562   7.308   7.378 -0.2389 -0.4344  0.1144
 5287WAT      O22952   0.082   6.157   5.382  0.4408 -0.5294 -0.0251
 5287WAT     H122953   0.005   6.118   5.341 -0.6945 -0.5605  2.0538
 5287WAT     H222954   0.146   6.085   5.384  0.8565 -0.3169 -2.3852
 5287WAT    EPW22955   0.081   6.142   5.377  0.3459 -0.5052 -0.0622
 5288WAT      O22956   1.676   1.076   2.650 -0.5746  0.0899 -0.7008
 5288WAT     H122957   1.743   1.025   2.696 -1.5955 -1.1123 -0.4924
 5288WAT     H222958   1.598   1.021   2.654 -1.7961  1.8010 -0.2582
 5288WAT    EPW22959   1.675   1.062   2.657 -0.8703  0.1571 -0.6149
 5289WAT      O22960   8.175   3.372   6.690 -0.9840  0.1028  0.4527
 5289WAT     H122961   8.081   3.364   6.676 -0.7681 -0.7717 -0.6305
 5289WAT     H222962   8.214   3.339   6.610  0.2819 -1.6530  1.7189
 5289WAT    EPW22963   8.168   3.367   6.678 -0.7882 -0.2441  0.4768
 5290WAT      O22964   5.578   3.474   7.771  0.0732 -1.0411  0.0806
 5290WAT     H122965   5.665   3.514   7.765  0.9198 -2.1553  2.9204
 5290WAT     H222966   5.593   3.394   7.823 -2.2123 -2.7868 -1.7543
 5290WAT    EPW22967   5.591   3.469   7.777 -0.1166 -1.4182  0.2131
 5291WAT      O22968   0.081   6.343   3.367  0.3986  0.4493  0.6531
 5291WAT     H122969   0.011   6.368   3.428 -0.6471  0.1694 -0.3955
 5291WAT     H222970   0.127   6.425   3.349 -3.2707  2.0641 -3.1203
 5291WAT    EPW22971   0.078   6.357   3.373 -0.2232  0.6254  0.0172
 5292WAT      O22972  10.385   6.825   7.046  0.8922  0.0100  0.0103
 5292WAT     H122973  10.448   6.802   7.115  1.7074 -0.3232 -0.8187
 5292WAT     H222974  10.417   6.779   6.969 -0.9270 -0.9272 -0.2196
 5292WAT    EPW22975  10.398   6.816   7.045  0.7596 -0.1576 -0.1292
 5293WAT      O22976   1.136   4.981   4.489  0.7610 -0.1657  0.0727
 5293WAT     H122977   1.072   5.026   4.543  0.4230 -0.5673  0.0160
 5293WAT     H222978   1.086   4.909   4.449  1.5779 -1.4141  1.2038
 5293WAT    EPW22979   1.121   4.977   4.491  0.8242 -0.3831  0.2143
 5294WAT      O22980   4.824   9.305   8.392 -0.8786  0.6888 -0.4427
 5294WAT     H122981   4.743   9.348   8.421 -1.0342  0.8590 -1.1236
 5294WAT     H222982   4.894   9.359   8.430 -1.0810  0.9581 -0.4486
 5294WAT    EPW22983   4.823   9.318   8.401 -0.9258  0.7467 -0.5331
 5295WAT      O22984   8.705   4.632   8.355 -0.2294 -0.3550  0.1779
 5295WAT     H122985   8.613   4.615   8.332  0.9435 -3.7253 -2.9899
 5295WAT     H222986   8.738   4.686   8.284  0.3762  0.5521  1.1198
 5295WAT    EPW22987   8.697   4.637   8.343  0.0048 -0.6800 -0.1163
 5296WAT      O22988   2.856   5.884   6.438 -0.5741 -0.0287  0.6068
 5296WAT     H122989   2.806   5.885   6.520 -1.7418  0.4887 -0.0958
 5296WAT     H222990   2.944   5.858   6.465 -0.7013  1.0078  2.1612
 5296WAT    EPW22991   2.861   5.880   6.452 -0.7449  0.1762  0.7191
 5297WAT      O22992   9.312   5.399   4.861  0.1636  0.1729  0.3151
 5297WAT     H122993   9.352   5.459   4.797  0.0676 -0.6780 -0.5756
 5297WAT     H222994   9.284   5.324   4.808  0.7119 -0.8723  1.4639
 5297WAT    EPW22995   9.314   5.397   4.845  0.2236 -0.0772  0.3490
 5298WAT      O22996   8.410   6.541   5.022  0.5276 -0.1968 -0.0621
 5298WAT     H122997   8.487   6.598   5.028 -0.6721  1.6077 -0.8363
 5298WAT     H222998   8.337   6.598   5.046 -0.4414 -2.3436  2.5423
 5298WAT    EPW22999   8.410   6.556   5.026  0.2413 -0.2420  0.1791
 5299WAT      O23000   1.668   8.045   7.216  0.2938  0.3474 -0.4187
 5299WAT     H123001   1.657   8.001   7.301 -1.5507  0.4731 -0.5525
 5299WAT     H223002   1.760   8.031   7.194  0.7577  0.0815  1.4732
 5299WAT    EPW23003   1.679   8.037   7.225  0.1118  0.3281 -0.1869
 5300WAT      O23004   1.139   9.386   3.087 -0.1164  0.1057  0.8313
 5300WAT     H123005   1.113   9.385   2.995  1.6829 -1.2149  0.2953
 5300WAT     H223006   1.196   9.310   3.097  2.7892  2.2907  2.0996
 5300WAT    EPW23007   1.143   9.376   3.076  0.5042  0.2198  0.9280
 5301WAT      O23008   8.274   7.458   4.180  0.6322  0.1268  0.4252
 5301WAT     H123009   8.203   7.406   4.216 -0.6054  0.2197 -1.7327
 5301WAT     H223010   8.321   7.397   4.122  0.1964  0.9297 -0.8071
 5301WAT    EPW23011   8.271   7.443   4.177  0.4106  0.2451 -0.0217
 5302WAT      O23012   6.514   6.335   7.336 -0.7925 -0.2793 -0.3036
 5302WAT     H123013   6.490   6.245   7.356 -1.0876  0.0344  0.8224
 5302WAT     H223014   6.610   6.332   7.327 -0.9658 -1.0839 -2.4616
 5302WAT    EPW23015   6.524   6.323   7.338 -0.8545 -0.3438 -0.4399
 5303WAT      O23016   8.666   2.529   4.024 -0.8709 -0.0289  0.5501
 5303WAT     H123017   8.612   2.603   3.997 -0.1375 -0.1192 -1.3431
 5303WAT     H223018   8.752   2.567   4.043 -0.0796 -0.4583 -1.7787
 5303WAT    EPW23019   8.671   2.544   4.023 -0.6704 -0.0974 -0.0069
 5304WAT      O23020   9.980   6.730   4.413 -0.1209 -0.7876 -0.1073
 5304WAT     H123021   9.897   6.687   4.429 -0.8667  0.6180 -0.0439
 5304WAT     H223022   9.957   6.821   4.392  1.2586 -0.8353 -2.1303
 5304WAT    EPW23023   9.966   6.737   4.412 -0.0377 -0.6087 -0.3657
 5305WAT      O23024   2.316   5.835   8.621  0.0672 -0.9023 -0.1107
 5305WAT     H123025   2.336   5.759   8.567  0.5969 -1.3523  0.7021
 5305WAT     H223026   2.400   5.880   8.632 -0.5580  1.0427 -2.3711
 5305WAT    EPW23027   2.330   5.831   8.615  0.0547 -0.7052 -0.3014
 5306WAT      O23028   7.068   5.686   8.030 -0.6577 -0.6017  0.2818
 5306WAT     H123029   7.138   5.702   8.093 -0.7439  0.9216  0.0174
 5306WAT     H223030   7.017   5.767   8.028 -1.6799 -1.2262 -0.4799
 5306WAT    EPW23031   7.070   5.699   8.038 -0.8039 -0.4833  0.1459
 5307WAT      O23032  10.092   8.132   4.098 -0.1157  0.1377  0.2248
 5307WAT     H123033  10.047   8.116   4.015 -0.5025  0.8365  0.2930
 5307WAT     H223034  10.108   8.227   4.099  0.9596 -0.0342  0.4051
 5307WAT    EPW23035  10.088   8.143   4.088 -0.0248  0.2074  0.2575
 5308WAT      O23036  10.496   6.956   2.498  0.4682 -0.8725  0.1154
 5308WAT     H123037  10.414   6.991   2.532 -0.2134 -1.2025 -1.1094
 5308WAT     H223038  10.483   6.861   2.499  0.9194 -0.9343  0.1388
 5308WAT    EPW23039  10.483   6.948   2.502  0.4382 -0.9241 -0.0430
 5309WAT      O23040  10.682   5.308   5.504 -0.3150 -0.0578 -0.1353
 5309WAT     H123041  10.641   5.386   5.467 -0.1574  0.6172  1.0767
 5309WAT     H223042  10.654   5.307   5.595 -0.2787 -1.4046 -0.1220
 5309WAT    EPW23043  10.673   5.318   5.511 -0.2894 -0.1464  0.0265
 5310WAT      O23044  10.511   7.877   6.967 -0.2525  0.3871  0.6013
 5310WAT     H123045  10.484   7.890   6.876 -0.2324 -1.4950  0.2772
 5310WAT     H223046  10.452   7.932   7.018 -3.0374 -1.5826 -0.2836
 5310WAT    EPW23047  10.500   7.886   6.962 -0.6170 -0.1206  0.4420
 5311WAT      O23048   3.090   6.568   5.988  0.3259 -0.2699  0.0302
 5311WAT     H123049   3.168   6.618   6.009 -0.2824  1.3488 -1.3247
 5311WAT     H223050   3.023   6.600   6.050  0.1539 -0.0023 -0.2910
 5311WAT    EPW23051   3.091   6.578   5.999  0.2230 -0.0210 -0.1910
 5312WAT      O23052   8.801   5.466   6.800 -0.8592 -0.2617 -0.0484
 5312WAT     H123053   8.735   5.467   6.868 -1.0214  3.2647 -0.0869
 5312WAT     H223054   8.756   5.498   6.722  1.0249  3.8134  0.3017
 5312WAT    EPW23055   8.787   5.470   6.798 -0.6323  0.7410 -0.0074
 5313WAT      O23056   9.137   5.512   7.760 -0.3549  0.1969 -0.0992
 5313WAT     H123057   9.075   5.449   7.796  0.0773 -0.0736  0.1802
 5313WAT     H223058   9.190   5.541   7.835 -0.0931  0.3653 -0.3426
 5313WAT    EPW23059   9.136   5.508   7.774 -0.2627  0.1831 -0.0944
 5314WAT      O23060   1.530   6.217   1.065  0.0662 -0.8124 -0.6280
 5314WAT     H123061   1.547   6.177   1.150  1.3193  1.4206  0.2856
 5314WAT     H223062   1.440   6.248   1.070  0.5920  0.6443  0.5506
 5314WAT    EPW23063   1.521   6.216   1.077  0.3008 -0.3254 -0.3520
 5315WAT      O23064  10.597   5.387   4.393  0.6320 -0.1855 -0.1188
 5315WAT     H123065  10.533   5.326   4.360 -0.2152  0.9328 -0.6104
 5315WAT     H223066  10.591   5.380   4.488  2.1308 -2.4400 -0.1297
 5315WAT    EPW23067  10.588   5.378   4.401  0.7186 -0.3352 -0.1853
 5316WAT      O23068   0.827   5.278   7.310  0.3558 -0.2051  0.4601
 5316WAT     H123069   0.911   5.265   7.266  0.7565 -0.3645  1.2509
 5316WAT     H223070   0.835   5.365   7.350 -0.9372  1.0404 -1.7950
 5316WAT    EPW23071   0.839   5.288   7.310  0.2382 -0.0620  0.2670
 5317WAT      O23072   9.845   6.561   6.403 -0.4342  0.1303  0.2963
 5317WAT     H123073   9.832   6.506   6.481  0.4788 -2.6662 -1.3518
 5317WAT     H223074   9.939   6.580   6.403  0.3469 -2.9045 -1.7592
 5317WAT    EPW23075   9.856   6.556   6.414 -0.2117 -0.6390 -0.1922
 5318WAT      O23076   6.047   5.231   5.496 -0.6423  0.2914 -0.1451
 5318WAT     H123077   6.050   5.170   5.570  0.4427 -0.5057 -0.8173
 5318WAT     H223078   6.098   5.188   5.428 -1.9951  0.8055 -1.5310
 5318WAT    EPW23079   6.054   5.217   5.497 -0.6776  0.2542 -0.4168
 5319WAT      O23080   0.712   1.314   4.062  0.3657  0.4539 -0.2389
 5319WAT     H123081   0.631   1.264   4.070 -0.5729  1.8449 -0.6459
 5319WAT     H223082   0.684   1.406   4.066  2.2217  1.0454  3.0537
 5319WAT    EPW23083   0.697   1.320   4.064  0.4867  0.7154  0.1416
 5320WAT      O23084   1.453   3.812   4.121  0.1063 -0.7811  0.0977
 5320WAT     H123085   1.514   3.859   4.178 -0.9874 -1.3453  1.7919
 5320WAT     H223086   1.366   3.842   4.147 -0.4190 -0.6599 -1.6675
 5320WAT    EPW23087   1.450   3.822   4.132 -0.1072 -0.8395  0.0882
 5321WAT      O23088   8.425   2.564   6.350 -0.4685 -1.1072  0.0462
 5321WAT     H123089   8.441   2.642   6.404  0.9652 -1.9653  0.9158
 5321WAT     H223090   8.512   2.528   6.333 -1.0405 -1.9846 -1.1738
 5321WAT    EPW23091   8.439   2.570   6.355 -0.3552 -1.3361  0.0000
 5322WAT      O23092   6.162   5.482   3.438 -0.2690 -0.0288  0.2953
 5322WAT     H123093   6.248   5.505   3.404  0.5458 -0.0205  2.2456
 5322WAT     H223094   6.171   5.392   3.469 -2.1060 -1.5118 -2.9445
 5322WAT    EPW23095   6.175   5.473   3.437 -0.4034 -0.2234  0.1251
 5323WAT      O23096   0.194   3.288   5.546  0.6183  0.1223  0.1804
 5323WAT     H123097   0.111   3.318   5.509  0.2024  0.6180  1.4605
 5323WAT     H223098   0.176   3.199   5.576  0.9491 -0.2719 -0.7656
 5323WAT    EPW23099   0.181   3.281   5.545  0.6071  0.1357  0.2246
 5324WAT      O23100   0.773   3.132   3.395  0.5333 -0.3103 -0.8308
 5324WAT     H123101   0.822   3.054   3.368  1.1963 -0.5424  0.8862
 5324WAT     H223102   0.763   3.183   3.315  3.1426 -0.4954 -1.3637
 5324WAT    EPW23103   0.778   3.128   3.381  0.9649 -0.3654 -0.6746
 5325WAT      O23104  10.870   3.180   8.282  0.9579 -0.3408  0.1410
 5325WAT     H123105  10.927   3.139   8.218  0.5809 -2.3729  1.0332
 5325WAT     H223106  10.781   3.157   8.253  0.7833 -1.2444  1.3306
 5325WAT    EPW23107  10.866   3.171   8.270  0.8855 -0.7281  0.4158
 5326WAT      O23108  10.472   6.755   7.681 -0.6096 -0.6482  0.3768
 5326WAT     H123109  10.527   6.692   7.727 -1.0043 -1.2545  0.0331
 5326WAT     H223110  10.431   6.705   7.610 -0.7225  0.0567 -0.0708
 5326WAT    EPW23111  10.474   6.740   7.678 -0.6766 -0.6351  0.2723
 5327WAT      O23112   8.777   8.154   5.515 -0.0058 -0.3990 -0.2723
 5327WAT     H123113   8.811   8.242   5.497 -0.5462  0.5322  2.7068
 5327WAT     H223114   8.846   8.111   5.565  0.2932 -1.7877 -1.7777
 5327WAT    EPW23115   8.791   8.160   5.519 -0.0381 -0.4597 -0.0780
 5328WAT      O23116   0.971   4.735   8.523 -0.1745  0.6058  0.8764
 5328WAT     H123117   1.011   4.653   8.551 -0.8476 -0.2594 -0.5918
 5328WAT     H223118   1.027   4.767   8.453 -0.2454  1.0936  1.0381
 5328WAT    EPW23119   0.984   4.729   8.517 -0.2726  0.5558  0.7038
 5329WAT      O23120   9.875   4.756   5.921 -0.6661 -0.8717 -0.2231
 5329WAT     H123121   9.789   4.793   5.901 -0.1149  0.9083  0.4462
 5329WAT     H223122   9.931   4.788   5.850  0.1214  0.8965  1.1052
 5329WAT    EPW23123   9.871   4.765   5.909 -0.4892 -0.4036  0.0405
 5330WAT      O23124   9.643   5.516   6.279 -0.4162 -0.2410 -0.0951
 5330WAT     H123125   9.674   5.540   6.366  1.7398 -1.6618 -0.3797
 5330WAT     H223126   9.650   5.598   6.229  0.2936  0.1289  0.5763
 5330WAT    EPW23127   9.648   5.530   6.284 -0.0391 -0.3793 -0.0443
 5331WAT      O23128   0.367   3.607   7.255 -0.1965  0.2212 -0.8736
 5331WAT     H123129   0.322   3.533   7.216 -1.5691  0.0217  0.9406
 5331WAT     H223130   0.435   3.567   7.310 -1.0430  0.2628  0.2334
 5331WAT    EPW23131   0.370   3.592   7.257 -0.4892  0.2005 -0.4880
 5332WAT      O23132   1.177  10.073   6.201 -0.4798 -0.6467  0.1568
 5332WAT     H123133   1.260  10.075   6.249  0.4483 -2.1346 -1.2774
 5332WAT     H223134   1.111  10.056   6.268 -0.0108  2.7125  1.6886
 5332WAT    EPW23135   1.179  10.071   6.217 -0.2956 -0.4001  0.1695
 5333WAT      O23136  10.166   6.846   6.695 -0.5275 -0.1857 -0.7212
 5333WAT     H123137  10.166   6.785   6.769 -2.6176 -0.0813 -0.5636
 5333WAT     H223138  10.153   6.932   6.735  1.2411  0.2713 -1.0348
 5333WAT    EPW23139  10.164   6.849   6.710 -0.5698 -0.1116 -0.7415
 5334WAT      O23140   1.468   3.984   6.411 -0.0459 -0.2843 -0.5226
 5334WAT     H123141   1.390   4.026   6.446 -1.1374 -1.4754 -1.4239
 5334WAT     H223142   1.523   4.056   6.381 -1.7716  0.5299 -1.8673
 5334WAT    EPW23143   1.465   3.999   6.412 -0.4175 -0.3340 -0.8187
 5335WAT      O23144   0.332   5.596   6.580  0.5041 -0.4072  0.4099
 5335WAT     H123145   0.331   5.665   6.513  2.7689 -1.2966 -0.6364
 5335WAT     H223146   0.280   5.525   6.542  0.5973 -0.3681  0.2069
 5335WAT    EPW23147   0.325   5.596   6.566  0.8151 -0.5190  0.2451
 5336WAT      O23148   6.450   8.839   7.463 -0.6883 -0.1320  0.0646
 5336WAT     H123149   6.471   8.792   7.543  2.2998  1.4964  0.3562
 5336WAT     H223150   6.479   8.781   7.393 -2.9622 -1.3934  0.0686
 5336WAT    EPW23151   6.456   8.825   7.464 -0.5941 -0.0834  0.1035
 5337WAT      O23152   3.755  10.299   8.448  0.2154  0.0767 -0.6091
 5337WAT     H123153   3.682  10.252   8.409  0.5286 -1.3611  0.4350
 5337WAT     H223154   3.726  10.390   8.452 -0.7011 -0.1187 -2.0419
 5337WAT    EPW23155   3.742  10.305   8.444  0.1357 -0.1388 -0.6604
 5338WAT      O23156  10.772   4.142   5.911  0.2238  0.3161 -0.7992
 5338WAT     H123157  10.811   4.089   5.841  0.0421  0.5238 -1.0605
 5338WAT     H223158  10.846   4.173   5.962  0.2900 -1.1180  0.0399
 5338WAT    EPW23159  10.787   4.139   5.909  0.2093  0.1543 -0.7229
 5339WAT      O23160   0.779   2.502   5.843  0.0781  0.0031  0.7324
 5339WAT     H123161   0.874   2.500   5.846  0.1174  1.2533  0.5370
 5339WAT     H223162   0.757   2.463   5.758  0.3040 -2.0990  1.5691
 5339WAT    EPW23163   0.788   2.496   5.832  0.1131 -0.1092  0.8171
 5340WAT      O23164   1.681   5.459   7.375 -0.4579 -0.9352 -0.4013
 5340WAT     H123165   1.738   5.385   7.394 -0.1737 -0.5000  0.4837
 5340WAT     H223166   1.732   5.536   7.399 -1.6073 -0.5605  1.0011
 5340WAT    EPW23167   1.695   5.459   7.381 -0.5721 -0.8287 -0.0997
 5341WAT      O23168  10.791   3.794   4.055 -0.5736 -0.0338  0.5128
 5341WAT     H123169  10.852   3.738   4.103  0.1762  0.1288 -0.2290
 5341WAT     H223170  10.777   3.750   3.971  1.0382  1.4646 -0.6214
 5341WAT    EPW23171  10.797   3.781   4.050 -0.2623  0.1851  0.2654
 5342WAT      O23172   2.762   6.579   2.678 -0.4108 -0.4777 -0.2715
 5342WAT     H123173   2.847   6.542   2.700 -0.0136 -0.4024 -1.5907
 5342WAT     H223174   2.701   6.537   2.739  0.7136  0.4346  1.5936
 5342WAT    EPW23175   2.765   6.569   2.689 -0.2102 -0.3476 -0.1994
 5343WAT      O23176   4.579   0.333   0.037  0.0355 -0.0297  0.1100
 5343WAT     H123177   4.576   0.237   0.028  1.3814  0.1014 -2.5542
 5343WAT     H223178   4.505   0.364  -0.015 -0.3873  0.4313  0.9532
 5343WAT    EPW23179   4.569   0.324   0.029  0.1569  0.0484 -0.1302
 5344WAT      O23180   0.043   2.653   7.741 -0.8230 -0.4213 -0.2244
 5344WAT     H123181   0.036   2.664   7.646 -1.5479  1.6332 -0.0053
 5344WAT     H223182  -0.016   2.720   7.777 -0.3627 -0.9656  1.6860
 5344WAT    EPW23183   0.034   2.664   7.733 -0.8579 -0.2221  0.0565
 5345WAT      O23184   5.343  10.226   6.802  0.0323  0.2457 -0.2524
 5345WAT     H123185   5.302  10.257   6.883  1.9241  1.1246  0.4425
 5345WAT     H223186   5.289  10.152   6.774 -1.1015  0.3915  1.3954
 5345WAT    EPW23187   5.331  10.220   6.809  0.1323  0.3815  0.0565
 5346WAT      O23188   0.643   2.477   7.752 -0.0142  0.2101  0.3348
 5346WAT     H123189   0.596   2.509   7.675 -0.7605  0.9535  1.0753
 5346WAT     H223190   0.667   2.557   7.799 -0.1597 -0.2564  1.2115
 5346WAT    EPW23191   0.640   2.492   7.748 -0.1319  0.2466  0.5481
 5347WAT      O23192   1.536   4.590   6.026  0.0795  0.3835 -0.4591
 5347WAT     H123193   1.475   4.660   6.048 -0.4225 -0.1698 -0.0626
 5347WAT     H223194   1.614   4.636   5.992 -1.2511  1.0471 -2.8567
 5347WAT    EPW23195   1.538   4.606   6.025 -0.1622  0.3979 -0.7229
 5348WAT      O23196  10.944   5.247   3.431 -0.8399  0.0080  0.3591
 5348WAT     H123197  10.986   5.266   3.347 -0.9234 -0.0219  0.3104
 5348WAT     H223198  10.893   5.326   3.450 -3.5923 -1.2366 -1.3028
 5348WAT    EPW23199  10.943   5.260   3.422 -1.2140 -0.1600  0.1335
 5349WAT      O23200   0.076   5.992   7.669 -1.1995 -0.2329 -0.3093
 5349WAT     H123201   0.050   6.082   7.690 -0.8813 -0.0027 -0.8991
 5349WAT     H223202   0.002   5.939   7.698 -1.6942  0.2860 -0.6073
 5349WAT    EPW23203   0.063   5.996   7.676 -1.2228 -0.1342 -0.4265
 5350WAT      O23204   9.598   4.422   0.790  0.6530 -0.8814 -0.0644
 5350WAT     H123205   9.660   4.392   0.857  1.3341 -0.9265 -0.7042
 5350WAT     H223206   9.525   4.459   0.840  0.3896 -2.3878  0.7215
 5350WAT    EPW23207   9.597   4.423   0.805  0.7086 -1.0860 -0.0452
 5351WAT      O23208  10.635   6.094   7.542 -0.4687 -0.0645 -0.0186
 5351WAT     H123209  10.649   6.122   7.452 -1.1980 -0.2016 -0.1830
 5351WAT     H223210  10.646   6.174   7.594 -3.8489  0.9543 -0.5927
 5351WAT    EPW23211  10.638   6.108   7.537 -1.0109  0.0520 -0.1163
 5352WAT      O23212   9.271   5.060   7.105  0.3869  0.8033 -0.7794
 5352WAT     H123213   9.361   5.035   7.129 -0.6027 -1.7385  0.5612
 5352WAT     H223214   9.254   5.014   7.023 -0.1840  0.0360 -0.2404
 5352WAT    EPW23215   9.281   5.051   7.098  0.1807  0.3669 -0.5314
 5353WAT      O23216   9.320   7.094   4.570 -0.5869 -0.0783  0.9228
 5353WAT     H123217   9.255   7.112   4.502  0.6058  0.7092 -0.0577
 5353WAT     H223218   9.286   7.138   4.648  0.0112  2.7123 -0.2542
 5353WAT    EPW23219   9.307   7.102   4.571 -0.3500  0.3934  0.6385
 5354WAT      O23220   8.862   7.032   4.942 -0.4836  0.3482 -0.5330
 5354WAT     H123221   8.954   7.056   4.950 -0.7728  1.3848 -0.2287
 5354WAT     H223222   8.839   7.055   4.851  0.1578 -2.1316 -1.4033
 5354WAT    EPW23223   8.871   7.038   4.931 -0.4368  0.1581 -0.6075
 5355WAT      O23224   7.759   5.336   5.627  0.0901  0.9063 -0.8639
 5355WAT     H123225   7.803   5.321   5.544  0.2365  0.1939 -0.6677
 5355WAT     H223226   7.677   5.287   5.620 -0.3000  1.5501 -0.9124
 5355WAT    EPW23227   7.754   5.327   5.615  0.0579  0.8974 -0.8445
 5356WAT      O23228   8.999   1.719   4.307  0.3442  0.6932  0.2088
 5356WAT     H123229   8.913   1.679   4.293 -0.1806  1.5997  0.7684
 5356WAT     H223230   8.997   1.799   4.254  0.8409  0.7248  0.2309
 5356WAT    EPW23231   8.987   1.725   4.298  0.3405  0.8169  0.2856
 5357WAT      O23232   9.427   6.368   4.910 -0.3107  0.3169  0.0692
 5357WAT     H123233   9.452   6.451   4.869 -0.5664  2.7112  4.2754
 5357WAT     H223234   9.508   6.316   4.908 -0.0358  0.6931 -2.2852
 5357WAT    EPW23235   9.441   6.372   4.904 -0.3076  0.6821  0.3133
 5358WAT      O23236  10.321   4.442   5.584  0.8335  0.4922  0.3890
 5358WAT     H123237  10.267   4.481   5.654 -1.0215  0.7796 -1.1353
 5358WAT     H223238  10.363   4.367   5.626 -1.0707  0.0156  1.5740
 5358WAT    EPW23239  10.320   4.437   5.599  0.3371  0.4673  0.3445
 5359WAT      O23240   1.334   5.801   7.346 -0.1917  0.2656 -0.2022
 5359WAT     H123241   1.263   5.860   7.374 -2.3511 -2.7443  1.1729
 5359WAT     H223242   1.297   5.752   7.273  0.4249 -1.3589  0.5258
 5359WAT    EPW23243   1.320   5.803   7.340 -0.3952 -0.3457  0.0753
 5360WAT      O23244   7.268   6.363   5.364  0.1380  0.1802  0.5802
 5360WAT     H123245   7.184   6.332   5.331 -0.9795  1.1959  2.2835
 5360WAT     H223246   7.272   6.455   5.337 -0.2713  0.6987  2.1303
 5360WAT    EPW23247   7.257   6.371   5.356 -0.0634  0.3824  1.0095
 5361WAT      O23248  10.371   3.121   7.564 -0.4409  0.4365  0.1556
 5361WAT     H123249  10.351   3.053   7.628 -1.7859 -0.7224 -1.3847
 5361WAT     H223250  10.418   3.075   7.494 -2.1748  0.8446 -1.3503
 5361WAT    EPW23251  10.375   3.106   7.563 -0.8473  0.3376 -0.2460
 5362WAT      O23252   0.562  10.007   0.057  0.1211  0.5979 -0.4216
 5362WAT     H123253   0.649  10.043   0.038  0.6670 -0.9322 -1.0249
 5362WAT     H223254   0.531  10.056   0.133  2.2529  0.0692  0.8807
 5362WAT    EPW23255   0.570  10.018   0.065  0.4743  0.3262 -0.3294
 5363WAT      O23256   9.317   6.230   4.089  0.1909  0.5482  0.1297
 5363WAT     H123257   9.394   6.237   4.033  0.8339  0.5076  0.9913
 5363WAT     H223258   9.320   6.308   4.144  0.1287  0.0996  0.7879
 5363WAT    EPW23259   9.327   6.241   4.089  0.2675  0.4835  0.3304
 5364WAT      O23260   8.228   6.756   5.379  0.4622 -0.4941  0.5229
 5364WAT     H123261   8.320   6.756   5.407  0.3990 -0.1775  0.7344
 5364WAT     H223262   8.231   6.784   5.288  0.5183  0.1638  0.7238
 5364WAT    EPW23263   8.241   6.760   5.371  0.4606 -0.3655  0.5772
 5365WAT      O23264   9.002   3.794   6.083 -0.5879  0.7646  0.0315
 5365WAT     H123265   9.053   3.716   6.106 -2.1833 -0.4809 -0.4984
 5365WAT     H223266   9.052   3.836   6.014 -0.3991 -0.5956 -0.6925
 5365WAT    EPW23267   9.015   3.789   6.077 -0.7734  0.4209 -0.1340
 5366WAT      O23268   3.936   0.985   8.164  0.5503 -0.2720  0.0214
 5366WAT     H123269   4.031   0.991   8.177  1.0930  0.8309 -3.5108
 5366WAT     H223270   3.920   0.893   8.143  1.4540  0.0697 -2.5250
 5366WAT    EPW23271   3.946   0.974   8.163  0.7411 -0.0814 -0.7806
 5367WAT      O23272   1.255   4.005   5.403 -0.6702 -0.2893  0.5266
 5367WAT     H123273   1.175   4.008   5.456  0.1970 -2.1675  2.0596
 5367WAT     H223274   1.259   3.915   5.371  0.7806 -0.1986  0.4007
 5367WAT    EPW23275   1.245   3.993   5.406 -0.3645 -0.5252  0.7122
 5368WAT      O23276   7.645   6.923   5.042  0.9375  0.6745  0.3587
 5368WAT     H123277   7.696   6.963   5.112 -1.5540  0.8051  2.2245
 5368WAT     H223278   7.571   6.981   5.029  2.3892  1.9715 -4.1952
 5368WAT    EPW23279   7.642   6.936   5.049  0.8004  0.8628  0.0041
 5369WAT      O23280   8.527   4.340   3.199 -0.5534  0.3693  0.0425
 5369WAT     H123281   8.618   4.343   3.228 -0.3479 -1.0037 -0.3877
 5369WAT     H223282   8.531   4.324   3.105 -1.2446  1.4668 -0.1962
 5369WAT    EPW23283   8.539   4.338   3.191 -0.6180  0.3328 -0.0457
 5370WAT      O23284   0.992   7.677   2.482  0.5457  0.1740  1.2695
 5370WAT     H123285   1.048   7.659   2.558  1.2907 -1.1025  0.4568
 5370WAT     H223286   0.966   7.591   2.450 -1.3651  0.7269  1.2047
 5370WAT    EPW23287   0.996   7.664   2.488  0.3919  0.0784  1.1537
 5371WAT      O23288   4.199   9.277   2.425  0.1409  0.2038 -0.3952
 5371WAT     H123289   4.163   9.293   2.337 -2.2171  1.5693  0.7123
 5371WAT     H223290   4.131   9.227   2.469  0.0471  1.8277  1.4430
 5371WAT    EPW23291   4.185   9.273   2.419 -0.1824  0.5984 -0.0067
 5372WAT      O23292  10.853  10.159   7.186  0.0673  0.1820 -0.2369
 5372WAT     H123293  10.933  10.107   7.177 -0.8752 -2.0938  2.7552
 5372WAT     H223294  10.830  10.182   7.096  2.7301 -1.1846 -1.3973
 5372WAT    EPW23295  10.861  10.155   7.173  0.2942 -0.2990  0.0045
 5373WAT      O23296   0.052   7.703   7.932  0.7235  0.3311  0.2600
 5373WAT     H123297   0.000   7.623   7.945  0.2794  0.4755 -0.5666
 5373WAT     H223298  -0.013   7.774   7.936  1.1318  0.6712  1.1184
 5373WAT    EPW23299   0.036   7.702   7.934  0.7186  0.3951  0.2644
 5374WAT      O23300   0.977   7.490   7.945 -0.0207 -0.1320 -0.3771
 5374WAT     H123301   1.017   7.414   7.989 -1.6759  0.5649  2.6195
 5374WAT     H223302   1.030   7.564   7.975 -2.1864  0.5631  2.0450
 5374WAT    EPW23303   0.990   7.490   7.955 -0.5247  0.0515  0.3374
 5375WAT      O23304   1.221   8.456   3.252 -0.1820  0.0031  0.1270
 5375WAT     H123305   1.300   8.507   3.233 -0.3287  0.1803 -0.0122
 5375WAT     H223306   1.181   8.501   3.326 -0.7239  0.5574 -0.4889
 5375WAT    EPW23307   1.226   8.469   3.259 -0.2729  0.0992  0.0274
 5376WAT      O23308   7.815   0.572   1.101  0.1858  0.0156 -0.0093
 5376WAT     H123309   7.820   0.510   1.173 -0.9117 -1.4760 -1.1714
 5376WAT     H223310   7.906   0.585   1.074  0.8176  1.9091  2.6402
 5376WAT    EPW23311   7.828   0.566   1.107  0.1247  0.0686  0.1869
 5377WAT      O23312  10.860   3.881   8.351 -0.1408 -0.6026  0.3428
 5377WAT     H123313  10.881   3.961   8.304  0.7257 -1.2955 -0.4809
 5377WAT     H223314  10.901   3.811   8.300 -1.3157 -1.6305  0.7484
 5377WAT    EPW23315  10.868   3.882   8.338 -0.1812 -0.8297  0.2880
 5378WAT      O23316   0.093   6.661   5.604  0.1458  0.1661  0.2899
 5378WAT     H123317   0.090   6.565   5.613  1.3135 -0.0867 -1.3814
 5378WAT     H223318   0.119   6.675   5.513  2.6698  2.0070  1.1554
 5378WAT    EPW23319   0.096   6.650   5.593  0.6327  0.3757  0.1833
 5379WAT      O23320   0.242   7.338   2.751 -0.0057 -0.2515  0.1586
 5379WAT     H123321   0.190   7.361   2.674  0.3939 -0.4254 -0.1683
 5379WAT     H223322   0.257   7.421   2.795 -0.1379 -0.1328 -0.0168
 5379WAT    EPW23323   0.237   7.352   2.746  0.0296 -0.2587  0.0923
 5380WAT      O23324  10.217   4.986   6.368  0.0436 -0.6428 -0.2148
 5380WAT     H123325  10.282   4.975   6.299  0.4438  0.1689  0.0176
 5380WAT     H223326  10.254   5.054   6.425 -0.5956 -0.8105  0.4166
 5380WAT    EPW23327  10.230   4.993   6.367  0.0124 -0.5577 -0.1009
 5381WAT      O23328   9.634   5.819   6.227 -0.0234  0.1987  0.5125
 5381WAT     H123329   9.605   5.839   6.316  1.1066  1.0024  0.7135
 5381WAT     H223330   9.663   5.903   6.191  2.5875 -0.6315  0.5334
 5381WAT    EPW23331   9.634   5.833   6.234  0.4702  0.1950  0.5419
 5382WAT      O23332   1.463   0.403   0.501 -0.4555  0.3823 -0.0588
 5382WAT     H123333   1.371   0.375   0.498 -0.5694  0.7743 -0.4726
 5382WAT     H223334   1.512   0.324   0.525 -1.1843  0.8732  3.6025
 5382WAT    EPW23335   1.457   0.389   0.504 -0.5666  0.4987  0.3695
 5383WAT      O23336   0.368   3.822   8.029  0.4128 -0.2244  0.6610
 5383WAT     H123337   0.322   3.835   7.946  0.8551 -3.1061 -0.1393
 5383WAT     H223338   0.331   3.742   8.065  2.1416 -0.5288  1.8861
 5383WAT    EPW23339   0.357   3.813   8.023  0.6992 -0.6446  0.7167
 5384WAT      O23340   1.579   6.781   0.286  0.3325  0.0162 -0.4135
 5384WAT     H123341   1.490   6.752   0.305  0.3747  0.7251  0.9490
 5384WAT     H223342   1.611   6.719   0.220 -1.1830 -0.1959 -0.9748
 5384WAT    EPW23343   1.572   6.769   0.280  0.1382  0.0820 -0.3078
 5385WAT      O23344   0.298   6.182   5.613  0.0788 -0.8018 -0.1984
 5385WAT     H123345   0.359   6.231   5.669 -0.3366  1.5928 -1.6780
 5385WAT     H223346   0.212   6.221   5.632 -0.2144 -0.6713 -1.6937
 5385WAT    EPW23347   0.295   6.194   5.623 -0.0147 -0.4687 -0.5910
 5386WAT      O23348   9.218   3.346   7.188 -0.4025 -0.3296 -0.1210
 5386WAT     H123349   9.128   3.331   7.158 -1.2367  1.4567  1.2370
 5386WAT     H223350   9.250   3.260   7.214 -2.1192 -0.8738  0.3179
 5386WAT    EPW23351   9.210   3.333   7.188 -0.7386 -0.1657  0.1159
 5387WAT      O23352   7.023   3.902   6.731 -0.1305 -0.0158  0.4368
 5387WAT     H123353   7.116   3.903   6.707 -0.8924  2.3122 -3.0327
 5387WAT     H223354   6.986   3.978   6.687 -3.7389 -0.8639  1.7026
 5387WAT    EPW23355   7.031   3.912   6.722 -0.7069  0.1793  0.1462
 5388WAT      O23356   7.580   1.330   1.076 -0.4458 -0.2253  0.4330
 5388WAT     H123357   7.551   1.413   1.038 -0.2003 -0.9733 -1.5320
 5388WAT     H223358   7.658   1.353   1.127 -2.5353  1.3158  3.2627
 5388WAT    EPW23359   7.587   1.344   1.078 -0.6893 -0.1207  0.5471
 5389WAT      O23360   3.134   7.661   4.022  0.1849 -0.5912  0.0500
 5389WAT     H123361   3.082   7.738   4.042  1.1404 -0.4843  2.4247
 5389WAT     H223362   3.219   7.695   3.994 -0.5258 -0.7925 -2.7310
 5389WAT    EPW23363   3.138   7.675   4.021  0.2171 -0.6037 -0.0038
 5390WAT      O23364   8.039   5.967   5.713  1.0715 -0.5367 -0.2681
 5390WAT     H123365   7.959   6.009   5.745  1.8272  0.1466  0.7881
 5390WAT     H223366   8.065   5.908   5.783  2.3521  0.4301  0.1109
 5390WAT    EPW23367   8.031   5.965   5.726  1.3399 -0.3192 -0.0789
 5391WAT      O23368   0.757   4.164   6.411  0.0759  0.3099 -0.1405
 5391WAT     H123369   0.782   4.072   6.423  0.4968  0.5833  1.1875
 5391WAT     H223370   0.836   4.213   6.432 -0.5813  1.0400  0.6986
 5391WAT    EPW23371   0.771   4.158   6.415  0.0448  0.4423  0.1452
 5392WAT      O23372  10.732   5.265   3.733 -0.3304 -0.4202  0.2538
 5392WAT     H123373  10.651   5.216   3.751 -1.3490  0.8356 -0.7430
 5392WAT     H223374  10.725   5.343   3.787 -0.6304  0.5347 -1.1166
 5392WAT    EPW23375  10.720   5.269   3.743 -0.5040 -0.1287 -0.0585
 5393WAT      O23376   9.118   3.416   5.960  0.0113  0.0044  0.6747
 5393WAT     H123377   9.050   3.391   6.022  1.5851 -1.2576  2.0009
 5393WAT     H223378   9.165   3.487   6.004  0.4089 -0.1011  0.4307
 5393WAT    EPW23379   9.115   3.422   5.974  0.2718 -0.1760  0.8173
 5394WAT      O23380   6.042   0.900   2.048 -0.1053 -0.1183 -0.2085
 5394WAT     H123381   5.966   0.854   2.085 -0.9659 -0.1477 -1.9310
 5394WAT     H223382   6.077   0.840   1.983  2.7903 -1.0409  1.9680
 5394WAT    EPW23383   6.036   0.886   2.044  0.1633 -0.2438 -0.1485
 5395WAT      O23384   3.543   6.361   3.319  0.4237 -1.2037  0.7112
 5395WAT     H123385   3.548   6.455   3.335 -0.0375 -0.3055 -3.4657
 5395WAT     H223386   3.631   6.328   3.337  1.1031  0.3764  0.3941
 5395WAT    EPW23387   3.555   6.369   3.324  0.4526 -0.8769  0.1185
 5396WAT      O23388   8.929   5.915   4.626  0.6853 -0.2314  1.3347
 5396WAT     H123389   8.908   6.004   4.652 -1.3035  0.2484 -1.4307
 5396WAT     H223390   8.987   5.926   4.550  0.1085 -1.2291  0.7263
 5396WAT    EPW23391   8.934   5.928   4.619  0.3467 -0.2997  0.8898
 5397WAT      O23392  10.714   4.014   8.548  0.1295  0.1989 -0.6837
 5397WAT     H123393  10.771   4.029   8.624 -0.3047 -1.8692  0.1084
 5397WAT     H223394  10.775   3.988   8.478  0.6683  3.2647 -1.5029
 5397WAT    EPW23395  10.730   4.012   8.549  0.1426  0.3304 -0.6871
 5398WAT      O23396   8.505   6.127   5.919  0.1502 -0.0123  0.1172
 5398WAT     H123397   8.485   6.048   5.868  2.5497  1.1681 -3.0131
 5398WAT     H223398   8.436   6.188   5.896 -0.4069 -0.4214  0.6742
 5398WAT    EPW23399   8.494   6.124   5.909  0.3929  0.0894 -0.2220
 5399WAT      O23400   3.506   6.522   4.619  0.2225  0.8943  0.1175
 5399WAT     H123401   3.572   6.585   4.592  0.4844 -0.2473 -2.1227
 5399WAT     H223402   3.556   6.452   4.662  0.2380  0.9706  0.2233
 5399WAT    EPW23403   3.521   6.521   4.621  0.2592  0.7541 -0.1638
 5400WAT      O23404   9.983   1.292   7.825  0.4741  0.8857  0.5156
 5400WAT     H123405  10.037   1.225   7.867 -0.4577 -1.3085 -1.5800
 5400WAT     H223406   9.895   1.276   7.858 -0.0391 -0.0373 -1.1927
 5400WAT    EPW23407   9.979   1.281   7.835  0.2832  0.4746  0.0138
 5401WAT      O23408   0.827   9.303   6.450  0.6300  0.8056  0.0337
 5401WAT     H123409   0.807   9.217   6.485  0.7347  1.2023  1.0971
 5401WAT     H223410   0.890   9.287   6.380  1.3855  0.0951  0.8590
 5401WAT    EPW23411   0.833   9.290   6.445  0.7434  0.7644  0.2830
 5402WAT      O23412   4.235   5.163   4.753  0.6358  0.2923  0.5116
 5402WAT     H123413   4.234   5.242   4.699  3.0235  0.8519  1.1646
 5402WAT     H223414   4.226   5.196   4.843  0.7038 -0.2689  0.7246
 5402WAT    EPW23415   4.234   5.178   4.758  0.9596  0.2918  0.6256
 5403WAT      O23416   9.825   5.070   6.663 -0.3450  0.8804  0.0250
 5403WAT     H123417   9.731   5.084   6.678  0.1763  1.0498  4.2751
 5403WAT     H223418   9.834   4.976   6.653 -0.9818  0.8765 -0.5710
 5403WAT    EPW23419   9.814   5.060   6.664 -0.3605  0.9024  0.5071
 5404WAT      O23420   2.397   5.107   5.954 -0.2470 -0.0057 -0.1859
 5404WAT     H123421   2.396   5.097   5.859 -1.4813 -0.3824 -0.1540
 5404WAT     H223422   2.425   5.197   5.968 -0.1670  0.0887 -0.9166
 5404WAT    EPW23423   2.401   5.118   5.944 -0.3994 -0.0429 -0.2778
 5405WAT      O23424   8.995   8.092   4.854 -0.3932 -0.7344 -0.4075
 5405WAT     H123425   8.921   8.138   4.894  0.1259 -0.0206 -0.2525
 5405WAT     H223426   9.068   8.154   4.860  0.3474 -1.6110 -0.0934
 5405WAT    EPW23427   8.995   8.106   4.860 -0.2270 -0.7558 -0.3459
 5406WAT      O23428   1.020   8.690   5.870 -0.0656  0.0112  0.0096
 5406WAT     H123429   0.976   8.712   5.789  1.1137  0.3687 -0.5583
 5406WAT     H223430   1.023   8.772   5.919  1.4630  0.4124 -0.7050
 5406WAT    EPW23431   1.015   8.704   5.866  0.2915  0.1111 -0.1593
 5407WAT      O23432   9.527   6.265   6.986  0.2661  0.7855  0.2119
 5407WAT     H123433   9.596   6.326   7.012 -0.5527  1.5347  0.6382
 5407WAT     H223434   9.558   6.230   6.902  1.8101  0.0731  1.0198
 5407WAT    EPW23435   9.540   6.268   6.978  0.3619  0.7901  0.3746
 5408WAT      O23436   1.878   4.141   5.293  0.4536 -0.0096 -0.1668
 5408WAT     H123437   1.932   4.081   5.242 -0.7178  0.6382 -2.2874
 5408WAT     H223438   1.872   4.101   5.380  1.1441 -2.0204 -1.0007
 5408WAT    EPW23439   1.885   4.128   5.298  0.3902 -0.1895 -0.5567
 5409WAT      O23440   9.385   6.568   8.588  0.3896 -0.1776  0.1931
 5409WAT     H123441   9.464   6.554   8.536  0.1862 -1.8976  0.2707
 5409WAT     H223442   9.416   6.586   8.676  0.7021  0.3029 -0.0126
 5409WAT    EPW23443   9.399   6.568   8.592  0.4039 -0.3412  0.1755
 5410WAT      O23444   8.170   6.819   5.636 -1.1871  0.3981 -0.2132
 5410WAT     H123445   8.235   6.886   5.658  1.6701 -2.3339  0.5039
 5410WAT     H223446   8.186   6.800   5.544 -0.1125 -1.0003  0.2165
 5410WAT    EPW23447   8.181   6.826   5.627 -0.6690 -0.1464 -0.0618
 5411WAT      O23448   0.269   3.654   4.619  0.1048  0.0388 -0.3403
 5411WAT     H123449   0.200   3.718   4.603  0.6971  0.5286 -0.9478
 5411WAT     H223450   0.240   3.609   4.699  0.2382  1.8246  0.7758
 5411WAT    EPW23451   0.256   3.656   4.628  0.2005  0.3389 -0.2732
 5412WAT      O23452   0.558   1.861   8.367 -0.2011  0.0293 -0.0182
 5412WAT     H123453   0.467   1.858   8.337  0.3346 -0.8896 -1.6536
 5412WAT     H223454   0.586   1.951   8.349 -0.9165  0.4709  0.9758
 5412WAT    EPW23455   0.550   1.873   8.361 -0.2249 -0.0336 -0.1030
 5413WAT      O23456   8.443   3.824   6.085  0.4096  0.2362 -0.0295
 5413WAT     H123457   8.465   3.734   6.110 -2.7607 -0.2601  1.5171
 5413WAT     H223458   8.521   3.874   6.109  2.1327 -1.9807 -0.5658
 5413WAT    EPW23459   8.456   3.818   6.092  0.2189 -0.1217  0.1035
 5414WAT      O23460   0.133   6.898   6.727 -0.5500  0.1780 -0.2801
 5414WAT     H123461   0.061   6.850   6.687  0.2427 -0.6244 -0.8131
 5414WAT     H223462   0.130   6.874   6.820 -0.9122  0.0686 -0.3202
 5414WAT    EPW23463   0.123   6.888   6.734 -0.4932  0.0577 -0.3557
 5415WAT      O23464   9.327   7.561   2.904 -0.4763 -0.7016 -0.3065
 5415WAT     H123465   9.361   7.597   2.986  0.8536 -2.6460  0.0639
 5415WAT     H223466   9.378   7.603   2.835 -0.0368 -0.7308  0.0013
 5415WAT    EPW23467   9.338   7.571   2.906 -0.2432 -0.9620 -0.2168
 5416WAT      O23468   9.387   5.383   5.518  0.0814 -0.6386  1.2034
 5416WAT     H123469   9.421   5.356   5.433 -1.7164 -0.4921  0.3916
 5416WAT     H223470   9.411   5.476   5.524 -1.3188 -0.1589  0.0030
 5416WAT    EPW23471   9.395   5.392   5.507 -0.3400 -0.5560  0.9379
 5417WAT      O23472   9.513   6.343   5.389 -0.2680 -0.2994 -0.3402
 5417WAT     H123473   9.608   6.351   5.381 -0.2305 -1.1938 -0.9713
 5417WAT     H223474   9.479   6.377   5.305 -0.3136 -2.6925 -1.3615
 5417WAT    EPW23475   9.521   6.349   5.377 -0.2689 -0.7331 -0.5581
 5418WAT      O23476   9.726   4.356   5.950 -0.0913  0.0917 -0.6114
 5418WAT     H123477   9.822   4.351   5.948 -0.1501 -2.7049 -0.8943
 5418WAT     H223478   9.705   4.374   6.041  0.7031 -1.5594 -0.0664
 5418WAT    EPW23479   9.736   4.358   5.962  0.0052 -0.4947 -0.5767
 5419WAT      O23480   9.509   6.788   7.410 -0.0630 -0.0060 -0.6537
 5419WAT     H123481   9.468   6.789   7.324  2.1269 -0.7517 -1.7873
 5419WAT     H223482   9.570   6.862   7.408 -0.8746  0.7325  0.7497
 5419WAT    EPW23483   9.512   6.798   7.399  0.1183 -0.0069 -0.6182
 5420WAT      O23484  10.913   0.051   5.032  0.0780 -0.4972 -0.0568
 5420WAT     H123485  10.869   0.114   4.975  2.0740  0.8524 -0.2418
 5420WAT     H223486  10.931   0.100   5.112  2.0183 -0.6139 -0.3546
 5420WAT    EPW23487  10.910   0.066   5.035  0.5975 -0.3346 -0.1204
 5421WAT      O23488   0.358   4.675   7.470 -0.1532  0.1197 -0.1177
 5421WAT     H123489   0.375   4.715   7.385  1.0534  0.2384  0.1708
 5421WAT     H223490   0.428   4.708   7.527  0.1800 -1.4672  0.4326
 5421WAT    EPW23491   0.369   4.685   7.467  0.0499 -0.0739 -0.0074
 5422WAT      O23492   7.189   9.818   5.963 -0.7855  0.2832 -0.7416
 5422WAT     H123493   7.208   9.910   5.983 -3.5316  0.9982 -1.0233
 5422WAT     H223494   7.221   9.807   5.873 -0.4682  0.9856 -0.7237
 5422WAT    EPW23495   7.196   9.829   5.954 -1.1058  0.4697 -0.7763
 5423WAT      O23496   1.217   4.411   8.171 -0.2184 -0.0470  0.5629
 5423WAT     H123497   1.179   4.397   8.085 -3.0105  0.7763  1.5514
 5423WAT     H223498   1.299   4.361   8.170 -0.2141 -0.1246 -2.4784
 5423WAT    EPW23499   1.223   4.402   8.160 -0.5861  0.0515  0.2928
 5424WAT      O23500   0.765   4.381   5.578  0.3187  0.0706 -0.3104
 5424WAT     H123501   0.710   4.313   5.541 -2.3307  0.0401  3.2113
 5424WAT     H223502   0.802   4.425   5.502 -3.4477 -0.8497 -2.9785
 5424WAT    EPW23503   0.763   4.378   5.563 -0.5275 -0.0546 -0.1979
 5425WAT      O23504  10.451   7.366   5.653  0.0853 -0.2091  0.4373
 5425WAT     H123505  10.356   7.355   5.649  0.1438 -1.0379  1.0528
 5425WAT     H223506  10.472   7.422   5.578 -0.9900  0.8003  0.8633
 5425WAT    EPW23507  10.442   7.372   5.643 -0.0491 -0.1855  0.5746
 5426WAT      O23508   0.234   7.503   6.612  0.7371 -0.5366 -0.0932
 5426WAT     H123509   0.322   7.513   6.648  1.0480 -0.4520 -0.8628
 5426WAT     H223510   0.246   7.503   6.517 -0.1597  0.2000 -0.2304
 5426WAT    EPW23511   0.247   7.504   6.604  0.6599 -0.4280 -0.2129
 5427WAT      O23512  10.916   6.456   4.852 -0.1346  0.1028  0.4469
 5427WAT     H123513  10.884   6.479   4.765 -0.1513  1.9462  0.9120
 5427WAT     H223514  10.966   6.532   4.881 -0.4766 -0.2952  2.2229
 5427WAT    EPW23515  10.918   6.469   4.844 -0.1822  0.2935  0.7424
 5428WAT      O23516   2.887   3.066   3.813 -0.4495 -0.3660 -0.4501
 5428WAT     H123517   2.980   3.086   3.805 -0.4004 -0.0348  0.7429
 5428WAT     H223518   2.869   3.004   3.742  0.0768  1.5608 -2.3564
 5428WAT    EPW23519   2.897   3.060   3.803 -0.3736 -0.0683 -0.5441
 5429WAT      O23520  10.972   6.610   6.886  0.8520  1.2155 -0.4317
 5429WAT     H123521  10.953   6.654   6.803 -2.0040  0.3969 -0.3059
 5429WAT     H223522  10.961   6.679   6.952 -0.1757  1.1410 -0.5072
 5429WAT    EPW23523  10.968   6.625   6.884  0.3400  1.0977 -0.4249
 5430WAT      O23524   0.652   0.791   2.158 -0.1864 -0.0552  0.4091
 5430WAT     H123525   0.742   0.764   2.138  0.2973 -0.9425  3.2990
 5430WAT     H223526   0.659   0.884   2.178 -0.3588  0.4050 -1.5265
 5430WAT    EPW23527   0.665   0.800   2.158 -0.1454 -0.1115  0.5350
 5431WAT      O23528   0.860   7.989   6.416  0.0460 -0.1467 -0.5548
 5431WAT     H123529   0.951   7.985   6.445 -0.0642  0.0289 -0.1737
 5431WAT     H223530   0.815   8.037   6.486 -0.7269 -1.9146  0.2208
 5431WAT    EPW23531   0.866   7.995   6.429 -0.0705 -0.3567 -0.4025
 5432WAT      O23532   9.248   3.624   6.745  0.2724 -0.1048 -0.3402
 5432WAT     H123533   9.260   3.603   6.838  0.0065  0.6987 -0.1187
 5432WAT     H223534   9.337   3.627   6.709  0.3230 -1.8479 -0.4492
 5432WAT    EPW23535   9.261   3.621   6.753  0.2441 -0.2286 -0.3252
 5433WAT      O23536   3.010   5.479   5.212 -0.1755  0.1678  0.4169
 5433WAT     H123537   2.988   5.545   5.147  1.3118 -1.1188 -1.4908
 5433WAT     H223538   3.065   5.416   5.166  1.2303 -0.6712  2.9966
 5433WAT    EPW23539   3.015   5.479   5.198  0.2060 -0.1125  0.5059
 5434WAT      O23540   2.548   7.100   1.556 -0.4653 -0.2376  0.0264
 5434WAT     H123541   2.482   7.060   1.613  0.8985 -0.5472  1.4663
 5434WAT     H223542   2.498   7.145   1.489 -2.1858  0.3324  1.6104
 5434WAT    EPW23543   2.533   7.101   1.555 -0.5124 -0.2031  0.4252
 5435WAT      O23544   1.088   0.945   8.040 -0.1806 -0.3480 -0.1318
 5435WAT     H123545   1.120   0.867   8.084  3.7247  1.0560 -0.0697
 5435WAT     H223546   1.112   0.932   7.948  1.2461  1.0027  0.0042
 5435WAT    EPW23547   1.095   0.933   8.034  0.5227  0.0154 -0.1059
 5436WAT      O23548   2.209   6.090   1.567  0.4613  0.0735  0.5546
 5436WAT     H123549   2.194   6.060   1.477 -3.1893  2.3540  0.1919
 5436WAT     H223550   2.261   6.170   1.558 -1.2679  1.2173  0.2044
 5436WAT    EPW23551   2.214   6.096   1.554 -0.2482  0.5252  0.4606
 5437WAT      O23552  10.604   5.249   2.146  0.0069  0.0230 -0.3746
 5437WAT     H123553  10.553   5.248   2.227  0.1673  0.2783 -0.2705
 5437WAT     H223554  10.662   5.324   2.155 -0.3832  0.4133 -0.9785
 5437WAT    EPW23555  10.605   5.259   2.157 -0.0234  0.1080 -0.4405
 5438WAT      O23556   4.376   7.129   3.776  0.4326  0.0861  0.1117
 5438WAT     H123557   4.426   7.160   3.851  1.3828 -1.2927  0.0965
 5438WAT     H223558   4.312   7.198   3.759  1.4432  1.2835  0.9949
 5438WAT    EPW23559   4.374   7.142   3.783  0.6912  0.0622  0.2263
 5439WAT      O23560   1.188   4.808   6.574 -0.3273  0.2807 -0.1641
 5439WAT     H123561   1.173   4.875   6.507  1.1710  2.3076  1.3711
 5439WAT     H223562   1.136   4.837   6.649  0.5843 -0.0834  0.6308
 5439WAT    EPW23563   1.179   4.821   6.575 -0.0095  0.5002  0.1433
 5440WAT      O23564  10.286   6.971   7.371 -0.1671 -0.1270 -0.5000
 5440WAT     H123565  10.224   7.043   7.389 -0.4553  0.2930 -2.8561
 5440WAT     H223566  10.248   6.925   7.296  0.5313 -2.1781  0.3351
 5440WAT    EPW23567  10.273   6.975   7.363 -0.1135 -0.3419 -0.7005
 5441WAT      O23568   3.537   2.769   2.847 -0.4110  0.0892 -0.2725
 5441WAT     H123569   3.579   2.828   2.909  0.6271 -1.3475  0.4492
 5441WAT     H223570   3.519   2.689   2.898  0.1620 -1.0041 -1.7124
 5441WAT    EPW23571   3.540   2.766   2.862 -0.1985 -0.2445 -0.3672
 5442WAT      O23572   9.440   8.654   7.335  0.3141  0.0178  0.1292
 5442WAT     H123573   9.523   8.672   7.379  0.5612  1.4088 -0.8206
 5442WAT     H223574   9.375   8.703   7.386  0.5347  1.2613 -0.7290
 5442WAT    EPW23575   9.442   8.663   7.347  0.3753  0.3653 -0.1092
 5443WAT      O23576   9.144   7.730   7.467 -0.0652  0.8193  0.4852
 5443WAT     H123577   9.093   7.804   7.435 -0.4353  0.6475  0.6606
 5443WAT     H223578   9.172   7.756   7.555 -0.8998  0.4300  0.8791
 5443WAT    EPW23579   9.141   7.743   7.475 -0.2241  0.7455  0.5603
 5444WAT      O23580   9.280   6.701   7.863  0.9368 -0.1384  1.0729
 5444WAT     H123581   9.258   6.616   7.901  1.1247 -0.6849  0.0087
 5444WAT     H223582   9.225   6.764   7.910  0.1300 -0.9660  1.2641
 5444WAT    EPW23583   9.269   6.698   7.874  0.8554 -0.3200  0.9580
 5445WAT      O23584   6.188   5.597   5.836 -0.3997  0.1475  0.1413
 5445WAT     H123585   6.172   5.527   5.900 -0.9866 -1.2752 -1.4971
 5445WAT     H223586   6.131   5.668   5.864 -1.5699 -0.9104  0.5110
 5445WAT    EPW23587   6.179   5.597   5.849 -0.6316 -0.1798 -0.0260
 5446WAT      O23588   8.240   6.952   6.345 -0.0566  0.0319 -0.3615
 5446WAT     H123589   8.335   6.943   6.350 -0.1559 -0.8352  0.1477
 5446WAT     H223590   8.218   7.006   6.422  0.3076  3.0687 -2.2044
 5446WAT    EPW23591   8.250   6.958   6.356 -0.0224  0.3181 -0.5374
 5447WAT      O23592   1.476   6.862   6.744 -0.6226  0.6076 -0.1714
 5447WAT     H123593   1.510   6.885   6.658 -0.9485 -1.9238 -1.0787
 5447WAT     H223594   1.391   6.906   6.749 -0.0824  1.7251 -0.6320
 5447WAT    EPW23595   1.469   6.870   6.733 -0.5943  0.4210 -0.3514
 5448WAT      O23596   9.949   9.335   0.075 -0.0213 -0.4844  0.6787
 5448WAT     H123597   9.961   9.245   0.103 -2.2547 -0.3571  2.3440
 5448WAT     H223598   9.886   9.330   0.003  0.5570 -0.3120  0.1556
 5448WAT    EPW23599   9.942   9.323   0.069 -0.2396 -0.4451  0.8292
 5449WAT      O23600   7.386   6.548   7.606  0.6477 -0.1063  0.7002
 5449WAT     H123601   7.382   6.542   7.511 -2.0357 -1.3791  0.8030
 5449WAT     H223602   7.371   6.640   7.626 -1.5545 -0.2445 -0.1048
 5449WAT    EPW23603   7.384   6.559   7.596  0.0033 -0.2923  0.6077
 5450WAT      O23604   1.350  10.215   0.080 -0.5374  0.3111 -0.0478
 5450WAT     H123605   1.412  10.235   0.150  0.0245 -0.4348 -0.3257
 5450WAT     H223606   1.381  10.266   0.005  0.7497 -1.3361 -0.6836
 5450WAT    EPW23607   1.362  10.224   0.080 -0.2935 -0.0052 -0.1683
 5451WAT      O23608   6.316   5.852   7.783 -0.4928  0.2262 -0.0080
 5451WAT     H123609   6.335   5.944   7.766 -0.3119  0.0084 -1.0705
 5451WAT     H223610   6.363   5.832   7.864  0.4560  0.7572 -0.4105
 5451WAT    EPW23611   6.325   5.862   7.791 -0.3440  0.2673 -0.2007
 5452WAT      O23612  10.660   9.257   7.417 -0.0805  0.4295 -0.0631
 5452WAT     H123613  10.661   9.301   7.502  1.3117  0.6029 -0.1454
 5452WAT     H223614  10.659   9.164   7.438  0.6595  0.4637  0.1677
 5452WAT    EPW23615  10.660   9.250   7.431  0.2007  0.4568 -0.0436
 5453WAT      O23616  10.383   6.058   7.660 -1.2154 -0.4302 -0.1867
 5453WAT     H123617  10.467   6.063   7.615 -1.7591  0.7569 -1.1224
 5453WAT     H223618  10.319   6.089   7.596 -2.0010  1.5406  1.4061
 5453WAT    EPW23619  10.386   6.063   7.646 -1.3909 -0.0138 -0.1001
 5454WAT      O23620   8.790   7.683   5.384  0.4212  0.2714  0.4315
 5454WAT     H123621   8.774   7.761   5.331  0.0324 -0.3292 -0.3518
 5454WAT     H223622   8.842   7.715   5.458  2.1319  0.9241 -0.9782
 5454WAT    EPW23623   8.795   7.698   5.387  0.5956  0.2782  0.1421
 5455WAT      O23624   4.131   3.569   1.479 -0.4161 -0.1018 -0.4604
 5455WAT     H123625   4.130   3.530   1.567 -0.5459 -0.2001 -0.5052
 5455WAT     H223626   4.044   3.607   1.469 -1.2891 -2.2096 -1.4957
 5455WAT    EPW23627   4.119   3.569   1.490 -0.5484 -0.3929 -0.6028
 5456WAT      O23628   8.644   5.411   5.377  0.4379 -0.1386  0.1170
 5456WAT     H123629   8.692   5.365   5.447 -0.6907 -1.8885 -0.1850
 5456WAT     H223630   8.555   5.419   5.411  0.5041  1.5286 -0.0266
 5456WAT    EPW23631   8.639   5.406   5.391  0.2980 -0.1495  0.0582
 5457WAT      O23632   0.787   9.568   4.939  0.1164 -0.2958  0.3322
 5457WAT     H123633   0.757   9.638   4.882  0.5246  0.0223  0.5010
 5457WAT     H223634   0.756   9.594   5.026  1.1622  0.2214  0.5694
 5457WAT    EPW23635   0.779   9.581   4.943  0.3082 -0.1855  0.3862
 5458WAT      O23636  10.644   8.799   5.163 -0.5302 -0.2073  0.0687
 5458WAT     H123637  10.684   8.738   5.100  0.0603  0.6250 -0.3873
 5458WAT     H223638  10.713   8.862   5.182 -0.0560 -1.4538  3.0170
 5458WAT    EPW23639  10.658   8.799   5.157 -0.3896 -0.2623  0.3974
 5459WAT      O23640   0.416   7.077   6.084 -0.2539 -0.3338  0.1593
 5459WAT     H123641   0.385   7.043   6.001  1.2244  0.4791 -0.7650
 5459WAT     H223642   0.490   7.020   6.107 -0.0694  0.0164  0.4448
 5459WAT    EPW23643   0.422   7.065   6.076 -0.0346 -0.1802  0.0751
 5460WAT      O23644   9.220   6.643   5.729  0.7034 -0.3148 -0.2922
 5460WAT     H123645   9.196   6.685   5.646 -1.5162 -1.6772 -0.4249
 5460WAT     H223646   9.310   6.613   5.716  0.2373 -0.9631 -2.4387
 5460WAT    EPW23647   9.228   6.645   5.716  0.3490 -0.5801 -0.5927
 5461WAT      O23648  10.186   6.425   5.408  0.0587  0.1606  0.1620
 5461WAT     H123649  10.281   6.435   5.418  0.3133 -2.0066  0.4199
 5461WAT     H223650  10.171   6.332   5.419 -2.2028  0.5396  0.7345
 5461WAT    EPW23651  10.197   6.414   5.411 -0.2060 -0.0751  0.2711
 5462WAT      O23652   1.095   6.518   5.358 -0.3322  0.0690 -0.3419
 5462WAT     H123653   1.085   6.606   5.392 -0.5514 -0.1808  0.2382
 5462WAT     H223654   1.139   6.531   5.273  0.4679  0.6719  0.1439
 5462WAT    EPW23655   1.100   6.531   5.351 -0.2556  0.1156 -0.2010
 5463WAT      O23656   2.815   8.510   6.698 -0.1000  0.0819 -0.1199
 5463WAT     H123657   2.733   8.484   6.655  0.3218  0.1319 -0.9817
 5463WAT     H223658   2.823   8.603   6.680 -0.7881  0.4996  1.5758
 5463WAT    EPW23659   2.805   8.519   6.690 -0.1351  0.1440 -0.0098
 5464WAT      O23660   0.031   8.443   7.281 -0.8300  0.2434 -0.5643
 5464WAT     H123661   0.031   8.495   7.200 -2.7081 -0.8818 -1.3476
 5464WAT     H223662   0.018   8.507   7.350  1.9825  1.3846 -0.9441
 5464WAT    EPW23663   0.029   8.458   7.279 -0.7067  0.2456 -0.7174
 5465WAT      O23664   2.540   5.038   1.320 -0.3688  0.0275  0.2108
 5465WAT     H123665   2.631   5.068   1.319 -0.9350  1.8583  0.3661
 5465WAT     H223666   2.520   5.017   1.229  0.4151 -1.1054  0.2845
 5465WAT    EPW23667   2.549   5.039   1.308 -0.3401  0.1197  0.2410
 5466WAT      O23668   9.617   5.594   7.439  0.6621 -0.1139 -0.3476
 5466WAT     H123669   9.645   5.662   7.378  0.0133  0.1674 -0.3366
 5466WAT     H223670   9.601   5.641   7.521  1.1092 -0.4236 -0.0762
 5466WAT    EPW23671   9.619   5.609   7.442  0.6356 -0.1178 -0.3107
 5467WAT      O23672   0.272   6.245   4.454  0.0163  0.0142  0.6670
 5467WAT     H123673   0.351   6.293   4.478  0.1756 -0.0468  0.2649
 5467WAT     H223674   0.201   6.293   4.498  0.2184  0.3804  0.6004
 5467WAT    EPW23675   0.273   6.258   4.463  0.0640  0.0546  0.6051
 5468WAT      O23676   2.883   8.325   5.435 -0.5680  0.3606  0.4320
 5468WAT     H123677   2.809   8.335   5.495  0.0779 -2.0712  1.7434
 5468WAT     H223678   2.954   8.374   5.476 -0.0732 -1.4538  1.8459
 5468WAT    EPW23679   2.882   8.333   5.448 -0.4175 -0.1993  0.7913
 5469WAT      O23680   6.977   3.496   0.579 -0.1732 -0.2476 -0.0606
 5469WAT     H123681   6.912   3.535   0.638 -0.6544 -3.3344  1.6616
 5469WAT     H223682   7.050   3.471   0.636  1.0296 -0.0074 -1.4175
 5469WAT    EPW23683   6.978   3.498   0.594 -0.0780 -0.6231 -0.0124
 5470WAT      O23684   7.343   4.954   5.770 -0.6035 -0.0067 -0.6427
 5470WAT     H123685   7.328   4.869   5.727 -0.2244 -0.5577  0.2892
 5470WAT     H223686   7.290   5.015   5.720 -2.4438 -1.1284 -0.1837
 5470WAT    EPW23687   7.334   4.951   5.758 -0.7963 -0.2270 -0.4592
 5471WAT      O23688   6.923   0.601   1.425 -0.2780 -0.1723  0.2704
 5471WAT     H123689   6.956   0.625   1.511 -0.9835  1.5298  0.1037
 5471WAT     H223690   6.870   0.523   1.440 -1.0517  0.5685  1.5352
 5471WAT    EPW23691   6.920   0.594   1.438 -0.4730  0.1499  0.4153
 5472WAT      O23692   2.938   7.119   5.272 -1.1802 -0.1800 -0.0819
 5472WAT     H123693   3.014   7.143   5.219 -0.8682  0.9641  0.8402
 5472WAT     H223694   2.968   7.130   5.363 -1.6060 -2.3699  0.3862
 5472WAT    EPW23695   2.952   7.124   5.277 -1.1952 -0.3178  0.1013
 5473WAT      O23696   4.660   1.055   0.394 -0.0364 -0.1063 -0.0730
 5473WAT     H123697   4.753   1.075   0.407  0.1632  0.0196 -1.5534
 5473WAT     H223698   4.659   0.975   0.342 -0.8128 -1.7194  2.2552
 5473WAT    EPW23699   4.672   1.047   0.389 -0.1125 -0.3025  0.0388
 5474WAT      O23700   0.161   6.889   8.104 -0.1484  0.3559 -0.2974
 5474WAT     H123701   0.194   6.977   8.086 -1.0263  1.3907  2.6576
 5474WAT     H223702   0.182   6.874   8.196 -1.9789 -1.6470 -0.1392
 5474WAT    EPW23703   0.168   6.899   8.114 -0.5056  0.2284  0.1130
 5475WAT      O23704   9.724   7.497   7.324 -0.4528  0.0301  0.0970
 5475WAT     H123705   9.756   7.416   7.365 -1.5595 -0.4670  0.0088
 5475WAT     H223706   9.672   7.467   7.250 -0.4391  0.8532 -0.2549
 5475WAT    EPW23707   9.722   7.482   7.319 -0.5965  0.0732  0.0389
 5476WAT      O23708   8.183   8.271   5.425 -0.0625  0.3407  0.5384
 5476WAT     H123709   8.209   8.251   5.515 -2.1325 -1.3268  0.8486
 5476WAT     H223710   8.181   8.367   5.421  0.7712  0.4475  2.0310
 5476WAT    EPW23711   8.186   8.281   5.436 -0.2255  0.1349  0.7761
 5477WAT      O23712   2.596   5.153   6.289 -1.1432 -0.1334 -0.2415
 5477WAT     H123713   2.637   5.199   6.216  1.1537  1.8474  2.0956
 5477WAT     H223714   2.645   5.071   6.298  0.1574  0.6839  0.4377
 5477WAT    EPW23715   2.607   5.148   6.281 -0.6686  0.2353  0.1564
 5478WAT      O23716   1.515   7.183   5.452  0.8252  0.1700  0.3050
 5478WAT     H123717   1.518   7.239   5.375  0.2851 -1.5053 -0.9700
 5478WAT     H223718   1.473   7.238   5.519 -0.2757  1.0956 -1.0773
 5478WAT    EPW23719   1.510   7.198   5.451  0.6087  0.0713 -0.0455
 5479WAT      O23720   7.147   9.415   8.152  0.7811  0.5258  0.3717
 5479WAT     H123721   7.242   9.423   8.161  1.0167 -1.7652  0.4715
 5479WAT     H223722   7.135   9.343   8.090 -0.8843 -0.0208  1.2756
 5479WAT    EPW23723   7.158   9.407   8.145  0.5925  0.1521  0.5045
 5480WAT      O23724  10.709   4.894   7.479 -0.2473 -0.2712 -0.0586
 5480WAT     H123725  10.645   4.959   7.506  0.1263 -0.4036  1.2439
 5480WAT     H223726  10.743   4.859   7.562  1.5476 -0.1543 -0.7008
 5480WAT    EPW23727  10.705   4.898   7.494  0.0391 -0.2732  0.0286
 5481WAT      O23728   9.430   7.348   3.580  0.7023 -0.1345 -0.0290
 5481WAT     H123729   9.369   7.286   3.541 -0.1308  1.3346 -1.1676
 5481WAT     H223730   9.517   7.313   3.559  0.3399 -2.4485  1.9382
 5481WAT    EPW23731   9.434   7.335   3.572  0.5450 -0.2458  0.0802
 5482WAT      O23732   8.787   7.604   7.855  0.5189  0.1000  0.1654
 5482WAT     H123733   8.793   7.558   7.771  0.1086  1.0378 -0.3900
 5482WAT     H223734   8.859   7.668   7.852  0.2858  0.3723  0.3753
 5482WAT    EPW23735   8.798   7.606   7.843  0.4344  0.2594  0.1199
 5483WAT      O23736   0.909   5.892   8.646 -0.3949 -0.0780 -0.0969
 5483WAT     H123737   0.963   5.968   8.669  0.6054 -0.3527 -1.3914
 5483WAT     H223738   0.856   5.923   8.572  2.5210 -1.4974 -3.0442
 5483WAT    EPW23739   0.909   5.906   8.639  0.1217 -0.3014 -0.6561
 5484WAT      O23740   0.148   5.560   4.700  0.2208 -0.9463 -0.8592
 5484WAT     H123741   0.149   5.630   4.765  2.6031  0.5192 -2.3000
 5484WAT     H223742   0.196   5.488   4.741 -2.2671 -1.8562  0.6437
 5484WAT    EPW23743   0.155   5.560   4.714  0.2069 -0.8731 -0.8509
 5485WAT      O23744   6.417   6.418   6.459  0.0444  0.0809  0.3650
 5485WAT     H123745   6.495   6.443   6.508 -0.7208  2.3920  0.5544
 5485WAT     H223746   6.429   6.457   6.373  0.1359 -1.5874 -0.4077
 5485WAT    EPW23747   6.429   6.427   6.454 -0.0443  0.1657  0.2882
 5486WAT      O23748   6.546   2.711   0.034 -0.1323  0.4662  0.4030
 5486WAT     H123749   6.641   2.713   0.020  0.0399 -1.9702  0.7098
 5486WAT     H223750   6.509   2.703  -0.054  0.1094 -0.5819  0.3751
 5486WAT    EPW23751   6.554   2.710   0.020 -0.0777  0.0067  0.4398
 5487WAT      O23752   0.837   9.597   6.978 -0.5396  0.1679 -0.9210
 5487WAT     H123753   0.906   9.577   6.914 -0.8876 -2.5012 -0.5576
 5487WAT     H223754   0.861   9.548   7.056 -1.5319  1.2649  0.1136
 5487WAT    EPW23755   0.850   9.588   6.980 -0.7164 -0.0405 -0.7367
 5488WAT      O23756   8.696   8.451   4.907  0.8117  0.7074  0.3952
 5488WAT     H123757   8.788   8.449   4.934  0.6516 -0.2081  0.9097
 5488WAT     H223758   8.680   8.363   4.871 -0.2141  0.4032  1.5431
 5488WAT    EPW23759   8.706   8.439   4.906  0.6557  0.5465  0.6144
 5489WAT      O23760   8.397   4.708   0.253 -0.1142  0.0541  0.2693
 5489WAT     H123761   8.450   4.666   0.320  0.1080  0.3062  0.2509
 5489WAT     H223762   8.349   4.636   0.212  2.7206 -0.7408 -2.0201
 5489WAT    EPW23763   8.398   4.693   0.256  0.2885 -0.0176 -0.0351
 5490WAT      O23764   0.992   5.781   6.480 -0.3510  0.0172  0.1261
 5490WAT     H123765   1.083   5.762   6.503  0.1990  0.3041 -1.6935
 5490WAT     H223766   0.990   5.776   6.385 -1.6095  2.7470 -0.0784
 5490WAT    EPW23767   1.004   5.778   6.471 -0.4445  0.4151 -0.1409
 5491WAT      O23768  10.631   7.928   8.050 -0.5851 -0.6012  0.1084
 5491WAT     H123769  10.573   7.937   7.975  1.3606 -1.3134 -1.5852
 5491WAT     H223770  10.638   7.834   8.064  0.5131 -0.5511 -0.0237
 5491WAT    EPW23771  10.625   7.917   8.042 -0.1836 -0.6883 -0.1326
 5492WAT      O23772   9.516   6.639   5.567  0.0337 -0.7665 -0.2569
 5492WAT     H123773   9.575   6.649   5.492 -0.3950 -1.6110 -0.7339
 5492WAT     H223774   9.507   6.544   5.577  0.4453 -0.6802  1.1689
 5492WAT    EPW23775   9.523   6.628   5.558  0.0310 -0.8667 -0.1316
 5493WAT      O23776   2.089   8.700   8.646 -0.4086 -0.0122  0.0270
 5493WAT     H123777   2.074   8.662   8.559 -2.6073 -0.4630  0.5395
 5493WAT     H223778   2.128   8.786   8.628  2.1892 -1.3662 -1.2400
 5493WAT    EPW23779   2.092   8.707   8.632 -0.3558 -0.2503 -0.0725
 5494WAT      O23780  10.776   7.223   4.454  0.1153  0.3170  0.6326
 5494WAT     H123781  10.740   7.136   4.470 -3.3071  0.8245 -2.9163
 5494WAT     H223782  10.784   7.229   4.359  0.7820  3.6983  0.7663
 5494WAT    EPW23783  10.772   7.212   4.443 -0.2475  0.8299  0.1822
 5495WAT      O23784   1.743   9.198   5.655 -0.7587  0.4364 -0.0593
 5495WAT     H123785   1.659   9.239   5.676 -1.1526 -0.2249 -0.3032
 5495WAT     H223786   1.744   9.192   5.560 -1.3551 -1.3790  0.0026
 5495WAT    EPW23787   1.732   9.202   5.645 -0.8893  0.1097 -0.0834
 5496WAT      O23788   2.128   3.652   4.531 -0.7506 -0.3238  0.1509
 5496WAT     H123789   2.070   3.622   4.461 -0.1544 -1.0208 -0.0611
 5496WAT     H223790   2.205   3.595   4.524 -0.0750  0.5339  0.4727
 5496WAT    EPW23791   2.131   3.640   4.521 -0.5829 -0.3026  0.1652
 5497WAT      O23792   2.047   9.730   0.033  0.6573  0.1168 -0.1521
 5497WAT     H123793   2.133   9.767   0.013  0.4864  0.3695 -0.4161
 5497WAT     H223794   1.985   9.788  -0.010  0.3664 -0.2382 -0.2121
 5497WAT    EPW23795   2.050   9.743   0.025  0.5964  0.1035 -0.1949
 5498WAT      O23796   1.220   2.519   4.604 -0.0548  0.1923  0.8469
 5498WAT     H123797   1.136   2.474   4.596 -0.2913  0.9229 -1.3673
 5498WAT     H223798   1.197   2.610   4.624  0.1530  0.5361 -0.4171
 5498WAT    EPW23799   1.206   2.525   4.606 -0.0587  0.3340  0.3881
 5499WAT      O23800   2.224   7.365   4.824  0.7101  0.3501  0.3093
 5499WAT     H123801   2.216   7.294   4.760  1.8073 -2.1566  2.7672
 5499WAT     H223802   2.301   7.414   4.795  0.8576 -0.3702 -0.5807
 5499WAT    EPW23803   2.233   7.362   4.812  0.8743 -0.0756  0.5162
 5500WAT      O23804   9.527   6.695   3.991 -0.2679 -0.2859 -0.1031
 5500WAT     H123805   9.532   6.668   4.083 -2.0874  0.8866  0.3914
 5500WAT     H223806   9.606   6.658   3.951  2.6162  2.1664  2.6801
 5500WAT    EPW23807   9.538   6.687   3.998 -0.1273  0.1924  0.3293
 5501WAT      O23808   9.435   9.013   5.258 -0.0596 -0.0792  0.1872
 5501WAT     H123809   9.479   9.023   5.173 -0.3596  1.1745  0.1602
 5501WAT     H223810   9.373   8.942   5.244 -0.4001  0.3838 -0.7739
 5501WAT    EPW23811   9.433   9.005   5.245 -0.1440  0.1473  0.0570
 5502WAT      O23812   0.012  10.276   5.749  0.2058  0.6787  0.0144
 5502WAT     H123813   0.005  10.356   5.801 -0.9758 -0.6032  1.9459
 5502WAT     H223814  -0.077  10.241   5.745  0.1948  0.8008 -3.1422
 5502WAT    EPW23815  -0.000  10.282   5.755  0.0486  0.5255 -0.1473
 5503WAT      O23816  10.548   4.692   7.386  0.2463 -0.1530 -0.8587
 5503WAT     H123817  10.610   4.752   7.426  0.8748 -1.6505  0.5211
 5503WAT     H223818  10.574   4.688   7.294  0.5703  1.1744 -0.8441
 5503WAT    EPW23819  10.559   4.700   7.379  0.3710 -0.1755 -0.6747
 5504WAT      O23820   5.237   3.994   1.246  0.3114  0.4286 -1.0096
 5504WAT     H123821   5.285   4.064   1.290 -1.6384  1.9935 -1.2727
 5504WAT     H223822   5.251   4.010   1.152  1.3884 -0.7034 -1.0801
 5504WAT    EPW23823   5.245   4.005   1.239  0.1960  0.4857 -1.0535
 5505WAT      O23824   1.133   7.929   6.455 -0.1823 -0.3423  0.6232
 5505WAT     H123825   1.179   7.969   6.528  3.7868 -2.0998 -0.6485
 5505WAT     H223826   1.089   7.853   6.492  0.5020 -0.3423  1.4526
 5505WAT    EPW23827   1.133   7.924   6.469  0.4314 -0.5739  0.5651
 5506WAT      O23828   1.310   5.275   5.016  0.2911 -0.6733 -0.2960
 5506WAT     H123829   1.394   5.238   4.987 -0.1180 -1.3187 -0.6929
 5506WAT     H223830   1.274   5.317   4.938  0.8897  0.8786  0.2223
 5506WAT    EPW23831   1.316   5.275   5.002  0.3161 -0.5538 -0.2799
 5507WAT      O23832   6.888   1.319   1.015  0.6347 -0.4056  0.3636
 5507WAT     H123833   6.868   1.295   0.925 -1.0712 -4.2274  1.5636
 5507WAT     H223834   6.922   1.239   1.055  1.2765  1.1253  3.1572
 5507WAT    EPW23835   6.890   1.306   1.008  0.4942 -0.7078  0.8903
 5508WAT      O23836   0.392   3.807   6.318 -0.6242 -0.0364 -0.2465
 5508WAT     H123837   0.364   3.760   6.397  0.1556  0.1584  0.1681
 5508WAT     H223838   0.349   3.892   6.325  0.8484  0.6639  0.9478
 5508WAT    EPW23839   0.383   3.812   6.330 -0.3271  0.0817 -0.0343
 5509WAT      O23840   9.649   4.586   4.300 -0.2740  0.2422 -0.0112
 5509WAT     H123841   9.679   4.631   4.380 -0.3529 -0.1056  0.2151
 5509WAT     H223842   9.557   4.611   4.293 -0.2031  0.4756 -0.1370
 5509WAT    EPW23843   9.641   4.595   4.310 -0.2751  0.2270  0.0021
 5510WAT      O23844   8.860   9.853   6.588  0.3972  0.1528 -0.5731
 5510WAT     H123845   8.820   9.771   6.619 -1.0239  0.8631 -0.4431
 5510WAT     H223846   8.876   9.837   6.495  2.5440 -1.1659 -0.0476
 5510WAT    EPW23847   8.857   9.840   6.579  0.4930  0.0725 -0.4866
 5511WAT      O23848   8.626   8.881   8.774 -0.0145 -0.1915 -0.1135
 5511WAT     H123849   8.587   8.824   8.708 -1.6773  2.2397 -1.3954
 5511WAT     H223850   8.654   8.959   8.725 -0.6104  1.3801  1.9140
 5511WAT    EPW23851   8.625   8.884   8.759 -0.3128  0.3366 -0.0153
 5512WAT      O23852   6.013   4.648   6.236 -0.3943  0.1121 -0.1708
 5512WAT     H123853   5.927   4.608   6.223 -0.0427 -0.7474  0.0880
 5512WAT     H223854   6.001   4.740   6.210 -1.8543  0.4662  1.5754
 5512WAT    EPW23855   6.000   4.655   6.231 -0.5407  0.0458  0.0937
 5513WAT      O23856   4.989   2.463   0.658 -0.1490 -0.4867  0.1288
 5513WAT     H123857   4.956   2.419   0.736  0.2817 -0.0655  0.5640
 5513WAT     H223858   5.054   2.526   0.692 -0.3817  0.1160 -0.5125
 5513WAT    EPW23859   4.993   2.466   0.673 -0.1228 -0.3518  0.1017
 5514WAT      O23860   9.814   3.717   3.332  0.1175 -0.5037  0.0209
 5514WAT     H123861   9.815   3.790   3.270  0.0577  0.1522  0.7737
 5514WAT     H223862   9.826   3.759   3.417  2.2303 -1.5563  0.2950
 5514WAT    EPW23863   9.816   3.733   3.335  0.3886 -0.5561  0.1564
 5515WAT      O23864   3.031   8.057   7.406 -0.3686 -0.8698  0.2677
 5515WAT     H123865   2.961   8.037   7.468 -2.3432  1.8663 -0.8713
 5515WAT     H223866   3.012   8.003   7.329  0.4970 -2.2303  0.9714
 5515WAT    EPW23867   3.019   8.047   7.404 -0.5146 -0.6886  0.2100
 5516WAT      O23868   0.280   6.410   8.135  0.1051 -0.3465  0.1961
 5516WAT     H123869   0.326   6.439   8.214  0.1629 -1.6854  0.6810
 5516WAT     H223870   0.190   6.439   8.148 -0.2235 -1.8138  1.4700
 5516WAT    EPW23871   0.274   6.418   8.147  0.0694 -0.7167  0.4282
 5517WAT      O23872   8.857   6.000   8.821  1.1490  0.6361  0.2163
 5517WAT     H123873   8.923   5.931   8.821  0.8907  0.3882  0.1827
 5517WAT     H223874   8.816   5.993   8.908  0.4635  0.1156 -0.1447
 5517WAT    EPW23875   8.861   5.990   8.833  1.0247  0.5348  0.1645
 5518WAT      O23876   6.126   6.874   7.805  0.1924 -0.1783  0.1136
 5518WAT     H123877   6.120   6.932   7.729 -1.1623  3.2978  2.6572
 5518WAT     H223878   6.069   6.800   7.783  0.6170  0.1921 -2.5657
 5518WAT    EPW23879   6.118   6.872   7.792  0.0699  0.3290  0.0956
 5519WAT      O23880   1.013   7.231   7.038 -0.5405 -0.4302 -0.6691
 5519WAT     H123881   1.047   7.220   6.949 -1.7445 -0.8537 -1.1023
 5519WAT     H223882   0.918   7.235   7.027 -0.6326  2.6034  0.2834
 5519WAT    EPW23883   1.005   7.230   7.025 -0.7114 -0.0858 -0.6008
 5520WAT      O23884   1.076   5.382   7.618  0.5060 -0.6405  0.0316
 5520WAT     H123885   1.063   5.289   7.633  1.1417 -1.3497 -3.1145
 5520WAT     H223886   1.163   5.388   7.578  0.0842  1.1575 -0.7270
 5520WAT    EPW23887   1.086   5.371   7.614  0.5343 -0.4969 -0.4833
 5521WAT      O23888   3.105   5.624   6.313 -0.4042  0.0087 -0.0226
 5521WAT     H123889   3.129   5.555   6.374  1.4235  0.6583  0.0605
 5521WAT     H223890   3.123   5.705   6.360 -3.3486  0.6199  0.2059
 5521WAT    EPW23891   3.111   5.626   6.327 -0.5515  0.1748  0.0188
 5522WAT      O23892   1.132   6.504   8.222  0.0871  0.7880  0.5164
 5522WAT     H123893   1.055   6.449   8.209  0.3500  0.0289  1.9366
 5522WAT     H223894   1.182   6.459   8.290  1.7583  1.2968 -0.3097
 5522WAT    EPW23895   1.129   6.491   8.229  0.3422  0.7548  0.5951
 5523WAT      O23896   9.763   8.279   7.995 -0.6168  0.2654  0.6426
 5523WAT     H123897   9.858   8.294   7.998 -0.2851 -1.7385  1.8719
 5523WAT     H223898   9.732   8.307   8.081 -1.1393  0.7584  0.3025
 5523WAT    EPW23899   9.771   8.285   8.006 -0.6418  0.0663  0.7601
 5524WAT      O23900   9.737   8.358   6.437 -0.2924 -0.4520 -0.2209
 5524WAT     H123901   9.650   8.367   6.475 -0.1735  0.3936 -0.1230
 5524WAT     H223902   9.793   8.411   6.493  0.1346 -0.3123 -0.7656
 5524WAT    EPW23903   9.733   8.366   6.449 -0.2203 -0.3219 -0.2799
 5525WAT      O23904   4.980   0.944   2.567 -0.3138 -0.4982 -0.1927
 5525WAT     H123905   5.069   0.923   2.540 -0.4401 -2.2734  0.6567
 5525WAT     H223906   4.934   0.963   2.485  0.0184 -2.9117 -1.0128
 5525WAT    EPW23907   4.986   0.944   2.553 -0.2866 -1.0507 -0.1888
 5526WAT      O23908   2.375   5.514   7.021  0.1511  0.1154  0.8993
 5526WAT     H123909   2.312   5.549   6.958 -0.2872 -0.4103  1.0394
 5526WAT     H223910   2.395   5.588   7.078  0.6827  0.6534  0.0501
 5526WAT    EPW23911   2.369   5.528   7.020  0.1634  0.1168  0.8059
 5527WAT      O23912   1.250   7.931   5.196  0.6972 -0.3284 -0.3951
 5527WAT     H123913   1.244   7.882   5.278  0.2119 -0.8793 -0.7515
 5527WAT     H223914   1.166   7.976   5.189  0.6356 -0.4910 -0.7169
 5527WAT    EPW23915   1.238   7.931   5.206  0.6251 -0.4222 -0.4845
 5528WAT      O23916   9.388   9.382   2.475  0.2248  0.1726 -0.0738
 5528WAT     H123917   9.305   9.357   2.514  1.6278 -0.6815  2.6577
 5528WAT     H223918   9.384   9.477   2.467 -0.5112  0.2931  1.3958
 5528WAT    EPW23919   9.377   9.391   2.479  0.3128  0.0758  0.4804
 5529WAT      O23920   2.029   4.783   7.286  0.3075 -0.0731  0.2367
 5529WAT     H123921   2.092   4.853   7.267 -0.6401  0.8263  0.3016
 5529WAT     H223922   2.071   4.731   7.355  1.1026  0.3362  0.0743
 5529WAT    EPW23923   2.043   4.786   7.293  0.2874  0.0994  0.2239
 5530WAT      O23924   9.002   7.815   6.064  0.0844  0.5054 -0.4799
 5530WAT     H123925   9.056   7.876   6.116 -0.0459  0.3047 -0.1014
 5530WAT     H223926   8.949   7.872   6.009 -0.9730  0.8079  0.7917
 5530WAT    EPW23927   9.002   7.831   6.064 -0.0720  0.5190 -0.2623
 5531WAT      O23928   2.366   0.518   6.096  0.2532 -0.2349 -0.1702
 5531WAT     H123929   2.380   0.611   6.077  0.1316 -0.2504 -0.3464
 5531WAT     H223930   2.324   0.484   6.017  0.7751 -0.5583 -0.3130
 5531WAT    EPW23931   2.362   0.526   6.083  0.3059 -0.2796 -0.2120
 5532WAT      O23932   8.375   5.721   7.993 -0.6728  0.1227 -1.2599
 5532WAT     H123933   8.287   5.756   8.007 -1.2494 -1.4335 -0.9134
 5532WAT     H223934   8.431   5.799   7.995 -1.5799  0.8376  2.0655
 5532WAT    EPW23935   8.371   5.736   7.995 -0.8683  0.0117 -0.7758
 5533WAT      O23936   9.468   6.399   2.736  0.5901 -0.9259  0.2804
 5533WAT     H123937   9.423   6.466   2.686 -0.2378 -2.5215 -1.2134
 5533WAT     H223938   9.551   6.439   2.762  0.5624  0.3206 -1.4428
 5533WAT    EPW23939   9.473   6.413   2.733  0.4773 -0.9718 -0.1439
 5534WAT      O23940   9.884   6.389   5.805 -0.8384  0.0103  0.6543
 5534WAT     H123941   9.976   6.415   5.801 -1.1879  1.4146  1.0825
 5534WAT     H223942   9.855   6.417   5.892 -1.4602 -1.2062  0.8681
 5534WAT    EPW23943   9.892   6.396   5.816 -0.9665  0.0350  0.7391
 5535WAT      O23944  10.522   7.904   1.343  0.0622 -0.2307  1.0693
 5535WAT     H123945  10.525   7.973   1.409  3.6727  1.4222 -0.5433
 5535WAT     H223946  10.590   7.842   1.369 -1.1013 -1.6487  0.8739
 5535WAT    EPW23947  10.531   7.905   1.355  0.3848 -0.1996  0.8309
 5536WAT      O23948   1.596   6.682   7.330 -0.5715 -0.4177  0.0057
 5536WAT     H123949   1.506   6.713   7.340 -0.0098  1.6399 -0.6894
 5536WAT     H223950   1.632   6.686   7.419 -1.1293 -1.2001  0.2778
 5536WAT    EPW23951   1.589   6.687   7.343 -0.5710 -0.2494 -0.0501
 5537WAT      O23952   1.321   4.924   5.714 -0.0003 -0.2278 -0.5023
 5537WAT     H123953   1.336   4.835   5.682 -1.3320 -0.6046 -0.1541
 5537WAT     H223954   1.406   4.953   5.746  1.1666 -0.2458 -3.2968
 5537WAT    EPW23955   1.334   4.916   5.714 -0.0221 -0.2797 -0.8249
 5538WAT      O23956   0.323   0.080   1.381  0.6257 -0.4658 -0.1573
 5538WAT     H123957   0.373  -0.001   1.375 -0.9369 -1.6841  1.9404
 5538WAT     H223958   0.238   0.054   1.417  0.1339  2.1233  0.8174
 5538WAT    EPW23959   0.318   0.066   1.385  0.3548 -0.2850  0.2480
 5539WAT      O23960   6.609   1.685   0.026 -0.0105  0.1278 -0.4475
 5539WAT     H123961   6.697   1.707  -0.004 -0.9002  2.3363 -1.7016
 5539WAT     H223962   6.588   1.750   0.092 -1.4798  1.1038 -1.7854
 5539WAT    EPW23963   6.618   1.696   0.031 -0.3216  0.5478 -0.7894
 5540WAT      O23964   8.551   5.615   5.626  0.2374 -0.4348 -0.1887
 5540WAT     H123965   8.626   5.614   5.567  1.0383  1.3418  0.7226
 5540WAT     H223966   8.578   5.564   5.702  0.2250 -0.4614 -0.2024
 5540WAT    EPW23967   8.564   5.608   5.628  0.3414 -0.2038 -0.0703
 5541WAT      O23968   0.083   7.993   5.884  0.0719  0.3494 -0.7872
 5541WAT     H123969  -0.011   7.992   5.900  0.2531  0.3519  0.3328
 5541WAT     H223970   0.120   7.936   5.951  1.1315  2.6655  0.7123
 5541WAT    EPW23971   0.075   7.985   5.895  0.2356  0.6554 -0.4416
 5542WAT      O23972   1.190   5.187   7.853 -0.8818 -0.0501 -0.3087
 5542WAT     H123973   1.257   5.243   7.893 -3.1471  0.8664  2.5501
 5542WAT     H223974   1.240   5.124   7.801  1.8909  4.8357 -4.4992
 5542WAT    EPW23975   1.206   5.186   7.851 -0.8149  0.7150 -0.4840
 5543WAT      O23976  10.566   9.065   5.440  0.4390 -0.3389 -0.2877
 5543WAT     H123977  10.527   8.984   5.472  3.2535 -1.4943  0.5635
 5543WAT     H223978  10.555   9.128   5.512  0.9872 -0.9626  0.3610
 5543WAT    EPW23979  10.560   9.063   5.454  0.8826 -0.5732 -0.0899
 5544WAT      O23980   1.221   6.227   5.996  0.2247  0.1715 -0.2757
 5544WAT     H123981   1.285   6.268   6.053  2.9345 -3.5070 -0.3053
 5544WAT     H223982   1.180   6.160   6.050  0.1005 -0.8546 -1.5815
 5544WAT    EPW23983   1.224   6.223   6.011  0.5658 -0.4489 -0.4518
 5545WAT      O23984  10.404   6.934   5.170 -0.0027  0.3739  0.3276
 5545WAT     H123985  10.372   6.903   5.255 -1.0736 -2.8251 -1.0712
 5545WAT     H223986  10.327   6.973   5.128 -0.5450 -1.5216 -0.5595
 5545WAT    EPW23987  10.390   6.935   5.176 -0.2155 -0.2980  0.0260
 5546WAT      O23988   1.728   6.870   6.326 -0.7433  0.5210 -0.7524
 5546WAT     H123989   1.783   6.814   6.380 -1.2464 -0.4457 -1.2152
 5546WAT     H223990   1.694   6.812   6.258 -0.0300  1.7247 -2.1909
 5546WAT    EPW23991   1.730   6.855   6.324 -0.7156  0.5524 -1.0033
 5547WAT      O23992   6.730   5.218   0.222  0.2768 -0.5791 -0.9622
 5547WAT     H123993   6.818   5.201   0.188 -1.2773 -1.8977 -4.8925
 5547WAT     H223994   6.693   5.132   0.237  0.3680 -0.0777  3.4182
 5547WAT    EPW23995   6.737   5.205   0.220  0.0839 -0.6871 -0.9029
 5548WAT      O23996   0.812   9.130   6.807  0.4817  0.4377  0.1560
 5548WAT     H123997   0.784   9.054   6.756 -0.6227  0.6844  0.3653
 5548WAT     H223998   0.734   9.185   6.813  1.4453  1.9333 -0.5715
 5548WAT    EPW23999   0.798   9.127   6.801  0.4632  0.6676  0.0875
 5549WAT      O24000   8.358   1.575   3.732  0.1503  0.5384 -0.0150
 5549WAT     H124001   8.433   1.517   3.718  0.0123 -0.1099  1.7559
 5549WAT     H224002   8.305   1.564   3.653 -0.7602 -3.1494  0.9282
 5549WAT    EPW24003   8.361   1.566   3.720  0.0119 -0.0334  0.3430
 5550WAT      O24004   1.544   9.820   2.818  0.6775 -0.0574  0.5445
 5550WAT     H124005   1.548   9.879   2.742  0.1485 -1.4698 -0.6134
 5550WAT     H224006   1.614   9.757   2.803  1.8680  0.7628  2.2623
 5550WAT    EPW24007   1.554   9.820   2.806  0.7647 -0.1359  0.6183
 5551WAT      O24008   3.958   9.299   7.304  0.1333 -0.6589 -0.4899
 5551WAT     H124009   4.039   9.324   7.258  0.7226 -0.3988  0.6612
 5551WAT     H224010   3.971   9.329   7.394 -1.8325  0.6977 -0.5846
 5551WAT    EPW24011   3.971   9.307   7.310 -0.0484 -0.4463 -0.3505
 5552WAT      O24012   8.458   3.004   3.829  0.1180  0.2616 -0.6456
 5552WAT     H124013   8.539   2.955   3.839  2.1820  3.2722 -1.4933
 5552WAT     H224014   8.465   3.045   3.743 -1.8655  1.4098 -0.3164
 5552WAT    EPW24015   8.469   3.003   3.819  0.1283  0.8100 -0.7141
 5553WAT      O24016   8.540   2.765   6.023  0.1703 -0.2684  0.4719
 5553WAT     H124017   8.618   2.785   6.074  0.4197  1.6208 -0.5732
 5553WAT     H224018   8.547   2.671   6.004 -0.1181 -1.1828  4.1214
 5553WAT    EPW24019   8.551   2.755   6.027  0.1650 -0.1397  0.8154
 5554WAT      O24020   9.019   0.260   6.920 -0.2559 -0.4479  0.4609
 5554WAT     H124021   9.082   0.263   6.848 -1.0323  0.9560 -0.1907
 5554WAT     H224022   8.933   0.264   6.878 -0.7772 -1.4424  1.3807
 5554WAT    EPW24023   9.016   0.261   6.905 -0.4268 -0.3939  0.4964
 5555WAT      O24024   5.802   1.661   4.405  0.3120 -0.3826  0.7874
 5555WAT     H124025   5.841   1.668   4.493 -0.0148  0.0051  0.8992
 5555WAT     H224026   5.853   1.721   4.352 -0.2630  0.2898  0.9819
 5555WAT    EPW24027   5.814   1.670   4.410  0.1931 -0.2428  0.8273
 5556WAT      O24028   9.421   8.959   5.784 -0.7512 -0.5385 -0.0168
 5556WAT     H124029   9.381   8.934   5.867  1.6697 -1.1979  1.0374
 5556WAT     H224030   9.457   9.046   5.800 -4.1388  1.4417 -1.8965
 5556WAT    EPW24031   9.420   8.967   5.797 -0.8793 -0.3648 -0.1256
 5557WAT      O24032   8.893   3.415   8.574  0.2738  0.2460  0.1003
 5557WAT     H124033   8.985   3.431   8.550  2.1535 -1.2913  5.1181
 5557WAT     H224034   8.871   3.334   8.528  2.3160 -0.6624  0.5891
 5557WAT    EPW24035   8.902   3.406   8.565  0.7911 -0.0765  0.8268
 5558WAT      O24036   5.505   9.867   7.252  0.3521 -0.6561 -0.0180
 5558WAT     H124037   5.470   9.875   7.163 -0.7367 -1.2223  0.3383
 5558WAT     H224038   5.437   9.819   7.300  1.2854 -1.0678  0.9208
 5558WAT    EPW24039   5.491   9.862   7.247  0.3316 -0.7849  0.1531
 5559WAT      O24040  10.647   2.728   6.977  0.7846 -0.0166  0.5277
 5559WAT     H124041  10.572   2.689   7.023 -0.9765 -1.2037 -2.9685
 5559WAT     H224042  10.723   2.681   7.012 -0.0003  0.8590  3.8113
 5559WAT    EPW24043  10.647   2.716   6.988  0.4487 -0.0578  0.4997
 5560WAT      O24044  10.384   0.625   5.551 -0.5298  0.2000  0.0612
 5560WAT     H124045  10.354   0.715   5.537 -0.9175  0.3983  1.9857
 5560WAT     H224046  10.467   0.634   5.597 -0.5937 -0.4233  0.3028
 5560WAT    EPW24047  10.391   0.638   5.555 -0.5894  0.1440  0.3469
 5561WAT      O24048   7.554   9.876   6.023  0.5863  0.4900  0.4248
 5561WAT     H124049   7.521   9.935   6.091 -3.4584 -1.4994  0.5086
 5561WAT     H224050   7.564   9.792   6.067  2.2617  0.1223 -0.5702
 5561WAT    EPW24051   7.551   9.873   6.038  0.2739  0.1793  0.3045
 5562WAT      O24052   4.021   9.752   4.911 -0.0028  0.8450  0.3852
 5562WAT     H124053   4.086   9.822   4.905 -3.2203  4.1793  0.4603
 5562WAT     H224054   4.000   9.747   5.004 -0.2777  0.2405  0.2936
 5562WAT    EPW24055   4.027   9.760   4.922 -0.4635  1.2050  0.3829
 5563WAT      O24056   1.797   3.481   2.131 -0.0105  0.5516 -0.2257
 5563WAT     H124057   1.870   3.543   2.136  0.7325 -0.2698 -0.6304
 5563WAT     H224058   1.800   3.433   2.213 -0.3235  0.7647 -0.0897
 5563WAT    EPW24059   1.807   3.483   2.142  0.0462  0.4715 -0.2613
 5564WAT      O24060   0.390   4.444   8.459  0.4019  0.3945 -0.0203
 5564WAT     H124061   0.357   4.378   8.519 -1.5692  1.4969  0.2055
 5564WAT     H224062   0.401   4.523   8.512  1.4732  0.6146 -0.5335
 5564WAT    EPW24063   0.387   4.446   8.474  0.2833  0.5691 -0.0582
 5565WAT      O24064   6.380   9.628   6.473 -0.6031 -0.3056  0.2095
 5565WAT     H124065   6.296   9.659   6.440  0.0500 -0.4936 -1.7298
 5565WAT     H224066   6.376   9.533   6.465  0.7472 -0.2191 -2.5171
 5565WAT    EPW24067   6.368   9.619   6.468 -0.3386 -0.3185 -0.4060
 5566WAT      O24068  10.488   0.970   5.204  0.6184 -0.2600 -0.2942
 5566WAT     H124069  10.422   0.975   5.135 -0.0465  4.0765  0.3270
 5566WAT     H224070  10.441   0.938   5.280  0.5183 -1.8730 -1.0082
 5566WAT    EPW24071  10.473   0.967   5.205  0.5174  0.0992 -0.3066
 5567WAT      O24072   3.118   9.628   6.459 -0.2677  0.4437  0.2763
 5567WAT     H124073   3.097   9.712   6.500 -1.2855 -0.3722  1.4888
 5567WAT     H224074   3.137   9.650   6.368  1.0440  2.1855  0.9208
 5567WAT    EPW24075   3.118   9.642   6.452 -0.2290  0.5660  0.5212
 5568WAT      O24076  10.329   0.297   2.823 -0.4422 -0.3528 -0.1983
 5568WAT     H124077  10.381   0.300   2.903  1.1038 -0.3744 -1.1464
 5568WAT     H224078  10.377   0.353   2.762 -1.7596 -0.0765 -1.0212
 5568WAT    EPW24079  10.342   0.304   2.825 -0.4120 -0.3192 -0.4320
 5569WAT      O24080   8.988   1.626   4.767 -0.0058 -0.4496  0.0961
 5569WAT     H124081   8.918   1.691   4.772  0.9967  0.7316 -0.4858
 5569WAT     H224082   9.021   1.618   4.856 -0.6122 -0.7143  0.2999
 5569WAT    EPW24083   8.983   1.633   4.779  0.0472 -0.3288  0.0463
 5570WAT      O24084   6.865   2.527   5.170 -0.4995 -0.3191 -0.2416
 5570WAT     H124085   6.788   2.552   5.119  0.5589 -1.2864 -2.4803
 5570WAT     H224086   6.917   2.474   5.109  0.8411 -1.6233  1.9188
 5570WAT    EPW24087   6.861   2.523   5.155 -0.1831 -0.6186 -0.2518
 5571WAT      O24088   8.533   1.200   4.784  0.0551  0.6021 -0.0947
 5571WAT     H124089   8.455   1.150   4.807  0.1701 -0.0440 -1.0687
 5571WAT     H224090   8.574   1.150   4.713  1.9342  0.3650  1.0976
 5571WAT    EPW24091   8.528   1.187   4.778  0.3181  0.4856 -0.0660
 5572WAT      O24092   7.127   9.529   4.259 -0.0903  0.2974  0.1899
 5572WAT     H124093   7.133   9.434   4.253  1.4805  0.4814 -3.4273
 5572WAT     H224094   7.210   9.562   4.225 -1.3030  2.9751 -0.4967
 5572WAT    EPW24095   7.138   9.521   4.254 -0.0429  0.6742 -0.3777
 5573WAT      O24096   9.873   1.689   2.390 -0.8312 -0.0122  0.3020
 5573WAT     H124097   9.932   1.695   2.315 -1.5791 -2.0794 -0.5074
 5573WAT     H224098   9.828   1.774   2.392 -0.0742  0.4408 -0.9623
 5573WAT    EPW24099   9.875   1.701   2.381 -0.8302 -0.2251  0.0284
 5574WAT      O24100  10.193   0.642   5.033  1.2215 -0.4077  0.5246
 5574WAT     H124101  10.244   0.630   5.113 -0.1494  1.2204  1.7275
 5574WAT     H224102  10.122   0.578   5.040  0.6888  0.2271  0.9853
 5574WAT    EPW24103  10.190   0.632   5.044  0.9704 -0.1093  0.7443
 5575WAT      O24104   7.639   3.051   2.504 -0.0731 -0.4665 -0.0328
 5575WAT     H124105   7.728   3.053   2.469 -0.6535 -0.5424 -1.6009
 5575WAT     H224106   7.588   3.008   2.436 -1.4544  0.2914  0.4876
 5575WAT    EPW24107   7.644   3.046   2.491 -0.3319 -0.3766 -0.1711
 5576WAT      O24108   8.285   1.507   6.693  0.0349 -0.3241  0.0300
 5576WAT     H124109   8.324   1.426   6.660  1.3781 -0.3387  1.4990
 5576WAT     H224110   8.275   1.492   6.787  1.1352  1.4850  0.4957
 5576WAT    EPW24111   8.289   1.495   6.701  0.3581 -0.0874  0.2854
 5577WAT      O24112   6.695   2.375   4.607 -0.3560 -0.1249 -0.3214
 5577WAT     H124113   6.658   2.462   4.619 -1.1497 -0.6621  1.5616
 5577WAT     H224114   6.666   2.326   4.684  3.1294 -1.0284  0.5835
 5577WAT    EPW24115   6.686   2.380   4.619 -0.0007 -0.3150  0.0460
 5578WAT      O24116   9.899   4.606   7.744  0.2877  0.7644  0.0549
 5578WAT     H124117   9.837   4.678   7.757  0.6057  0.7351  2.1235
 5578WAT     H224118   9.984   4.643   7.767  0.3432 -0.4377  2.0712
 5578WAT    EPW24119   9.902   4.620   7.749  0.3371  0.6020  0.5934
 5579WAT      O24120   3.578   7.078   0.780  0.9189  0.0149 -0.2479
 5579WAT     H124121   3.553   7.120   0.862  3.9514  1.2234  0.1773
 5579WAT     H224122   3.583   6.985   0.802 -1.4674 -0.1376 -0.0185
 5579WAT    EPW24123   3.575   7.071   0.794  1.0042  0.1543 -0.1616
 5580WAT      O24124   9.148   1.407   5.171  0.5533  0.1202 -0.2158
 5580WAT     H124125   9.144   1.489   5.220  2.4886  1.3684 -1.9670
 5580WAT     H224126   9.090   1.348   5.218 -1.2249  2.5937  0.9099
 5580WAT    EPW24127   9.140   1.410   5.184  0.5741  0.6110 -0.2985
 5581WAT      O24128   9.649   4.092   7.960  0.6946  0.1388  0.8234
 5581WAT     H124129   9.649   4.158   8.029  0.9889  2.2857 -1.1100
 5581WAT     H224130   9.741   4.070   7.948  0.7080  0.2982  0.6361
 5581WAT    EPW24131   9.661   4.098   7.968  0.7353  0.4430  0.5438
 5582WAT      O24132   9.633   9.381   6.293  0.3720  0.7826  0.2655
 5582WAT     H124133   9.656   9.345   6.207  0.3271 -2.1785  1.3674
 5582WAT     H224134   9.707   9.357   6.350 -1.4350 -1.2451  1.9480
 5582WAT    EPW24135   9.646   9.373   6.289  0.1283  0.1245  0.6330
 5583WAT      O24136   9.675   3.742   4.664  0.0013  0.7552  0.0689
 5583WAT     H124137   9.650   3.650   4.660  0.8706  0.5240 -0.3677
 5583WAT     H224138   9.755   3.743   4.717  0.7119  1.0822 -0.9801
 5583WAT    EPW24139   9.682   3.730   4.671  0.2098  0.7681 -0.1273
 5584WAT      O24140   2.895   9.423   0.937 -0.5529  0.7576 -0.6017
 5584WAT     H124141   2.921   9.447   1.026 -0.0211 -0.5697 -0.3731
 5584WAT     H224142   2.975   9.436   0.886  0.0428 -1.3038 -0.2958
 5584WAT    EPW24143   2.909   9.428   0.942 -0.4041  0.3114 -0.5312
 5585WAT      O24144   0.556   6.239   0.883 -0.1209 -0.1253  0.3334
 5585WAT     H124145   0.463   6.223   0.902 -0.2702  0.2332 -0.0581
 5585WAT     H224146   0.565   6.334   0.889  0.4885 -0.2499  1.5101
 5585WAT    EPW24147   0.545   6.250   0.886 -0.0602 -0.0947  0.4369
 5586WAT      O24148   8.364   0.026   6.005  0.7093 -0.1309  0.1169
 5586WAT     H124149   8.459   0.017   6.008  0.9121  1.7115  1.1668
 5586WAT     H224150   8.345   0.050   5.914  1.1199 -1.4051 -0.3206
 5586WAT    EPW24151   8.374   0.028   5.993  0.7901 -0.0560  0.1976
 5587WAT      O24152   6.569   8.130   4.522 -0.3594 -0.4812 -0.4074
 5587WAT     H124153   6.554   8.185   4.599  1.2510 -1.0268  0.3326
 5587WAT     H224154   6.594   8.191   4.453  1.2126 -0.2093  0.3522
 5587WAT    EPW24155   6.570   8.145   4.523  0.0606 -0.5174 -0.2093
 5588WAT      O24156   8.855   1.882   5.283 -0.4623  0.9402  0.1446
 5588WAT     H124157   8.901   1.906   5.202  1.5629 -2.0957  0.1879
 5588WAT     H224158   8.762   1.886   5.260  0.0061  1.5027 -1.9114
 5588WAT    EPW24159   8.849   1.886   5.269 -0.1330  0.6140 -0.1206
 5589WAT      O24160   7.397   1.544   7.215  0.3913  0.0520 -0.1591
 5589WAT     H124161   7.399   1.460   7.261 -1.0379  0.3409  0.4610
 5589WAT     H224162   7.345   1.601   7.271  0.2142  0.9717 -1.2300
 5589WAT    EPW24163   7.391   1.540   7.229  0.1793  0.2114 -0.2184
 5590WAT      O24164   8.607   0.101   5.746  0.0893  0.1100 -0.2737
 5590WAT     H124165   8.687   0.131   5.703 -0.9010  0.5056 -1.9154
 5590WAT     H224166   8.538   0.120   5.683 -1.2376 -0.7101  0.8952
 5590WAT    EPW24167   8.609   0.107   5.732 -0.2165  0.0540 -0.3362
 5591WAT      O24168   8.176   0.371   4.955  0.2230 -0.2138  0.0822
 5591WAT     H124169   8.131   0.421   4.886  1.5050  0.8129 -0.0588
 5591WAT     H224170   8.190   0.435   5.025  0.4692 -0.7997  0.5753
 5591WAT    EPW24171   8.172   0.386   4.955  0.4249 -0.1557  0.1290
 5592WAT      O24172   8.049   3.112   7.503  0.3345 -0.1862 -0.5912
 5592WAT     H124173   8.036   3.086   7.595 -1.1607 -2.1927 -1.2897
 5592WAT     H224174   7.963   3.144   7.476  0.7728  0.4056 -1.2945
 5592WAT    EPW24175   8.036   3.113   7.512  0.1955 -0.3726 -0.7763
 5593WAT      O24176   8.223   2.820   3.670  0.0984 -0.2820 -0.5520
 5593WAT     H124177   8.185   2.855   3.750 -2.6316  0.3247 -1.9957
 5593WAT     H224178   8.208   2.889   3.605  1.0284 -1.3015 -1.9012
 5593WAT    EPW24179   8.216   2.834   3.672 -0.1388 -0.3364 -0.9204
 5594WAT      O24180   6.171   5.840   7.382 -0.3952 -0.2987 -0.4598
 5594WAT     H124181   6.186   5.800   7.297 -2.1507 -0.7727 -0.5724
 5594WAT     H224182   6.224   5.920   7.380  0.4296 -0.8520 -1.5638
 5594WAT    EPW24183   6.180   5.845   7.371 -0.5178 -0.4342 -0.6204
 5595WAT      O24184   3.035   7.351   6.677  0.6948  0.1477  0.4322
 5595WAT     H124185   3.025   7.256   6.670 -1.3172  0.2747  0.9807
 5595WAT     H224186   3.050   7.367   6.770 -0.3522  0.4294  0.5730
 5595WAT    EPW24187   3.035   7.341   6.688  0.2913  0.2015  0.5233
 5596WAT      O24188   5.486   9.955   6.475  0.0981 -0.0921  0.0619
 5596WAT     H124189   5.475  10.051   6.476 -0.3314 -0.0970 -1.4263
 5596WAT     H224190   5.580   9.942   6.481  0.1951  0.4422 -0.2040
 5596WAT    EPW24191   5.497   9.966   6.476  0.0544 -0.0224 -0.1695
 5597WAT      O24192   6.548   2.227   4.443 -0.2578  0.5068 -0.0794
 5597WAT     H124193   6.511   2.311   4.415  3.5989  2.2937 -0.5243
 5597WAT     H224194   6.612   2.250   4.510  2.3855 -1.7475 -1.6075
 5597WAT    EPW24195   6.552   2.241   4.448  0.5996  0.4450 -0.3397
 5598WAT      O24196   9.968   1.935   4.775 -0.1079  0.1885 -0.6419
 5598WAT     H124197   9.966   1.859   4.717 -0.8306  1.0014 -1.7353
 5598WAT     H224198   9.878   1.946   4.805 -0.3079  1.3878 -1.5893
 5598WAT    EPW24199   9.956   1.927   4.771 -0.2298  0.4538 -0.9110
 5599WAT      O24200   5.952   9.545   4.381 -0.1419 -0.5533  1.3098
 5599WAT     H124201   5.941   9.630   4.423 -1.0937 -0.6198  1.2135
 5599WAT     H224202   5.991   9.490   4.449 -1.1354 -0.5021  1.9480
 5599WAT    EPW24203   5.956   9.549   4.396 -0.3984 -0.5555  1.3812
 5600WAT      O24204  10.648   1.315   4.837 -0.3167 -0.0985  0.8586
 5600WAT     H124205  10.694   1.361   4.766 -1.3401 -0.9332 -0.3724
 5600WAT     H224206  10.713   1.253   4.870  0.2511  0.4585  0.8270
 5600WAT    EPW24207  10.663   1.313   4.832 -0.3767 -0.1351  0.6921
 5601WAT      O24208   7.180   4.347   5.574  0.1566  0.9604 -0.1006
 5601WAT     H124209   7.239   4.279   5.541  0.6354  0.1962  2.1995
 5601WAT     H224210   7.166   4.405   5.498  0.0150 -1.4385 -2.0569
 5601WAT    EPW24211   7.186   4.345   5.559  0.2012  0.5431 -0.0553
 5602WAT      O24212   1.816   8.943   5.529 -0.4683 -0.1609 -0.6181
 5602WAT     H124213   1.894   8.966   5.477  0.3433  0.3201  0.7615
 5602WAT     H224214   1.782   9.027   5.559 -0.9792 -0.4312 -0.4353
 5602WAT    EPW24215   1.822   8.957   5.526 -0.4287 -0.1335 -0.4117
 5603WAT      O24216  10.201   1.460   8.516  0.1873 -0.5238  0.0980
 5603WAT     H124217  10.226   1.547   8.547 -1.1813  0.7145 -2.0560
 5603WAT     H224218  10.279   1.426   8.473 -0.2272  1.1609 -2.1146
 5603WAT    EPW24219  10.214   1.467   8.515 -0.0477 -0.1382 -0.4778
 5604WAT      O24220   8.432   3.799   2.761 -0.3573 -0.1378 -0.1027
 5604WAT     H124221   8.373   3.740   2.808 -2.3247  1.1770 -0.7792
 5604WAT     H224222   8.379   3.833   2.689  1.1467  1.3521 -0.5696
 5604WAT    EPW24223   8.417   3.796   2.758 -0.4187  0.2322 -0.2537
 5605WAT      O24224   7.750   0.568   6.130  0.1927 -0.5671  0.2230
 5605WAT     H124225   7.813   0.586   6.061  0.0609 -1.4905 -0.1493
 5605WAT     H224226   7.680   0.633   6.116  1.3654  0.9582  1.0959
 5605WAT    EPW24227   7.749   0.579   6.119  0.3302 -0.4877  0.2890
 5606WAT      O24228   9.119   2.884   7.143  0.3739  0.5773 -0.0446
 5606WAT     H124229   9.027   2.896   7.164  0.3420  2.1285 -0.9322
 5606WAT     H224230   9.165   2.915   7.222  0.1533  1.2885 -0.1866
 5606WAT    EPW24231   9.113   2.890   7.156  0.3409  0.8756 -0.1802
 5607WAT      O24232   0.097   4.286   7.570  0.0172 -0.0600 -0.1699
 5607WAT     H124233   0.134   4.270   7.657 -2.1710  1.4817  1.1304
 5607WAT     H224234   0.075   4.379   7.570 -2.9146 -0.6662 -1.1925
 5607WAT    EPW24235   0.099   4.296   7.582 -0.6581  0.0634 -0.1335
 5608WAT      O24236   0.220   0.120   5.953 -0.2550  0.0533 -1.1096
 5608WAT     H124237   0.300   0.172   5.949 -1.0681  2.0684  2.9488
 5608WAT     H224238   0.251   0.031   5.971  1.0999  0.4825 -1.1816
 5608WAT    EPW24239   0.235   0.115   5.955 -0.1835  0.3757 -0.5839
 5609WAT      O24240   1.145   4.987   1.811  0.1001 -0.6082 -0.1593
 5609WAT     H124241   1.237   4.984   1.785 -0.1653 -3.7873 -1.1055
 5609WAT     H224242   1.136   4.918   1.877 -1.4262  0.3257  0.6662
 5609WAT    EPW24243   1.156   4.978   1.816 -0.1363 -0.9043 -0.1752
 5610WAT      O24244   2.523   5.545   0.899 -0.0489  0.7936 -0.5218
 5610WAT     H124245   2.613   5.523   0.875 -0.8749 -1.7865 -1.5812
 5610WAT     H224246   2.523   5.543   0.995  0.7789 -0.4462 -0.5186
 5610WAT    EPW24247   2.535   5.542   0.908 -0.0488  0.2899 -0.6611
 5611WAT      O24248   8.331   2.493   4.025  0.5872  1.2328 -0.0891
 5611WAT     H124249   8.237   2.474   4.025  0.5909  1.2088 -0.2695
 5611WAT     H224250   8.345   2.542   3.944  1.0307 -0.3092 -1.0118
 5611WAT    EPW24251   8.320   2.497   4.014  0.6461  1.0263 -0.2346
 5612WAT      O24252   9.092   1.604   3.985 -0.1410 -0.8164  0.8596
 5612WAT     H124253   9.181   1.621   4.017 -0.3175 -0.6897  1.2979
 5612WAT     H224254   9.037   1.659   4.041 -0.6224 -1.9508  1.5328
 5612WAT    EPW24255   9.097   1.613   3.997 -0.2275 -0.9493  1.0062
 5613WAT      O24256   6.398   9.089   4.463 -0.5048  1.2497 -0.1780
 5613WAT     H124257   6.490   9.082   4.488 -0.4151  1.8191 -0.3207
 5613WAT     H224258   6.350   9.049   4.535 -0.0758 -0.5417 -0.8509
 5613WAT    EPW24259   6.404   9.083   4.475 -0.4363  1.0891 -0.2854
 5614WAT      O24260   6.648   8.081   5.984 -0.0755  0.6827 -0.0663
 5614WAT     H124261   6.682   8.058   6.070  3.2955  0.5340 -1.3015
 5614WAT     H224262   6.646   8.176   5.984  1.9031  0.7676 -0.4252
 5614WAT    EPW24263   6.652   8.090   5.995  0.6301  0.6747 -0.2766
 5615WAT      O24264   1.078   1.377   7.339  0.2655 -0.3089  0.1969
 5615WAT     H124265   1.148   1.418   7.288 -2.0675 -0.4068 -3.4411
 5615WAT     H224266   1.029   1.450   7.375 -0.5182 -0.0177 -1.3870
 5615WAT    EPW24267   1.081   1.392   7.337 -0.1456 -0.2834 -0.4919
 5616WAT      O24268   8.823   1.196   7.572 -0.3162  0.3943  0.3629
 5616WAT     H124269   8.782   1.234   7.650  1.1280  2.4735  0.1877
 5616WAT     H224270   8.754   1.197   7.506 -0.7360  1.3537  0.7996
 5616WAT    EPW24271   8.809   1.201   7.574 -0.1807  0.7951  0.3972
 5617WAT      O24272  10.378   3.099   6.231 -0.5299 -0.5808 -0.5575
 5617WAT     H124273  10.337   3.025   6.187 -0.8383  0.1752 -1.5670
 5617WAT     H224274  10.313   3.129   6.294 -2.0738  1.2685 -2.8605
 5617WAT    EPW24275  10.364   3.094   6.234 -0.7739 -0.2371 -0.9944
 5618WAT      O24276   6.813   0.416   4.252 -0.0171 -0.7290  0.5542
 5618WAT     H124277   6.869   0.416   4.329  2.2580  0.3589 -0.9585
 5618WAT     H224278   6.832   0.499   4.209  0.6542 -2.2536 -2.3784
 5618WAT    EPW24279   6.823   0.427   4.256  0.3715 -0.7866 -0.0322
 5619WAT      O24280   9.367   2.639   6.312 -0.1378  0.3725  0.4177
 5619WAT     H124281   9.408   2.697   6.377 -1.6180  0.2650  1.5129
 5619WAT     H224282   9.280   2.677   6.298 -0.2969 -0.3284 -0.5639
 5619WAT    EPW24283   9.361   2.651   6.319 -0.3538  0.2658  0.4327
 5620WAT      O24284   3.406   8.299   3.171  0.3513 -1.0565  0.0709
 5620WAT     H124285   3.390   8.208   3.145  0.1048 -1.0891  0.3380
 5620WAT     H224286   3.343   8.316   3.241 -1.1053 -0.0135 -1.4136
 5620WAT    EPW24287   3.396   8.289   3.177  0.1266 -0.9232 -0.0895
 5621WAT      O24288   6.920  10.113   4.462  1.1436  0.1670  0.0474
 5621WAT     H124289   6.867  10.186   4.495 -1.5978  0.0364 -3.4912
 5621WAT     H224290   6.970  10.151   4.390  0.9638 -1.0739 -0.7559
 5621WAT    EPW24291   6.920  10.128   4.457  0.7582 -0.0143 -0.5250
 5622WAT      O24292   7.213   9.059   4.440  0.3166 -0.0049 -0.2212
 5622WAT     H124293   7.155   8.987   4.466  0.0397  0.5567  0.7556
 5622WAT     H224294   7.170   9.138   4.472  1.8452  0.3928  1.0159
 5622WAT    EPW24295   7.200   9.060   4.448  0.4816  0.1221  0.0708
 5623WAT      O24296   8.577   3.312   7.164  0.5150  0.0848 -0.0974
 5623WAT     H124297   8.514   3.283   7.230  2.5029 -0.2290  1.7874
 5623WAT     H224298   8.646   3.355   7.215  2.0313  0.0316 -2.0156
 5623WAT    EPW24299   8.578   3.314   7.180  0.9775  0.0365 -0.1018
 5624WAT      O24300   5.753  10.186   7.693  0.3311  0.5089 -0.5664
 5624WAT     H124301   5.728  10.269   7.734 -0.7555  0.7145 -1.5996
 5624WAT     H224302   5.807  10.212   7.618  1.4730  0.1821  0.1171
 5624WAT    EPW24303   5.757  10.201   7.688  0.3383  0.4930 -0.6123
 5625WAT      O24304   6.735   9.134   6.124  0.6159 -0.7098 -0.1751
 5625WAT     H124305   6.749   9.220   6.162 -0.7627 -0.0884 -0.9760
 5625WAT     H224306   6.820   9.108   6.089  0.9926  0.4184 -0.1208
 5625WAT    EPW24307   6.748   9.142   6.124  0.4838 -0.4787 -0.2737
 5626WAT      O24308   7.976   3.501   8.435 -0.4988 -0.0968 -0.0082
 5626WAT     H124309   8.008   3.545   8.356  4.8562 -1.8541  0.7844
 5626WAT     H224310   7.964   3.571   8.499  0.1232  0.8815 -0.9405
 5626WAT    EPW24311   7.979   3.516   8.433  0.2894 -0.1996 -0.0272
 5627WAT      O24312   9.340   1.784   6.270  0.3090  0.2281 -0.2787
 5627WAT     H124313   9.418   1.743   6.307 -0.2028  0.1803  0.7790
 5627WAT     H224314   9.306   1.839   6.340 -2.7481 -2.6359  0.7319
 5627WAT    EPW24315   9.346   1.786   6.284 -0.1621 -0.1559 -0.0060
 5628WAT      O24316   4.121   5.646   0.500 -0.5627  0.0079 -0.0111
 5628WAT     H124317   4.214   5.663   0.516 -1.3093  3.1996  1.9121
 5628WAT     H224318   4.113   5.643   0.405  1.6963 -2.1335 -0.2113
 5628WAT    EPW24319   4.132   5.648   0.490 -0.3631  0.1462  0.2161
 5629WAT      O24320   6.943   9.747   5.825 -0.8034 -0.1133 -0.3827
 5629WAT     H124321   6.900   9.667   5.856 -0.8033 -0.6855 -1.8066
 5629WAT     H224322   7.020   9.755   5.881 -0.3467 -1.5823 -0.7676
 5629WAT    EPW24323   6.947   9.738   5.837 -0.7429 -0.3824 -0.6211
 5630WAT      O24324   8.256   2.378   5.761 -0.3602 -0.0581  0.4834
 5630WAT     H124325   8.295   2.345   5.680 -0.2493  2.5419 -0.6022
 5630WAT     H224326   8.284   2.469   5.766 -1.7636  0.3302  2.6014
 5630WAT    EPW24327   8.265   2.385   5.751 -0.5307  0.3361  0.6199
 5631WAT      O24328   0.038   3.946   6.520  0.1428 -0.6492  0.5195
 5631WAT     H124329   0.040   4.014   6.587  0.4734 -0.6389  0.4994
 5631WAT     H224330   0.129   3.935   6.494  0.4398 -2.8517  2.2706
 5631WAT    EPW24331   0.050   3.954   6.525  0.2255 -0.9383  0.7477
 5632WAT      O24332   4.835   0.012   4.724  0.2075  0.3974  0.2333
 5632WAT     H124333   4.855   0.070   4.796 -0.5492 -2.6026  3.1110
 5632WAT     H224334   4.921  -0.021   4.695  0.4873  1.3708 -0.1003
 5632WAT    EPW24335   4.849   0.015   4.729  0.1446  0.1297  0.5689
 5633WAT      O24336   9.090   0.604   3.469 -0.5126 -0.5586 -0.5993
 5633WAT     H124337   9.073   0.682   3.415  1.6745 -0.9904 -2.0314
 5633WAT     H224338   9.060   0.531   3.415 -0.3422 -0.8603 -0.2896
 5633WAT    EPW24339   9.084   0.605   3.455 -0.2022 -0.6554 -0.7472
 5634WAT      O24340   0.201   1.609   3.610 -0.1996 -0.6198 -0.1509
 5634WAT     H124341   0.209   1.523   3.569 -1.2683 -0.8748  0.1351
 5634WAT     H224342   0.281   1.655   3.585 -0.0005 -1.3976 -1.0076
 5634WAT    EPW24343   0.212   1.604   3.601 -0.3143 -0.7561 -0.2261
 5635WAT      O24344   3.696   9.428   5.517 -0.6274 -0.1064  0.2534
 5635WAT     H124345   3.717   9.335   5.515 -2.6148 -0.6167  0.7146
 5635WAT     H224346   3.776   9.470   5.550  0.9175 -1.4135 -1.6164
 5635WAT    EPW24347   3.709   9.422   5.521 -0.6858 -0.3462  0.0677
 5636WAT      O24348   7.359   1.268   6.609 -0.1817 -0.3805  0.3611
 5636WAT     H124349   7.316   1.350   6.586  1.1570 -0.0599 -1.1448
 5636WAT     H224350   7.390   1.282   6.699  0.2112  0.8448  0.0499
 5636WAT    EPW24351   7.357   1.281   6.618  0.0467 -0.1767  0.1214
 5637WAT      O24352  10.368   4.431   2.704 -0.5098 -0.1708 -0.1006
 5637WAT     H124353  10.289   4.445   2.653 -1.1284  2.4193  1.4050
 5637WAT     H224354  10.347   4.358   2.761 -2.9510  2.0545  2.1263
 5637WAT    EPW24355  10.355   4.423   2.705 -0.9131  0.4642  0.3917
 5638WAT      O24356   6.754   8.984   4.797 -0.2574  0.2759  0.6687
 5638WAT     H124357   6.697   8.911   4.821 -0.2309  0.4738  1.3731
 5638WAT     H224358   6.725   9.056   4.853  1.1299  0.1816  1.5821
 5638WAT    EPW24359   6.743   8.984   4.808 -0.0710  0.2894  0.8821
 5639WAT      O24360   7.545   2.549   5.270  0.9377 -0.2470 -0.0875
 5639WAT     H124361   7.628   2.587   5.299  0.8952 -0.1450 -0.0995
 5639WAT     H224362   7.561   2.455   5.269  1.2028 -0.1981 -0.5581
 5639WAT    EPW24363   7.558   2.541   5.274  0.9670 -0.2271 -0.1512
 5640WAT      O24364   1.375   0.721   1.512 -0.3455  1.3174  0.6658
 5640WAT     H124365   1.316   0.703   1.439  0.3076 -0.1937  0.4647
 5640WAT     H224366   1.375   0.640   1.563  1.4854  1.2869  0.6827
 5640WAT    EPW24367   1.368   0.708   1.509 -0.0179  1.1141  0.6415
 5641WAT      O24368   5.219   1.737   5.087  0.1571  0.8395  0.1228
 5641WAT     H124369   5.140   1.696   5.052 -0.5013  1.6015  0.6780
 5641WAT     H224370   5.279   1.742   5.013 -0.2307  0.0534 -0.2537
 5641WAT    EPW24371   5.217   1.732   5.073  0.0191  0.8363  0.1462
 5642WAT      O24372   9.694   3.040   5.527  0.5142 -0.0561  0.2693
 5642WAT     H124373   9.676   3.060   5.618  1.8407  0.9020  0.3495
 5642WAT     H224374   9.779   2.994   5.529  0.1051 -0.8644 -0.4016
 5642WAT    EPW24375   9.703   3.036   5.539  0.6356 -0.0362  0.1912
 5643WAT      O24376   7.840   3.403   6.739 -0.1861  0.1530  0.5958
 5643WAT     H124377   7.859   3.354   6.819  0.2743 -2.2033 -0.8390
 5643WAT     H224378   7.756   3.368   6.709 -1.8773  3.1095  1.4826
 5643WAT    EPW24379   7.831   3.392   6.746 -0.3483  0.2322  0.5233
 5644WAT      O24380  10.053   5.507   3.917  0.6491 -0.7263  0.1855
 5644WAT     H124381  10.026   5.501   3.826  0.8125 -2.2400  0.2092
 5644WAT     H224382  10.069   5.600   3.932  2.6655 -0.6535 -1.9378
 5644WAT    EPW24383  10.052   5.518   3.907  0.9370 -0.9165 -0.0916
 5645WAT      O24384   6.985   9.296   6.620 -0.9021  0.0622 -0.2287
 5645WAT     H124385   6.974   9.346   6.701 -1.2919  0.5576 -0.5884
 5645WAT     H224386   7.066   9.330   6.582 -0.8136 -0.0476 -0.1389
 5645WAT    EPW24387   6.995   9.307   6.626 -0.9420  0.1125 -0.2642
 5646WAT      O24388   4.926   2.627   5.272 -0.4936 -0.8824  0.1408
 5646WAT     H124389   4.888   2.714   5.289  1.6622  0.4204 -1.3222
 5646WAT     H224390   4.932   2.587   5.359  2.5281  2.2261  1.5970
 5646WAT    EPW24391   4.922   2.633   5.286  0.1895 -0.3006  0.1400
 5647WAT      O24392   9.013   3.752   7.638 -0.2307  0.7998  0.2276
 5647WAT     H124393   8.927   3.732   7.675 -1.3183  1.2391 -1.9186
 5647WAT     H224394   9.035   3.837   7.676 -0.6696  0.6371  0.8825
 5647WAT    EPW24395   9.005   3.761   7.648 -0.4315  0.8361  0.0308
 5648WAT      O24396   8.251   1.227   5.400  0.3013  0.1584 -0.4113
 5648WAT     H124397   8.247   1.247   5.307 -0.0818 -2.0271 -0.9234
 5648WAT     H224398   8.161   1.238   5.431 -0.2707 -2.0544 -1.0552
 5648WAT    EPW24399   8.238   1.231   5.392  0.1755 -0.4218 -0.5639
 5649WAT      O24400   1.860   1.713   5.583  0.6377  0.1666 -0.4743
 5649WAT     H124401   1.847   1.789   5.639  0.5834  0.3382 -0.7152
 5649WAT     H224402   1.933   1.666   5.622 -0.2981 -0.4882  0.5604
 5649WAT    EPW24403   1.868   1.717   5.595  0.5071  0.1029 -0.3698
 5650WAT      O24404   3.666  10.051   7.671 -0.2385 -0.2586  0.1229
 5650WAT     H124405   3.720   9.987   7.719 -0.0581  0.9092  1.5537
 5650WAT     H224406   3.727  10.121   7.648 -0.7706  0.1896  0.0758
 5650WAT    EPW24407   3.681  10.052   7.675 -0.2849 -0.0453  0.3054
 5651WAT      O24408   9.452   1.423   4.698  1.1232 -0.1783  0.2758
 5651WAT     H124409   9.402   1.477   4.636  0.4260  0.0243  0.9891
 5651WAT     H224410   9.495   1.487   4.755  0.2688 -0.3588  1.1444
 5651WAT    EPW24411   9.451   1.439   4.697  0.9184 -0.1754  0.4842
 5652WAT      O24412   6.166   9.231   2.292 -0.2586 -0.2553  0.4792
 5652WAT     H124413   6.091   9.187   2.332 -0.4253 -1.0086 -0.6263
 5652WAT     H224414   6.230   9.161   2.277 -0.0228  0.0875 -0.1619
 5652WAT    EPW24415   6.165   9.216   2.295 -0.2496 -0.3099  0.2489
 5653WAT      O24416   4.672  10.101   6.943  0.2715 -0.2846 -0.4853
 5653WAT     H124417   4.586  10.113   6.904  0.9638 -0.5349 -2.1749
 5653WAT     H224418   4.686  10.006   6.943  1.4842 -0.1633 -2.4793
 5653WAT    EPW24419   4.662  10.090   6.938  0.5229 -0.3014 -0.9711
 5654WAT      O24420   6.088   7.753   3.348 -0.2559 -0.2698 -0.1897
 5654WAT     H124421   6.010   7.759   3.293 -0.5310 -1.8047 -0.0119
 5654WAT     H224422   6.160   7.739   3.287 -0.0049  1.6845 -0.3966
 5654WAT    EPW24423   6.087   7.752   3.333 -0.2589 -0.2143 -0.1936
 5655WAT      O24424   9.832   1.950   6.437  0.7218  0.2508 -0.4158
 5655WAT     H124425   9.788   1.905   6.509  1.0231  1.9462  0.8858
 5655WAT     H224426   9.915   1.903   6.427  0.2133 -0.6705 -0.4101
 5655WAT    EPW24427   9.837   1.937   6.445  0.6938  0.3529 -0.2434
 5656WAT      O24428   8.225   2.617   6.123 -0.7139 -0.3761  0.0869
 5656WAT     H124429   8.290   2.590   6.189  1.5451 -1.6520 -2.4725
 5656WAT     H224430   8.206   2.709   6.145  1.8604 -0.0032  1.1008
 5656WAT    EPW24431   8.231   2.626   6.135 -0.0763 -0.4952 -0.1171
 5657WAT      O24432   9.531   0.418   2.545 -0.2264 -0.7114  0.4006
 5657WAT     H124433   9.440   0.426   2.515 -1.3924 -2.6417  3.0576
 5657WAT     H224434   9.555   0.328   2.524  2.4542  0.6096 -3.3544
 5657WAT    EPW24435   9.522   0.407   2.538 -0.0262 -0.7918  0.2558
 5658WAT      O24436   9.300   0.159   5.420  0.1495 -0.0178 -0.4579
 5658WAT     H124437   9.294   0.254   5.409  0.7494 -0.0955 -1.6511
 5658WAT     H224438   9.209   0.130   5.423 -0.0399  0.5835 -0.1214
 5658WAT    EPW24439   9.287   0.168   5.419  0.2036  0.0513 -0.5708
 5659WAT      O24440   5.924   1.076   6.165 -0.0708  0.2122  0.2253
 5659WAT     H124441   5.891   0.990   6.140  0.4355 -0.9553  3.2244
 5659WAT     H224442   5.981   1.102   6.092 -1.3464 -1.2699 -1.3934
 5659WAT    EPW24443   5.927   1.068   6.152 -0.1721 -0.1373  0.4075
 5660WAT      O24444  10.941   3.683   5.642  0.1009  0.2356  0.2242
 5660WAT     H124445  10.858   3.715   5.607  0.8250  3.1826  0.9217
 5660WAT     H224446  10.929   3.684   5.737  1.2179  1.7385  0.3805
 5660WAT    EPW24447  10.929   3.687   5.650  0.3443  0.8224  0.3369
 5661WAT      O24448   8.313   3.849   4.612 -0.1471  0.2268  0.1665
 5661WAT     H124449   8.305   3.909   4.686  1.0462 -0.2346  0.7017
 5661WAT     H224450   8.256   3.775   4.635 -1.1607  0.8635 -0.2242
 5661WAT    EPW24451   8.304   3.847   4.625 -0.1235  0.2500  0.1855
 5662WAT      O24452   1.695   2.226   5.405  0.6328  0.2217  0.2232
 5662WAT     H124453   1.676   2.186   5.490  1.6856  0.1477  0.4462
 5662WAT     H224454   1.789   2.212   5.393  0.8637  1.8266 -0.1042
 5662WAT    EPW24455   1.705   2.219   5.415  0.8022  0.4237  0.2096
 5663WAT      O24456   6.039  10.231   5.329 -0.0629 -0.1192 -0.3030
 5663WAT     H124457   6.038  10.169   5.256  1.9621  0.9668 -1.3675
 5663WAT     H224458   5.980  10.301   5.301 -0.8950 -0.6558  0.0648
 5663WAT    EPW24459   6.031  10.232   5.315  0.0944 -0.0467 -0.3951
 5664WAT      O24460   9.785   3.722   5.878  0.0076  0.1829  0.3805
 5664WAT     H124461   9.850   3.792   5.888  0.2717 -0.2045  1.6699
 5664WAT     H224462   9.800   3.687   5.791 -0.4969  2.0798 -0.5323
 5664WAT    EPW24463   9.796   3.727   5.868 -0.0248  0.3821  0.4301
 5665WAT      O24464   9.448   1.899   5.067 -0.3632 -1.0636  0.1941
 5665WAT     H124465   9.535   1.912   5.104 -0.2325  1.0951 -0.7524
 5665WAT     H224466   9.388   1.939   5.130 -0.5189 -1.0966  0.0691
 5665WAT    EPW24467   9.451   1.906   5.080 -0.3667 -0.7833  0.0529
 5666WAT      O24468   4.706  10.105   3.702 -0.1572  0.1366  0.5740
 5666WAT     H124469   4.743  10.020   3.678  1.9343  0.8348  1.1662
 5666WAT     H224470   4.626  10.083   3.751  1.0467 -1.5628  1.8887
 5666WAT    EPW24471   4.700  10.091   3.705  0.2773  0.0043  0.8255
 5667WAT      O24472   8.132   2.088   3.337  0.6186 -0.4128  0.2911
 5667WAT     H124473   8.160   2.076   3.427  1.0374 -0.0457  0.2121
 5667WAT     H224474   8.125   1.999   3.302  2.9433 -0.5098 -0.0676
 5667WAT    EPW24475   8.135   2.074   3.344  0.9804 -0.3772  0.2332
 5668WAT      O24476   0.174   3.742   2.385 -0.2514 -0.6265 -0.8904
 5668WAT     H124477   0.258   3.719   2.424  0.4244 -1.7107 -2.8169
 5668WAT     H224478   0.109   3.699   2.441  0.3750  0.6595  0.9261
 5668WAT    EPW24479   0.177   3.733   2.397 -0.0797 -0.6000 -0.9049
 5669WAT      O24480   2.390  10.257   5.025 -0.2522 -0.3810  0.3828
 5669WAT     H124481   2.476  10.290   5.050 -0.2963 -1.4082  2.0428
 5669WAT     H224482   2.403  10.222   4.937  1.3968 -1.6822  1.0756
 5669WAT    EPW24483   2.403  10.257   5.017 -0.0405 -0.6886  0.6931
 5670WAT      O24484   9.623   4.057   4.691  0.1433 -0.7090  0.1717
 5670WAT     H124485   9.637   3.980   4.635 -0.3308 -0.0998 -0.8071
 5670WAT     H224486   9.559   4.028   4.756 -0.6788 -0.8918 -0.7150
 5670WAT    EPW24487   9.617   4.043   4.692 -0.0286 -0.6528 -0.0741
 5671WAT      O24488   9.697   6.064   8.699 -0.3414 -0.2453  0.7650
 5671WAT     H124489   9.722   5.972   8.702  2.6080  0.3590 -0.9875
 5671WAT     H224490   9.773   6.110   8.734 -1.0768  1.5766  0.0760
 5671WAT    EPW24491   9.710   6.058   8.704 -0.0491  0.0746  0.4430
 5672WAT      O24492   3.576   9.272   6.476  0.8865 -0.6126 -0.1191
 5672WAT     H124493   3.506   9.303   6.418  1.4458  0.0051 -0.4712
 5672WAT     H224494   3.576   9.334   6.549  2.6605  0.8817 -1.3016
 5672WAT    EPW24495   3.567   9.284   6.478  1.1942 -0.3343 -0.3214
 5673WAT      O24496   0.540   0.207   3.273  0.2559  0.1671  0.7068
 5673WAT     H124497   0.495   0.147   3.332  1.7022  0.9218  2.6718
 5673WAT     H224498   0.628   0.216   3.309  1.3967  0.2946 -1.8763
 5673WAT    EPW24499   0.546   0.200   3.286  0.5971  0.2834  0.6253
 5674WAT      O24500   6.042  10.326   3.836  0.0683 -0.2081  0.2715
 5674WAT     H124501   5.959  10.372   3.849 -0.8065 -1.5739 -0.2188
 5674WAT     H224502   6.017  10.234   3.829  1.4054 -0.4885 -1.7018
 5674WAT    EPW24503   6.027  10.320   3.837  0.1295 -0.4253 -0.0535
 5675WAT      O24504   9.633   4.086   5.923  0.3812 -0.4492  0.5115
 5675WAT     H124505   9.651   4.177   5.946 -0.1442 -0.3254  0.4355
 5675WAT     H224506   9.550   4.066   5.967 -1.3331  0.1682 -2.2627
 5675WAT    EPW24507   9.624   4.095   5.932  0.0858 -0.3514  0.1354
 5676WAT      O24508  10.295   3.668   6.805  0.0305  0.3402  0.3001
 5676WAT     H124509  10.289   3.578   6.835 -0.5949  0.5852  0.9518
 5676WAT     H224510  10.205   3.700   6.806  0.4845  1.9421  3.2825
 5676WAT    EPW24511  10.282   3.661   6.809  0.0081  0.5839  0.7792
 5677WAT      O24512   1.583   2.476   5.480 -0.2047 -0.4237  0.2377
 5677WAT     H124513   1.496   2.481   5.439  0.0395 -0.2684 -0.2738
 5677WAT     H224514   1.607   2.384   5.474  0.0756 -0.3130 -0.5109
 5677WAT    EPW24515   1.575   2.464   5.474 -0.1355 -0.3885  0.0715
 5678WAT      O24516   0.737   0.406   4.566  0.0494  0.2748 -0.8538
 5678WAT     H124517   0.832   0.417   4.561  0.2068 -0.9107 -0.9777
 5678WAT     H224518   0.725   0.332   4.626 -0.9013  1.6495  0.7567
 5678WAT    EPW24519   0.748   0.397   4.573 -0.0552  0.2998 -0.6578
 5679WAT      O24520   8.180   8.160   6.525  0.0513 -0.0176  0.5987
 5679WAT     H124521   8.217   8.240   6.488  0.5076  0.1093  1.3149
 5679WAT     H224522   8.134   8.189   6.604 -3.3319  0.1514 -1.2608
 5679WAT    EPW24523   8.179   8.174   6.531 -0.3347  0.0215  0.4480
 5680WAT      O24524   9.543   3.775   4.180 -0.8080  0.4028 -0.1863
 5680WAT     H124525   9.537   3.748   4.089 -0.1916 -0.3912  0.0049
 5680WAT     H224526   9.480   3.720   4.226  0.9276 -1.2510  0.3118
 5680WAT    EPW24527   9.534   3.764   4.174 -0.4978  0.0798 -0.0956
 5681WAT      O24528   0.042   4.773   8.035 -0.2927  0.5291  0.2157
 5681WAT     H124529   0.009   4.816   8.114  3.5764  3.1791  0.6820
 5681WAT     H224530   0.100   4.705   8.068 -0.5987 -0.0403 -0.4121
 5681WAT    EPW24531   0.045   4.770   8.050  0.1772  0.8035  0.1941
 5682WAT      O24532   5.883   4.176   7.692  0.0885  0.0635  0.3638
 5682WAT     H124533   5.924   4.114   7.633 -0.4756  0.9475 -0.9918
 5682WAT     H224534   5.790   4.157   7.687  0.1467 -1.3461  2.7527
 5682WAT    EPW24535   5.876   4.166   7.684  0.0217 -0.0057  0.4997
 5683WAT      O24536   6.169   8.148   0.899  0.0920  0.0242  0.1087
 5683WAT     H124537   6.263   8.130   0.906  0.0165 -0.2393  0.5444
 5683WAT     H224538   6.139   8.089   0.830  0.0452 -0.7499  0.7697
 5683WAT    EPW24539   6.178   8.137   0.891  0.0756 -0.1130  0.2533
 5684WAT      O24540   0.610   4.192   8.097 -0.1477 -0.8661 -0.1631
 5684WAT     H124541   0.598   4.136   8.019 -1.1438  1.2280 -1.6019
 5684WAT     H224542   0.612   4.281   8.062  1.2326  0.0493  2.0678
 5684WAT    EPW24543   0.609   4.196   8.082 -0.0970 -0.4692 -0.0582
 5685WAT      O24544  10.605   0.169   6.780  0.2882 -0.4197 -0.1414
 5685WAT     H124545  10.610   0.161   6.875  2.1698  2.1079  0.1012
 5685WAT     H224546  10.643   0.087   6.747  0.8465 -0.7812  1.3120
 5685WAT    EPW24547  10.611   0.157   6.788  0.6099 -0.1340  0.0823
 5686WAT      O24548   3.206   1.830   5.604  0.5454 -0.2625 -0.3126
 5686WAT     H124549   3.184   1.737   5.599  0.6611 -0.4160  1.3154
 5686WAT     H224550   3.253   1.848   5.523  0.3245 -1.5710 -0.7574
 5686WAT    EPW24551   3.209   1.820   5.593  0.5316 -0.4553 -0.1569
 5687WAT      O24552   9.250   2.281   6.815 -0.3246  0.8755  0.5608
 5687WAT     H124553   9.160   2.249   6.807 -0.1549 -1.0924  4.0648
 5687WAT     H224554   9.293   2.254   6.734 -2.3002 -0.3644 -0.1545
 5687WAT    EPW24555   9.244   2.273   6.804 -0.5631  0.4524  0.9284
 5688WAT      O24556   7.658   8.567   8.742 -0.3926  0.3298  0.3715
 5688WAT     H124557   7.641   8.573   8.648  0.0259 -0.3674  0.2407
 5688WAT     H224558   7.714   8.643   8.762 -3.3923  2.6271  0.8011
 5688WAT    EPW24559   7.663   8.578   8.733 -0.7329  0.5407  0.4110
 5689WAT      O24560   0.025   4.288   8.822 -0.0556  0.3571 -0.0084
 5689WAT     H124561   0.050   4.347   8.893 -0.8178 -0.5425  1.0443
 5689WAT     H224562   0.087   4.308   8.752  0.7189  1.2744  0.8941
 5689WAT    EPW24563   0.037   4.299   8.822 -0.0539  0.3593  0.2494
 5690WAT      O24564   0.065   5.573   8.910  0.2400  0.4621  0.0477
 5690WAT     H124565   0.049   5.667   8.899 -0.4034  0.1655 -2.1102
 5690WAT     H224566  -0.022   5.535   8.920  0.3388 -0.0492 -0.8641
 5690WAT    EPW24567   0.051   5.581   8.910  0.1682  0.3557 -0.3572
 5691WAT      O24568   1.493   8.866   2.847 -0.1666 -0.6474  0.2431
 5691WAT     H124569   1.473   8.780   2.811 -1.8278 -0.6888  1.1394
 5691WAT     H224570   1.457   8.928   2.783  0.4945 -0.6119 -0.1067
 5691WAT    EPW24571   1.486   8.863   2.834 -0.2985 -0.6480  0.3152
 5692WAT      O24572   6.815   9.648   5.067  0.0525  0.4466  0.0013
 5692WAT     H124573   6.741   9.626   5.011  1.4145 -0.1753 -1.6242
 5692WAT     H224574   6.811   9.744   5.075 -0.7764  0.4382 -0.2529
 5692WAT    EPW24575   6.805   9.658   5.061  0.1228  0.3638 -0.2470
 5693WAT      O24576   9.295   5.140   7.976  0.4136  0.1991  0.9285
 5693WAT     H124577   9.293   5.084   8.053 -0.3953  0.4545  1.1076
 5693WAT     H224578   9.300   5.229   8.011 -2.7590  0.5316  0.8519
 5693WAT    EPW24579   9.295   5.144   7.991 -0.1116  0.2766  0.9420
 5694WAT      O24580  10.826   5.298   5.236  0.1652 -0.0179 -0.7194
 5694WAT     H124581  10.832   5.203   5.235  1.3832  0.0449 -1.1598
 5694WAT     H224582  10.839   5.324   5.145  2.9698  0.6855 -0.2156
 5694WAT    EPW24583  10.828   5.289   5.224  0.6962  0.0830 -0.7112
 5695WAT      O24584  10.217   4.605   6.801 -0.3031 -0.4977  0.4104
 5695WAT     H124585  10.166   4.612   6.882  1.0816 -1.6630  1.4490
 5695WAT     H224586  10.199   4.516   6.770 -1.6224  0.2821 -1.1632
 5695WAT    EPW24587  10.208   4.594   6.808 -0.2942 -0.5486  0.3397
 5696WAT      O24588  10.182   4.287   5.016  0.5004 -0.1747 -0.1304
 5696WAT     H124589  10.116   4.247   5.073 -0.4811 -0.7918 -1.6338
 5696WAT     H224590  10.174   4.381   5.032  2.0300 -0.4000  2.6058
 5696WAT    EPW24591  10.172   4.294   5.026  0.5727 -0.2859  0.0319
 5697WAT      O24592  10.331   3.750   4.254 -0.6805  0.3379 -0.0776
 5697WAT     H124593  10.279   3.671   4.238 -1.8033  0.9677  0.3423
 5697WAT     H224594  10.421   3.718   4.263 -1.1878 -0.9614  0.6273
 5697WAT    EPW24595  10.336   3.735   4.253 -0.8955  0.2496  0.0710
 5698WAT      O24596   0.871   6.944   2.130  0.5684  0.3489  0.5005
 5698WAT     H124597   0.803   6.995   2.086 -0.1964 -0.6378  0.5107
 5698WAT     H224598   0.905   7.003   2.198  1.7925  1.9257 -1.3414
 5698WAT    EPW24599   0.867   6.959   2.133  0.6289  0.4265  0.2588
 5699WAT      O24600  10.515   3.936   6.231 -0.0852  0.5808 -0.9047
 5699WAT     H124601  10.535   3.846   6.257 -0.4396  0.3156 -1.5116
 5699WAT     H224602  10.420   3.939   6.226 -0.0622  0.8959 -1.1992
 5699WAT    EPW24603  10.505   3.925   6.233 -0.1292  0.5875 -1.0238
 5700WAT      O24604   0.692   9.009   1.270 -0.5418 -0.2577 -0.4144
 5700WAT     H124605   0.667   9.096   1.301 -0.9808 -0.1256 -1.1411
 5700WAT     H224606   0.751   9.026   1.197  1.0926 -0.5680  0.7599
 5700WAT    EPW24607   0.697   9.023   1.265 -0.3842 -0.2813 -0.3554
 5701WAT      O24608   0.920   3.158   5.263 -0.2840 -0.2320 -0.4979
 5701WAT     H124609   0.987   3.219   5.232  1.4338 -2.2825 -1.1270
 5701WAT     H224610   0.839   3.188   5.223  0.2223  2.2981  0.1940
 5701WAT    EPW24611   0.918   3.170   5.254  0.0094 -0.1686 -0.4895
 5702WAT      O24612   7.799   1.755   6.409  0.6107  0.4313 -0.4056
 5702WAT     H124613   7.854   1.677   6.419  0.7753  0.7180  1.0619
 5702WAT     H224614   7.712   1.720   6.391  0.3226 -0.1939  1.8801
 5702WAT    EPW24615   7.795   1.740   6.408  0.5944  0.3867  0.0894
 5703WAT      O24616   5.559   2.901   2.315 -0.0426  0.8564  0.0742
 5703WAT     H124617   5.619   2.840   2.358 -1.0396  0.0194  0.2971
 5703WAT     H224618   5.508   2.939   2.386 -0.3604  0.9316 -0.1941
 5703WAT    EPW24619   5.560   2.898   2.330 -0.2160  0.7560  0.0683
 5704WAT      O24620   9.000   2.880   2.895 -0.6486  0.6914 -0.2144
 5704WAT     H124621   8.948   2.873   2.975 -0.9485  1.0803 -0.3721
 5704WAT     H224622   8.949   2.937   2.838 -0.5897  0.1623 -0.8102
 5704WAT    EPW24623   8.986   2.887   2.898 -0.6804  0.6729 -0.3139
 5705WAT      O24624   1.692   3.902   6.094  0.0778 -0.7839  0.1736
 5705WAT     H124625   1.754   3.951   6.040  2.5303 -1.6702  1.9776
 5705WAT     H224626   1.661   3.831   6.038 -0.8580  0.7713 -1.3709
 5705WAT    EPW24627   1.696   3.899   6.080  0.2779 -0.6956  0.2077
 5706WAT      O24628   8.958   2.527   4.315  0.4630 -0.2644 -0.0352
 5706WAT     H124629   9.035   2.475   4.340  0.2949  0.0012  1.0889
 5706WAT     H224630   8.887   2.463   4.308  0.9877 -0.6954 -2.2511
 5706WAT    EPW24631   8.959   2.512   4.317  0.5102 -0.2862 -0.1793
 5707WAT      O24632   6.540   3.760   4.394  0.2587  0.0470  0.3062
 5707WAT     H124633   6.578   3.847   4.406 -0.9296  0.8033 -1.0948
 5707WAT     H224634   6.540   3.746   4.300  0.6162 -1.5820  0.5237
 5707WAT    EPW24635   6.545   3.770   4.383  0.1490 -0.0682  0.1502
 5708WAT      O24636   3.017   8.912   8.237 -0.1550  0.5071  0.4224
 5708WAT     H124637   3.001   8.840   8.175 -0.5715  0.7819  0.2057
 5708WAT     H224638   2.984   8.990   8.192 -2.0299  0.4830  1.6527
 5708WAT    EPW24639   3.011   8.913   8.223 -0.4572  0.5403  0.5565
 5709WAT      O24640   6.470   6.373   1.393 -0.3721 -0.8759  0.1561
 5709WAT     H124641   6.418   6.424   1.454  2.0186  0.9027  0.8651
 5709WAT     H224642   6.558   6.371   1.431  1.3420  0.5679 -3.2528
 5709WAT    EPW24643   6.475   6.379   1.406  0.1693 -0.4508 -0.2000
 5710WAT      O24644   1.240   1.795   7.209  0.4957 -0.1711 -0.1922
 5710WAT     H124645   1.147   1.784   7.188  0.5722 -1.9599  0.2167
 5710WAT     H224646   1.246   1.883   7.247 -0.7698  0.5180 -1.5024
 5710WAT    EPW24647   1.228   1.805   7.212  0.3389 -0.3161 -0.3111
 5711WAT      O24648  10.202   2.024   7.616 -0.7975 -0.4398  0.7603
 5711WAT     H124649  10.185   2.027   7.522  0.0580  0.7208  0.6127
 5711WAT     H224650  10.233   1.936   7.633 -1.5122 -0.8364  0.0612
 5711WAT    EPW24651  10.204   2.013   7.606 -0.7787 -0.3390  0.6487
 5712WAT      O24652  10.180   2.301   6.602  0.4980  0.1691 -0.2545
 5712WAT     H124653  10.238   2.307   6.525  1.2082  0.6770  0.2984
 5712WAT     H224654  10.096   2.272   6.567  1.2143 -1.0522 -1.0178
 5712WAT    EPW24655  10.177   2.298   6.587  0.6862  0.0751 -0.2820
 5713WAT      O24656   9.311   0.408   6.391 -0.1797 -0.0572  0.6886
 5713WAT     H124657   9.309   0.486   6.335  3.3968 -2.0995 -2.7664
 5713WAT     H224658   9.219   0.390   6.410 -1.5499  2.0522 -2.8975
 5713WAT    EPW24659   9.298   0.416   6.386  0.1111 -0.0484 -0.2401
 5714WAT      O24660   0.282   2.538   4.938  0.1597  0.0254 -0.5602
 5714WAT     H124661   0.251   2.479   4.869 -0.2265 -1.6282  0.9469
 5714WAT     H224662   0.344   2.485   4.989  0.9898  1.4280 -0.0544
 5714WAT    EPW24663   0.286   2.523   4.936  0.2182 -0.0076 -0.2947
 5715WAT      O24664   9.230   3.303   5.495  0.0169 -0.2660  0.4618
 5715WAT     H124665   9.269   3.310   5.582 -0.1519 -1.0416  0.6116
 5715WAT     H224666   9.142   3.268   5.512  0.5026 -1.8546 -0.1087
 5715WAT    EPW24667   9.223   3.299   5.509  0.0591 -0.5778  0.4060
 5716WAT      O24668  10.702   3.027   5.018  0.7685  0.2890 -0.3724
 5716WAT     H124669  10.786   3.003   5.057  0.8363  1.8981  0.5801
 5716WAT     H224670  10.641   2.962   5.052  1.6824 -1.2255 -1.5086
 5716WAT    EPW24671  10.705   3.015   5.028  0.8979  0.3014 -0.3963
 5717WAT      O24672   7.007  10.251   1.690 -0.1878 -0.3065  0.3452
 5717WAT     H124673   7.038  10.175   1.641  1.5870  0.6643 -0.1355
 5717WAT     H224674   7.003  10.221   1.781  2.5531 -0.4773  0.5047
 5717WAT    EPW24675   7.010  10.237   1.696  0.4077 -0.2017  0.3028
 5718WAT      O24676   2.782   0.118   2.100  0.8738  1.2212 -0.5041
 5718WAT     H124677   2.753   0.155   2.183  0.1332  0.0737 -0.2223
 5718WAT     H224678   2.721   0.153   2.035  0.7072  1.1761 -0.3733
 5718WAT    EPW24679   2.770   0.127   2.102  0.7539  1.0638 -0.4497
 5719WAT      O24680   0.869   3.928   4.799 -0.4533  0.4523 -0.2398
 5719WAT     H124681   0.866   3.886   4.713 -2.9756  0.4553 -0.2328
 5719WAT     H224682   0.879   4.021   4.781 -0.2891  0.3838 -0.4998
 5719WAT    EPW24683   0.870   3.935   4.785 -0.7643  0.4436 -0.2730
 5720WAT      O24684  10.092   3.686   7.106  0.7442 -0.5526 -0.0410
 5720WAT     H124685  10.037   3.709   7.032  0.9378 -0.6111 -0.2072
 5720WAT     H224686  10.048   3.611   7.147 -1.0870  1.4150  1.8483
 5720WAT    EPW24687  10.079   3.679   7.102  0.5279 -0.3008  0.1864
 5721WAT      O24688   2.070   2.809   1.283 -0.3232 -0.4859  1.2223
 5721WAT     H124689   1.993   2.859   1.311 -1.6337 -1.3814 -0.5954
 5721WAT     H224690   2.045   2.717   1.297 -0.7676 -0.9451 -1.9516
 5721WAT    EPW24691   2.056   2.803   1.289 -0.5548 -0.6646  0.5640
 5722WAT      O24692   0.585   2.122   6.934 -0.3888  0.8247  0.3711
 5722WAT     H124693   0.652   2.071   6.977  1.1471  2.2668 -0.2120
 5722WAT     H224694   0.522   2.143   7.003 -1.4188 -2.2540  0.5159
 5722WAT    EPW24695   0.585   2.118   6.949 -0.3220  0.6088  0.3133
 5723WAT      O24696   7.217   0.821   6.438 -0.6969  1.0329 -0.2431
 5723WAT     H124697   7.201   0.785   6.350 -1.6030 -1.7406  0.9664
 5723WAT     H224698   7.139   0.874   6.456 -2.1639 -1.1354  0.1374
 5723WAT    EPW24699   7.205   0.823   6.428 -1.0099  0.3811 -0.0331
 5724WAT      O24700  10.532   2.838   5.127 -0.0788 -0.3388  0.3049
 5724WAT     H124701  10.569   2.823   5.215  1.5891  0.0635 -0.2866
 5724WAT     H224702  10.516   2.750   5.093 -3.4278 -0.5475  1.9981
 5724WAT    EPW24703  10.535   2.825   5.134 -0.3004 -0.3133  0.4499
 5725WAT      O24704  10.608   4.295   3.887  0.0180  0.4070  0.1996
 5725WAT     H124705  10.630   4.213   3.931  0.2985  0.2544 -0.2252
 5725WAT     H224706  10.623   4.278   3.794  0.7344  1.1408  0.1697
 5725WAT    EPW24707  10.613   4.282   3.881  0.1497  0.4835  0.1396
 5726WAT      O24708   8.643   4.032   6.806  0.8411 -0.0803  0.1871
 5726WAT     H124709   8.606   4.080   6.880 -0.4602 -2.4775  1.2408
 5726WAT     H224710   8.645   3.941   6.836  1.9821 -0.8883 -2.1117
 5726WAT    EPW24711   8.638   4.026   6.820  0.8197 -0.5031  0.0229
 5727WAT      O24712   6.996   7.284   6.653 -0.3912 -0.0698  0.0180
 5727WAT     H124713   7.053   7.287   6.730 -2.3865  1.6055  1.5412
 5727WAT     H224714   7.054   7.303   6.579  0.6488  5.3385  1.8052
 5727WAT    EPW24715   7.011   7.287   6.653 -0.5174  0.8645  0.4544
 5728WAT      O24716   9.193   1.350   4.817  0.2571  0.2375 -0.6935
 5728WAT     H124717   9.278   1.389   4.801  0.5107 -0.2158 -0.4616
 5728WAT     H224718   9.160   1.393   4.896  0.7559 -0.3702 -0.1489
 5728WAT    EPW24719   9.200   1.361   4.825  0.3562  0.0975 -0.5910
 5729WAT      O24720   8.025   4.270   5.696 -0.6861  0.7797  0.4426
 5729WAT     H124721   7.935   4.276   5.728 -1.9530  2.3372 -2.9474
 5729WAT     H224722   8.030   4.182   5.657  0.3458 -0.4860  3.1786
 5729WAT    EPW24723   8.013   4.259   5.695 -0.7172  0.8183  0.3564
 5730WAT      O24724   1.512   1.264   5.123  0.0735 -0.4203  0.1958
 5730WAT     H124725   1.419   1.269   5.099  0.0007  1.8515  0.6790
 5730WAT     H224726   1.512   1.244   5.216  0.1589 -2.0587 -0.1243
 5730WAT    EPW24727   1.500   1.262   5.132  0.0752 -0.3368  0.2170
 5731WAT      O24728   8.278   4.398   3.367 -0.1758  0.1584  0.2392
 5731WAT     H124729   8.188   4.422   3.344 -0.4587 -0.3391  0.7787
 5731WAT     H224730   8.333   4.461   3.320 -0.8176  0.6493  0.1293
 5731WAT    EPW24731   8.273   4.410   3.358 -0.2975  0.1574  0.2959
 5732WAT      O24732   0.325   0.400   3.783 -0.6424  0.0343 -0.2173
 5732WAT     H124733   0.325   0.345   3.861  0.9561 -1.0202 -0.8928
 5732WAT     H224734   0.233   0.412   3.761 -1.1189 -3.7390 -0.9014
 5732WAT    EPW24735   0.313   0.394   3.790 -0.4944 -0.6025 -0.3966
 5733WAT      O24736   9.513   1.213   1.887 -0.2172 -0.3420 -0.8737
 5733WAT     H124737   9.443   1.277   1.896  0.0360 -0.2676  1.1543
 5733WAT     H224738   9.580   1.257   1.835 -0.5858  0.5768 -0.5927
 5733WAT    EPW24739   9.513   1.227   1.882 -0.2327 -0.2109 -0.5692
 5734WAT      O24740   7.537   8.942   6.654 -0.1355  0.0930 -0.5431
 5734WAT     H124741   7.546   8.858   6.699  2.0288  1.0850  1.0383
 5734WAT     H224742   7.462   8.984   6.697  1.8861  1.0240  2.3762
 5734WAT    EPW24743   7.528   8.936   6.666  0.4165  0.3467  0.0505
 5735WAT      O24744   2.790   9.890   0.806  0.4022  0.3599 -0.2160
 5735WAT     H124745   2.861   9.899   0.869  0.9338  2.3215 -1.0441
 5735WAT     H224746   2.774   9.795   0.802  2.1093 -0.0206  0.8993
 5735WAT    EPW24747   2.797   9.879   0.814  0.6974  0.5684 -0.1781
 5736WAT      O24748   5.871  10.320   6.044 -0.0281 -0.8534  0.4339
 5736WAT     H124749   5.853  10.300   6.136 -3.2165  2.7524  0.8582
 5736WAT     H224750   5.785  10.314   6.001  0.5073  1.9286 -1.2479
 5736WAT    EPW24751   5.857  10.316   6.050 -0.3781 -0.0114  0.2682
 5737WAT      O24752   9.469   3.048   3.122 -0.0579 -0.3368  0.3637
 5737WAT     H124753   9.403   3.058   3.054  0.0751 -0.3998  0.2231
 5737WAT     H224754   9.428   2.992   3.188 -0.7053  0.8770  1.0238
 5737WAT    EPW24755   9.455   3.042   3.122 -0.1264 -0.1849  0.4324
 5738WAT      O24756   7.247   1.982   6.399  0.1866  0.5097  0.0210
 5738WAT     H124757   7.294   1.997   6.318  0.2864 -0.7582 -0.1702
 5738WAT     H224758   7.176   2.046   6.398  2.1328  2.7993  0.5427
 5738WAT    EPW24759   7.244   1.992   6.388  0.4563  0.6444  0.0644
 5739WAT      O24760  10.778   1.831   8.931 -0.2106 -0.1294 -0.4360
 5739WAT     H124761  10.790   1.871   8.845 -0.1217 -0.9904 -0.8365
 5739WAT     H224762  10.788   1.737   8.915  2.1309 -0.1870  0.9039
 5739WAT    EPW24763  10.781   1.824   8.917  0.1097 -0.2506 -0.3128
 5740WAT      O24764   2.252   4.683   3.574  0.1189  0.0191  0.0534
 5740WAT     H124765   2.196   4.691   3.652  0.3483  1.6710  0.0927
 5740WAT     H224766   2.340   4.706   3.605 -0.2986  4.1067 -1.2509
 5740WAT    EPW24767   2.256   4.687   3.589  0.0941  0.7761 -0.1135
 5741WAT      O24768   4.515   0.315   3.823  0.6077  0.4179  0.1540
 5741WAT     H124769   4.527   0.399   3.779  1.3244 -0.3607 -1.2147
 5741WAT     H224770   4.587   0.309   3.886  0.0268  1.2050  0.9112
 5741WAT    EPW24771   4.526   0.325   3.826  0.6258  0.4190  0.0736
 5742WAT      O24772   6.823   9.972   6.341  0.0372 -0.3446  0.0736
 5742WAT     H124773   6.751   9.917   6.373 -0.6608 -0.6476 -1.9055
 5742WAT     H224774   6.840   9.940   6.252  2.9280 -0.5619  0.6120
 5742WAT    EPW24775   6.815   9.961   6.334  0.3264 -0.4134 -0.1163
 5743WAT      O24776  10.128   3.451   4.010 -0.2290 -0.0298  0.3832
 5743WAT     H124777  10.119   3.374   3.954  0.0196 -0.0502  0.3704
 5743WAT     H224778  10.050   3.503   3.992 -0.0621  0.0518 -0.1216
 5743WAT    EPW24779  10.117   3.448   4.000 -0.1745 -0.0217  0.3148
 5744WAT      O24780   9.351   6.980   5.279  0.0276 -0.0997  0.2099
 5744WAT     H124781   9.291   7.005   5.349 -0.5891  3.6374 -1.4394
 5744WAT     H224782   9.294   6.953   5.207  0.2630  2.2475 -0.9307
 5744WAT    EPW24783   9.336   6.979   5.279 -0.0224  0.7029 -0.1578
 5745WAT      O24784   2.781   3.524   8.349  0.2290 -0.0106 -0.1290
 5745WAT     H124785   2.779   3.602   8.293 -0.0000 -0.0876 -0.2299
 5745WAT     H224786   2.814   3.455   8.292 -0.0943 -0.1103 -0.1983
 5745WAT    EPW24787   2.785   3.525   8.334  0.1560 -0.0340 -0.1512
 5746WAT      O24788  10.447   3.281   5.881  0.1290  0.0717 -0.1019
 5746WAT     H124789  10.512   3.326   5.828 -1.5316  1.0030 -1.4619
 5746WAT     H224790  10.443   3.330   5.963  2.9424 -1.5572  1.1316
 5746WAT    EPW24791  10.455   3.293   5.885  0.2809 -0.0204 -0.1187
 5747WAT      O24792   7.786  10.026   6.004  0.3759 -0.1888  0.5205
 5747WAT     H124793   7.723   9.955   6.007  0.0313  0.0889 -0.1933
 5747WAT     H224794   7.736  10.104   6.027  1.3334 -0.5099  4.6083
 5747WAT    EPW24795   7.771  10.027   6.008  0.4566 -0.1945  0.9656
 5748WAT      O24796   0.672   2.546   4.514  0.2804 -0.2240 -1.0295
 5748WAT     H124797   0.732   2.620   4.521 -1.1614  0.9022 -0.1020
 5748WAT     H224798   0.612   2.570   4.443 -1.1040  0.2280  0.2350
 5748WAT    EPW24799   0.672   2.559   4.506 -0.0923 -0.0160 -0.7405
 5749WAT      O24800  10.153   0.656   7.064 -0.0997 -0.0361  0.5493
 5749WAT     H124801  10.102   0.602   7.124  1.0030 -1.3468  0.3612
 5749WAT     H224802  10.099   0.662   6.985  0.4268 -2.3547 -0.0792
 5749WAT    EPW24803  10.140   0.650   7.061  0.1144 -0.5148  0.4418
 5750WAT      O24804   1.049   2.001   2.486  0.1503  0.2189 -0.6363
 5750WAT     H124805   1.014   1.949   2.414 -1.6244  1.9864 -1.1323
 5750WAT     H224806   1.066   2.087   2.447 -0.5541  1.1162  0.9511
 5750WAT    EPW24807   1.047   2.005   2.471 -0.1767  0.5704 -0.4922
 5751WAT      O24808   7.805   9.515   4.713 -0.0570  0.1363 -0.2031
 5751WAT     H124809   7.847   9.435   4.681  1.0456 -0.6978  3.0141
 5751WAT     H224810   7.877   9.568   4.746 -1.1359  0.5804  1.5285
 5751WAT    EPW24811   7.820   9.511   4.713 -0.0536  0.0849  0.4494
 5752WAT      O24812  10.674   3.347   7.434 -0.2950 -0.2605  0.1833
 5752WAT     H124813  10.655   3.289   7.508  3.6752 -2.5020 -0.2910
 5752WAT     H224814  10.766   3.371   7.446 -0.3575  1.7089 -2.5111
 5752WAT    EPW24815  10.683   3.342   7.445  0.2203 -0.2964 -0.2346
 5753WAT      O24816   9.434   3.550   4.346  0.3138  0.2936 -0.0591
 5753WAT     H124817   9.357   3.580   4.298  1.4426  2.3520 -0.6625
 5753WAT     H224818   9.402   3.475   4.397 -2.2239  1.4345  0.1589
 5753WAT    EPW24819   9.420   3.544   4.347  0.1278  0.7156 -0.1099
 5754WAT      O24820   0.122   4.231   5.182  0.9505 -0.4406 -0.0703
 5754WAT     H124821   0.185   4.303   5.183  1.6625 -1.0435 -0.5295
 5754WAT     H224822   0.096   4.220   5.273  1.1336  0.1347  0.0530
 5754WAT    EPW24823   0.127   4.239   5.194  1.0686 -0.4442 -0.1144
 5755WAT      O24824  10.835   2.685   6.383  0.1113  0.3666  0.0037
 5755WAT     H124825  10.779   2.615   6.348  0.5748  2.0947 -4.9221
 5755WAT     H224826  10.923   2.647   6.385 -0.1951 -0.3303  1.2913
 5755WAT    EPW24827  10.839   2.671   6.378  0.1321  0.5027 -0.4761
 5756WAT      O24828  10.588   2.481   2.647  0.5580 -0.5629 -0.2484
 5756WAT     H124829  10.669   2.443   2.680 -0.1555 -1.0902  0.9749
 5756WAT     H224830  10.521   2.449   2.707 -0.4487  0.4585 -0.7999
 5756WAT    EPW24831  10.590   2.472   2.659  0.3314 -0.4978 -0.1597
 5757WAT      O24832   0.242   2.489   7.529  0.2078  0.3213  0.2507
 5757WAT     H124833   0.338   2.493   7.527  0.1898  0.9705  0.4023
 5757WAT     H224834   0.222   2.396   7.521  0.8590  0.1370  0.6674
 5757WAT    EPW24835   0.252   2.478   7.527  0.2913  0.3825  0.3257
 5758WAT      O24836   2.711   1.116   3.550  0.9475  0.0184  0.5967
 5758WAT     H124837   2.713   1.075   3.463  0.1801 -0.2258  0.6761
 5758WAT     H224838   2.626   1.089   3.586  0.6662  1.2268  0.8835
 5758WAT    EPW24839   2.700   1.107   3.543  0.8091  0.1456  0.6450
 5759WAT      O24840  10.450   3.259   5.505 -0.0525  0.0235  0.1035
 5759WAT     H124841  10.360   3.287   5.515 -0.2462 -0.4945 -0.1467
 5759WAT     H224842  10.459   3.239   5.412  0.3745  0.2551  0.0897
 5759WAT    EPW24843  10.440   3.260   5.494 -0.0219 -0.0143  0.0687
 5760WAT      O24844   1.351   5.231   3.760  0.0019  0.3092  0.3583
 5760WAT     H124845   1.260   5.228   3.730 -0.8827  1.8477  2.6564
 5760WAT     H224846   1.391   5.154   3.720 -3.1696 -2.3530  1.8250
 5760WAT    EPW24847   1.345   5.220   3.750 -0.5331  0.1612  0.8548
 5761WAT      O24848   0.230   3.601   3.115 -0.0211  0.0782 -0.1351
 5761WAT     H124849   0.226   3.516   3.072  0.1930 -1.2070  2.2330
 5761WAT     H224850   0.242   3.581   3.208 -1.4415  2.6532  0.7193
 5761WAT    EPW24851   0.231   3.587   3.122 -0.1802  0.2483  0.2900
 5762WAT      O24852   9.483   6.000   5.239 -0.4134  0.3105 -0.5011
 5762WAT     H124853   9.571   5.966   5.221 -0.0425 -0.5619  2.5349
 5762WAT     H224854   9.426   5.949   5.181  0.8666 -0.4896 -1.1101
 5762WAT    EPW24855   9.487   5.989   5.229 -0.1960  0.0899 -0.1810
 5763WAT      O24856  10.307   5.295   7.974  0.2756  0.3695  0.4470
 5763WAT     H124857  10.381   5.234   7.969  0.4954  0.6752 -0.1775
 5763WAT     H224858  10.336   5.362   8.036 -0.0728 -0.2867  1.3408
 5763WAT    EPW24859  10.321   5.295   7.981  0.2584  0.3233  0.4823
 5764WAT      O24860   1.972   5.828   4.848 -0.1387  0.1344 -0.4131
 5764WAT     H124861   2.038   5.758   4.848 -2.7196 -2.5060 -1.8171
 5764WAT     H224862   1.939   5.829   4.938  0.3453 -0.0350 -0.2283
 5764WAT    EPW24863   1.976   5.819   4.860 -0.4152 -0.2363 -0.5739
 5765WAT      O24864   8.313   1.052   5.819  0.1234  0.2560  0.4255
 5765WAT     H124865   8.373   1.033   5.747  2.1345  1.1875  1.7567
 5765WAT     H224866   8.326   0.980   5.880 -0.7903  0.0135  0.3495
 5765WAT    EPW24867   8.322   1.040   5.818  0.2680  0.3469  0.5910
 5766WAT      O24868  10.482   3.635   4.672 -0.8215  0.3515  0.1811
 5766WAT     H124869  10.567   3.676   4.664 -1.2864  1.1665 -0.7397
 5766WAT     H224870  10.500   3.550   4.712  0.5197  0.1502 -0.8049
 5766WAT    EPW24871  10.495   3.629   4.676 -0.7057  0.4325 -0.0703
 5767WAT      O24872   8.235   2.754   4.499 -0.0894 -0.2300 -0.0102
 5767WAT     H124873   8.223   2.788   4.587  1.3882  0.5867 -0.1012
 5767WAT     H224874   8.149   2.717   4.476 -0.2701 -1.1983  2.0549
 5767WAT    EPW24875   8.222   2.754   4.507  0.0815 -0.2500  0.2506
 5768WAT      O24876   7.777   3.312   7.463 -0.2621 -0.3989 -0.6107
 5768WAT     H124877   7.833   3.360   7.401 -0.4398  0.1861 -0.3311
 5768WAT     H224878   7.724   3.380   7.505  1.3111 -0.4870  1.7112
 5768WAT    EPW24879   7.777   3.328   7.460 -0.0780 -0.3332 -0.2675
 5769WAT      O24880   9.039   2.011   4.211  0.6238  0.9390  0.3785
 5769WAT     H124881   8.971   2.003   4.144  2.1145  0.2205 -1.1150
 5769WAT     H224882   9.106   2.066   4.170  0.9734  1.6303  1.8130
 5769WAT    EPW24883   9.039   2.018   4.196  0.8664  0.9353  0.3707
 5770WAT      O24884   9.966   1.384   6.864 -0.1640  0.1565 -0.5002
 5770WAT     H124885  10.025   1.379   6.789  1.1965 -0.6119  0.5941
 5770WAT     H224886   9.950   1.478   6.876  4.7223  0.9448  2.0661
 5770WAT    EPW24887   9.972   1.396   6.855  0.6595  0.1591 -0.0176
 5771WAT      O24888   9.311   6.520   3.080 -0.5701 -0.3775  0.3327
 5771WAT     H124889   9.248   6.478   3.139 -0.5944  0.4376  0.9029
 5771WAT     H224890   9.384   6.458   3.074  0.0198  0.0654  2.2681
 5771WAT    EPW24891   9.312   6.506   3.087 -0.4959 -0.2117  0.6633
 5772WAT      O24892   0.656   3.150   6.145  0.0425  0.2763  0.3641
 5772WAT     H124893   0.560   3.147   6.150 -0.0256  1.3369 -0.0783
 5772WAT     H224894   0.685   3.122   6.232 -0.6553 -0.3951  0.3948
 5772WAT    EPW24895   0.647   3.146   6.157 -0.0585  0.3277  0.3097
 5773WAT      O24896   6.810   8.535   7.476 -0.8691  0.0709 -0.0097
 5773WAT     H124897   6.745   8.497   7.417  0.7994 -2.7489 -0.1895
 5773WAT     H224898   6.761   8.555   7.555 -2.3572  0.0358 -0.8872
 5773WAT    EPW24899   6.795   8.533   7.479 -0.8454 -0.3061 -0.1495
 5774WAT      O24900   8.351   6.050   8.835 -0.1827 -0.1048  0.5510
 5774WAT     H124901   8.307   5.970   8.862 -0.2712 -0.7458 -1.2965
 5774WAT     H224902   8.311   6.119   8.887 -2.2528 -0.8879  0.0886
 5774WAT    EPW24903   8.340   6.049   8.845 -0.4673 -0.2923  0.2470
 5775WAT      O24904   8.951   2.403   2.170  0.7597  0.4447 -0.2195
 5775WAT     H124905   9.027   2.413   2.227  0.7718 -0.1709 -0.1235
 5775WAT     H224906   8.889   2.351   2.221  1.3643 -1.4376 -1.2909
 5775WAT    EPW24907   8.953   2.398   2.185  0.8416  0.1154 -0.3482
 5776WAT      O24908   0.125   3.300   7.932 -0.0636  0.1110 -0.3935
 5776WAT     H124909   0.124   3.362   7.860 -3.7659  1.5695  0.6943
 5776WAT     H224910   0.109   3.353   8.010  1.6230 -1.6795  1.2883
 5776WAT    EPW24911   0.123   3.315   7.933 -0.3294  0.0671 -0.0281
 5777WAT      O24912  10.761   2.083   6.754 -0.4287  0.0708 -0.5755
 5777WAT     H124913  10.774   1.988   6.751 -4.2895 -0.7791  2.2905
 5777WAT     H224914  10.757   2.110   6.662 -0.5594 -2.7478 -1.4802
 5777WAT    EPW24915  10.762   2.074   6.741 -0.9556 -0.4129 -0.3166
 5778WAT      O24916   7.243   2.893   4.495  0.1214 -0.3432 -0.0420
 5778WAT     H124917   7.225   2.868   4.405 -2.2932  3.0454 -0.7159
 5778WAT     H224918   7.292   2.975   4.489  0.6754 -0.4806  1.7532
 5778WAT    EPW24919   7.247   2.900   4.483 -0.1240  0.0856  0.1059
 5779WAT      O24920   0.370   1.709   2.581 -0.9251  0.1567 -0.6923
 5779WAT     H124921   0.295   1.715   2.640 -0.6218  0.8142 -0.3631
 5779WAT     H224922   0.410   1.796   2.584 -0.4653 -0.0269 -1.2831
 5779WAT    EPW24923   0.366   1.721   2.589 -0.8245  0.2192 -0.7268
 5780WAT      O24924   9.779   0.572   5.521 -0.3624 -0.3667 -0.2967
 5780WAT     H124925   9.859   0.586   5.572 -1.4561  0.6743  1.2329
 5780WAT     H224926   9.799   0.608   5.435  0.3579  1.3012  0.5126
 5780WAT    EPW24927   9.792   0.579   5.517 -0.4110 -0.0094  0.0117
 5781WAT      O24928  10.612   3.118   8.223 -0.2664 -0.2802 -0.6957
 5781WAT     H124929  10.602   3.064   8.145 -3.9141 -1.3521  0.3144
 5781WAT     H224930  10.556   3.077   8.289  2.6007  0.5632  2.5952
 5781WAT    EPW24931  10.603   3.106   8.222 -0.3695 -0.3103 -0.1278
 5782WAT      O24932   8.139   3.178   4.066  0.1695 -0.0846  0.6243
 5782WAT     H124933   8.158   3.156   4.157  2.9695  0.2338  0.2007
 5782WAT     H224934   8.206   3.242   4.043 -2.1136  1.9451 -0.9060
 5782WAT    EPW24935   8.150   3.184   4.075  0.2379  0.2252  0.3667
 5783WAT      O24936   0.713   1.108   5.008  0.1563  0.4626 -0.2940
 5783WAT     H124937   0.734   1.014   5.010 -1.8660 -0.2294 -3.7876
 5783WAT     H224938   0.798   1.151   4.996  0.9702 -1.0675 -0.2587
 5783WAT    EPW24939   0.727   1.101   5.007 -0.0031  0.1695 -0.7501
 5784WAT      O24940  10.932   0.625   5.312 -0.2035  0.0316  0.3495
 5784WAT     H124941  10.973   0.539   5.325  1.3688  0.9822  2.2356
 5784WAT     H224942  10.888   0.642   5.395 -0.6137  1.0140 -0.0618
 5784WAT    EPW24943  10.931   0.616   5.325 -0.0501  0.2865  0.5438
 5785WAT      O24944   1.107   0.698   6.655  0.3090 -0.5630 -0.7081
 5785WAT     H124945   1.085   0.760   6.585  1.7472  0.1790 -0.5327
 5785WAT     H224946   1.080   0.743   6.735 -0.8071 -1.1728 -0.7230
 5785WAT    EPW24947   1.101   0.712   6.656  0.3514 -0.5456 -0.6869
 5786WAT      O24948   6.323   2.814   6.056 -0.3494 -0.2192  0.4005
 5786WAT     H124949   6.299   2.753   6.127 -2.5454  0.7483  0.5828
 5786WAT     H224950   6.268   2.891   6.072  0.5456  0.8052 -1.2619
 5786WAT    EPW24951   6.312   2.816   6.068 -0.5212  0.0437  0.2055
 5787WAT      O24952   7.288   9.529   4.889  0.1975 -0.4487  0.8541
 5787WAT     H124953   7.289   9.436   4.866  3.0740 -0.9502  2.5465
 5787WAT     H224954   7.198   9.558   4.870 -0.5421 -3.3302 -0.4921
 5787WAT    EPW24955   7.276   9.521   4.884  0.4795 -0.8950  0.9003
 5788WAT      O24956   7.529  10.061   5.401 -0.2136 -0.3603 -0.1559
 5788WAT     H124957   7.505   9.992   5.340  0.5099 -1.7163  1.0336
 5788WAT     H224958   7.457  10.124   5.396 -1.5599 -1.8513 -0.3166
 5788WAT    EPW24959   7.517  10.060   5.393 -0.2956 -0.7362 -0.0200
 5789WAT      O24960   9.400   3.636   4.634 -0.4408 -0.7839  0.2494
 5789WAT     H124961   9.411   3.664   4.542  0.7738 -0.8773  0.3506
 5789WAT     H224962   9.414   3.716   4.684 -0.0978 -0.9291  0.3907
 5789WAT    EPW24963   9.403   3.651   4.628 -0.2351 -0.8154  0.2813
 5790WAT      O24964   1.720   4.966   7.567 -0.0288 -0.0922 -0.0805
 5790WAT     H124965   1.798   4.986   7.619 -1.1224 -0.5641  1.8234
 5790WAT     H224966   1.744   4.886   7.519  0.0191 -1.4321  2.0579
 5790WAT    EPW24967   1.733   4.958   7.567 -0.1668 -0.3309  0.4525
 5791WAT      O24968  10.974   0.634   7.665 -0.4054  0.0153 -0.2606
 5791WAT     H124969  10.908   0.565   7.664 -0.5266  0.1095  0.5580
 5791WAT     H224970  11.009   0.636   7.575 -2.5259  0.9734 -1.1329
 5791WAT    EPW24971  10.970   0.625   7.653 -0.7011  0.1541 -0.2680
 5792WAT      O24972   3.068   7.438   0.194 -0.3707 -0.0578  0.3302
 5792WAT     H124973   2.991   7.446   0.251  1.0528 -0.8818  2.4769
 5792WAT     H224974   3.040   7.376   0.126 -1.4083 -0.8947  1.4561
 5792WAT    EPW24975   3.054   7.431   0.193 -0.3197 -0.2770  0.7618
 5793WAT      O24976   5.614   2.240   7.384  0.3053 -0.6850  0.0648
 5793WAT     H124977   5.586   2.293   7.459  0.4500  0.8459 -0.9097
 5793WAT     H224978   5.535   2.194   7.356  0.2261 -1.1873  1.0694
 5793WAT    EPW24979   5.600   2.241   7.390  0.3142 -0.5494  0.0689
 5794WAT      O24980  10.074   2.954   6.410  0.0395  0.1404  0.0349
 5794WAT     H124981  10.100   2.900   6.336 -1.1327 -2.5254  1.4540
 5794WAT     H224982  10.156   2.970   6.458  0.2599 -1.3315  0.1772
 5794WAT    EPW24983  10.089   2.949   6.407 -0.0863 -0.4053  0.2408
 5795WAT      O24984   8.276   3.659   6.361  0.0997 -0.6349  0.0955
 5795WAT     H124985   8.341   3.726   6.343 -1.6718  0.8123 -1.2551
 5795WAT     H224986   8.278   3.648   6.456  1.4374  0.2497  0.1935
 5795WAT    EPW24987   8.285   3.666   6.371  0.0424 -0.3275 -0.0699
 5796WAT      O24988   8.898   8.763   6.880  1.0388 -0.2058 -0.0965
 5796WAT     H124989   8.806   8.787   6.868 -0.0669 -1.9554  3.4287
 5796WAT     H224990   8.941   8.845   6.906 -0.5612 -0.0579  2.4229
 5796WAT    EPW24991   8.891   8.777   6.882  0.6819 -0.4172  0.7007
 5797WAT      O24992   9.727   7.057   5.344  0.8817  0.2143  0.3592
 5797WAT     H124993   9.758   7.063   5.434  0.6940  0.0965  0.4351
 5797WAT     H224994   9.645   7.107   5.344 -1.8306 -3.6382  1.5272
 5797WAT    EPW24995   9.720   7.064   5.356  0.4992 -0.3092  0.5231
 5798WAT      O24996   6.507   5.065   7.333 -0.2988 -0.2995  0.2266
 5798WAT     H124997   6.433   5.044   7.276  0.4048 -0.1778 -0.7455
 5798WAT     H224998   6.470   5.124   7.399 -1.4419 -1.5415  0.7704
 5798WAT    EPW24999   6.492   5.070   7.334 -0.3564 -0.4473  0.1700
 5799WAT      O25000  10.245   9.828   4.741 -0.1888  0.0576  0.3999
 5799WAT     H125001  10.241   9.735   4.763  1.1804 -0.4984 -1.4399
 5799WAT     H225002  10.336   9.852   4.757 -0.3918  0.9251  0.2687
 5799WAT    EPW25003  10.256   9.819   4.746 -0.0348  0.0987  0.1400
 5800WAT      O25004   0.686   1.048   4.736 -0.0709  0.4696  0.4908
 5800WAT     H125005   0.738   0.968   4.737 -0.8140 -0.1372 -1.8102
 5800WAT     H225006   0.668   1.066   4.828  1.0815 -1.3664  1.1374
 5800WAT    EPW25007   0.690   1.040   4.748 -0.0169  0.1473  0.2725
 5801WAT      O25008  10.217   3.501   4.266  0.0790  0.0313 -0.1043
 5801WAT     H125009  10.215   3.455   4.182  1.8680 -2.0478  0.9008
 5801WAT     H225010  10.166   3.447   4.325 -0.1769  0.8638  0.4564
 5801WAT    EPW25011  10.210   3.488   4.263  0.2813 -0.1332  0.1023
 5802WAT      O25012   0.433   0.590   5.700  0.0429 -0.1000  0.0813
 5802WAT     H125013   0.369   0.634   5.643 -1.2250  2.6660  3.2841
 5802WAT     H225014   0.380   0.538   5.760  1.2344 -1.7614 -0.2356
 5802WAT    EPW25015   0.418   0.589   5.700  0.0328  0.0457  0.4618
 5803WAT      O25016   5.711  10.245   6.533 -0.8589  0.3984  0.1378
 5803WAT     H125017   5.722  10.258   6.439  0.9361  0.3374  0.2971
 5803WAT     H225018   5.617  10.247   6.547 -1.1913 -0.2478 -1.7505
 5803WAT    EPW25019   5.700  10.247   6.522 -0.6657  0.3052 -0.0901
 5804WAT      O25020  10.251   3.285   3.329 -0.2765  0.5458  0.0603
 5804WAT     H125021  10.157   3.269   3.326 -0.0725 -0.6001 -1.0681
 5804WAT     H225022  10.289   3.200   3.347  0.6194  0.6733 -1.1129
 5804WAT    EPW25023  10.244   3.272   3.331 -0.1311  0.4116 -0.2434
 5805WAT      O25024   6.878   0.457   6.058 -0.1792  0.7836  0.1721
 5805WAT     H125025   6.841   0.543   6.076  0.9290  1.4108 -0.4435
 5805WAT     H225026   6.931   0.470   5.979  2.9563  0.4224  2.0812
 5805WAT    EPW25027   6.880   0.470   6.050  0.3803  0.8187  0.3428
 5806WAT      O25028   6.132   3.576   4.822  0.4358 -0.0158  0.5595
 5806WAT     H125029   6.107   3.669   4.816 -1.4021 -0.5127 -0.1838
 5806WAT     H225030   6.120   3.554   4.914 -0.4598  0.1625  0.4978
 5806WAT    EPW25031   6.127   3.586   4.834  0.0753 -0.0578  0.4532
 5807WAT      O25032   7.761   9.810   6.354 -0.6000 -0.0855  0.0450
 5807WAT     H125033   7.848   9.774   6.374 -0.3125  1.2477  1.4030
 5807WAT     H225034   7.780   9.894   6.311 -1.2479 -0.3260 -0.7390
 5807WAT    EPW25035   7.775   9.817   6.351 -0.6478  0.0587  0.1206
 5808WAT      O25036   9.826   4.337   7.842 -0.4422  0.1751  0.0938
 5808WAT     H125037   9.827   4.427   7.810 -1.9840 -0.3961 -1.7243
 5808WAT     H225038   9.768   4.339   7.918 -0.3270  0.7161  0.1724
 5808WAT    EPW25039   9.819   4.349   7.848 -0.6299  0.1714 -0.1354
 5809WAT      O25040   1.408   2.544   4.842  0.9141  0.9109  0.1201
 5809WAT     H125041   1.481   2.504   4.794  0.9363  3.8107 -2.6217
 5809WAT     H225042   1.337   2.548   4.778 -0.5502  1.1275  1.6987
 5809WAT    EPW25043   1.408   2.540   4.827  0.7239  1.3219 -0.0334
 5810WAT      O25044   9.072   2.903   4.191  0.0558 -1.0838  0.1043
 5810WAT     H125045   9.107   2.981   4.147  1.7983 -2.1830 -0.5515
 5810WAT     H225046   8.994   2.935   4.236  0.3195  0.8934 -0.7113
 5810WAT    EPW25047   9.066   2.918   4.191  0.3204 -0.9680 -0.0896
 5811WAT      O25048   0.236   2.757   5.866 -0.1311 -0.0991  0.3016
 5811WAT     H125049   0.312   2.718   5.822 -1.7882 -0.2599 -2.7357
 5811WAT     H225050   0.185   2.682   5.897 -0.3289 -0.1004 -0.0261
 5811WAT    EPW25051   0.239   2.742   5.864 -0.3757 -0.1205 -0.1421
 5812WAT      O25052   0.141   5.734   5.328 -0.6007 -0.4984 -0.1928
 5812WAT     H125053   0.226   5.706   5.362  0.2633  0.2032 -1.7036
 5812WAT     H225054   0.094   5.765   5.406  0.8532 -0.0677  0.5585
 5812WAT    EPW25055   0.146   5.735   5.343 -0.2950 -0.3493 -0.2930
 5813WAT      O25056   8.755   3.892   4.623  0.1485  0.0362  0.0793
 5813WAT     H125057   8.696   3.964   4.601  0.9335  0.7440  0.2394
 5813WAT     H225058   8.797   3.869   4.540  0.8693  0.6701  0.2499
 5813WAT    EPW25059   8.753   3.898   4.610  0.3471  0.2131  0.1228
 5814WAT      O25060   6.835   3.787   6.440 -0.1632  0.5830 -0.1801
 5814WAT     H125061   6.873   3.857   6.494 -1.2518 -0.2474  1.7701
 5814WAT     H225062   6.759   3.827   6.398  0.6778  1.2321 -1.1241
 5814WAT    EPW25063   6.830   3.802   6.442 -0.1960  0.5591 -0.0474
 5815WAT      O25064   0.222   3.745   6.844 -0.0089  0.3218  0.1755
 5815WAT     H125065   0.132   3.757   6.875 -0.0733 -0.7810  0.4314
 5815WAT     H225066   0.213   3.698   6.761  0.2422  2.0037 -0.8506
 5815WAT    EPW25067   0.209   3.741   6.837  0.0157  0.3982  0.0739
 5816WAT      O25068  10.007   1.890   8.267  0.2441  0.4258  0.1438
 5816WAT     H125069  10.059   1.904   8.347 -0.7498  0.6542  0.7673
 5816WAT     H225070  10.069   1.851   8.205  1.6070  2.2510  0.2744
 5816WAT    EPW25071  10.022   1.887   8.270  0.2928  0.6967  0.2432
 5817WAT      O25072   1.263   1.064   2.940 -0.5621  0.5904  0.2362
 5817WAT     H125073   1.297   0.976   2.923  1.3574  1.1707  0.7567
 5817WAT     H225074   1.300   1.118   2.870 -0.5666  1.2166  0.6993
 5817WAT    EPW25075   1.272   1.060   2.929 -0.3096  0.7496  0.3661
 5818WAT      O25076   8.587   0.853   4.905  0.3617 -0.4522 -0.4129
 5818WAT     H125077   8.569   0.814   4.991  2.6602  0.7829  0.6891
 5818WAT     H225078   8.608   0.944   4.924 -0.4933  0.2298 -2.4888
 5818WAT    EPW25079   8.587   0.860   4.919  0.5522 -0.1993 -0.5414
 5819WAT      O25080   9.188   1.831   8.291 -0.4294 -0.3175  0.2066
 5819WAT     H125081   9.126   1.876   8.347  0.8808  0.9847  0.6724
 5819WAT     H225082   9.240   1.900   8.251  1.4471 -1.3434  0.7068
 5819WAT    EPW25083   9.187   1.846   8.293 -0.0095 -0.2810  0.3338
 5820WAT      O25084   0.314   3.124   8.671 -0.8020  0.1602 -0.1395
 5820WAT     H125085   0.273   3.156   8.751  0.6127 -1.6091  1.4220
 5820WAT     H225086   0.375   3.194   8.646  2.0701 -0.8931  3.0444
 5820WAT    EPW25087   0.317   3.137   8.678 -0.2366 -0.2121  0.4869
 5821WAT      O25088  10.405   3.473   6.095 -0.3248 -0.5496 -0.5126
 5821WAT     H125089  10.432   3.514   6.177  0.4060 -0.9050 -0.5676
 5821WAT     H225090  10.372   3.546   6.042 -0.5797 -0.2816  0.0033
 5821WAT    EPW25091  10.404   3.488   6.099 -0.2623 -0.5611 -0.4518
 5822WAT      O25092   1.092   2.322   4.342  0.2687 -0.3721  0.5496
 5822WAT     H125093   1.187   2.325   4.344  0.2673 -0.5270  0.8742
 5822WAT     H225094   1.070   2.229   4.339  0.1254 -0.3435  0.6596
 5822WAT    EPW25095   1.101   2.310   4.342  0.2497 -0.3889  0.6073
 5823WAT      O25096   5.623   8.694   7.203  0.4141  0.1316 -0.6239
 5823WAT     H125097   5.593   8.734   7.285  1.6649 -1.2994  0.5859
 5823WAT     H225098   5.610   8.763   7.138  0.7962  1.8844  1.0333
 5823WAT    EPW25099   5.617   8.708   7.205  0.6297  0.1740 -0.2458
 5824WAT      O25100   9.832   3.819   3.593 -0.1046 -0.8936 -0.3737
 5824WAT     H125101   9.902   3.873   3.629 -0.6068 -0.7913  0.4611
 5824WAT     H225102   9.751   3.855   3.631 -0.6809 -0.6009 -1.8104
 5824WAT    EPW25103   9.830   3.831   3.603 -0.2470 -0.8414 -0.4531
 5825WAT      O25104   9.268   4.153   6.282  0.1104 -0.6771  0.8310
 5825WAT     H125105   9.229   4.158   6.195 -0.5267  2.6951  1.1645
 5825WAT     H225106   9.202   4.107   6.335 -0.4620 -0.8457 -0.0090
 5825WAT    EPW25107   9.254   4.147   6.278 -0.0486 -0.2546  0.7644
 5826WAT      O25108   9.525   0.742   7.446  0.1377 -0.2429  0.0622
 5826WAT     H125109   9.571   0.734   7.529 -0.7103  0.6713  0.6463
 5826WAT     H225110   9.451   0.683   7.454  0.1904 -0.3378 -0.1477
 5826WAT    EPW25111   9.522   0.734   7.458  0.0334 -0.1348  0.1113
 5827WAT      O25112   0.513   4.174   6.501  0.3213 -0.2651 -0.4693
 5827WAT     H125113   0.491   4.261   6.468 -0.2856 -0.9143 -1.8533
 5827WAT     H225114   0.606   4.164   6.479 -0.3954 -1.2642 -3.5340
 5827WAT    EPW25115   0.523   4.185   6.493  0.1467 -0.4826 -1.0560
 5828WAT      O25116   5.433   9.147   5.465 -0.6262 -0.4463  0.6420
 5828WAT     H125117   5.484   9.110   5.537 -2.0296 -1.2851  1.2470
 5828WAT     H225118   5.471   9.109   5.386 -0.9487 -1.8785  1.1437
 5828WAT    EPW25119   5.445   9.137   5.464 -0.8538 -0.7458  0.7880
 5829WAT      O25120  10.079   2.969   6.011  0.2246  0.0229 -0.3135
 5829WAT     H125121  10.039   2.983   5.925 -1.2079 -1.7860  0.0068
 5829WAT     H225122  10.148   2.904   5.994  0.2243 -0.0149 -0.1626
 5829WAT    EPW25123  10.083   2.963   5.997  0.0353 -0.2208 -0.2513
 5830WAT      O25124   9.461   2.933   6.430 -0.0889  0.3504 -0.2995
 5830WAT     H125125   9.529   2.950   6.496  0.8486 -0.8947 -0.9135
 5830WAT     H225126   9.379   2.945   6.477  0.5625  0.2988  0.8844
 5830WAT    EPW25127   9.459   2.937   6.445  0.1206  0.1795 -0.2244
 5831WAT      O25128   1.071   2.669   6.099 -0.2173 -0.5228 -0.0746
 5831WAT     H125129   1.049   2.616   6.022 -0.8991  1.3295 -1.2218
 5831WAT     H225130   1.120   2.743   6.064 -0.1842  0.1542  1.3428
 5831WAT    EPW25131   1.074   2.672   6.084 -0.3029 -0.1892 -0.0389
 5832WAT      O25132   7.563   1.396   6.907 -0.4959  0.1079 -0.8097
 5832WAT     H125133   7.499   1.464   6.887 -1.1476 -0.4203 -0.5674
 5832WAT     H225134   7.515   1.332   6.960  0.3771 -0.0384 -0.1665
 5832WAT    EPW25135   7.548   1.396   6.911 -0.4668  0.0190 -0.6928
 5833WAT      O25136   9.302   9.670   5.294 -0.1060 -0.3966 -0.5082
 5833WAT     H125137   9.249   9.694   5.370  0.2956 -1.1728  0.0235
 5833WAT     H225138   9.256   9.596   5.255 -0.2141 -0.1128 -0.9195
 5833WAT    EPW25139   9.289   9.664   5.299 -0.0672 -0.4616 -0.4926
 5834WAT      O25140   9.306   0.546   2.954 -0.0951  0.2962  1.5260
 5834WAT     H125141   9.257   0.464   2.967 -0.1498  0.5931  3.5722
 5834WAT     H225142   9.322   0.578   3.043 -0.5400  2.8072  0.7678
 5834WAT    EPW25143   9.302   0.539   2.967 -0.1607  0.6666  1.6959
 5835WAT      O25144   9.717   0.172   5.557  0.2147 -0.3205 -0.1774
 5835WAT     H125145   9.635   0.218   5.539  1.3547  1.1974 -1.8382
 5835WAT     H225146   9.714   0.152   5.650 -2.4705 -1.2394 -0.3684
 5835WAT    EPW25147   9.706   0.175   5.567  0.0105 -0.2415 -0.4215
 5836WAT      O25148  10.770   3.375   5.823  0.6084 -0.8713  0.0946
 5836WAT     H125149  10.814   3.312   5.765  0.6329 -1.0712  0.3297
 5836WAT     H225150  10.837   3.400   5.886  0.2193 -1.6451  0.8318
 5836WAT    EPW25151  10.784   3.370   5.824  0.5608 -0.9997  0.2227
 5837WAT      O25152   9.748   0.233   4.429  0.1336  0.0005 -0.1739
 5837WAT     H125153   9.693   0.301   4.468  0.9551 -0.1868  1.3886
 5837WAT     H225154   9.718   0.152   4.471  0.0603 -0.4422 -1.0437
 5837WAT    EPW25155   9.737   0.231   4.440  0.2322 -0.0826 -0.0827
 5838WAT      O25156  10.951   1.008   5.567 -0.0634  0.2789  0.1702
 5838WAT     H125157  10.924   0.917   5.556 -1.1417  0.5671  0.3981
 5838WAT     H225158  11.044   1.002   5.592  0.6518 -0.6593 -2.3445
 5838WAT    EPW25159  10.960   0.996   5.569 -0.1116  0.1931 -0.1314
 5839WAT      O25160   1.467   2.736   6.991 -0.0219 -0.2387 -0.8749
 5839WAT     H125161   1.381   2.750   7.029  0.2689 -0.1406 -0.2433
 5839WAT     H225162   1.492   2.649   7.020  1.5708  1.0221  1.9253
 5839WAT    EPW25163   1.459   2.727   7.000  0.2266 -0.0594 -0.4225
 5840WAT      O25164   8.443   4.172   6.707  0.4220 -0.2224 -0.0237
 5840WAT     H125165   8.378   4.134   6.765  0.8265  0.1338  0.6751
 5840WAT     H225166   8.524   4.125   6.727  0.3269 -0.9097 -1.1319
 5840WAT    EPW25167   8.445   4.161   6.717  0.4630 -0.2658 -0.0777
 5841WAT      O25168   4.157   3.313   7.491 -0.3881 -0.7302  0.3170
 5841WAT     H125169   4.082   3.358   7.529  0.2636 -0.3718  1.2211
 5841WAT     H225170   4.194   3.376   7.430 -0.5024 -0.6943  0.2851
 5841WAT    EPW25171   4.152   3.327   7.488 -0.3173 -0.6782  0.4323
 5842WAT      O25172   9.012   0.431   7.636 -0.1480 -0.5582 -0.8512
 5842WAT     H125173   8.969   0.351   7.668 -3.6529  1.1519 -0.8770
 5842WAT     H225174   9.062   0.402   7.560  0.0696 -2.9792  0.1138
 5842WAT    EPW25175   9.013   0.416   7.630 -0.5813 -0.6520 -0.7274
 5843WAT      O25176   1.807   7.172   0.701 -0.3553 -0.2417  0.2946
 5843WAT     H125177   1.823   7.195   0.793 -0.2420 -2.3054  0.8390
 5843WAT     H225178   1.890   7.190   0.657  0.2624 -1.1720  1.0359
 5843WAT    EPW25179   1.820   7.177   0.707 -0.2589 -0.6366  0.4642
 5844WAT      O25180   8.289   1.932   2.309  0.1115  0.6464 -0.7411
 5844WAT     H125181   8.280   1.853   2.362 -0.4503  1.5982  0.6635
 5844WAT     H225182   8.372   1.970   2.338  0.2210  0.7394 -1.1736
 5844WAT    EPW25183   8.299   1.927   2.320  0.0515  0.7842 -0.6127
 5845WAT      O25184   7.966   2.102   7.208 -0.0607 -0.4099 -0.2137
 5845WAT     H125185   8.020   2.047   7.265  0.0836  0.4134  0.4566
 5845WAT     H225186   8.027   2.169   7.175 -0.0189 -1.1445 -1.7367
 5845WAT    EPW25187   7.981   2.104   7.211 -0.0362 -0.3982 -0.3262
 5846WAT      O25188  10.545   2.997   7.968 -0.2968 -0.8632 -0.2443
 5846WAT     H125189  10.487   3.073   7.969 -0.6471 -1.1281  0.5290
 5846WAT     H225190  10.627   3.030   7.931 -0.2472  0.0480  0.6243
 5846WAT    EPW25191  10.548   3.012   7.963 -0.3362 -0.7780 -0.0279
 5847WAT      O25192   6.792   9.687   3.748 -0.2126  0.1175 -0.5383
 5847WAT     H125193   6.700   9.714   3.744 -0.0567  0.9548  0.8182
 5847WAT     H225194   6.839   9.754   3.697 -0.4888 -1.3118 -2.8310
 5847WAT    EPW25195   6.786   9.700   3.741 -0.2282  0.0391 -0.6617
 5848WAT      O25196  10.938   3.180   8.556  0.2863  0.1822 -0.1685
 5848WAT     H125197  10.935   3.169   8.461  0.6800 -1.6525 -0.0062
 5848WAT     H225198  10.895   3.102   8.591  1.1360  0.2811  1.1749
 5848WAT    EPW25199  10.932   3.168   8.548  0.4506 -0.0467  0.0296
 5849WAT      O25200   5.421   9.588   0.032 -0.0722  0.0800  0.2159
 5849WAT     H125201   5.461   9.546   0.108 -1.2620  0.2443  0.9583
 5849WAT     H225202   5.488   9.649   0.000  0.1464  0.6025  1.6302
 5849WAT    EPW25203   5.435   9.590   0.038 -0.2003  0.1707  0.5002
 5850WAT      O25204   1.557   3.369   4.176 -1.3707 -0.5402 -0.5704
 5850WAT     H125205   1.562   3.431   4.249  1.2419  0.6492 -1.6633
 5850WAT     H225206   1.561   3.424   4.098 -1.2066 -1.9783 -1.5972
 5850WAT    EPW25207   1.558   3.385   4.175 -1.0045 -0.5730 -0.8500
 5851WAT      O25208   5.175  10.017   6.666  0.0742  0.7335 -0.1696
 5851WAT     H125209   5.150  10.031   6.758  0.8933  0.4801  0.1026
 5851WAT     H225210   5.202   9.926   6.662  0.6488  0.9154 -0.5193
 5851WAT    EPW25211   5.175  10.007   6.678  0.2580  0.7238 -0.1800
 5852WAT      O25212   3.681   9.342   7.297  0.1610 -0.2037 -0.5938
 5852WAT     H125213   3.772   9.325   7.271  0.6627  0.4705  0.6310
 5852WAT     H225214   3.633   9.343   7.214  1.6574  1.7183 -1.5340
 5852WAT    EPW25215   3.687   9.340   7.282  0.4245  0.1383 -0.5562
 5853WAT      O25216   4.920   8.355   0.661  1.1672  0.1382 -0.8600
 5853WAT     H125217   4.991   8.418   0.675  1.7949 -0.5000 -1.1035
 5853WAT     H225218   4.934   8.322   0.572  0.9690 -0.4959 -0.6619
 5853WAT    EPW25219   4.931   8.359   0.651  1.2238 -0.0300 -0.8660
 5854WAT      O25220   6.908   9.731   8.071 -0.1430  0.5154 -0.4628
 5854WAT     H125221   6.917   9.810   8.017 -0.1933  0.4639 -0.5460
 5854WAT     H225222   6.834   9.684   8.033 -0.0716  0.3949 -0.4532
 5854WAT    EPW25223   6.900   9.736   8.059 -0.1404  0.4930 -0.4721
 5855WAT      O25224   6.774   3.200   6.378  1.1648 -0.5509  0.7903
 5855WAT     H125225   6.789   3.290   6.350  1.6501 -0.3514  1.6623
 5855WAT     H225226   6.686   3.200   6.413  1.8372  0.0671  2.5841
 5855WAT    EPW25227   6.765   3.212   6.379  1.3175 -0.4431  1.1418
 5856WAT      O25228   2.258   2.167   5.039  0.0382 -0.4505 -0.3421
 5856WAT     H125229   2.324   2.224   5.080 -1.0802  0.6131  0.0567
 5856WAT     H225230   2.242   2.207   4.954  0.3759 -1.0913 -0.7145
 5856WAT    EPW25231   2.265   2.180   5.033 -0.0648 -0.3947 -0.3388
 5857WAT      O25232   9.669   3.349   6.999  0.2706 -0.1067 -0.0603
 5857WAT     H125233   9.665   3.426   7.056  1.6739  0.4819 -0.7140
 5857WAT     H225234   9.705   3.280   7.055 -0.6232 -0.2082  0.4157
 5857WAT    EPW25235   9.673   3.350   7.014  0.3376 -0.0424 -0.0837
 5858WAT      O25236   9.043   0.040   7.482  0.0764 -0.3544  0.1931
 5858WAT     H125237   9.048  -0.042   7.433 -0.6777  0.0883 -0.6464
 5858WAT     H225238   9.024   0.106   7.416  2.3716  0.7940  0.5821
 5858WAT    EPW25239   9.041   0.038   7.467  0.2799 -0.1445  0.1338
 5859WAT      O25240   1.656   0.941   5.629  0.0173 -0.2174  0.4191
 5859WAT     H125241   1.695   0.861   5.666  1.7540 -0.7839 -2.3203
 5859WAT     H225242   1.617   0.912   5.547  0.2544  1.6741 -0.4063
 5859WAT    EPW25243   1.656   0.926   5.623  0.2777 -0.0426 -0.0510
 5860WAT      O25244   8.062   9.767   5.698  0.5631 -0.0867 -0.1951
 5860WAT     H125245   7.995   9.706   5.729 -0.0984  0.3326 -0.7796
 5860WAT     H225246   8.140   9.713   5.689 -0.4300 -1.2958 -2.3990
 5860WAT    EPW25247   8.063   9.752   5.701  0.3457 -0.1907 -0.5631
 5861WAT      O25248   9.088   6.497   0.882  0.2683  0.0985  0.1862
 5861WAT     H125249   9.076   6.592   0.884 -0.6953 -0.0212  1.4751
 5861WAT     H225250   8.999   6.462   0.886  0.4694 -0.8960 -2.2052
 5861WAT    EPW25251   9.074   6.505   0.883  0.1669 -0.0484  0.0408
 5862WAT      O25252   6.251   8.690   6.756  0.3226  0.5570  0.9867
 5862WAT     H125253   6.238   8.702   6.850 -1.8192 -1.1441  0.9882
 5862WAT     H225254   6.238   8.596   6.742 -0.2892  0.8948 -1.1073
 5862WAT    EPW25255   6.247   8.679   6.766 -0.0405  0.3772  0.7107
 5863WAT      O25256   7.497  10.058   6.191 -0.3514 -0.7298 -0.2163
 5863WAT     H125257   7.494  10.026   6.281  0.1439 -2.1444 -0.6607
 5863WAT     H225258   7.407  10.084   6.172 -0.4531 -0.3753  0.6882
 5863WAT    EPW25259   7.485  10.057   6.200 -0.2992 -0.8698 -0.1557
 5864WAT      O25260   8.484   1.985   7.300  0.2379 -0.1959 -0.0666
 5864WAT     H125261   8.556   2.006   7.241  1.7587 -2.4132  0.8496
 5864WAT     H225262   8.448   2.070   7.325  2.1913  0.9755 -0.9799
 5864WAT    EPW25263   8.489   1.999   7.296  0.6962 -0.3338 -0.0663
 5865WAT      O25264   6.076   2.220   5.856 -0.6956  0.1156  1.1960
 5865WAT     H125265   6.057   2.136   5.814  1.9063  0.1044 -0.2371
 5865WAT     H225266   6.144   2.258   5.800 -1.8019  3.2113  1.7941
 5865WAT    EPW25267   6.083   2.214   5.843 -0.4983  0.5225  1.0858
 5866WAT      O25268   9.735   3.515   1.661  0.6400 -1.1751  0.6075
 5866WAT     H125269   9.726   3.539   1.753  1.2142  0.7864  0.2005
 5866WAT     H225270   9.744   3.420   1.662 -0.0841 -1.2745  2.5023
 5866WAT    EPW25271   9.735   3.506   1.673  0.6199 -0.9296  0.8038
 5867WAT      O25272   2.630   3.363   6.288 -0.2926 -0.1381  0.4848
 5867WAT     H125273   2.570   3.408   6.347 -1.5028 -0.6114 -0.3448
 5867WAT     H225274   2.650   3.427   6.220  0.7832  0.2749  1.1704
 5867WAT    EPW25275   2.625   3.377   6.287 -0.3104 -0.1459  0.4659
 5868WAT      O25276   9.891   6.004   5.472 -0.2940  0.1316  0.3328
 5868WAT     H125277   9.815   5.947   5.465 -0.0156 -0.2579  0.4419
 5868WAT     H225278   9.898   6.024   5.565 -0.6933  0.7662  0.2315
 5868WAT    EPW25279   9.882   5.999   5.483 -0.3095  0.1638  0.3335
 5869WAT      O25280   7.710   2.363   6.998 -0.6217  1.0194  0.3083
 5869WAT     H125281   7.680   2.337   7.085  1.2659  2.7504  1.5505
 5869WAT     H225282   7.763   2.441   7.013 -1.5332  2.3194 -2.5978
 5869WAT    EPW25283   7.713   2.370   7.012 -0.4930  1.4192  0.0887
 5870WAT      O25284   6.076   9.229   6.098 -0.2267  0.1506 -0.7734
 5870WAT     H125285   6.020   9.153   6.083  0.4662 -0.4018 -0.6118
 5870WAT     H225286   6.029   9.280   6.165  0.5041 -1.4510  1.0713
 5870WAT    EPW25287   6.062   9.226   6.105 -0.0391 -0.1340 -0.5088
 5871WAT      O25288   5.944   9.425   6.295  0.0435  0.5390  0.6842
 5871WAT     H125289   5.961   9.421   6.389  0.2517  2.1563  0.7424
 5871WAT     H225290   5.995   9.500   6.264  0.4279 -0.3031 -0.8322
 5871WAT    EPW25291   5.953   9.434   6.303  0.1216  0.6413  0.4916
 5872WAT      O25292   7.998   1.016   1.101 -0.5648  0.5077 -0.8123
 5872WAT     H125293   8.056   0.942   1.085  0.4143  1.1537 -0.4014
 5872WAT     H225294   8.036   1.061   1.177 -2.3334  0.2539  0.2888
 5872WAT    EPW25295   8.011   1.012   1.109 -0.6685  0.5595 -0.6129
 5873WAT      O25296   0.586   5.004   5.756  0.9397  0.0532 -0.0779
 5873WAT     H125297   0.678   4.993   5.731  1.7113 -0.3242  2.6155
 5873WAT     H225298   0.585   5.084   5.809 -0.3700  0.2553 -0.3869
 5873WAT    EPW25299   0.598   5.013   5.760  0.8687  0.0300  0.2367
 5874WAT      O25300   1.611   4.440   8.385  0.8763  0.5991  0.3617
 5874WAT     H125301   1.611   4.491   8.304  1.6786  0.7759  0.4611
 5874WAT     H225302   1.678   4.373   8.370  0.5312  0.1973  0.6119
 5874WAT    EPW25303   1.620   4.438   8.372  0.9366  0.5693  0.4077
 5875WAT      O25304   1.349   1.982   6.049  0.1729 -0.3094  0.0831
 5875WAT     H125305   1.277   2.017   5.997 -0.2667  0.1432  0.9580
 5875WAT     H225306   1.326   1.890   6.064  0.8962 -0.7739 -1.4888
 5875WAT    EPW25307   1.336   1.974   6.044  0.2104 -0.3110 -0.0091
 5876WAT      O25308   8.135   9.924   5.116 -0.0830  0.7582  0.0299
 5876WAT     H125309   8.156   9.840   5.158  0.5521  2.0513  2.4780
 5876WAT     H225310   8.044   9.939   5.138 -0.8777 -0.2480 -2.2901
 5876WAT    EPW25311   8.126   9.915   5.125 -0.1044  0.7954  0.0470
 5877WAT      O25312   9.734   3.384   5.736 -0.2346 -0.2566  0.1173
 5877WAT     H125313   9.805   3.362   5.796  0.3902  1.1570 -0.0571
 5877WAT     H225314   9.676   3.309   5.739  1.3714 -1.5627  0.1085
 5877WAT    EPW25315   9.736   3.372   5.744  0.0601 -0.2425  0.0932
 5878WAT      O25316   8.722   1.495   6.721 -0.0014 -0.4750 -0.1095
 5878WAT     H125317   8.701   1.475   6.812  0.2092  1.8803  0.5148
 5878WAT     H225318   8.641   1.531   6.685 -1.2373 -4.5070 -2.0152
 5878WAT    EPW25319   8.709   1.497   6.728 -0.1364 -0.6961 -0.2787
 5879WAT      O25320   9.129   4.459   4.458  0.0999 -0.3801  0.0112
 5879WAT     H125321   9.038   4.485   4.444  0.2709 -0.5940 -1.7224
 5879WAT     H225322   9.142   4.465   4.553 -1.9242 -1.1003  0.3663
 5879WAT    EPW25323   9.119   4.463   4.469 -0.1445 -0.5035 -0.1707
 5880WAT      O25324   9.215   3.925   5.247  0.1739  0.5398  0.2454
 5880WAT     H125325   9.228   3.850   5.190 -1.0999  1.6860 -1.6670
 5880WAT     H225326   9.135   3.904   5.296  0.9438 -0.1913  1.2240
 5880WAT    EPW25327   9.206   3.912   5.246  0.1073  0.5946  0.1223
 5881WAT      O25328   9.248   2.936   6.624 -0.0615  0.6440 -0.0858
 5881WAT     H125329   9.266   2.845   6.647  0.5908  1.2913  2.2817
 5881WAT     H225330   9.157   2.936   6.594  0.4240 -0.9955 -1.7475
 5881WAT    EPW25331   9.238   2.924   6.623  0.0887  0.5132  0.0076
 5882WAT      O25332  10.400   4.922   2.814 -0.2696 -0.1781  0.4754
 5882WAT     H125333  10.316   4.915   2.858 -1.3554 -1.4334 -1.6618
 5882WAT     H225334  10.438   4.834   2.819 -0.1186 -0.1805 -0.4937
 5882WAT    EPW25335  10.394   4.909   2.820 -0.3929 -0.3440  0.0658
 5883WAT      O25336   7.828   3.889   6.637  0.2065 -0.3572 -0.3580
 5883WAT     H125337   7.883   3.823   6.594 -0.6083 -0.3403 -1.4831
 5883WAT     H225338   7.771   3.920   6.567  1.7118  2.8361 -0.3130
 5883WAT    EPW25339   7.828   3.884   6.622  0.2978  0.0662 -0.5004
 5884WAT      O25340   2.385   4.588   5.637  0.0165 -0.4273 -0.1273
 5884WAT     H125341   2.354   4.498   5.636 -0.8233 -0.1438 -0.2573
 5884WAT     H225342   2.464   4.585   5.691 -0.7857 -0.9983  1.0643
 5884WAT    EPW25343   2.391   4.576   5.644 -0.2000 -0.4649  0.0129
 5885WAT      O25344   9.486   5.788   4.029  0.5792  0.2245 -0.3827
 5885WAT     H125345   9.454   5.700   4.007 -1.9129  0.1901  2.6616
 5885WAT     H225346   9.429   5.847   3.981 -0.1735  0.1443  0.3910
 5885WAT    EPW25347   9.475   5.784   4.020  0.1516  0.2096  0.1211
 5886WAT      O25348   9.154   4.128   4.502  0.2905  0.3365 -0.4006
 5886WAT     H125349   9.152   4.059   4.568 -0.5153 -0.1019 -0.8696
 5886WAT     H225350   9.225   4.104   4.443  0.5336  0.3429 -0.1132
 5886WAT    EPW25351   9.163   4.116   4.503  0.2165  0.2794 -0.4244
 5887WAT      O25352   3.925   9.948   3.746  0.3711 -1.1217  0.3665
 5887WAT     H125353   3.965   9.918   3.827 -0.1808  1.6384  1.7914
 5887WAT     H225354   3.990  10.007   3.707 -1.3338  2.0382  1.8390
 5887WAT    EPW25355   3.939   9.952   3.752  0.0736 -0.3409  0.7486
 5888WAT      O25356  10.543   3.944   7.583  0.3964 -0.2463 -0.1846
 5888WAT     H125357  10.588   3.913   7.661 -0.8811 -1.7604  0.0072
 5888WAT     H225358  10.560   4.038   7.581  0.3957 -0.1488  1.9647
 5888WAT    EPW25359  10.551   3.952   7.593  0.2270 -0.4331  0.1242
 5889WAT      O25360   1.792   1.619   4.606  0.1635  0.1020  0.2244
 5889WAT     H125361   1.784   1.714   4.613  1.4425  0.2853 -0.5430
 5889WAT     H225362   1.723   1.585   4.664  0.2266  1.4784  1.1528
 5889WAT    EPW25363   1.782   1.627   4.614  0.3406  0.3078  0.2456
 5890WAT      O25364  10.713   2.929   3.689 -0.5183  0.3014 -0.0852
 5890WAT     H125365  10.805   2.950   3.673  0.3957 -1.3413  2.4027
 5890WAT     H225366  10.711   2.892   3.777 -3.2155 -1.7691 -0.8470
 5890WAT    EPW25367  10.725   2.927   3.698 -0.7534 -0.1882  0.1426
 5891WAT      O25368   7.025   0.744   7.214 -0.5337  0.3326 -0.0456
 5891WAT     H125369   6.937   0.724   7.248 -0.2249  0.5341  0.9127
 5891WAT     H225370   7.076   0.666   7.235 -0.3658  0.4115 -0.1667
 5891WAT    EPW25371   7.020   0.731   7.222 -0.4711  0.3696  0.0648
 5892WAT      O25372  10.244   4.189   8.793 -0.6437  0.1197  0.0216
 5892WAT     H125373  10.185   4.239   8.737 -1.2316 -1.0088 -0.3988
 5892WAT     H225374  10.187   4.142   8.853 -0.0986  0.0176  0.4738
 5892WAT    EPW25375  10.229   4.189   8.794 -0.6495 -0.0424  0.0257
 5893WAT      O25376  10.184   3.198   8.245 -0.2834  0.5156  0.5077
 5893WAT     H125377  10.128   3.208   8.322 -0.5441 -3.5413  1.0789
 5893WAT     H225378  10.256   3.143   8.275 -0.3468 -1.1448 -2.0482
 5893WAT    EPW25379  10.186   3.192   8.259 -0.3257 -0.2387  0.2460
 5894WAT      O25380   0.766   2.835   7.285 -0.4007  0.1023  0.1246
 5894WAT     H125381   0.729   2.922   7.294 -0.8024 -0.0912  0.3686
 5894WAT     H225382   0.854   2.850   7.251 -0.2724  0.6334  0.6725
 5894WAT    EPW25383   0.773   2.848   7.282 -0.4367  0.1469  0.2289
 5895WAT      O25384  10.172   3.285   5.846 -0.0593 -0.0113 -0.4543
 5895WAT     H125385  10.259   3.259   5.878 -1.1062 -1.4080  1.4972
 5895WAT     H225386  10.136   3.204   5.809 -0.9523  0.2566 -0.1894
 5895WAT    EPW25387  10.179   3.271   5.846 -0.3147 -0.1602 -0.1621
 5896WAT      O25388  10.243   5.917   4.130  0.1163 -0.2317 -0.4373
 5896WAT     H125389  10.331   5.895   4.098 -0.1897 -1.4757 -0.4653
 5896WAT     H225390  10.185   5.858   4.082 -0.7456  0.5770 -0.4161
 5896WAT    EPW25391  10.247   5.906   4.119 -0.0381 -0.2894 -0.4382
 5897WAT      O25392   7.928   3.329   5.554 -0.4873 -0.4355 -0.0590
 5897WAT     H125393   7.994   3.317   5.486 -2.0478 -1.2393 -1.5033
 5897WAT     H225394   7.848   3.293   5.517 -1.9415  1.1486  1.3522
 5897WAT    EPW25395   7.926   3.323   5.540 -0.8848 -0.3326 -0.0634
 5898WAT      O25396  10.527   5.868   4.102 -0.6804 -0.1315 -0.3522
 5898WAT     H125397  10.561   5.789   4.060  1.9924  0.2351  0.8709
 5898WAT     H225398  10.592   5.936   4.082 -2.1899  1.4404 -0.2097
 5898WAT    EPW25399  10.540   5.867   4.094 -0.5269  0.1240 -0.1721
 5899WAT      O25400   7.872  10.364   3.900  0.1280  1.0336 -0.2100
 5899WAT     H125401   7.791  10.385   3.948  0.8920  2.2931  0.5725
 5899WAT     H225402   7.942  10.398   3.955  1.1714  0.6022 -1.2287
 5899WAT    EPW25403   7.870  10.371   3.914  0.3662  1.1430 -0.2412
 5900WAT      O25404   8.851   6.457   4.614  0.3949  0.5570 -0.1513
 5900WAT     H125405   8.939   6.485   4.642  1.1060 -0.9057 -0.8440
 5900WAT     H225406   8.819   6.404   4.687  0.0699  1.0885  0.1001
 5900WAT    EPW25407   8.859   6.454   4.627  0.4463  0.4342 -0.2096
 5901WAT      O25408   0.304   3.395   4.955 -0.0145  0.5487  0.2275
 5901WAT     H125409   0.258   3.480   4.955  0.5401  0.8750 -1.1508
 5901WAT     H225410   0.364   3.401   5.030 -2.0583  0.1624  1.9949
 5901WAT    EPW25411   0.306   3.407   4.965 -0.2109  0.5407  0.2789
 5902WAT      O25412   8.062  10.188   4.945 -0.2635  0.4166  0.2662
 5902WAT     H125413   8.151  10.223   4.947 -0.3379  0.6028  0.3435
 5902WAT     H225414   8.066  10.118   4.879 -0.1485  0.6622  0.0074
 5902WAT    EPW25415   8.074  10.184   4.936 -0.2580  0.4735  0.2422
 5903WAT      O25416   9.894   3.653   5.626 -0.1819  1.0379  0.1272
 5903WAT     H125417   9.895   3.657   5.531 -2.0717 -0.4697 -0.0065
 5903WAT     H225418   9.983   3.624   5.649 -0.8876 -2.9730 -1.5125
 5903WAT    EPW25419   9.906   3.650   5.617 -0.5240  0.3101 -0.1068
 5904WAT      O25420   8.809   4.091   6.122 -0.2875 -0.8607  0.6743
 5904WAT     H125421   8.790   3.998   6.109 -0.6897 -0.6509 -0.3947
 5904WAT     H225422   8.898   4.102   6.086 -0.9133 -0.5206 -0.8646
 5904WAT    EPW25423   8.818   4.080   6.115 -0.4234 -0.7882  0.3304
 5905WAT      O25424   9.801   1.693   8.753  0.4391  0.7045  0.4413
 5905WAT     H125425   9.711   1.726   8.746  0.8871  1.6841 -1.2091
 5905WAT     H225426   9.805   1.621   8.690 -0.2735 -2.2004  3.3765
 5905WAT    EPW25427   9.789   1.687   8.744  0.4044  0.4506  0.6113
 5906WAT      O25428   9.232   0.985   5.200 -0.0284 -0.0269  0.1811
 5906WAT     H125429   9.253   1.066   5.246  1.1804 -0.2731  0.1109
 5906WAT     H225430   9.317   0.944   5.185 -0.4903 -0.4880 -1.3082
 5906WAT    EPW25431   9.246   0.990   5.204  0.0701 -0.1202 -0.0246
 5907WAT      O25432   7.886   4.996   4.514 -0.2196 -0.3354  0.0622
 5907WAT     H125433   7.829   4.956   4.581 -2.2619 -1.2516 -2.0633
 5907WAT     H225434   7.887   5.089   4.536 -0.5464 -0.6588  1.5603
 5907WAT    EPW25435   7.879   5.003   4.526 -0.5322 -0.4988 -0.0205
 5908WAT      O25436   9.373   6.018   4.339  0.1347  0.3378  0.6348
 5908WAT     H125437   9.384   6.064   4.256  0.1200  1.4346  1.2085
 5908WAT     H225438   9.452   5.965   4.349  0.1335  0.1955 -0.0730
 5908WAT    EPW25439   9.385   6.017   4.329  0.1326  0.4640  0.6170
 5909WAT      O25440   9.597   3.496   2.121  0.5956  0.3783 -0.2770
 5909WAT     H125441   9.543   3.572   2.142  1.8449  1.1351  0.3431
 5909WAT     H225442   9.606   3.498   2.026 -0.4304  0.2587 -0.3807
 5909WAT    EPW25443   9.591   3.507   2.112  0.6251  0.4624 -0.2090
 5910WAT      O25444   0.653   5.323   3.691 -0.2854  0.1504 -0.3882
 5910WAT     H125445   0.611   5.240   3.668 -2.0021  0.4847  1.2802
 5910WAT     H225446   0.603   5.389   3.642 -1.5831  0.5159  1.3222
 5910WAT    EPW25447   0.641   5.321   3.681 -0.6830  0.2427  0.0573
 5911WAT      O25448  10.754   3.964   7.800  0.6672  0.0281 -0.3917
 5911WAT     H125449  10.702   4.045   7.800  0.1734 -0.2532  1.5685
 5911WAT     H225450  10.706   3.905   7.858  1.0805 -1.6649 -1.7077
 5911WAT    EPW25451  10.741   3.967   7.807  0.6571 -0.2322 -0.3068
 5912WAT      O25452   8.840   6.574   5.091 -0.3711 -0.1031  0.2925
 5912WAT     H125453   8.805   6.638   5.153  0.5288  0.9767 -0.2866
 5912WAT     H225454   8.860   6.624   5.012 -1.7135 -1.4928 -1.0033
 5912WAT    EPW25455   8.838   6.589   5.089 -0.4292 -0.1440  0.0453
 5913WAT      O25456  10.354   1.868   5.804  0.8658 -0.1456 -0.6928
 5913WAT     H125457  10.397   1.926   5.868 -1.1221  0.9963 -0.3011
 5913WAT     H225458  10.276   1.837   5.849  0.5844 -1.1376 -1.8148
 5913WAT    EPW25459  10.350   1.871   5.819  0.5665 -0.1258 -0.7889
 5914WAT      O25460   0.145   0.374   6.613 -0.1607  0.5379  0.5122
 5914WAT     H125461   0.188   0.303   6.566  0.3483  0.0379  1.6734
 5914WAT     H225462   0.140   0.445   6.550  1.4301  0.2460 -0.0036
 5914WAT    EPW25463   0.150   0.374   6.599  0.1162  0.4334  0.5970
 5915WAT      O25464  10.876   5.747   8.221 -0.4185 -0.1620 -0.2599
 5915WAT     H125465  10.882   5.839   8.198 -0.6124 -0.0322  0.1948
 5915WAT     H225466  10.784   5.733   8.242 -0.6487 -0.7730 -1.5919
 5915WAT    EPW25467  10.865   5.757   8.221 -0.4740 -0.2255 -0.3753
 5916WAT      O25468   8.776   0.923   4.109 -0.7682 -0.2847  0.3675
 5916WAT     H125469   8.700   0.888   4.062 -1.2516 -0.5281  1.3107
 5916WAT     H225470   8.763   0.896   4.199 -1.1779  2.2658  1.1688
 5916WAT    EPW25471   8.764   0.915   4.114 -0.8860  0.0196  0.5977
 5917WAT      O25472   8.499   2.834   6.511 -0.7858  1.0428  0.1821
 5917WAT     H125473   8.421   2.877   6.546 -2.0627 -0.8700 -0.1183
 5917WAT     H225474   8.550   2.810   6.588 -0.8156  1.7070  0.4163
 5917WAT    EPW25475   8.495   2.836   6.525 -0.9580  0.8781  0.1736
 5918WAT      O25476  10.007   6.075   4.544 -0.1101  0.1722  1.0294
 5918WAT     H125477   9.941   6.025   4.496 -2.8132  2.0159  2.5313
 5918WAT     H225478   9.972   6.164   4.547  4.3075  2.2776 -1.2267
 5918WAT    EPW25479   9.994   6.080   4.538  0.1159  0.6931  0.9301
 5919WAT      O25480   1.575   2.249   6.160  0.2383  0.4985  0.0179
 5919WAT     H125481   1.658   2.275   6.122  0.8764  2.4484  2.5193
 5919WAT     H225482   1.595   2.169   6.209  0.7497  1.1647  0.9135
 5919WAT    EPW25483   1.588   2.242   6.162  0.3899  0.8434  0.4659
 5920WAT      O25484   0.834   3.345   5.448 -0.5367  0.1150  0.2020
 5920WAT     H125485   0.748   3.316   5.478  0.2694  0.1226  2.6898
 5920WAT     H225486   0.878   3.265   5.419 -0.7357 -0.1422  0.6114
 5920WAT    EPW25487   0.829   3.331   5.448 -0.4566  0.0823  0.5839
 5921WAT      O25488   8.091   5.184   4.071 -0.0138 -0.4581  0.8239
 5921WAT     H125489   8.074   5.091   4.059 -1.0165 -0.0822 -1.0277
 5921WAT     H225490   8.025   5.213   4.133 -0.2607 -0.8110  0.7245
 5921WAT    EPW25491   8.080   5.176   4.078 -0.1783 -0.4549  0.5667
 5922WAT      O25492  10.274   2.029   4.621 -0.1040 -0.5888 -0.3058
 5922WAT     H125493  10.246   2.083   4.695 -0.3251 -1.1005 -0.0052
 5922WAT     H225494  10.298   2.091   4.553 -2.8803 -0.1043 -0.9474
 5922WAT    EPW25495  10.274   2.044   4.622 -0.4992 -0.5924 -0.3507
 5923WAT      O25496   0.226   3.696   4.229  0.4160 -0.7180 -0.3048
 5923WAT     H125497   0.189   3.784   4.239  1.4856 -0.3787  0.9151
 5923WAT     H225498   0.241   3.666   4.319 -0.0027 -2.2040 -0.6902
 5923WAT    EPW25499   0.223   3.703   4.242  0.5019 -0.8692 -0.1948
 5924WAT      O25500  10.193   6.266   8.975 -0.0949  0.0271 -0.1876
 5924WAT     H125501  10.248   6.273   9.052  3.0996 -1.6837 -2.1009
 5924WAT     H225502  10.155   6.178   8.979 -2.6653  1.0930  0.9743
 5924WAT    EPW25503  10.195   6.256   8.986 -0.0129 -0.0579 -0.2866
 5925WAT      O25504   9.250   2.207   2.952 -0.8624  0.6486 -0.0250
 5925WAT     H125505   9.175   2.240   3.001  0.6084  0.7860  2.3124
 5925WAT     H225506   9.305   2.284   2.937 -0.5797  0.3469 -0.5766
 5925WAT    EPW25507   9.247   2.222   2.957 -0.6313  0.6269  0.2105
 5926WAT      O25508   1.221   3.287   4.284  0.4692  0.2590  0.7503
 5926WAT     H125509   1.232   3.340   4.205 -3.9258 -0.8568 -0.9093
 5926WAT     H225510   1.288   3.219   4.278 -0.4447 -0.5161 -2.7763
 5926WAT    EPW25511   1.231   3.285   4.273 -0.2310  0.0097  0.0663
 5927WAT      O25512   0.043   2.554   3.981  0.3116 -0.7038  0.3245
 5927WAT     H125513  -0.014   2.576   3.907  0.9478 -2.4769 -0.7763
 5927WAT     H225514   0.104   2.627   3.987 -1.1587  0.5424  0.5936
 5927WAT    EPW25515   0.044   2.566   3.972  0.2016 -0.7733  0.2148
 5928WAT      O25516   8.555   3.551   6.225  0.5416 -0.1428  0.2579
 5928WAT     H125517   8.600   3.624   6.268 -0.1354  2.1407 -2.6163
 5928WAT     H225518   8.620   3.513   6.167 -0.0848  0.7025 -1.0581
 5928WAT    EPW25519   8.569   3.556   6.223  0.3705  0.2698 -0.2949
 5929WAT      O25520   0.010   5.978   6.759  0.4091  0.0443  0.2756
 5929WAT     H125521   0.025   6.050   6.820  0.8277  2.4275 -2.4122
 5929WAT     H225522  -0.045   5.915   6.807  1.8636  1.0643  3.4616
 5929WAT    EPW25523   0.004   5.979   6.773  0.6561  0.4930  0.3414
 5930WAT      O25524   0.760   5.777   4.352 -0.0736 -0.3891 -0.2007
 5930WAT     H125525   0.780   5.759   4.444 -0.9996 -0.1285  0.0575
 5930WAT     H225526   0.786   5.697   4.307 -2.2994 -1.7063  0.6877
 5930WAT    EPW25527   0.766   5.764   4.359 -0.4893 -0.5283 -0.0494
 5931WAT      O25528   9.944   1.407   8.686 -0.1413  0.1786 -0.0549
 5931WAT     H125529   9.987   1.429   8.604 -1.3839 -3.0841 -1.7696
 5931WAT     H225530  10.003   1.343   8.727  0.5165  1.8442  1.7492
 5931WAT    EPW25531   9.958   1.401   8.681 -0.2189 -0.0320 -0.0429
 5932WAT      O25532  10.823   5.076   5.477  0.2966  0.1270  0.5935
 5932WAT     H125533  10.884   5.079   5.550  1.2142  0.5137 -0.1678
 5932WAT     H225534  10.772   5.157   5.485  0.0365 -0.0853  1.0990
 5932WAT    EPW25535  10.824   5.087   5.488  0.3829  0.1497  0.5598
 5933WAT      O25536   8.403   4.075   5.695  0.5188 -0.4511 -0.3681
 5933WAT     H125537   8.361   4.028   5.623  1.8664 -0.6569 -1.0668
 5933WAT     H225538   8.460   4.010   5.736 -0.1911 -0.3157  0.8626
 5933WAT    EPW25539   8.405   4.061   5.691  0.6032 -0.4604 -0.2978
 5934WAT      O25540   0.396   7.582   4.564 -0.4105  0.4009 -0.3708
 5934WAT     H125541   0.403   7.550   4.654 -1.5102 -1.6303 -0.9489
 5934WAT     H225542   0.337   7.657   4.570  1.7713  2.1447  0.9527
 5934WAT    EPW25543   0.389   7.587   4.577 -0.2678  0.3629 -0.2725
 5935WAT      O25544   9.521   4.901   4.248 -0.3701  0.0037 -0.0368
 5935WAT     H125545   9.456   4.837   4.276  0.7966 -1.6301 -0.8279
 5935WAT     H225546   9.486   4.985   4.275 -1.2215 -1.0812  2.5396
 5935WAT    EPW25547   9.508   4.903   4.255 -0.3285 -0.3548  0.1986
 5936WAT      O25548   9.793   3.257   4.698 -0.3130 -0.2918 -0.6948
 5936WAT     H125549   9.843   3.313   4.758  0.3026 -1.4773 -0.0696
 5936WAT     H225550   9.746   3.319   4.642  1.3877  0.8651 -0.9278
 5936WAT    EPW25551   9.793   3.273   4.699 -0.0076 -0.2956 -0.6433
 5937WAT      O25552   8.986   3.445   6.418  0.8525  0.8211 -1.0147
 5937WAT     H125553   8.987   3.540   6.405  2.5012  0.9130 -0.4231
 5937WAT     H225554   9.040   3.431   6.495 -0.2086 -0.5385 -0.4766
 5937WAT    EPW25555   8.993   3.456   6.426  0.9298  0.6540 -0.8659
 5938WAT      O25556   9.531   7.258   5.803  0.0928 -0.0289  0.4396
 5938WAT     H125557   9.443   7.296   5.805  0.3313  0.6652 -0.9800
 5938WAT     H225558   9.518   7.167   5.779 -0.3219 -0.3006  1.6307
 5938WAT    EPW25559   9.518   7.251   5.800  0.0696  0.0269  0.4094
 5939WAT      O25560   5.681   5.018   4.890 -0.4366 -0.2756  0.0892
 5939WAT     H125561   5.634   5.090   4.932  0.1829  0.0889  0.1749
 5939WAT     H225562   5.632   5.001   4.810 -1.6025 -0.9418  0.9245
 5939WAT    EPW25563   5.669   5.025   4.885 -0.5088 -0.3152  0.2108
 5940WAT      O25564  10.455   4.704   5.159 -0.0423 -0.0335  0.1404
 5940WAT     H125565  10.520   4.658   5.213  0.8056  1.4376  0.4299
 5940WAT     H225566  10.427   4.639   5.094  0.0876 -1.3597  1.3585
 5940WAT    EPW25567  10.460   4.689   5.158  0.0868 -0.0145  0.3395
 5941WAT      O25568   0.386   4.690   6.435  0.2210 -0.1531  1.1471
 5941WAT     H125569   0.463   4.742   6.456  1.0490  0.3025 -2.3185
 5941WAT     H225570   0.421   4.602   6.419 -0.3036 -0.4439  1.5839
 5941WAT    EPW25571   0.401   4.685   6.436  0.2610 -0.1316  0.7477
 5942WAT      O25572   9.241   8.840   5.243  0.4001  0.7559  1.3093
 5942WAT     H125573   9.217   8.752   5.212 -2.9457  2.2495 -0.9681
 5942WAT     H225574   9.159   8.875   5.278  1.9302  2.6304  3.2429
 5942WAT    EPW25575   9.227   8.833   5.244  0.1602  1.2002  1.2641
 5943WAT      O25576   9.777   3.509   6.072 -0.0147 -0.4744 -0.0603
 5943WAT     H125577   9.770   3.576   6.004 -1.3114 -1.4415 -0.9450
 5943WAT     H225578   9.849   3.452   6.042  0.8571  0.2988  0.5165
 5943WAT    EPW25579   9.786   3.510   6.059 -0.0706 -0.5000 -0.1009
 5944WAT      O25580   0.384   4.905   4.723  0.4854  0.2245  0.8113
 5944WAT     H125581   0.455   4.846   4.748  0.1377  0.0932  1.4847
 5944WAT     H225582   0.349   4.867   4.642  2.4257  1.3389 -0.6482
 5944WAT    EPW25583   0.389   4.892   4.715  0.6955  0.3541  0.7076
 5945WAT      O25584   6.942   1.403   8.972  0.0351 -0.3565 -0.1601
 5945WAT     H125585   6.893   1.482   8.992 -0.8506 -0.9476  0.0634
 5945WAT     H225586   7.014   1.402   9.036  0.6158  0.7452 -0.7774
 5945WAT    EPW25587   6.945   1.413   8.983 -0.0052 -0.2890 -0.2121
 5946WAT      O25588   8.918   3.764   7.360  0.3302  0.5807  0.1809
 5946WAT     H125589   8.913   3.767   7.455 -0.2917  1.7246  0.1225
 5946WAT     H225590   8.957   3.678   7.341  0.5015  0.3602  1.4550
 5946WAT    EPW25591   8.922   3.753   7.370  0.2704  0.7025  0.3412
 5947WAT      O25592   0.740   3.329   6.909 -0.0152  0.1856 -1.0646
 5947WAT     H125593   0.700   3.314   6.995 -0.8027  0.6536 -1.3355
 5947WAT     H225594   0.756   3.241   6.874  3.6060 -0.1650  0.9874
 5947WAT    EPW25595   0.736   3.315   6.916  0.3586  0.2011 -0.8297
 5948WAT      O25596   0.372   7.125   7.927 -0.2579  0.1510  0.5188
 5948WAT     H125597   0.437   7.195   7.918  0.0750 -0.2135  0.0110
 5948WAT     H225598   0.288   7.168   7.909 -0.1856  0.6622  1.3489
 5948WAT    EPW25599   0.369   7.140   7.923 -0.2045  0.1702  0.5612
 5949WAT      O25600   2.672   4.574   4.984 -0.5974 -0.5478 -0.8392
 5949WAT     H125601   2.746   4.541   5.034 -1.2498 -0.5297  0.1511
 5949WAT     H225602   2.687   4.669   4.980 -1.7582 -0.1953  1.4439
 5949WAT    EPW25603   2.683   4.582   4.990 -0.8366 -0.4990 -0.4077
 5950WAT      O25604   7.012   4.033   4.565 -0.1587 -0.2245 -0.3164
 5950WAT     H125605   7.058   4.014   4.646 -1.1623 -0.2825  0.2658
 5950WAT     H225606   6.995   4.127   4.568  0.4964 -0.0858 -0.8423
 5950WAT    EPW25607   7.016   4.043   4.576 -0.2048 -0.2141 -0.3090
 5951WAT      O25608   9.392   7.662   5.899  0.0998  0.0437 -0.5809
 5951WAT     H125609   9.387   7.574   5.934  0.7505 -0.9901 -2.9086
 5951WAT     H225610   9.383   7.651   5.805 -0.6828  2.5663 -0.8723
 5951WAT    EPW25611   9.390   7.649   5.891  0.0830  0.2398 -0.9260
 5952WAT      O25612   9.285   3.590   7.056 -0.0325  0.8738 -0.3909
 5952WAT     H125613   9.338   3.637   7.120 -1.5542  2.2683 -0.0778
 5952WAT     H225614   9.262   3.508   7.099 -3.5132  2.9581  2.3143
 5952WAT    EPW25615   9.289   3.585   7.070 -0.6924  1.3326  0.0069
 5953WAT      O25616   9.615   1.298   4.249  0.3845  0.0638 -0.1283
 5953WAT     H125617   9.609   1.214   4.293  0.8869 -1.0684 -2.0845
 5953WAT     H225618   9.542   1.349   4.284 -1.2124 -1.9262 -0.3642
 5953WAT    EPW25619   9.604   1.294   4.259  0.2398 -0.3481 -0.4170
 5954WAT      O25620  10.185   5.498   5.579 -0.0145  0.1746  0.5077
 5954WAT     H125621  10.204   5.445   5.502  0.2573  0.6642  0.2367
 5954WAT     H225622  10.128   5.568   5.546  0.6797  0.7946  0.6057
 5954WAT    EPW25623  10.180   5.500   5.564  0.1125  0.3211  0.4847
 5955WAT      O25624   7.939   6.001   6.106 -0.4658  0.3049 -0.6647
 5955WAT     H125625   7.912   6.047   6.026  2.3662  1.7078 -0.9366
 5955WAT     H225626   7.990   6.065   6.155  0.7247 -1.5464  0.6367
 5955WAT    EPW25627   7.942   6.015   6.102  0.0646  0.2458 -0.5288
 5956WAT      O25628   9.855   1.518   5.617 -0.0319  0.1339  0.3640
 5956WAT     H125629   9.865   1.606   5.580  1.0416  0.0387  0.3799
 5956WAT     H225630   9.769   1.519   5.659 -0.5126  0.8103 -0.5999
 5956WAT    EPW25631   9.845   1.530   5.618  0.0463  0.2106  0.2389
 5957WAT      O25632   1.098   3.300   6.886  0.1072  0.4514  0.5085
 5957WAT     H125633   1.192   3.304   6.905 -0.0369  0.9406  1.1426
 5957WAT     H225634   1.094   3.273   6.794  0.8815  1.0681  0.2762
 5957WAT    EPW25635   1.110   3.297   6.876  0.1903  0.5972  0.5612
 5958WAT      O25636   0.872   2.848   7.752  0.2337 -0.1735  0.1419
 5958WAT     H125637   0.830   2.792   7.686  1.9746  0.2082 -1.3529
 5958WAT     H225638   0.910   2.920   7.702 -1.7025  2.3046  1.9832
 5958WAT    EPW25639   0.871   2.850   7.737  0.2079  0.2037  0.1876
 5959WAT      O25640  10.838   4.560   7.956  0.0359 -0.2422  0.6014
 5959WAT     H125641  10.759   4.561   8.010  0.5902 -0.8819  1.4418
 5959WAT     H225642  10.902   4.609   8.007 -0.8978  4.1673 -1.9145
 5959WAT    EPW25643  10.836   4.566   7.970 -0.0138  0.2553  0.3803
 5960WAT      O25644   2.074   5.610   4.563 -0.2343  1.1495 -0.6979
 5960WAT     H125645   1.983   5.581   4.559 -0.7641  2.7710 -1.0149
 5960WAT     H225646   2.074   5.696   4.522  1.7255  0.5807 -2.0614
 5960WAT    EPW25647   2.062   5.617   4.557 -0.0457  1.2887 -0.9196
 5961WAT      O25648   2.876   7.874   0.034  0.1084 -0.7309 -0.2941
 5961WAT     H125649   2.848   7.793  -0.009  3.0717  0.1919 -4.5656
 5961WAT     H225650   2.968   7.859   0.055 -0.3545  0.1687  2.8493
 5961WAT    EPW25651   2.884   7.861   0.031  0.4382 -0.4904 -0.4429
 5962WAT      O25652   2.952  10.020   0.611  0.1701 -0.4991 -0.1024
 5962WAT     H125653   2.973  10.103   0.655  1.8211 -1.8454  1.8093
 5962WAT     H225654   2.905   9.969   0.677  1.9401 -2.2432 -0.0885
 5962WAT    EPW25655   2.948  10.024   0.626  0.6212 -0.9065  0.1515
 5963WAT      O25656   2.114   4.937   5.385  0.1642  0.4973  0.7786
 5963WAT     H125657   2.145   4.852   5.355 -0.5841  0.2864  0.5860
 5963WAT     H225658   2.174   5.000   5.345  1.1646  0.0281  1.5099
 5963WAT    EPW25659   2.126   4.934   5.376  0.1975  0.4077  0.8495
 5964WAT      O25660   1.651   3.479   3.624  0.3469 -0.2619  0.6814
 5964WAT     H125661   1.613   3.395   3.597 -0.9741 -1.7031  5.9396
 5964WAT     H225662   1.677   3.520   3.542 -1.7602 -4.4077 -2.4699
 5964WAT    EPW25663   1.649   3.473   3.609 -0.1053 -0.9989  0.9594
 5965WAT      O25664  10.365   4.237   6.973  0.9957  0.2398 -0.1579
 5965WAT     H125665  10.371   4.225   6.878 -0.1848  0.6927 -0.3087
 5965WAT     H225666  10.307   4.166   7.003  0.3227  0.8544  0.0301
 5965WAT    EPW25667  10.358   4.226   6.965  0.7520  0.3808 -0.1533
 5966WAT      O25668   0.655   3.914   3.979 -0.5525 -0.0016  0.0875
 5966WAT     H125669   0.592   3.980   3.948 -1.6875 -1.2260 -0.2746
 5966WAT     H225670   0.605   3.857   4.037  0.8278  0.4122  1.7816
 5966WAT    EPW25671   0.640   3.916   3.982 -0.5201 -0.1086  0.2632
 5967WAT      O25672   9.872   3.328   2.575 -0.7239 -0.4075 -0.1602
 5967WAT     H125673   9.955   3.281   2.583 -0.3644  0.3366  0.6949
 5967WAT     H225674   9.829   3.315   2.659 -1.2120 -0.2940 -0.3893
 5967WAT    EPW25675   9.877   3.320   2.587 -0.7410 -0.2942 -0.0776
 5968WAT      O25676   1.576   6.032   4.890  0.8872 -0.5654 -0.5783
 5968WAT     H125677   1.663   6.028   4.850  1.9274  2.0203  1.1258
 5968WAT     H225678   1.526   5.964   4.845  2.8302 -0.0429 -3.8873
 5968WAT    EPW25679   1.581   6.023   4.879  1.2807 -0.1554 -0.7899
 5969WAT      O25680   8.842   4.489   5.267  0.5191  0.0687 -0.7059
 5969WAT     H125681   8.801   4.550   5.329 -2.0481 -3.4007  1.3894
 5969WAT     H225682   8.786   4.493   5.189  0.2060  0.1597 -0.4763
 5969WAT    EPW25683   8.829   4.498   5.265  0.1392 -0.3767 -0.3989
 5970WAT      O25684  10.909   6.415   2.073  0.1505 -0.5027  0.0323
 5970WAT     H125685  10.838   6.433   2.134 -1.4682 -1.6792 -1.3736
 5970WAT     H225686  10.949   6.334   2.105 -0.3559 -0.8342 -0.1662
 5970WAT    EPW25687  10.905   6.407   2.085 -0.1302 -0.7019 -0.1794
 5971WAT      O25688   7.487   4.160   7.365  0.4990 -0.5520  0.6338
 5971WAT     H125689   7.475   4.065   7.361  1.6376 -0.7219  0.8386
 5971WAT     H225690   7.403   4.194   7.394 -0.2760 -1.4020 -0.5429
 5971WAT    EPW25691   7.475   4.152   7.368  0.5469 -0.6864  0.5054
 5972WAT      O25692   0.366   7.234   4.777 -0.3568  0.0192 -0.3155
 5972WAT     H125693   0.417   7.308   4.808  1.3256 -0.9583 -0.6174
 5972WAT     H225694   0.311   7.270   4.707 -0.6923  1.2557  0.5587
 5972WAT    EPW25695   0.365   7.248   4.772 -0.1791  0.0534 -0.2401
 5973WAT      O25696   1.233   3.748   3.923 -0.1634 -0.7249  0.1406
 5973WAT     H125697   1.320   3.749   3.962 -0.6612 -2.3957  1.4102
 5973WAT     H225698   1.176   3.716   3.993 -1.8945  0.7132 -0.5221
 5973WAT    EPW25699   1.237   3.744   3.937 -0.4574 -0.7557  0.2207
 5974WAT      O25700   9.443   2.867   6.864  0.1342  0.3426  0.1434
 5974WAT     H125701   9.351   2.844   6.848  0.0214  0.8191  0.0945
 5974WAT     H225702   9.469   2.915   6.785  1.1413 -1.8345 -0.9493
 5974WAT    EPW25703   9.434   2.870   6.851  0.2522  0.1181 -0.0069
 5975WAT      O25704   5.753   7.860   0.135 -0.9776 -0.3834 -0.2672
 5975WAT     H125705   5.677   7.843   0.079 -0.5153  2.0694 -1.8142
 5975WAT     H225706   5.775   7.775   0.173 -3.4591 -1.4646 -1.0911
 5975WAT    EPW25707   5.746   7.847   0.132 -1.2441 -0.2024 -0.5799
 5976WAT      O25708   6.437   2.742   5.628 -0.4299 -0.4822 -0.3050
 5976WAT     H125709   6.358   2.703   5.591  1.0695 -2.9125 -1.1817
 5976WAT     H225710   6.488   2.771   5.552 -0.2882  0.7505  0.2299
 5976WAT    EPW25711   6.434   2.741   5.613 -0.2134 -0.6400 -0.3500
 5977WAT      O25712   8.971   4.433   1.885  0.3449 -1.2328  0.0086
 5977WAT     H125713   8.990   4.453   1.793 -1.8302 -1.0976 -0.4632
 5977WAT     H225714   8.999   4.511   1.933 -0.6782 -0.2917 -0.8580
 5977WAT    EPW25715   8.977   4.446   1.879 -0.0768 -1.0910 -0.1680
 5978WAT      O25716   9.333   4.665   5.606  0.2268  0.2787 -0.3649
 5978WAT     H125717   9.364   4.672   5.516 -0.2206  1.5193 -0.4364
 5978WAT     H225718   9.381   4.733   5.654  0.1844 -0.1211  0.2615
 5978WAT    EPW25719   9.343   4.675   5.600  0.1626  0.3893 -0.2918
 5979WAT      O25720  10.036   5.681   5.443 -0.6475  0.1979 -0.2435
 5979WAT     H125721  10.102   5.746   5.422  0.5653 -1.6112 -2.3981
 5979WAT     H225722   9.953   5.730   5.444  0.4972  2.2406  1.1394
 5979WAT    EPW25723  10.034   5.696   5.440 -0.3371  0.2286 -0.3452
 5980WAT      O25724   0.068   7.162   7.268  0.3549 -0.4449 -0.6900
 5980WAT     H125725   0.034   7.100   7.333 -0.1645  1.7733  1.2890
 5980WAT     H225726   0.008   7.236   7.272  2.9809  1.7984 -0.2020
 5980WAT    EPW25727   0.056   7.163   7.277  0.6327  0.1435 -0.3645
 5981WAT      O25728  10.905   7.378   7.292  0.4124  0.0591  0.5359
 5981WAT     H125729  10.820   7.347   7.325 -0.6020 -0.0071 -1.9643
 5981WAT     H225730  10.899   7.474   7.300 -0.1769  0.0934 -0.2407
 5981WAT    EPW25731  10.893   7.387   7.298  0.2012  0.0548  0.1040
 5982WAT      O25732   2.124   3.217   5.253  0.0354  0.8163 -0.2621
 5982WAT     H125733   2.088   3.129   5.249 -0.3520  0.9687 -0.1470
 5982WAT     H225734   2.172   3.228   5.170 -0.7868  0.8722 -0.7369
 5982WAT    EPW25735   2.126   3.207   5.241 -0.1242  0.8435 -0.3095
 5983WAT      O25736  10.113   3.150   2.550 -0.6306  0.2521  0.6118
 5983WAT     H125737  10.150   3.062   2.554 -2.3005 -0.4936  0.6137
 5983WAT     H225738  10.171   3.203   2.604 -0.7500 -1.3135  2.3982
 5983WAT    EPW25739  10.125   3.146   2.558 -0.8664 -0.0528  0.8477
 5984WAT      O25740   0.392   2.617   8.100  0.0857 -0.3417 -0.4040
 5984WAT     H125741   0.333   2.671   8.047  0.3865  0.5763  0.1535
 5984WAT     H225742   0.473   2.668   8.105  0.9701 -1.6190 -1.2166
 5984WAT    EPW25743   0.395   2.631   8.094  0.2420 -0.3891 -0.4382
 5985WAT      O25744   3.479   9.585   0.857 -0.2643  0.2829 -0.0566
 5985WAT     H125745   3.573   9.570   0.860 -0.4297 -0.7112  3.0261
 5985WAT     H225746   3.443   9.507   0.815  0.2537  0.7445 -1.3992
 5985WAT    EPW25747   3.486   9.573   0.852 -0.2178  0.2127  0.1729
 5986WAT      O25748   3.347   8.677   0.633 -0.5908 -0.3745 -0.2188
 5986WAT     H125749   3.301   8.694   0.551 -0.9935  2.2824  0.4521
 5986WAT     H225750   3.289   8.714   0.700 -0.1700 -2.2959  1.2760
 5986WAT    EPW25751   3.333   8.684   0.631 -0.5884 -0.2780  0.0668
 5987WAT      O25752   9.113   3.146   4.988 -0.2960  0.0459  0.4422
 5987WAT     H125753   9.200   3.187   4.994 -0.5335  0.7331 -0.6017
 5987WAT     H225754   9.115   3.078   5.055  0.8440  0.4343  0.8370
 5987WAT    EPW25755   9.125   3.142   4.998 -0.1764  0.1879  0.3564
 5988WAT      O25756   7.084   3.488   7.615 -0.0716 -0.3191 -0.2016
 5988WAT     H125757   7.166   3.440   7.625 -0.8089 -1.3061  1.7164
 5988WAT     H225758   7.042   3.482   7.701 -2.3314 -0.2102 -1.2113
 5988WAT    EPW25759   7.089   3.481   7.628 -0.4668 -0.4349 -0.0818
 5989WAT      O25760  10.684   6.965   4.502  0.2154  0.1063 -0.0653
 5989WAT     H125761  10.661   6.947   4.410  1.0056 -0.3767 -0.1775
 5989WAT     H225762  10.719   6.882   4.534 -0.2998  0.1988  0.7599
 5989WAT    EPW25763  10.685   6.951   4.494  0.2518  0.0548  0.0288
 5990WAT      O25764  10.026   3.670   7.587 -0.2957  0.8277 -0.4604
 5990WAT     H125765   9.966   3.636   7.520  1.1276 -0.3577 -1.1904
 5990WAT     H225766  10.095   3.715   7.538  1.5380 -1.2803  0.0233
 5990WAT    EPW25767  10.027   3.671   7.572  0.1335  0.3934 -0.4928
 5991WAT      O25768   9.880   3.129   6.496 -0.1977  0.4569 -0.2733
 5991WAT     H125769   9.822   3.142   6.422  0.4663 -0.3033 -0.9476
 5991WAT     H225770   9.947   3.068   6.464  0.6840  0.9157  0.6350
 5991WAT    EPW25771   9.882   3.122   6.482  0.0062  0.4170 -0.2425
 5992WAT      O25772   8.309   5.631   3.050  0.2604 -0.1779 -0.5353
 5992WAT     H125773   8.265   5.645   3.134 -1.0608 -0.7764 -1.1042
 5992WAT     H225774   8.251   5.572   3.002  0.7554  0.5320 -2.0606
 5992WAT    EPW25775   8.296   5.625   3.055  0.1512 -0.1636 -0.8113
 5993WAT      O25776   2.589   7.940   5.916  0.0017 -0.1309  0.7056
 5993WAT     H125777   2.618   7.857   5.954 -0.1622 -0.2365  0.6046
 5993WAT     H225778   2.660   8.001   5.934  1.4869 -0.9916 -1.7612
 5993WAT    EPW25779   2.602   7.937   5.923  0.1761 -0.2584  0.3672
 5994WAT      O25780   1.737   1.089   7.484  0.1869 -0.6214 -0.5881
 5994WAT     H125781   1.793   1.044   7.548 -2.7978 -0.3445  2.5280
 5994WAT     H225782   1.716   1.022   7.419  0.3088 -2.1364  0.8681
 5994WAT    EPW25783   1.742   1.074   7.484 -0.1906 -0.7848  0.0148
 5995WAT      O25784   9.727   2.703   4.901  0.1635  0.3379 -0.0047
 5995WAT     H125785   9.675   2.781   4.918 -0.4102 -0.7630  4.5942
 5995WAT     H225786   9.808   2.716   4.951 -0.3021 -2.2089  1.6266
 5995WAT    EPW25787   9.731   2.715   4.910  0.0262 -0.1432  0.8168
 5996WAT      O25788   1.846   5.761   5.100 -0.2567 -0.8482 -0.3046
 5996WAT     H125789   1.913   5.695   5.121 -0.5404 -1.2429 -0.6150
 5996WAT     H225790   1.774   5.710   5.063 -0.4180 -0.3425 -0.6965
 5996WAT    EPW25791   1.845   5.745   5.098 -0.3154 -0.8335 -0.3974
 5997WAT      O25792   0.318   5.124   7.309 -0.3994 -0.4337 -0.3396
 5997WAT     H125793   0.252   5.094   7.247  1.1834 -4.0941 -0.4837
 5997WAT     H225794   0.308   5.067   7.385 -1.1805  2.8555  2.3059
 5997WAT    EPW25795   0.308   5.113   7.311 -0.2937 -0.4826 -0.0095
 5998WAT      O25796  10.713   3.886   6.023 -0.7191  0.3563  0.1273
 5998WAT     H125797  10.696   3.976   5.999  0.3780  0.5767  0.0961
 5998WAT     H225798  10.657   3.869   6.098  0.1567  1.5635  1.0895
 5998WAT    EPW25799  10.704   3.895   6.030 -0.4592  0.5444  0.2503
 5999WAT      O25800  10.498   3.361   4.797  0.5710 -0.6915  0.4978
 5999WAT     H125801  10.587   3.344   4.826  0.0849 -1.1543  1.7519
 5999WAT     H225802  10.452   3.391   4.875  0.3759  2.7065 -0.7380
 5999WAT    EPW25803  10.503   3.363   4.811  0.4811 -0.3043  0.5002
 6000WAT      O25804  10.085   2.164   3.964 -0.5178 -0.3413 -0.6202
 6000WAT     H125805  10.000   2.208   3.960  0.0914  0.9720  0.2309
 6000WAT     H225806  10.106   2.143   3.873 -0.0652  2.7049 -1.3183
 6000WAT    EPW25807  10.077   2.167   3.952 -0.3777  0.2337 -0.6001
 6001WAT      O25808   2.630   2.410   4.927 -0.0226 -0.7041 -0.6341
 6001WAT     H125809   2.697   2.460   4.975  0.9865 -0.5966 -2.0954
 6001WAT     H225810   2.570   2.380   4.995  2.5972 -2.5215  1.0657
 6001WAT    EPW25811   2.631   2.413   4.942  0.4559 -0.9296 -0.6025
 6002WAT      O25812   9.538   2.607   5.073 -0.4361 -0.9195  0.2654
 6002WAT     H125813   9.560   2.642   5.160 -0.4510 -1.6764  0.5839
 6002WAT     H225814   9.615   2.623   5.020 -0.6269  0.0484  0.2588
 6002WAT    EPW25815   9.551   2.614   5.078 -0.4635 -0.8918  0.3066
 6003WAT      O25816   7.630   7.750   7.316 -0.0666  0.6428  0.6325
 6003WAT     H125817   7.692   7.744   7.243  2.1321 -0.2787  2.4562
 6003WAT     H225818   7.603   7.659   7.331 -2.3349  1.0634 -0.4091
 6003WAT    EPW25819   7.634   7.737   7.308 -0.0753  0.5765  0.7355
 6004WAT      O25820   0.738   5.315   6.119  0.4719  0.7769 -0.1858
 6004WAT     H125821   0.827   5.282   6.115  0.6324  1.1120  0.4899
 6004WAT     H225822   0.695   5.263   6.187  0.8763  2.2538  1.2655
 6004WAT    EPW25823   0.744   5.304   6.127  0.5465  1.0159  0.0949
 6005WAT      O25824   2.379   1.817   6.861 -0.4654  0.8352  0.0123
 6005WAT     H125825   2.409   1.768   6.938  1.7242  1.4598 -0.3660
 6005WAT     H225826   2.448   1.882   6.845 -0.8675  0.7702 -2.4405
 6005WAT    EPW25827   2.392   1.819   6.869 -0.2296  0.9090 -0.3612
 6006WAT      O25828   8.953   6.497   4.246  0.4452  0.0159 -0.1526
 6006WAT     H125829   8.914   6.491   4.160 -0.1110 -0.7018  0.1416
 6006WAT     H225830   8.891   6.549   4.297  0.5208  0.0046 -0.0481
 6006WAT    EPW25831   8.940   6.503   4.242  0.3819 -0.0801 -0.1001
 6007WAT      O25832   7.061   2.683   5.609  0.4936 -0.5244  0.0701
 6007WAT     H125833   7.107   2.685   5.525  0.6271  0.0739  0.1512
 6007WAT     H225834   7.087   2.764   5.653 -0.5518 -0.2138  0.1598
 6007WAT    EPW25835   7.070   2.694   5.604  0.3734 -0.4046  0.0927
 6008WAT      O25836   5.182   8.766   5.904 -0.6762 -0.0217 -0.1886
 6008WAT     H125837   5.142   8.804   5.983 -0.3471 -1.6508  0.8089
 6008WAT     H225838   5.117   8.706   5.870 -0.6785  0.4239 -0.9754
 6008WAT    EPW25839   5.168   8.763   5.910 -0.6332 -0.1779 -0.1612
 6009WAT      O25840   7.585  10.246   4.499  0.3856  0.7406 -0.1806
 6009WAT     H125841   7.660  10.300   4.474  0.4625 -0.1172 -1.8824
 6009WAT     H225842   7.513  10.277   4.444 -0.2779  0.8676  0.7181
 6009WAT    EPW25843   7.585  10.257   4.489  0.3083  0.6447 -0.2866
 6010WAT      O25844  10.076   2.123   6.074  0.0442 -0.0364  0.4155
 6010WAT     H125845  10.114   2.115   5.987 -1.6133 -0.2520 -0.3138
 6010WAT     H225846   9.994   2.076   6.069 -1.4553  2.2934  1.2476
 6010WAT    EPW25847  10.070   2.116   6.062 -0.3719  0.2425  0.4289
 6011WAT      O25848   9.162   7.923   1.187 -0.7561 -0.5144 -0.1753
 6011WAT     H125849   9.237   7.941   1.130 -0.0863  0.0250  0.8405
 6011WAT     H225850   9.182   7.839   1.227 -0.6842 -0.3570  0.1181
 6011WAT    EPW25851   9.174   7.914   1.185 -0.6585 -0.4225 -0.0026
 6012WAT      O25852   2.402   1.720   1.311 -0.0948  0.2583  0.1129
 6012WAT     H125853   2.315   1.682   1.327 -0.0660  0.2502  0.2577
 6012WAT     H225854   2.447   1.656   1.256 -0.3359  0.4693 -0.3370
 6012WAT    EPW25855   2.396   1.706   1.306 -0.1228  0.2851  0.0727
 6013WAT      O25856   0.689   8.582   2.290  0.0262 -0.3712  0.3004
 6013WAT     H125857   0.596   8.595   2.307  0.2888  0.7975  1.0492
 6013WAT     H225858   0.700   8.604   2.197 -0.6706 -2.0929 -0.2317
 6013WAT    EPW25859   0.678   8.587   2.280 -0.0311 -0.4439  0.3289
 6014WAT      O25860   9.805   0.516   7.789  0.2624  0.2583  0.1017
 6014WAT     H125861   9.856   0.466   7.853 -0.7918 -1.3006 -0.2208
 6014WAT     H225862   9.786   0.454   7.719 -2.0690  0.7428  0.2064
 6014WAT    EPW25863   9.809   0.502   7.789 -0.1836  0.1166  0.0730
 6015WAT      O25864   1.187   7.314   5.942 -0.3987  0.6188 -0.4807
 6015WAT     H125865   1.175   7.248   5.874 -2.4522 -1.5990  1.8343
 6015WAT     H225866   1.281   7.328   5.946  0.2813 -3.0383 -0.3763
 6015WAT    EPW25867   1.198   7.307   5.934 -0.5798 -0.1559 -0.1614
 6016WAT      O25868  10.893   1.358   2.806 -0.3598  0.7736 -0.4582
 6016WAT     H125869  10.926   1.320   2.887  4.3570  1.5542 -1.7143
 6016WAT     H225870  10.881   1.283   2.748  0.0990  0.5122 -0.2197
 6016WAT    EPW25871  10.896   1.343   2.809  0.3233  0.8420 -0.5924
 6017WAT      O25872   7.234   8.539   5.535  0.2868  0.7332  1.0333
 6017WAT     H125873   7.258   8.605   5.469 -0.9547 -0.2916 -0.5327
 6017WAT     H225874   7.170   8.583   5.591  1.9611  1.8831  2.1332
 6017WAT    EPW25875   7.229   8.553   5.533  0.3438  0.7501  0.9720
 6018WAT      O25876   6.671   1.530   6.017  0.0309  0.1582  0.5712
 6018WAT     H125877   6.728   1.559   6.088  0.8499  3.0440 -1.0875
 6018WAT     H225878   6.724   1.542   5.938 -2.0897  0.7599 -0.8432
 6018WAT    EPW25879   6.685   1.536   6.016 -0.1409  0.6182  0.1662
 6019WAT      O25880   4.766   5.305   1.398 -0.3783  0.7114  0.0847
 6019WAT     H125881   4.695   5.365   1.425  1.7696  3.0437  0.9427
 6019WAT     H225882   4.825   5.304   1.473  0.5136 -1.2345 -0.5968
 6019WAT    EPW25883   4.764   5.313   1.411  0.0226  0.7625  0.1079
 6020WAT      O25884  10.452   0.662   3.375  0.2280  0.3932  0.4108
 6020WAT     H125885  10.474   0.593   3.437 -0.6546  0.6012  0.9646
 6020WAT     H225886  10.376   0.629   3.327  1.2044  0.0181 -0.9348
 6020WAT    EPW25887  10.445   0.649   3.377  0.2403  0.3712  0.3062
 6021WAT      O25888   0.789   1.215   3.372  0.2549 -0.1524  0.5812
 6021WAT     H125889   0.781   1.299   3.327  1.5249  0.4648  1.4376
 6021WAT     H225890   0.874   1.181   3.346  0.2290 -0.6439  1.1085
 6021WAT    EPW25891   0.799   1.222   3.363  0.4190 -0.1358  0.7639
 6022WAT      O25892   0.495   0.863   5.026  0.7634 -0.1609  0.4016
 6022WAT     H125893   0.587   0.873   5.049  0.9244  0.9542 -0.6344
 6022WAT     H225894   0.456   0.948   5.043  0.3220 -0.0944 -0.8422
 6022WAT    EPW25895   0.502   0.875   5.031  0.7264 -0.0051  0.1009
 6023WAT      O25896  10.802   2.191   2.993  0.1899  0.2041 -0.3112
 6023WAT     H125897  10.882   2.151   3.026 -0.8070 -0.7965  0.9991
 6023WAT     H225898  10.744   2.196   3.069  0.0808  3.8413 -0.4412
 6023WAT    EPW25899  10.805   2.187   3.007  0.0443  0.5519 -0.1556
 6024WAT      O25900   9.402   5.105   7.672  0.0701 -0.4958 -1.0028
 6024WAT     H125901   9.383   5.062   7.755  0.7262  1.7046  0.3861
 6024WAT     H225902   9.316   5.119   7.632 -0.8275  2.4719  1.5509
 6024WAT    EPW25903   9.388   5.101   7.677  0.0381  0.1857 -0.4828
 6025WAT      O25904   8.958   0.184   7.723  0.5361 -0.2557 -0.7647
 6025WAT     H125905   9.024   0.126   7.684  0.1251 -0.3251 -1.3786
 6025WAT     H225906   8.880   0.170   7.669 -0.4669 -1.3277  0.8760
 6025WAT    EPW25907   8.956   0.175   7.711  0.3500 -0.4063 -0.6292
 6026WAT      O25908  10.383   0.234   3.355 -0.4106 -0.3892  0.1658
 6026WAT     H125909  10.357   0.143   3.371 -0.5462 -0.0561  2.0870
 6026WAT     H225910  10.342   0.284   3.426 -0.0200  1.1348 -0.6169
 6026WAT    EPW25911  10.374   0.229   3.366 -0.3772 -0.1443  0.3159
 6027WAT      O25912   0.258   0.527   4.209  0.2832 -0.1434 -0.6249
 6027WAT     H125913   0.299   0.496   4.290 -0.3076  0.3411 -0.1290
 6027WAT     H225914   0.216   0.609   4.234  1.1379  0.6425 -1.7285
 6027WAT    EPW25915   0.258   0.534   4.223  0.3180  0.0242 -0.7050
 6028WAT      O25916   3.151   1.410   7.449 -0.0771 -0.2925  0.2792
 6028WAT     H125917   3.160   1.316   7.436  1.6803 -0.0893 -0.3409
 6028WAT     H225918   3.094   1.439   7.377  1.6103 -0.5528 -1.2412
 6028WAT    EPW25919   3.145   1.402   7.438  0.3772 -0.3001 -0.0031
 6029WAT      O25920   9.450   3.257   6.375 -0.2708  0.7398  0.0965
 6029WAT     H125921   9.438   3.351   6.369 -1.2724  0.7029  1.2044
 6029WAT     H225922   9.544   3.244   6.368 -0.0578  1.8799  0.6678
 6029WAT    EPW25923   9.461   3.267   6.373 -0.3743  0.8855  0.3178
 6030WAT      O25924   8.810   0.263   5.579 -0.2600 -0.8092 -0.2692
 6030WAT     H125925   8.767   0.276   5.494  1.8026 -0.8644 -1.3777
 6030WAT     H225926   8.810   0.350   5.619  1.6934 -0.0376 -1.8258
 6030WAT    EPW25927   8.804   0.276   5.573  0.2694 -0.7147 -0.6206
 6031WAT      O25928   0.325   1.706   5.347  0.0864  0.2812 -0.5898
 6031WAT     H125929   0.240   1.690   5.307 -0.6280 -0.1919  1.0632
 6031WAT     H225930   0.388   1.666   5.286 -0.8875  0.2029 -1.5765
 6031WAT    EPW25931   0.322   1.699   5.333 -0.1363  0.2084 -0.5019
 6032WAT      O25932   0.515   2.443   2.089 -0.2033  0.2863 -0.3704
 6032WAT     H125933   0.481   2.524   2.052 -0.6072  0.0489 -0.5292
 6032WAT     H225934   0.449   2.416   2.153  0.5066  0.7153  0.5730
 6032WAT    EPW25935   0.502   2.450   2.092 -0.1629  0.3116 -0.2668
 6033WAT      O25936  10.256   3.529   2.178 -0.0984 -0.1023 -1.0429
 6033WAT     H125937  10.289   3.470   2.245 -0.8798 -0.7722 -1.2231
 6033WAT     H225938  10.211   3.599   2.227 -0.4140 -0.4337 -0.8524
 6033WAT    EPW25939  10.254   3.531   2.193 -0.2432 -0.2344 -1.0415
 6034WAT      O25940   6.990   9.306   5.406 -0.5071  0.3916  0.5794
 6034WAT     H125941   6.971   9.355   5.326 -1.9307  0.6809  1.0526
 6034WAT     H225942   6.922   9.239   5.409 -0.9943  0.9136  1.9625
 6034WAT    EPW25943   6.978   9.304   5.396 -0.7591  0.4992  0.8242
 6035WAT      O25944   8.040   9.049   5.227  0.2410  0.0294  0.0873
 6035WAT     H125945   8.105   9.055   5.298  0.4117 -0.7593  0.0106
 6035WAT     H225946   8.044   8.957   5.199 -1.0056 -0.0648  0.1698
 6035WAT    EPW25947   8.049   9.037   5.233  0.0987 -0.0863  0.0885
 6036WAT      O25948  10.388   4.540   0.321 -0.7106  0.1078 -0.3573
 6036WAT     H125949  10.411   4.548   0.413 -1.1218 -0.7902 -0.1749
 6036WAT     H225950  10.349   4.453   0.312 -0.5584  0.1257 -1.4004
 6036WAT    EPW25951  10.386   4.530   0.332 -0.7448 -0.0083 -0.4708
 6037WAT      O25952   0.913   4.970   3.318 -0.3299  0.2674  0.9700
 6037WAT     H125953   0.827   4.934   3.295 -0.7378 -0.4761  3.3479
 6037WAT     H225954   0.894   5.035   3.386  0.9141  0.7890  0.8426
 6037WAT    EPW25955   0.899   4.974   3.324 -0.2196  0.2384  1.2668
 6038WAT      O25956   2.854   1.087   4.982  0.5344  1.0464 -0.4771
 6038WAT     H125957   2.816   1.174   4.984  0.9737  1.2290  0.3672
 6038WAT     H225958   2.779   1.028   4.976  0.1538  1.4229  0.4531
 6038WAT    EPW25959   2.839   1.091   4.981  0.5422  1.1202 -0.2429
 6039WAT      O25960   2.149   7.016   5.269 -0.2885  0.5290 -0.2194
 6039WAT     H125961   2.224   6.957   5.274 -0.7170 -0.2482 -2.0350
 6039WAT     H225962   2.175   7.083   5.206  0.7214  3.2082  2.8098
 6039WAT    EPW25963   2.162   7.017   5.261 -0.2117  0.7799 -0.0591
 6040WAT      O25964  10.744   5.038   2.254 -0.1504  0.2756  0.3292
 6040WAT     H125965  10.700   5.109   2.208 -0.1885 -0.1114 -0.2487
 6040WAT     H225966  10.837   5.057   2.244 -0.0318 -1.2229 -2.3251
 6040WAT    EPW25967  10.750   5.050   2.246 -0.1402  0.0272 -0.0970
 6041WAT      O25968   0.301   1.050   3.228 -1.2312 -0.3045  0.3784
 6041WAT     H125969   0.347   0.980   3.181  1.1436  1.4257 -0.0672
 6041WAT     H225970   0.365   1.083   3.291 -2.3012  1.4192  0.6434
 6041WAT    EPW25971   0.315   1.045   3.230 -1.0591  0.1510  0.3545
 6042WAT      O25972   6.027   8.543   5.393 -0.1782  0.2808 -0.0194
 6042WAT     H125973   6.072   8.621   5.361 -0.5991  0.9813  1.0405
 6042WAT     H225974   6.093   8.474   5.389  0.6125  0.9994  0.2978
 6042WAT    EPW25975   6.042   8.544   5.389 -0.1292  0.4678  0.1621
 6043WAT      O25976   9.780   1.072   4.548 -0.3437 -0.0576 -0.1062
 6043WAT     H125977   9.865   1.027   4.551 -1.5587 -2.5528 -0.0564
 6043WAT     H225978   9.796   1.152   4.499  2.2775  0.1646  0.9482
 6043WAT    EPW25979   9.793   1.076   4.542 -0.1583 -0.3574  0.0393
 6044WAT      O25980   9.002   4.259   4.128 -0.5109 -0.2820  0.5852
 6044WAT     H125981   9.048   4.329   4.083 -1.4158 -0.0629 -0.0446
 6044WAT     H225982   8.911   4.269   4.100 -0.5840 -1.9805  0.1211
 6044WAT    EPW25983   8.996   4.269   4.119 -0.6399 -0.4771  0.4406
 6045WAT      O25984   1.186   0.138   6.884 -0.5472 -0.1190 -0.1101
 6045WAT     H125985   1.258   0.143   6.822  0.5493 -2.2943  0.8646
 6045WAT     H225986   1.110   0.114   6.831 -0.2987  1.0085 -0.9866
 6045WAT    EPW25987   1.185   0.135   6.869 -0.3698 -0.2572 -0.0973
 6046WAT      O25988   6.455   9.285   4.062  0.0159  0.6978 -0.2110
 6046WAT     H125989   6.433   9.192   4.055 -1.3257  0.9754  0.1708
 6046WAT     H225990   6.371   9.330   4.067  0.5163  2.2221 -3.3057
 6046WAT    EPW25991   6.441   9.279   4.062 -0.0951  0.9356 -0.5686
 6047WAT      O25992   1.832   0.506   4.654 -0.3910  0.2060 -0.5304
 6047WAT     H125993   1.810   0.592   4.620 -3.7439 -1.3769 -2.9437
 6047WAT     H225994   1.907   0.521   4.712  0.4153  4.3819 -2.3088
 6047WAT    EPW25995   1.839   0.519   4.657 -0.7268  0.5480 -1.0834
 6048WAT      O25996   0.275   0.081   8.766  0.0796  0.2259  0.6102
 6048WAT     H125997   0.300   0.124   8.683 -3.5711  2.3988  0.4454
 6048WAT     H225998   0.193   0.036   8.746  0.9082 -2.2401  2.2939
 6048WAT    EPW25999   0.268   0.081   8.752 -0.2926  0.1873  0.8106
 6049WAT      O26000   0.166   0.282   7.809  0.3483 -0.5944 -0.7435
 6049WAT     H126001   0.148   0.340   7.883 -0.9244 -1.9105  0.0156
 6049WAT     H226002   0.157   0.194   7.845  1.9386 -1.2909 -1.9496
 6049WAT    EPW26003   0.162   0.278   7.824  0.3902 -0.8598 -0.8023
 6050WAT      O26004   0.652   6.461   2.033 -0.0515 -0.0297 -0.5229
 6050WAT     H126005   0.619   6.412   2.108 -1.1889  1.6304  0.1213
 6050WAT     H226006   0.686   6.542   2.070 -0.6717  0.8486 -1.7685
 6050WAT    EPW26007   0.652   6.466   2.048 -0.2833  0.3049 -0.6022
 6051WAT      O26008   0.884   0.033   6.830  0.2992 -0.1159 -0.0452
 6051WAT     H126009   0.861   0.093   6.901 -0.3651  0.4017 -0.6766
 6051WAT     H226010   0.888  -0.053   6.871 -0.3854  0.1344  0.5606
 6051WAT    EPW26011   0.881   0.029   6.845  0.1211 -0.0148 -0.0486
 6052WAT      O26012  10.371   1.614   5.559 -0.2207 -0.0136 -0.1939
 6052WAT     H126013  10.451   1.660   5.533  0.3121 -1.4544 -1.2338
 6052WAT     H226014  10.324   1.600   5.477 -1.2996  0.3106  0.3402
 6052WAT    EPW26015  10.375   1.619   5.545 -0.2923 -0.1609 -0.2606
 6053WAT      O26016   0.976   1.263   8.562  0.0040 -0.0811  0.6006
 6053WAT     H126017   0.884   1.235   8.553  0.0775 -1.3484  2.8625
 6053WAT     H226018   0.974   1.357   8.545 -1.4773 -0.3047 -0.7037
 6053WAT    EPW26019   0.963   1.272   8.559 -0.1817 -0.2778  0.7272
 6054WAT      O26020   9.640   9.465   5.774  0.8424 -0.0058 -0.2413
 6054WAT     H126021   9.726   9.470   5.731 -0.0454  0.6455 -2.0495
 6054WAT     H226022   9.589   9.536   5.735 -0.7192 -0.7640  0.3197
 6054WAT    EPW26023   9.645   9.475   5.763  0.5198 -0.0196 -0.4060
 6055WAT      O26024  10.477   2.214   6.091  0.4589  0.3453  0.4032
 6055WAT     H126025  10.435   2.129   6.104  1.5153  0.0021  1.8222
 6055WAT     H226026  10.521   2.206   6.006  0.2076 -0.3763  0.3316
 6055WAT    EPW26027  10.477   2.201   6.081  0.5651  0.2048  0.5810
 6056WAT      O26028   9.370   0.665   5.479  0.3900  1.2596 -1.0904
 6056WAT     H126029   9.395   0.685   5.389  2.3989  1.2913 -0.5563
 6056WAT     H226030   9.320   0.583   5.472  2.0655  0.2579 -2.0844
 6056WAT    EPW26031   9.366   0.656   5.467  0.8759  1.1317 -1.1511
 6057WAT      O26032   9.169   4.517   4.142 -0.4307  0.3332 -0.1462
 6057WAT     H126033   9.107   4.512   4.215  0.2245  0.4013  0.4214
 6057WAT     H226034   9.242   4.460   4.168 -0.0441  0.6041 -0.6112
 6057WAT    EPW26035   9.170   4.509   4.155 -0.2933  0.3777 -0.1328
 6058WAT      O26036  10.845   2.713   5.829  0.5382 -0.7909 -0.0408
 6058WAT     H126037  10.836   2.678   5.741 -0.0762  1.2092 -0.8085
 6058WAT     H226038  10.757   2.739   5.854  1.0339  0.7154  0.2541
 6058WAT    EPW26039  10.833   2.712   5.821  0.5226 -0.3284 -0.1032
 6059WAT      O26040  10.162   4.834   1.355 -0.2013  0.0164 -0.2567
 6059WAT     H126041  10.069   4.853   1.338 -0.7981 -3.1298 -1.1957
 6059WAT     H226042  10.189   4.782   1.280  0.9985 -2.9468  2.0420
 6059WAT    EPW26043  10.153   4.830   1.343 -0.1221 -0.7894 -0.0774
 6060WAT      O26044   9.339  10.049   5.944  0.7923 -0.2324 -0.5444
 6060WAT     H126045   9.298  10.031   5.860 -0.4409  2.2481 -0.5654
 6060WAT     H226046   9.266  10.053   6.006  1.7903 -3.8107  1.1410
 6060WAT    EPW26047   9.324  10.047   5.941  0.7615 -0.3767 -0.3245
 6061WAT      O26048   8.353   8.739   6.246  0.5623 -0.5007 -0.1441
 6061WAT     H126049   8.316   8.669   6.300  1.5666 -1.3037 -0.4606
 6061WAT     H226050   8.380   8.695   6.166 -0.9274  0.6803 -1.3557
 6061WAT    EPW26051   8.351   8.724   6.243  0.4983 -0.4506 -0.3459
 6062WAT      O26052  10.934   1.252   4.490  0.8570  0.4278 -0.2317
 6062WAT     H126053  10.894   1.318   4.548  1.4206 -0.6696  1.4805
 6062WAT     H226054  10.863   1.226   4.432  0.4144  1.9662 -0.4445
 6062WAT    EPW26055  10.919   1.257   4.490  0.8731  0.4859 -0.0341
 6063WAT      O26056   1.326   0.520   6.662 -0.0639 -0.2879  0.1131
 6063WAT     H126057   1.303   0.470   6.741 -1.1201 -1.6748 -1.0248
 6063WAT     H226058   1.249   0.575   6.646 -0.1973 -0.6169 -0.4023
 6063WAT    EPW26059   1.313   0.521   6.671 -0.2208 -0.5142 -0.1049
 6064WAT      O26060  10.275   5.242   3.751 -0.0133  0.1311 -0.1052
 6064WAT     H126061  10.352   5.186   3.739 -0.6507 -1.0995  1.2808
 6064WAT     H226062  10.212   5.187   3.796 -1.7954  1.0757 -1.3078
 6064WAT    EPW26063  10.277   5.227   3.755 -0.3324  0.0932 -0.0809
 6065WAT      O26064   1.122   0.270   3.138  0.0412 -0.1703 -0.0857
 6065WAT     H126065   1.137   0.234   3.051 -0.5691 -3.0121  0.8727
 6065WAT     H226066   1.207   0.264   3.182 -0.2161 -1.2098  0.3008
 6065WAT    EPW26067   1.135   0.264   3.133 -0.0732 -0.6822  0.0917
 6066WAT      O26068  10.707   2.157   6.468  0.6201 -0.3052  0.0084
 6066WAT     H126069  10.762   2.190   6.397  2.3698 -0.5657  1.1585
 6066WAT     H226070  10.667   2.235   6.505 -0.9992 -0.2473 -1.7495
 6066WAT    EPW26071  10.709   2.172   6.464  0.6371 -0.3319 -0.0718
 6067WAT      O26072  10.641   1.175   3.529  1.2084  0.0907  0.3677
 6067WAT     H126073  10.689   1.126   3.595 -1.8985 -1.2358  1.8495
 6067WAT     H226074  10.580   1.111   3.491  0.7003  1.5906 -1.5097
 6067WAT    EPW26075  10.639   1.160   3.533  0.7315  0.1136  0.3154
 6068WAT      O26076   8.125   6.686   4.465 -0.1973  0.1798  0.5028
 6068WAT     H126077   8.198   6.627   4.447  0.7388  1.7698 -1.2945
 6068WAT     H226078   8.051   6.648   4.418  0.4215  0.4647 -0.7297
 6068WAT    EPW26079   8.125   6.673   4.456  0.0076  0.4270  0.1035
 6069WAT      O26080   6.877   9.740   1.321  0.0548  0.9843  0.0391
 6069WAT     H126081   6.964   9.771   1.296 -0.8054  2.2109 -1.6489
 6069WAT     H226082   6.870   9.760   1.414  3.0050 -2.7931  1.3754
 6069WAT    EPW26083   6.888   9.746   1.330  0.3302  0.6475 -0.0072
 6070WAT      O26084   6.487   8.907   6.836  0.6078 -1.2637 -0.0588
 6070WAT     H126085   6.494   8.833   6.776 -0.3900 -0.5607 -1.0860
 6070WAT     H226086   6.571   8.952   6.827 -0.1841 -0.0982 -2.4388
 6070WAT    EPW26087   6.499   8.903   6.827  0.3717 -1.0180 -0.5081
 6071WAT      O26088   9.852   6.503   5.066  0.2280  0.1864 -0.3215
 6071WAT     H126089   9.757   6.498   5.077 -0.0804  3.9148 -0.0102
 6071WAT     H226090   9.887   6.497   5.155  0.6054 -3.2499 -0.5588
 6071WAT    EPW26091   9.844   6.502   5.080  0.2365  0.2251 -0.3116
 6072WAT      O26092   9.788   5.065   5.341  0.1304  1.0626  0.3782
 6072WAT     H126093   9.734   5.057   5.262  1.6931  0.0470 -0.6412
 6072WAT     H226094   9.867   5.112   5.311  1.9249 -1.5925  0.6494
 6072WAT    EPW26095   9.791   5.070   5.327  0.5727  0.5784  0.2797
 6073WAT      O26096   1.602   1.673   2.235 -0.3703  0.8856  0.6934
 6073WAT     H126097   1.659   1.655   2.161 -0.1531  0.1704  1.0279
 6073WAT     H226098   1.616   1.599   2.294 -1.9251  0.4858  0.6056
 6073WAT    EPW26099   1.611   1.661   2.233 -0.5468  0.7386  0.7259
 6074WAT      O26100   8.838   2.480   6.570  0.1369  0.0624 -0.3330
 6074WAT     H126101   8.916   2.475   6.516 -0.2488 -1.2087 -0.8093
 6074WAT     H226102   8.871   2.498   6.658  0.7835  1.9095 -0.9079
 6074WAT    EPW26103   8.852   2.482   6.575  0.1717  0.1383 -0.4718
 6075WAT      O26104   7.544   0.998   6.173 -0.4101  0.1812 -0.2516
 6075WAT     H126105   7.476   1.033   6.230  0.2843  0.0827  0.6609
 6075WAT     H226106   7.509   1.008   6.085 -1.5679  0.1980  0.1988
 6075WAT    EPW26107   7.531   1.004   6.169 -0.4711  0.1704 -0.0722
 6076WAT      O26108   0.927   4.870   4.028  0.0557  0.1656 -0.8019
 6076WAT     H126109   0.889   4.895   4.112 -1.4607 -1.2642 -1.0087
 6076WAT     H226110   0.947   4.953   3.985  1.2783  0.9212  1.1154
 6076WAT    EPW26111   0.925   4.885   4.033  0.0169  0.0765 -0.5763
 6077WAT      O26112  10.258   2.230   2.816 -0.0561  0.2784 -0.1697
 6077WAT     H126113  10.191   2.252   2.880 -1.1857  0.0502 -1.2387
 6077WAT     H226114  10.210   2.217   2.734  1.2790 -0.0132 -0.9392
 6077WAT    EPW26115  10.243   2.231   2.813 -0.0296  0.2099 -0.4121
 6078WAT      O26116   4.166   9.813   3.924  0.2719  0.3117  0.0931
 6078WAT     H126117   4.109   9.884   3.954 -1.2125 -0.2471 -1.2345
 6078WAT     H226118   4.106   9.740   3.908  1.5192 -0.6554 -0.3495
 6078WAT    EPW26119   4.150   9.813   3.926  0.2408  0.1111 -0.1403
 6079WAT      O26120   9.580   4.376   4.490  0.1809  0.6467  0.4118
 6079WAT     H126121   9.617   4.434   4.423 -0.2168 -1.3977 -1.7102
 6079WAT     H226122   9.650   4.367   4.555  0.8688  2.1076 -0.0808
 6079WAT    EPW26123   9.594   4.383   4.490  0.2193  0.5698  0.0670
 6080WAT      O26124   5.027   9.938   3.112  0.0989  0.1744 -0.1586
 6080WAT     H126125   4.989  10.019   3.146 -0.9672 -0.1901 -0.4412
 6080WAT     H226126   4.967   9.911   3.042 -0.0996 -1.3625  0.5614
 6080WAT    EPW26127   5.014   9.945   3.107 -0.0679 -0.0768 -0.1010
 6081WAT      O26128   9.849   2.060   7.417 -0.2407  1.0296 -0.3632
 6081WAT     H126129   9.838   1.983   7.473 -0.0897  0.9847 -0.3969
 6081WAT     H226130   9.786   2.047   7.346 -0.0093  0.7942 -0.5270
 6081WAT    EPW26131   9.839   2.048   7.415 -0.1903  0.9927 -0.3893
 6082WAT      O26132   8.328   1.586   2.916 -0.2250  0.0261 -0.1726
 6082WAT     H126133   8.323   1.631   3.000 -2.0590 -1.1270  0.3897
 6082WAT     H226134   8.417   1.553   2.911 -0.1233  0.0060  1.3922
 6082WAT    EPW26135   8.339   1.588   2.926 -0.4539 -0.1287  0.1079
 6083WAT      O26136  10.409   0.150   0.162  0.2998  0.2252 -0.9130
 6083WAT     H126137  10.418   0.227   0.107  1.3402 -0.4543 -1.7236
 6083WAT     H226138  10.419   0.076   0.102 -1.3270 -0.5803 -0.2768
 6083WAT    EPW26139  10.411   0.150   0.147  0.2227  0.0293 -0.9360
 6084WAT      O26140   9.471   9.302   8.654 -0.2716  0.6972  0.3032
 6084WAT     H126141   9.403   9.275   8.716 -3.7459  1.7683 -2.6487
 6084WAT     H226142   9.491   9.223   8.604 -0.5364  0.7137  0.1701
 6084WAT    EPW26143   9.465   9.288   8.655 -0.7644  0.8407 -0.1035
 6085WAT      O26144  10.391   1.464   2.987  0.4318  0.8410  0.0217
 6085WAT     H126145  10.364   1.409   3.060  1.6621  0.4574  0.2095
 6085WAT     H226146  10.457   1.412   2.941 -0.0719  1.2151 -1.1688
 6085WAT    EPW26147  10.396   1.450   2.990  0.5279  0.8398 -0.1104
 6086WAT      O26148   1.000   0.939   2.600 -0.2931 -0.0190  0.2962
 6086WAT     H126149   0.944   0.994   2.655 -1.3167 -0.4374 -0.2947
 6086WAT     H226150   1.089   0.958   2.629 -0.8299 -0.8891  2.7397
 6086WAT    EPW26151   1.005   0.949   2.611 -0.4989 -0.1889  0.5406
 6087WAT      O26152   9.034   0.448   6.402  0.1426  0.0461 -0.9733
 6087WAT     H126153   8.962   0.453   6.466 -0.0664 -3.1101 -0.8075
 6087WAT     H226154   9.022   0.526   6.347 -1.9262  0.9051  0.5335
 6087WAT    EPW26155   9.023   0.459   6.403 -0.1583 -0.2569 -0.7527
 6088WAT      O26156   1.698   3.495   7.371  0.2839  0.4868  0.2021
 6088WAT     H126157   1.618   3.472   7.324 -1.4898  3.3818  1.5196
 6088WAT     H226158   1.700   3.433   7.445  0.4637 -0.9581 -0.9659
 6088WAT    EPW26159   1.687   3.484   7.375  0.0737  0.6782  0.2220
 6089WAT      O26160   8.269   4.987   3.188 -0.4142 -0.1911 -0.4263
 6089WAT     H126161   8.215   5.010   3.264 -1.6247 -2.3999 -0.5310
 6089WAT     H226162   8.225   4.911   3.150  0.7127  0.2551 -2.7916
 6089WAT    EPW26163   8.256   4.980   3.193 -0.4253 -0.4234 -0.7521
 6090WAT      O26164   9.417   2.916   4.769 -0.4562 -0.2693 -0.1645
 6090WAT     H126165   9.461   2.997   4.743 -4.0700  1.8420 -0.3794
 6090WAT     H226166   9.416   2.919   4.865  0.0067 -0.4527 -0.1497
 6090WAT    EPW26167   9.422   2.927   4.778 -0.8717 -0.0151 -0.1910
 6091WAT      O26168   6.167   7.916   0.757 -0.7797  0.3098  0.6373
 6091WAT     H126169   6.259   7.898   0.737 -0.4673  1.2448  1.1488
 6091WAT     H226170   6.149   7.866   0.836 -0.2981  1.1833  1.3155
 6091WAT    EPW26171   6.177   7.907   0.765 -0.6747  0.5481  0.7942
 6092WAT      O26172   1.400   0.035   0.583 -0.3030  0.7209 -0.8354
 6092WAT     H126173   1.378   0.015   0.493  0.2053  0.4208 -0.8945
 6092WAT     H226174   1.379  -0.044   0.632  0.7969  0.3491 -0.9237
 6092WAT    EPW26175   1.394   0.022   0.578 -0.0909  0.6323 -0.8549
 6093WAT      O26176   0.657   6.467   8.370  0.7146 -0.0969  0.3327
 6093WAT     H126177   0.663   6.425   8.456 -0.8382 -1.7104 -0.2760
 6093WAT     H226178   0.715   6.415   8.314  1.6708  0.9096  0.3566
 6093WAT    EPW26179   0.665   6.454   8.374  0.6359 -0.1769  0.2561
 6094WAT      O26180   6.309   7.765   0.480 -0.4523  0.1464 -0.3636
 6094WAT     H126181   6.317   7.855   0.449 -1.7196 -0.1024 -1.5368
 6094WAT     H226182   6.394   7.745   0.518  0.5341  1.1767 -1.8944
 6094WAT    EPW26183   6.321   7.774   0.481 -0.4892  0.2494 -0.7203
 6095WAT      O26184   6.858   1.058   0.020  0.4186  0.7090  0.6899
 6095WAT     H126185   6.812   1.053  -0.064  1.3445  0.2640  0.1993
 6095WAT     H226186   6.798   1.107   0.077 -0.2482  0.9557 -0.2031
 6095WAT    EPW26187   6.844   1.063   0.016  0.4528  0.6828  0.5074
 6096WAT      O26188   3.863   4.342   8.387  0.2448 -0.4345 -0.2601
 6096WAT     H126189   3.812   4.419   8.414 -0.4863 -0.4728 -1.4536
 6096WAT     H226190   3.952   4.361   8.416  0.1935  1.1373 -1.0108
 6096WAT    EPW26191   3.868   4.355   8.394  0.1416 -0.2322 -0.5159
 6097WAT      O26192   5.057   3.528   6.735  0.5639 -0.1420 -0.0558
 6097WAT     H126193   5.074   3.612   6.780 -0.0975 -0.5270  0.9678
 6097WAT     H226194   5.001   3.480   6.797 -0.8663 -0.4782 -1.5507
 6097WAT    EPW26195   5.052   3.533   6.749  0.2882 -0.2371 -0.1180
 6098WAT      O26196   3.981   9.374   0.201 -0.4117  0.2179  0.1697
 6098WAT     H126197   3.927   9.346   0.127 -0.4567  1.7398 -0.3904
 6098WAT     H226198   4.038   9.298   0.218 -2.6032 -1.3945  0.7347
 6098WAT    EPW26199   3.981   9.360   0.193 -0.7068  0.2055  0.1704
 6099WAT      O26200   9.685   1.283   2.734  0.3581  0.0071 -0.3598
 6099WAT     H126201   9.697   1.365   2.781 -1.7926 -0.1339  0.5722
 6099WAT     H226202   9.643   1.309   2.652  0.8429 -0.0712 -0.6386
 6099WAT    EPW26203   9.681   1.297   2.729  0.1388 -0.0218 -0.2736
 6100WAT      O26204  10.546   3.464   5.671  0.0884 -0.1894 -0.2413
 6100WAT     H126205  10.529   3.403   5.599 -3.8208 -1.3540  1.3932
 6100WAT     H226206  10.635   3.444   5.700 -0.3662 -3.8747 -0.9662
 6100WAT    EPW26207  10.555   3.454   5.665 -0.4869 -0.8291 -0.1214
 6101WAT      O26208   9.026   0.688   0.362  0.1730 -0.0277  0.3544
 6101WAT     H126209   9.093   0.623   0.379  0.2578 -0.1456 -0.4183
 6101WAT     H226210   9.073   0.772   0.361  0.5841 -0.2378 -1.6534
 6101WAT    EPW26211   9.041   0.691   0.364  0.2384 -0.0709 -0.0124
 6102WAT      O26212   4.430   2.531   8.727  0.0426 -0.1543 -0.6511
 6102WAT     H126213   4.501   2.467   8.733 -0.7465 -0.9106  2.0966
 6102WAT     H226214   4.356   2.488   8.769 -0.8366  2.1689  0.3009
 6102WAT    EPW26215   4.430   2.517   8.733 -0.1774  0.0526 -0.1626
 6103WAT      O26216   7.854   1.795   2.843  0.0300  0.1363 -0.5887
 6103WAT     H126217   7.945   1.824   2.837  0.2397 -0.4372 -0.2869
 6103WAT     H226218   7.807   1.872   2.876  0.4957  0.2750 -0.2298
 6103WAT    EPW26219   7.860   1.809   2.847  0.1192  0.0790 -0.5015
 6104WAT      O26220   7.308   3.628   2.814  0.7291  0.3288 -0.3193
 6104WAT     H126221   7.311   3.671   2.899  1.1303  0.6297 -0.4823
 6104WAT     H226222   7.397   3.633   2.781  0.4005  1.0407 -1.1612
 6104WAT    EPW26223   7.320   3.635   2.821  0.7386  0.4623 -0.4520
 6105WAT      O26224   7.733   8.845   2.264  0.1373  0.4283  0.2000
 6105WAT     H126225   7.686   8.926   2.285  1.1349  0.9469  0.5228
 6105WAT     H226226   7.711   8.827   2.173 -1.5940  0.0089  0.6645
 6105WAT    EPW26227   7.724   8.854   2.255  0.0403  0.4416  0.3037
 6106WAT      O26228   9.797   3.683   6.318  0.6124  0.2937  0.3228
 6106WAT     H126229   9.726   3.713   6.262  1.3614  0.3755 -0.6266
 6106WAT     H226230   9.805   3.589   6.297  2.2641  0.7437 -1.3429
 6106WAT    EPW26231   9.789   3.674   6.308  0.9289  0.3638 -0.0222
 6107WAT      O26232   8.138   2.409   0.063 -0.3352  0.2855  0.6661
 6107WAT     H126233   8.097   2.496   0.065  2.6134  1.8205  0.0165
 6107WAT     H226234   8.135   2.383  -0.030  0.3998  0.5843  0.5469
 6107WAT    EPW26235   8.132   2.417   0.051  0.1502  0.5275  0.5647
 6108WAT      O26236   2.560   3.382   1.087 -0.1360 -0.0256  0.1918
 6108WAT     H126237   2.502   3.390   1.162  1.5255 -1.9910  1.8001
 6108WAT     H226238   2.630   3.446   1.104  0.6386 -0.9992  0.7480
 6108WAT    EPW26239   2.562   3.392   1.099  0.1853 -0.4133  0.4773
 6109WAT      O26240  10.789   5.527   8.960 -0.2846  0.6768  0.3823
 6109WAT     H126241  10.765   5.442   8.923  2.1448  0.5809 -1.1771
 6109WAT     H226242  10.740   5.532   9.043 -0.6887 -2.0967  0.3968
 6109WAT    EPW26243  10.779   5.516   8.966 -0.0179  0.2983  0.1785
 6110WAT      O26244  10.689   2.380   3.502 -0.5041  1.0127 -1.0036
 6110WAT     H126245  10.667   2.306   3.558  0.3511  2.0329  0.7883
 6110WAT     H226246  10.784   2.386   3.505 -0.6063  3.2361  0.4423
 6110WAT    EPW26247  10.699   2.371   3.510 -0.4044  1.4405 -0.5765
 6111WAT      O26248   6.811   1.123   5.529  0.1588 -0.1967  0.5235
 6111WAT     H126249   6.842   1.060   5.594 -0.0514 -0.4463  0.3817
 6111WAT     H226250   6.845   1.207   5.559  1.4261 -0.5359  0.0783
 6111WAT    EPW26251   6.819   1.126   5.541  0.2980 -0.2744  0.4458
 6112WAT      O26252   8.911  10.043   1.448 -0.7408  0.1128  0.4328
 6112WAT     H126253   8.893  10.075   1.536 -1.4720 -1.8437  1.0679
 6112WAT     H226254   8.966   9.965   1.462  0.5890  0.7409 -0.9713
 6112WAT    EPW26255   8.916  10.037   1.461 -0.6618 -0.0620  0.3314
 6113WAT      O26256   6.280   9.237   2.974  0.7914  0.1323  0.4207
 6113WAT     H126257   6.345   9.187   3.023 -0.6899 -2.2488  0.1265
 6113WAT     H226258   6.196   9.208   3.010 -0.1854  1.3555 -0.7766
 6113WAT    EPW26259   6.277   9.226   2.985  0.4673 -0.0205  0.2240
 6114WAT      O26260   8.642   2.825   0.622 -0.1014  0.2819 -0.0293
 6114WAT     H126261   8.716   2.883   0.639  0.8678 -0.9328 -0.0127
 6114WAT     H226262   8.669   2.773   0.546 -3.1694  3.6371 -3.9423
 6114WAT    EPW26263   8.655   2.826   0.614 -0.3781  0.5641 -0.5432
 6115WAT      O26264   2.254   4.333   8.684 -0.0972 -0.2391  0.2904
 6115WAT     H126265   2.311   4.268   8.725 -1.7731 -1.6053  0.5411
 6115WAT     H226266   2.261   4.315   8.590  0.4857  0.1362  0.2545
 6115WAT    EPW26267   2.263   4.322   8.677 -0.2414 -0.3700  0.3190
 6116WAT      O26268  10.169   0.519   2.851  0.5747  0.1085 -0.5041
 6116WAT     H126269  10.112   0.496   2.777  1.2086 -0.1179 -0.9375
 6116WAT     H226270  10.211   0.436   2.875  1.7678  0.5104 -1.1105
 6116WAT    EPW26271  10.167   0.505   2.844  0.8159  0.1317 -0.6413
 6117WAT      O26272   7.967   6.557   3.305  0.0049  0.6251  0.6024
 6117WAT     H126273   7.882   6.546   3.263 -0.0642  0.7674  0.7040
 6117WAT     H226274   8.002   6.468   3.314  1.5747  0.7124 -2.9308
 6117WAT    EPW26275   7.961   6.544   3.301  0.2029  0.6552  0.1498
 6118WAT      O26276   9.229   3.192   3.389 -0.2974  0.7474  0.2370
 6118WAT     H126277   9.198   3.234   3.469 -2.0740 -0.3731  0.1856
 6118WAT     H226278   9.238   3.263   3.326  0.2297  1.5101  1.1518
 6118WAT    EPW26279   9.226   3.207   3.391 -0.4625  0.7004  0.3510
 6119WAT      O26280   9.703   1.913   3.620 -0.7524  0.2953  0.2325
 6119WAT     H126281   9.742   1.995   3.649  0.8587  0.4982 -2.2865
 6119WAT     H226282   9.738   1.847   3.681  0.4633  1.0221  0.3486
 6119WAT    EPW26283   9.712   1.915   3.632 -0.3796  0.4179 -0.0844
 6120WAT      O26284   2.782   3.263   8.667 -0.1811 -0.2082  0.4033
 6120WAT     H126285   2.866   3.263   8.623 -0.4364 -2.2469 -0.1500
 6120WAT     H226286   2.734   3.336   8.627  1.3264  1.0709  0.8348
 6120WAT    EPW26287   2.787   3.273   8.656 -0.0160 -0.3083  0.3872
 6121WAT      O26288   2.863   3.645   6.800  0.2583 -0.4170 -0.7828
 6121WAT     H126289   2.915   3.718   6.834  0.6998  0.4630 -3.1792
 6121WAT     H226290   2.928   3.585   6.761 -0.1916 -1.5831  0.1969
 6121WAT    EPW26291   2.878   3.646   6.799  0.2573 -0.4547 -0.9696
 6122WAT      O26292   8.215   9.182   2.380 -0.1704  0.5226 -0.3658
 6122WAT     H126293   8.252   9.156   2.464 -0.8680  1.8004  0.3717
 6122WAT     H226294   8.185   9.100   2.341  0.3643 -0.1192  0.5261
 6122WAT    EPW26295   8.216   9.168   2.386 -0.1922  0.6061 -0.1508
 6123WAT      O26296   4.668   8.889   4.245  0.3298 -0.6920 -0.5402
 6123WAT     H126297   4.748   8.844   4.274  0.3919  0.5491  1.4561
 6123WAT     H226298   4.679   8.979   4.276 -0.6899  0.2028 -2.6034
 6123WAT    EPW26299   4.680   8.895   4.253  0.2034 -0.4101 -0.5491
 6124WAT      O26300   6.048   8.530   6.516 -1.0505 -0.3248 -0.0131
 6124WAT     H126301   5.970   8.475   6.515 -1.0112 -0.4141 -2.0420
 6124WAT     H226302   6.115   8.475   6.555 -2.1650  0.1011  2.7419
 6124WAT    EPW26303   6.046   8.516   6.521 -1.1923 -0.2809  0.0827
 6125WAT      O26304   9.303  10.155   4.059  0.7800 -0.6635  0.4256
 6125WAT     H126305   9.277  10.152   4.151  3.0108 -2.5943  1.0876
 6125WAT     H226306   9.394  10.124   4.059  3.0593  4.6934 -1.7135
 6125WAT    EPW26307   9.312  10.151   4.071  1.3747 -0.2117  0.2306
 6126WAT      O26308   8.353  10.356   2.000 -0.3537  0.1491  0.8121
 6126WAT     H126309   8.442  10.377   2.029 -0.7174  0.4451  1.7568
 6126WAT     H226310   8.349  10.260   2.001  0.8188 -0.0020 -1.9753
 6126WAT    EPW26311   8.364  10.346   2.004 -0.2475  0.1683  0.5692
 6127WAT      O26312  10.558   2.801   3.001  0.4683 -0.2521 -0.5961
 6127WAT     H126313  10.497   2.817   3.073  0.7514 -2.1400  0.1270
 6127WAT     H226314  10.599   2.886   2.985 -2.6323  1.2045 -1.4512
 6127WAT    EPW26315  10.555   2.814   3.008  0.0968 -0.3090 -0.6136
 6128WAT      O26316   1.752   2.867   2.505  0.7568 -0.3274  0.1644
 6128WAT     H126317   1.700   2.923   2.447 -0.9777 -1.6368  0.3762
 6128WAT     H226318   1.687   2.811   2.548  2.0604  0.1065  2.8457
 6128WAT    EPW26319   1.736   2.867   2.503  0.6999 -0.4429  0.5461
 6129WAT      O26320  10.592   0.213   1.041  0.3737 -0.3436 -0.4295
 6129WAT     H126321  10.506   0.172   1.029  1.0352 -1.6744 -0.7716
 6129WAT     H226322  10.636   0.158   1.105  0.6664  0.8475  0.4266
 6129WAT    EPW26323  10.587   0.200   1.048  0.4992 -0.3620 -0.3617
 6130WAT      O26324   6.262   8.685   4.079  0.2191  0.8008  0.3771
 6130WAT     H126325   6.211   8.606   4.093  1.2784 -0.5913 -2.7622
 6130WAT     H226326   6.339   8.674   4.136 -0.3255  0.2815  1.0257
 6130WAT    EPW26327   6.266   8.674   4.088  0.2868  0.5484  0.0484
 6131WAT      O26328   4.624   8.112   0.287  0.3055  1.2091 -0.0977
 6131WAT     H126329   4.556   8.049   0.311 -0.3364  1.3395 -1.4839
 6131WAT     H226330   4.706   8.067   0.306 -0.1528  0.1143 -0.6363
 6131WAT    EPW26331   4.626   8.098   0.292  0.1602  1.0819 -0.3515
 6132WAT      O26332   8.454   0.949   1.151  0.6158  0.4387  0.4826
 6132WAT     H126333   8.394   0.909   1.214  2.5967 -1.9726  1.0216
 6132WAT     H226334   8.458   0.885   1.079  1.2131  1.4009 -0.3622
 6132WAT    EPW26335   8.446   0.935   1.150  0.9561  0.2475  0.4423
 6133WAT      O26336   7.952   6.983   5.056 -0.5858 -0.0120  0.5060
 6133WAT     H126337   8.007   6.945   4.986  1.2730  0.2051  1.7683
 6133WAT     H226338   7.946   7.076   5.034 -1.1246 -0.1728 -0.0508
 6133WAT    EPW26339   7.959   6.990   5.044 -0.4117 -0.0048  0.5991
 6134WAT      O26340   6.318   9.647   2.531  0.2432 -0.5263 -0.1788
 6134WAT     H126341   6.331   9.552   2.527 -3.0488 -1.0628 -1.8756
 6134WAT     H226342   6.255   9.660   2.601 -1.0143  0.0933 -1.3801
 6134WAT    EPW26343   6.311   9.636   2.539 -0.3567 -0.5155 -0.5611
 6135WAT      O26344   4.094   7.438   0.606  0.4970 -0.2922  0.1465
 6135WAT     H126345   4.029   7.414   0.540 -1.5199  1.0346  1.5657
 6135WAT     H226346   4.054   7.510   0.655  2.7136  0.0429  1.6192
 6135WAT    EPW26347   4.080   7.444   0.604  0.5233 -0.0730  0.5279
 6136WAT      O26348   6.583   8.573   1.227  0.7701  0.8376 -0.1656
 6136WAT     H126349   6.573   8.608   1.138 -0.1818  1.1723  0.0526
 6136WAT     H226350   6.575   8.650   1.284 -3.0111  0.2306  0.4203
 6136WAT    EPW26351   6.580   8.588   1.223  0.1457  0.8016 -0.0596
 6137WAT      O26352   3.245   4.556   7.608  0.0568  0.2193 -0.6404
 6137WAT     H126353   3.202   4.568   7.524  0.7366  0.8403 -0.9088
 6137WAT     H226354   3.338   4.570   7.589  0.1566  0.9543  0.3239
 6137WAT    EPW26355   3.252   4.559   7.594  0.1595  0.3982 -0.5488
 6138WAT      O26356  10.351   2.602   1.775 -0.1743 -0.2242 -0.4768
 6138WAT     H126357  10.267   2.646   1.786 -0.8762 -1.2579 -1.4650
 6138WAT     H226358  10.411   2.671   1.746  0.0442  1.1040  2.6932
 6138WAT    EPW26359  10.348   2.617   1.773 -0.2379 -0.1854 -0.1889
 6139WAT      O26360   0.902   6.071   6.271  0.2102  0.5079 -0.3035
 6139WAT     H126361   0.950   6.072   6.354  0.0667  0.2865 -0.2172
 6139WAT     H226362   0.816   6.037   6.294 -0.3127  1.7645 -0.2866
 6139WAT    EPW26363   0.897   6.067   6.285  0.1223  0.6444 -0.2902
 6140WAT      O26364   3.598   3.340   8.449 -0.2869 -1.0193 -0.0654
 6140WAT     H126365   3.521   3.352   8.394  1.4949 -0.5778 -2.6279
 6140WAT     H226366   3.603   3.421   8.500 -0.3894 -0.1216 -1.4128
 6140WAT    EPW26367   3.588   3.352   8.448 -0.0653 -0.8428 -0.5808
 6141WAT      O26368   7.095   7.798   2.333 -0.6493  0.0719 -0.2961
 6141WAT     H126369   7.061   7.809   2.422 -2.2653  2.0597 -1.0835
 6141WAT     H226370   7.019   7.810   2.277  0.6610  0.7367 -2.0213
 6141WAT    EPW26371   7.080   7.801   2.338 -0.6895  0.4218 -0.6275
 6142WAT      O26372   7.243   9.830   3.944  0.6996  0.1542 -0.0307
 6142WAT     H126373   7.191   9.894   3.993 -0.2846 -0.0147 -0.8035
 6142WAT     H226374   7.191   9.750   3.948  1.0587 -0.1101 -0.5548
 6142WAT    EPW26375   7.229   9.828   3.951  0.6173  0.0968 -0.2018
 6143WAT      O26376   9.995   4.317   0.319 -0.3776 -0.6152 -0.2125
 6143WAT     H126377  10.022   4.262   0.393  1.8817  0.9795  0.2819
 6143WAT     H226378   9.936   4.263   0.268 -2.3426 -1.7084  2.9209
 6143WAT    EPW26379   9.991   4.303   0.322 -0.3390 -0.5488  0.2660
 6144WAT      O26380   4.987   9.811   5.889 -0.2761  0.1645 -0.3527
 6144WAT     H126381   4.923   9.741   5.876  1.1157 -0.7470 -2.8937
 6144WAT     H226382   5.015   9.801   5.980 -0.3763 -2.4004 -0.5322
 6144WAT    EPW26383   4.982   9.801   5.899 -0.1059 -0.2942 -0.7117
 6145WAT      O26384   0.198   4.076   0.500  0.0676 -0.3366  0.0010
 6145WAT     H126385   0.110   4.064   0.466 -0.5792 -0.2890  1.5581
 6145WAT     H226386   0.235   4.147   0.448 -1.0248  0.0401 -0.2832
 6145WAT    EPW26387   0.192   4.084   0.489 -0.1618 -0.2804  0.1688
 6146WAT      O26388   0.080   4.328   1.775 -0.0761  0.5445  0.2594
 6146WAT     H126389   0.131   4.406   1.795  0.9013 -0.4833  2.0837
 6146WAT     H226390   0.125   4.289   1.699 -0.5372  1.6632 -0.6235
 6146WAT    EPW26391   0.093   4.333   1.767 -0.0080  0.5565  0.3836
 6147WAT      O26392   4.560   7.799   1.958  0.1209  0.0085  0.2667
 6147WAT     H126393   4.517   7.856   2.022 -1.2331 -0.5618 -0.1052
 6147WAT     H226394   4.564   7.714   2.002 -0.0442 -0.1804 -0.0799
 6147WAT    EPW26395   4.555   7.795   1.972 -0.0794 -0.0916  0.1719
 6148WAT      O26396  10.655   9.620   0.322  0.3943  0.4091 -0.4919
 6148WAT     H126397  10.601   9.546   0.348 -3.0447  2.4034 -1.2191
 6148WAT     H226398  10.682   9.661   0.404 -1.1132  0.5486 -0.0370
 6148WAT    EPW26399  10.651   9.616   0.336 -0.2580  0.6900 -0.5278
 6149WAT      O26400   9.621   2.407   1.753 -0.2719 -0.5010 -0.3140
 6149WAT     H126401   9.594   2.317   1.735 -0.5142  0.0079 -2.7976
 6149WAT     H226402   9.544   2.447   1.793 -0.3648 -1.2056  0.2429
 6149WAT    EPW26403   9.608   2.400   1.756 -0.3157 -0.5268 -0.5682
 6150WAT      O26404   3.607   0.315   2.717  0.0457 -0.1160  0.4310
 6150WAT     H126405   3.597   0.223   2.741 -3.8725  0.4620  1.7298
 6150WAT     H226406   3.631   0.358   2.799 -4.5317  0.6655  1.6583
 6150WAT    EPW26407   3.609   0.309   2.731 -1.0748  0.0633  0.7641
 6151WAT      O26408   5.806   9.715   0.539  0.0379 -0.1163  0.4509
 6151WAT     H126409   5.872   9.779   0.566  0.2911  0.5861 -1.6599
 6151WAT     H226410   5.852   9.631   0.543  0.7778  0.2545 -0.0496
 6151WAT    EPW26411   5.821   9.712   0.543  0.1688  0.0248  0.1065
 6152WAT      O26412   6.729  10.121   0.441 -0.0698  0.2352 -0.0304
 6152WAT     H126413   6.756  10.103   0.531  2.1981  0.7715 -0.5452
 6152WAT     H226414   6.776  10.201   0.417  0.5370 -0.6865 -2.1553
 6152WAT    EPW26415   6.739  10.130   0.449  0.3090  0.1845 -0.3786
 6153WAT      O26416   7.720   9.067   1.336 -0.4293  0.4871  0.0587
 6153WAT     H126417   7.788   9.010   1.371  2.2976  2.4898 -1.5570
 6153WAT     H226418   7.683   9.017   1.262 -1.9279 -1.2290  1.8497
 6153WAT    EPW26419   7.724   9.053   1.331 -0.2673  0.5250  0.0818
 6154WAT      O26420   5.883   9.558   3.856 -0.0609 -0.1861  0.2772
 6154WAT     H126421   5.955   9.589   3.801 -0.2481  1.5745  0.9765
 6154WAT     H226422   5.920   9.554   3.944 -1.1986  2.3112  0.9359
 6154WAT    EPW26423   5.897   9.561   3.860 -0.2358  0.3757  0.4562
 6155WAT      O26424   3.906   4.163   8.616  0.0888  0.7808 -0.2380
 6155WAT     H126425   3.902   4.202   8.528 -0.3974  2.0894  0.3298
 6155WAT     H226426   3.819   4.179   8.653 -0.0547 -0.7059  0.1075
 6155WAT    EPW26427   3.894   4.170   8.609  0.0058  0.7575 -0.1173
 6156WAT      O26428   4.387   8.538   0.096  0.1696 -0.2679 -0.1924
 6156WAT     H126429   4.335   8.460   0.118 -1.3119  0.8340  0.3207
 6156WAT     H226430   4.412   8.525   0.004  0.8909 -1.8469  0.1886
 6156WAT    EPW26431   4.384   8.526   0.087  0.0691 -0.3309 -0.0744
 6157WAT      O26432   2.556   1.149   4.633  0.5158 -0.1721  0.2888
 6157WAT     H126433   2.591   1.227   4.591 -0.8940  0.0759 -0.5023
 6157WAT     H226434   2.632   1.094   4.651  1.2562 -0.1136 -2.2532
 6157WAT    EPW26435   2.570   1.152   4.630  0.4277 -0.1316 -0.1512
 6158WAT      O26436   9.702   0.836   1.683  0.3560 -0.2702 -1.0873
 6158WAT     H126437   9.721   0.790   1.766  1.1050  1.3348 -0.3236
 6158WAT     H226438   9.740   0.780   1.616  1.6432 -0.5693 -0.1476
 6158WAT    EPW26439   9.709   0.823   1.685  0.6247 -0.0979 -0.8627
 6159WAT      O26440  10.539   5.252   8.167 -0.6832 -0.0294  0.0133
 6159WAT     H126441  10.464   5.255   8.226  0.1475 -1.9724  1.2470
 6159WAT     H226442  10.613   5.280   8.221  0.3489 -3.2103  0.4813
 6159WAT    EPW26443  10.539   5.256   8.182 -0.4373 -0.7052  0.2384
 6160WAT      O26444   3.901   2.586   7.968 -0.2412  0.2974 -0.3025
 6160WAT     H126445   3.844   2.578   7.891  1.2424 -2.8970 -1.2298
 6160WAT     H226446   3.977   2.635   7.936 -0.1374 -0.0467 -0.5984
 6160WAT    EPW26447   3.903   2.591   7.953 -0.0318 -0.1693 -0.4640
 6161WAT      O26448  10.534   2.919   2.153  0.2632 -0.1202  0.0723
 6161WAT     H126449  10.559   2.986   2.088 -0.6024  1.5326  1.3597
 6161WAT     H226450  10.602   2.852   2.144 -0.0232 -0.1672 -2.7672
 6161WAT    EPW26451  10.546   2.919   2.143  0.1111  0.0916 -0.1326
 6162WAT      O26452   7.955   8.258   3.362 -0.5678  0.2491  0.5184
 6162WAT     H126453   7.906   8.207   3.297 -0.3336  2.0134 -1.1642
 6162WAT     H226454   7.977   8.340   3.316  2.4077  0.2868  1.7824
 6162WAT    EPW26455   7.951   8.262   3.347 -0.1442  0.4864  0.4632
 6163WAT      O26456   6.314   9.815   2.984  0.6986  0.2086  0.0161
 6163WAT     H126457   6.283   9.906   2.988  1.7053  0.6007 -0.7018
 6163WAT     H226458   6.349   9.806   2.895  2.0546 -0.3871  0.5860
 6163WAT    EPW26459   6.315   9.826   2.973  1.0104  0.1817 -0.0033
 6164WAT      O26460   9.537   5.838   0.591  0.5682 -0.1570  0.5993
 6164WAT     H126461   9.461   5.869   0.640 -0.7217  0.6672 -1.7339
 6164WAT     H226462   9.551   5.905   0.525  1.4356 -1.7351 -0.9032
 6164WAT    EPW26463   9.529   5.851   0.589  0.5121 -0.2565  0.0934
 6165WAT      O26464   5.102   9.578   2.329  0.4885  0.3014  0.1325
 6165WAT     H126465   5.094   9.668   2.298 -0.7217  0.0708 -0.3025
 6165WAT     H226466   5.069   9.525   2.257  2.6066 -0.6307 -0.2258
 6165WAT    EPW26467   5.096   9.583   2.315  0.6084  0.1478  0.0277
 6166WAT      O26468   1.004   0.769   4.566 -0.8351  0.0358 -0.2437
 6166WAT     H126469   1.091   0.806   4.580 -0.9486 -0.2695  1.5040
 6166WAT     H226470   1.018   0.675   4.565 -1.3166 -0.0939  1.7541
 6166WAT    EPW26471   1.017   0.762   4.568 -0.9136 -0.0216  0.2506
 6167WAT      O26472  10.007   4.628   4.074 -0.2011  0.2411 -0.5960
 6167WAT     H126473  10.035   4.545   4.114  1.8280  0.5460 -1.2475
 6167WAT     H226474   9.918   4.611   4.043  0.1232 -1.6793 -0.6223
 6167WAT    EPW26475   9.999   4.615   4.075  0.1097  0.0279 -0.6855
 6168WAT      O26476   8.436   7.586   1.830  0.0126 -0.3957 -1.1892
 6168WAT     H126477   8.440   7.568   1.924  2.0602  2.5517 -0.5797
 6168WAT     H226478   8.377   7.661   1.822  1.4889  0.7462 -1.9205
 6168WAT    EPW26479   8.428   7.593   1.841  0.4773  0.1438 -1.2053
 6169WAT      O26480   6.043   9.585   0.278  0.3605  0.2357  0.1224
 6169WAT     H126481   6.019   9.582   0.185 -0.5134  0.2646  0.3398
 6169WAT     H226482   6.056   9.678   0.296  1.8398  0.1340 -0.2797
 6169WAT    EPW26483   6.041   9.597   0.268  0.4404  0.2260  0.0980
 6170WAT      O26484   6.455   0.114   8.479 -0.1577  0.6448 -0.4918
 6170WAT     H126485   6.468   0.031   8.433  2.8079 -0.2689  1.6702
 6170WAT     H226486   6.544   0.144   8.500 -1.1346  1.1506  4.0816
 6170WAT    EPW26487   6.469   0.107   8.476  0.1044  0.5910  0.3963
 6171WAT      O26488   1.361   3.047   8.125 -0.8246 -0.1429 -0.0163
 6171WAT     H126489   1.442   3.005   8.097 -1.1669 -0.6830 -0.2179
 6171WAT     H226490   1.338   3.106   8.052  0.5216  1.6703  0.9567
 6171WAT    EPW26491   1.369   3.049   8.111 -0.6922  0.0250  0.0858
 6172WAT      O26492   9.253   3.334   2.303 -0.1014 -0.0706  0.2534
 6172WAT     H126493   9.345   3.321   2.281 -0.2168 -0.9708  0.2840
 6172WAT     H226494   9.220   3.394   2.236  0.3788 -0.1493 -0.0524
 6172WAT    EPW26495   9.261   3.341   2.291 -0.0534 -0.1997  0.2172
 6173WAT      O26496   9.678   2.248   0.090  0.3335 -0.8789  0.3450
 6173WAT     H126497   9.729   2.202   0.156 -1.0525 -1.3344  1.1325
 6173WAT     H226498   9.628   2.179   0.046 -0.6359 -0.3101  0.5191
 6173WAT    EPW26499   9.678   2.233   0.093  0.0224 -0.8639  0.4719
 6174WAT      O26500  10.823   1.125   1.974 -0.2614 -0.3803 -0.1985
 6174WAT     H126501  10.839   1.031   1.975 -1.8303 -0.6663 -0.1957
 6174WAT     H226502  10.861   1.156   2.056 -1.1882 -1.2876  0.5991
 6174WAT    EPW26503  10.830   1.117   1.985 -0.5903 -0.5378 -0.0930
 6175WAT      O26504   0.344   0.433   2.617  0.1090  0.1682  0.0582
 6175WAT     H126505   0.327   0.445   2.523  1.5780  0.3557 -0.1986
 6175WAT     H226506   0.256   0.433   2.656 -0.5065  0.7345 -1.2312
 6175WAT    EPW26507   0.330   0.435   2.609  0.2216  0.2676 -0.1457
 6176WAT      O26508   2.342   2.220   6.714  0.0408  0.0956 -0.2223
 6176WAT     H126509   2.298   2.296   6.753  0.7232  1.0059 -1.1777
 6176WAT     H226510   2.271   2.161   6.689 -0.4507 -0.1742  1.6637
 6176WAT    EPW26511   2.327   2.222   6.716  0.0660  0.1801 -0.0997
 6177WAT      O26512   1.118   2.009   8.150 -0.2231  0.2983 -0.1936
 6177WAT     H126513   1.104   2.029   8.058  3.4430 -0.9976 -1.2020
 6177WAT     H226514   1.211   2.031   8.165 -0.2905 -1.0009  2.7588
 6177WAT    EPW26515   1.129   2.015   8.140  0.2515 -0.0440  0.0629
 6178WAT      O26516   9.057   1.827   1.580 -0.1005 -1.0567  0.1724
 6178WAT     H126517   9.132   1.858   1.529  0.5226  1.3365  2.2988
 6178WAT     H226518   9.094   1.808   1.667 -1.6545 -1.6120  0.7419
 6178WAT    EPW26519   9.072   1.829   1.585 -0.2236 -0.8143  0.5279
 6179WAT      O26520  10.965   1.831   3.096  0.0056  0.1022  0.6187
 6179WAT     H126521  10.927   1.822   3.008  1.5210 -0.6630  0.0149
 6179WAT     H226522  10.890   1.855   3.151 -1.1966 -0.5298 -0.6598
 6179WAT    EPW26523  10.950   1.833   3.092  0.0467 -0.0820  0.3705
 6180WAT      O26524   5.378   9.056   2.916 -0.0753  0.1161  0.0966
 6180WAT     H126525   5.426   9.034   2.996  2.4747  0.5566 -1.1951
 6180WAT     H226526   5.372   9.152   2.918  0.6748  0.1925 -0.5447
 6180WAT    EPW26527   5.383   9.066   2.927  0.3603  0.1850 -0.1583
 6181WAT      O26528   2.485   4.173   8.597  0.2090  0.1265  0.1763
 6181WAT     H126529   2.494   4.181   8.502 -0.6198  1.4562  0.1736
 6181WAT     H226530   2.548   4.236   8.632  1.6721 -1.5110  0.5776
 6181WAT    EPW26531   2.494   4.183   8.589  0.2927  0.0858  0.2289
 6182WAT      O26532   4.194   8.703   2.179  0.7098 -0.1074  0.1287
 6182WAT     H126533   4.168   8.667   2.094 -1.2727  0.9515  0.2371
 6182WAT     H226534   4.235   8.630   2.225 -2.0468 -1.9266 -0.1156
 6182WAT    EPW26535   4.196   8.689   2.174  0.0849 -0.2074  0.1107
 6183WAT      O26536   6.968   0.190   0.714 -0.2254 -1.2307  0.6265
 6183WAT     H126537   7.010   0.124   0.770 -0.9154 -1.5139  0.8210
 6183WAT     H226538   7.012   0.272   0.737 -1.0737 -1.1787  2.2206
 6183WAT    EPW26539   6.979   0.192   0.724 -0.4282 -1.2612  0.8624
 6184WAT      O26540   9.533   2.578   1.014  0.4008 -0.3420  0.0460
 6184WAT     H126541   9.576   2.516   0.955 -0.7275  0.0765 -1.2483
 6184WAT     H226542   9.440   2.556   1.008  0.1538  0.4237  0.8464
 6184WAT    EPW26543   9.527   2.567   1.006  0.2189 -0.1858 -0.0192
 6185WAT      O26544   7.250   9.010   2.361  0.1229  0.7006  0.1527
 6185WAT     H126545   7.271   9.079   2.298 -1.8215  0.6385 -0.6254
 6185WAT     H226546   7.262   9.051   2.447 -0.3237  1.7951 -0.2993
 6185WAT    EPW26547   7.255   9.024   2.364 -0.1922  0.8364 -0.0095
 6186WAT      O26548   1.449   9.394   0.313  0.0754  0.6497 -0.0307
 6186WAT     H126549   1.467   9.467   0.255  1.6248  0.2295 -0.1311
 6186WAT     H226550   1.416   9.325   0.255  5.9229 -1.4957 -1.5916
 6186WAT    EPW26551   1.447   9.394   0.298  1.0511  0.3114 -0.2498
 6187WAT      O26552   6.805  10.197   2.697 -0.1492  0.2452 -0.4609
 6187WAT     H126553   6.767  10.131   2.754  1.1809  0.2382  0.4660
 6187WAT     H226554   6.821  10.272   2.754 -1.0373  1.1469 -1.3611
 6187WAT    EPW26555   6.802  10.198   2.712 -0.0908  0.3633 -0.4574
 6188WAT      O26556  10.861   1.134   4.999 -0.0298  0.1843  0.1346
 6188WAT     H126557  10.823   1.065   5.053  1.9156 -0.7738  0.3576
 6188WAT     H226558  10.893   1.199   5.062  2.7509 -1.2014  0.2759
 6188WAT    EPW26559  10.860   1.134   5.014  0.5932 -0.1248  0.1826
 6189WAT      O26560   7.414   9.778   2.673  0.4933  0.6360 -0.0856
 6189WAT     H126561   7.503   9.742   2.667  0.2774  0.0991 -0.1240
 6189WAT     H226562   7.375   9.732   2.746  1.4631  3.5669  2.4953
 6189WAT    EPW26563   7.421   9.767   2.682  0.5925  0.9518  0.2497
 6190WAT      O26564   8.614   4.620   0.057 -0.4665  0.6223 -0.0048
 6190WAT     H126565   8.563   4.556   0.007  0.3578  0.2512 -0.4012
 6190WAT     H226566   8.550   4.663   0.114 -0.8194 -1.8165  1.6335
 6190WAT    EPW26567   8.599   4.617   0.058 -0.4048  0.2518  0.1590
 6191WAT      O26568   6.048   0.551   0.932 -0.7669  0.3669  0.8678
 6191WAT     H126569   6.077   0.533   0.842  1.6882  1.1585  1.4188
 6191WAT     H226570   6.090   0.482   0.984  1.2272  2.2264  1.8559
 6191WAT    EPW26571   6.058   0.539   0.927 -0.1800  0.7165  1.0708
 6192WAT      O26572   7.436   7.424   1.434  0.5659 -0.5703  0.1171
 6192WAT     H126573   7.474   7.504   1.399  1.5736 -0.3712  1.5848
 6192WAT     H226574   7.357   7.453   1.480  1.2016 -0.3339  1.0788
 6192WAT    EPW26575   7.431   7.438   1.435  0.7825 -0.5128  0.4376
 6193WAT      O26576   0.443   7.636   8.948  1.1042  0.1320  0.5396
 6193WAT     H126577   0.506   7.697   8.987 -0.7037  2.3606  0.2354
 6193WAT     H226578   0.467   7.631   8.856  0.5481  1.4550  0.2980
 6193WAT    EPW26579   0.454   7.644   8.941  0.7924  0.6003  0.4673
 6194WAT      O26580   7.630   1.932   2.012  0.0272 -0.5964  0.3293
 6194WAT     H126581   7.577   1.909   1.936 -1.2383 -2.8810  1.7765
 6194WAT     H226582   7.568   1.974   2.072  1.3689  2.8608 -0.4469
 6194WAT    EPW26583   7.615   1.934   2.010  0.0372 -0.4417  0.4177
 6195WAT      O26584   7.759   2.218   0.409  0.0798  1.1390 -0.2274
 6195WAT     H126585   7.777   2.138   0.360 -0.8010 -0.4467  1.8854
 6195WAT     H226586   7.826   2.219   0.477 -1.2882  0.9023  1.1739
 6195WAT    EPW26587   7.771   2.207   0.411 -0.2167  0.8986  0.2361
 6196WAT      O26588   1.483   5.440   8.240  0.0386  0.2541 -0.1501
 6196WAT     H126589   1.497   5.445   8.335  2.3150 -3.0131 -0.1801
 6196WAT     H226590   1.523   5.520   8.206  0.1501  0.9571  1.5060
 6196WAT    EPW26591   1.490   5.451   8.248  0.3536 -0.0844  0.0648
 6197WAT      O26592   7.012   9.547   1.983  0.7490  0.6912  0.3276
 6197WAT     H126593   7.016   9.561   2.078  0.2339  0.2145  0.4252
 6197WAT     H226594   7.062   9.467   1.968 -0.7659 -0.3140  0.4520
 6197WAT    EPW26595   7.019   9.538   1.994  0.4811  0.4954  0.3569
 6198WAT      O26596   6.396   4.123   1.051 -0.7750  0.1308 -0.1342
 6198WAT     H126597   6.317   4.176   1.037  0.3989  1.7135 -1.2523
 6198WAT     H226598   6.364   4.033   1.052 -2.6116  0.7163 -0.4369
 6198WAT    EPW26599   6.381   4.118   1.049 -0.8621  0.4168 -0.3217
 6199WAT      O26600   7.285   3.142   3.116 -0.6733  0.0691 -0.0090
 6199WAT     H126601   7.270   3.047   3.118 -0.6026  0.0640  0.3341
 6199WAT     H226602   7.198   3.180   3.124 -0.6336  0.0344  0.6387
 6199WAT    EPW26603   7.272   3.134   3.117 -0.6588  0.0639  0.1217
 6200WAT      O26604   7.929   9.821   2.151 -0.6400  0.5643 -0.8590
 6200WAT     H126605   7.890   9.885   2.210 -0.1442  0.3778 -0.3249
 6200WAT     H226606   8.020   9.813   2.179 -1.2656 -2.1778  0.7176
 6200WAT    EPW26607   7.936   9.828   2.162 -0.6571  0.1779 -0.5807
 6201WAT      O26608   8.180   3.200   4.341  0.6238  0.4097  0.8431
 6201WAT     H126609   8.269   3.194   4.377 -0.5392 -3.0071  3.7661
 6201WAT     H226610   8.139   3.272   4.389  0.9447 -0.0323  1.8073
 6201WAT    EPW26611   8.186   3.209   4.352  0.5131 -0.0993  1.3559
 6202WAT      O26612   8.338   1.649   0.262  0.1343 -0.7233 -0.5951
 6202WAT     H126613   8.317   1.650   0.169  0.3478 -0.9229 -0.6451
 6202WAT     H226614   8.424   1.691   0.268 -1.2800  2.4832 -0.1313
 6202WAT    EPW26615   8.346   1.655   0.251 -0.0243 -0.3267 -0.5405
 6203WAT      O26616   9.441   1.253   0.330  0.2947 -0.7660 -0.0678
 6203WAT     H126617   9.517   1.196   0.318  2.5668  1.8298  0.9083
 6203WAT     H226618   9.433   1.262   0.425 -0.0486  0.4240 -0.1936
 6203WAT    EPW26619   9.450   1.246   0.341  0.5493 -0.2667  0.0444
 6204WAT      O26620   6.931  10.320   3.161  0.8159 -0.2655 -0.9311
 6204WAT     H126621   6.961  10.398   3.114 -0.4760  0.2705 -0.9097
 6204WAT     H226622   6.933  10.250   3.095 -0.4703  0.3599 -1.6645
 6204WAT    EPW26623   6.935  10.321   3.146  0.4759 -0.1116 -1.0250
 6205WAT      O26624   4.045  10.124   0.000 -0.4793 -0.1407  0.3885
 6205WAT     H126625   4.064  10.178   0.077  1.5779 -0.5041  0.1851
 6205WAT     H226626   4.043  10.186  -0.072  1.6549 -0.2366  0.1897
 6205WAT    EPW26627   4.047  10.139   0.001  0.0736 -0.2010  0.3352
 6206WAT      O26628   1.280   6.616   6.764 -0.7442  0.0887  0.4691
 6206WAT     H126629   1.370   6.647   6.760 -1.5133  2.5562  0.2577
 6206WAT     H226630   1.272   6.553   6.693  0.2807  1.4236 -0.8802
 6206WAT    EPW26631   1.291   6.612   6.754 -0.7104  0.5903  0.2632
 6207WAT      O26632   9.772   2.314   2.390 -0.4056 -0.0271  0.5237
 6207WAT     H126633   9.821   2.260   2.328 -1.1515  1.7071 -1.7367
 6207WAT     H226634   9.738   2.252   2.455  0.7758 -1.8897 -0.5411
 6207WAT    EPW26635   9.774   2.299   2.390 -0.3486 -0.0440  0.0852
 6208WAT      O26636   0.249   3.216   3.425 -0.1272 -0.6386  0.1136
 6208WAT     H126637   0.171   3.168   3.453  0.6293 -1.9531  0.0646
 6208WAT     H226638   0.282   3.165   3.351 -0.2516  0.9510 -1.0850
 6208WAT    EPW26639   0.243   3.203   3.419 -0.0438 -0.6024 -0.0511
 6209WAT      O26640   7.879   2.442   5.168  0.0732 -0.3547  0.6189
 6209WAT     H126641   7.935   2.478   5.237 -0.3110 -0.2890  0.8942
 6209WAT     H226642   7.872   2.514   5.105 -2.8519  1.0903  2.4001
 6209WAT    EPW26643   7.886   2.456   5.169 -0.3633 -0.1554  0.8903
 6210WAT      O26644   2.122   6.354   8.640  0.1265 -0.2466  0.4116
 6210WAT     H126645   2.136   6.376   8.732 -0.4236 -1.8930  0.9144
 6210WAT     H226646   2.062   6.280   8.641 -1.3120  0.8050 -1.3576
 6210WAT    EPW26647   2.116   6.347   8.652 -0.1357 -0.3250  0.2451
 6211WAT      O26648   8.910   2.460   1.168 -0.0745 -0.0766  0.7935
 6211WAT     H126649   8.824   2.447   1.129  0.1111  2.0863 -0.4819
 6211WAT     H226650   8.908   2.409   1.249 -2.2462 -0.6992  0.3962
 6211WAT    EPW26651   8.899   2.451   1.173 -0.3366  0.1266  0.5730
 6212WAT      O26652   8.400   0.672   4.152  0.2020  0.4357 -0.0914
 6212WAT     H126653   8.468   0.700   4.092  0.1343  2.2422  0.6075
 6212WAT     H226654   8.433   0.696   4.239  0.1747 -1.8489  0.6321
 6212WAT    EPW26655   8.413   0.679   4.156  0.1903  0.3726  0.0963
 6213WAT      O26656   2.595   0.998   1.661 -0.8883  0.4191  0.1427
 6213WAT     H126657   2.608   1.092   1.645 -2.3278  0.7773  0.9045
 6213WAT     H226658   2.557   0.965   1.580  0.5300  0.2689 -0.4861
 6213WAT    EPW26659   2.592   1.006   1.648 -0.8912  0.4466  0.1603
 6214WAT      O26660   9.958   1.145   3.468 -0.5208 -0.0747 -0.4501
 6214WAT     H126661   9.984   1.227   3.511  1.1470  0.8774 -2.9860
 6214WAT     H226662   9.889   1.109   3.523 -0.0188  2.0838  1.7654
 6214WAT    EPW26663   9.953   1.151   3.480 -0.2341  0.3355 -0.4925
 6215WAT      O26664   2.239   8.836   8.887  0.5202 -0.4944  0.1564
 6215WAT     H126665   2.253   8.915   8.939  0.6986 -0.6096  0.2828
 6215WAT     H226666   2.327   8.807   8.864  0.4269  0.4430 -1.5344
 6215WAT    EPW26667   2.253   8.843   8.891  0.5314 -0.3862 -0.0496
 6216WAT      O26668   7.421   9.854   1.558  0.0370 -0.2502 -0.4987
 6216WAT     H126669   7.416   9.937   1.605 -1.2363  0.5701 -1.9826
 6216WAT     H226670   7.376   9.791   1.614  0.8339  0.0953  0.5442
 6216WAT    EPW26671   7.415   9.857   1.571 -0.0257 -0.0963 -0.5569
 6217WAT      O26672   2.216   0.309   2.409  0.0317  1.0048 -0.3602
 6217WAT     H126673   2.287   0.365   2.438 -0.0976  0.8674  0.2242
 6217WAT     H226674   2.147   0.321   2.474 -0.6859  1.5278 -1.1994
 6217WAT    EPW26675   2.216   0.318   2.421 -0.0800  1.0557 -0.3937
 6218WAT      O26676   9.806   2.521   4.467  0.0147 -0.1759 -0.1418
 6218WAT     H126677   9.854   2.453   4.419  0.9382 -0.8411  1.6370
 6218WAT     H226678   9.744   2.473   4.521  0.1836  0.4165  0.6021
 6218WAT    EPW26679   9.804   2.506   4.468  0.1588 -0.1856  0.1912
 6219WAT      O26680   0.988   1.609   5.551 -0.5202 -0.4302  0.2481
 6219WAT     H126681   1.012   1.530   5.600 -0.1794 -0.9916 -0.7956
 6219WAT     H226682   0.911   1.583   5.501  0.2702 -0.4752 -0.9852
 6219WAT    EPW26683   0.981   1.595   5.551 -0.3710 -0.5102 -0.0520
 6220WAT      O26684   2.642   4.157   1.280 -0.9308 -0.7136  0.2113
 6220WAT     H126685   2.648   4.184   1.188  0.3867  0.9474  0.7384
 6220WAT     H226686   2.695   4.220   1.327 -1.3815 -1.6800  2.1178
 6220WAT    EPW26687   2.650   4.169   1.274 -0.8165 -0.6218  0.5323
 6221WAT      O26688   4.098   3.972   2.439 -0.6964 -0.3469  0.0143
 6221WAT     H126689   4.155   3.943   2.367 -1.8828 -1.1191 -0.6578
 6221WAT     H226690   4.023   3.913   2.435 -0.5292 -0.7939  2.3017
 6221WAT    EPW26691   4.095   3.960   2.429 -0.8307 -0.5078  0.2273
 6222WAT      O26692   4.792   8.791   0.850 -0.3206  0.3212 -0.2164
 6222WAT     H126693   4.804   8.879   0.814 -2.9453  0.5052 -0.8423
 6222WAT     H226694   4.789   8.804   0.945 -2.6860  1.2742 -0.3615
 6222WAT    EPW26695   4.793   8.805   0.858 -0.9787  0.4711 -0.3181
 6223WAT      O26696   7.498   5.151   2.166  0.2496 -0.1026  0.2600
 6223WAT     H126697   7.505   5.212   2.093 -1.7594  0.6079  0.5904
 6223WAT     H226698   7.499   5.064   2.125  2.8662  0.0883 -0.2312
 6223WAT    EPW26699   7.499   5.147   2.151  0.3297  0.0165  0.2389
 6224WAT      O26700   2.853   3.947   0.670  0.6042  0.4879  0.7770
 6224WAT     H126701   2.890   4.002   0.601  0.2680  0.1802  0.3391
 6224WAT     H226702   2.836   3.863   0.626  1.0673  0.0473  1.4195
 6224WAT    EPW26703   2.856   3.943   0.655  0.6210  0.3892  0.8040
 6225WAT      O26704   6.510   5.091   1.834 -0.2958  0.1892 -0.3069
 6225WAT     H126705   6.493   5.178   1.868  1.3411  0.0020  1.1473
 6225WAT     H226706   6.514   5.035   1.911  0.2172 -0.8852 -1.0757
 6225WAT    EPW26707   6.508   5.095   1.848 -0.0122  0.0229 -0.2164
 6226WAT      O26708  10.309   3.734   2.474 -0.1650  0.3418 -0.0886
 6226WAT     H126709  10.238   3.670   2.472  1.0545 -1.0337 -0.2982
 6226WAT     H226710  10.327   3.753   2.382  1.3611 -1.1880 -0.1391
 6226WAT    EPW26711  10.302   3.728   2.462  0.1969 -0.0414 -0.1230
 6227WAT      O26712  10.791   5.554   7.919 -0.2283  0.3182  0.1761
 6227WAT     H126713  10.790   5.459   7.906 -0.8158  0.5179 -1.4534
 6227WAT     H226714  10.747   5.567   8.003  0.6964 -0.9016  0.8732
 6227WAT    EPW26715  10.785   5.543   7.928 -0.1836  0.1836  0.0532
 6228WAT      O26716   1.070   0.454   2.656 -0.4285 -0.1259  1.0032
 6228WAT     H126717   1.079   0.537   2.703 -1.1122  1.6958 -1.8219
 6228WAT     H226718   1.123   0.466   2.577 -0.0207 -2.6820  0.8097
 6228WAT    EPW26719   1.078   0.466   2.652 -0.4649 -0.2227  0.6050
 6229WAT      O26720   9.851   2.937   2.501  0.1533  0.2385 -0.3417
 6229WAT     H126721   9.784   3.004   2.508 -1.7757 -1.6986  1.1051
 6229WAT     H226722   9.887   2.930   2.589 -0.4053 -1.2692 -0.1969
 6229WAT    EPW26723   9.847   2.945   2.514 -0.1755 -0.2159 -0.1318
 6230WAT      O26724   2.529   1.079   0.999 -0.1601  0.8892  0.3927
 6230WAT     H126725   2.469   1.116   1.064 -3.4677  0.6647 -2.2453
 6230WAT     H226726   2.563   1.156   0.953 -0.2564  0.9349  0.3966
 6230WAT    EPW26727   2.526   1.094   1.002 -0.6089  0.8656  0.0452
 6231WAT      O26728   8.069   0.735   1.037 -0.3991 -0.2643  0.1221
 6231WAT     H126729   8.111   0.649   1.034 -0.7446 -0.5176  1.5705
 6231WAT     H226730   8.025   0.738   1.122 -1.2999  0.9351 -0.3350
 6231WAT    EPW26731   8.068   0.724   1.048 -0.5636 -0.1395  0.2528
 6232WAT      O26732   1.029   4.280   0.043  0.5571 -0.6542 -0.3458
 6232WAT     H126733   1.011   4.273   0.137 -1.1084  2.8171 -0.2612
 6232WAT     H226734   1.096   4.214   0.027  0.6831 -1.5897  3.2174
 6232WAT    EPW26735   1.036   4.271   0.054  0.3541 -0.3197  0.1353
 6233WAT      O26736   5.709   9.935   3.580 -0.0610 -0.7801  0.1329
 6233WAT     H126737   5.624   9.972   3.603 -0.3737 -1.2629 -0.2181
 6233WAT     H226738   5.725   9.965   3.491  2.9491  4.3835  2.0062
 6233WAT    EPW26739   5.700   9.943   3.572  0.2947 -0.1626  0.3335
 6234WAT      O26740   8.170   3.674   1.490  0.1475  1.0115  0.6729
 6234WAT     H126741   8.200   3.717   1.570  0.8813 -0.4113  1.1960
 6234WAT     H226742   8.133   3.591   1.520  0.9537  0.1972 -0.5071
 6234WAT    EPW26743   8.169   3.669   1.504  0.3505  0.7164  0.5863
 6235WAT      O26744   8.914   5.105   0.341 -0.2477 -0.2014 -0.1417
 6235WAT     H126745   8.914   5.017   0.380  1.2468 -0.0030  0.3772
 6235WAT     H226746   8.968   5.157   0.400 -1.6796  1.2654 -0.0702
 6235WAT    EPW26747   8.922   5.100   0.354 -0.2394  0.0181 -0.0638
 6236WAT      O26748   5.070   8.710   8.041 -0.7383  0.1696  0.7296
 6236WAT     H126749   5.153   8.701   8.088  0.1743  2.7455 -0.1549
 6236WAT     H226750   5.006   8.666   8.096  0.7273  0.6359  2.9665
 6236WAT    EPW26751   5.073   8.703   8.054 -0.4246  0.5708  0.9079
 6237WAT      O26752   0.463   1.340   2.768 -0.7403  0.5186 -0.6882
 6237WAT     H126753   0.446   1.272   2.834  2.9430 -0.0641 -0.1712
 6237WAT     H226754   0.453   1.422   2.816  1.5572  0.1079  0.6071
 6237WAT    EPW26755   0.459   1.342   2.783  0.0486  0.3875 -0.4493
 6238WAT      O26756   7.145   4.416   1.292 -0.0997 -0.0844  0.7653
 6238WAT     H126757   7.175   4.504   1.269  0.2120 -0.4561 -0.3647
 6238WAT     H226758   7.224   4.362   1.288 -0.3591 -0.4928  1.0264
 6238WAT    EPW26759   7.160   4.420   1.288 -0.0930 -0.1872  0.6506
 6239WAT      O26760  10.632   3.416   3.402  0.4586  0.8055 -0.1648
 6239WAT     H126761  10.583   3.498   3.396 -0.4649  0.6125  2.8593
 6239WAT     H226762  10.571   3.349   3.372  0.2824  0.9737 -0.1825
 6239WAT    EPW26763  10.618   3.418   3.397  0.3138  0.8022  0.2317
 6240WAT      O26764   6.728   0.961   3.720  0.2717  0.3546  0.2241
 6240WAT     H126765   6.657   0.932   3.778  1.1536  0.7720  1.5443
 6240WAT     H226766   6.705   1.052   3.699 -0.6075 -0.1228 -0.9916
 6240WAT    EPW26767   6.715   0.969   3.725  0.2718  0.3467  0.2378
 6241WAT      O26768   9.147   0.820   0.049 -0.1324 -0.1811 -0.0875
 6241WAT     H126769   9.078   0.811   0.115  0.1951 -1.4089  0.1196
 6241WAT     H226770   9.167   0.730   0.024 -0.7335  0.2702 -2.4066
 6241WAT    EPW26771   9.141   0.807   0.054 -0.1683 -0.2835 -0.3661
 6242WAT      O26772  10.564   4.357   4.573  0.1864  0.4886 -0.5572
 6242WAT     H126773  10.496   4.365   4.639  1.6238 -1.4292  1.2977
 6242WAT     H226774  10.582   4.263   4.568  1.9950  0.8395 -1.7350
 6242WAT    EPW26775  10.557   4.346   4.581  0.6146  0.2820 -0.4680
 6243WAT      O26776   6.413   8.155   8.859 -0.5874 -0.0390 -0.2250
 6243WAT     H126777   6.419   8.202   8.775 -0.9544  1.3009  0.4675
 6243WAT     H226778   6.432   8.064   8.837  2.5879  0.7379 -1.2607
 6243WAT    EPW26779   6.416   8.150   8.845 -0.2170  0.2403 -0.2704
 6244WAT      O26780   9.392   1.577   5.359  0.0536  0.0503  0.1099
 6244WAT     H126781   9.367   1.550   5.448  1.3714 -2.1828 -0.1505
 6244WAT     H226782   9.318   1.630   5.330 -1.6989 -1.4706  1.5189
 6244WAT    EPW26783   9.379   1.581   5.367 -0.0038 -0.4448  0.2613
 6245WAT      O26784  10.210   3.930   1.771  0.8320  0.0932  0.2964
 6245WAT     H126785  10.208   3.905   1.863  0.4674  2.9738  1.1601
 6245WAT     H226786  10.276   3.872   1.732 -0.6078 -2.7941  1.7675
 6245WAT    EPW26787  10.218   3.919   1.778  0.5941  0.0923  0.6043
 6246WAT      O26788   2.697   2.662   3.709 -0.3611  0.1580  0.1958
 6246WAT     H126789   2.671   2.684   3.619  1.5221  1.0021 -0.1907
 6246WAT     H226790   2.769   2.722   3.728 -1.2927  0.6299  2.6395
 6246WAT    EPW26791   2.703   2.673   3.699 -0.2357  0.3315  0.4673
 6247WAT      O26792   0.597   3.353   4.842 -0.0773 -0.0205  0.0778
 6247WAT     H126793   0.656   3.428   4.853 -0.7395  0.4859  0.2197
 6247WAT     H226794   0.510   3.388   4.860 -0.9199  0.1623 -3.5239
 6247WAT    EPW26795   0.594   3.368   4.845 -0.2758  0.0706 -0.3786
 6248WAT      O26796  10.160   2.712   3.223 -0.3654 -0.2339  0.4237
 6248WAT     H126797  10.245   2.758   3.223  0.1874 -1.2281  1.3801
 6248WAT     H226798  10.129   2.719   3.313 -0.8151 -0.7687  0.3114
 6248WAT    EPW26799  10.167   2.719   3.235 -0.3514 -0.4355  0.5350
 6249WAT      O26800  10.629   1.821   0.784  0.0743  0.4140  0.5632
 6249WAT     H126801  10.627   1.734   0.743  0.6461  0.7616 -0.2301
 6249WAT     H226802  10.601   1.880   0.714  0.0939  0.9134  0.9753
 6249WAT    EPW26803  10.625   1.817   0.769  0.1526  0.5257  0.5129
 6250WAT      O26804   8.258   2.754   0.513  0.4661 -0.3697  0.2878
 6250WAT     H126805   8.329   2.713   0.464  1.4567  1.3845  0.1685
 6250WAT     H226806   8.300   2.787   0.592 -0.6275 -0.9627  1.1547
 6250WAT    EPW26807   8.273   2.753   0.517  0.4530 -0.2165  0.3864
 6251WAT      O26808   0.592   3.986   7.885 -0.1659 -0.3801 -0.7177
 6251WAT     H126809   0.508   3.955   7.849 -0.5967  1.6354 -1.5811
 6251WAT     H226810   0.606   3.931   7.962 -1.6471 -1.6141 -1.2564
 6251WAT    EPW26811   0.582   3.974   7.890 -0.4181 -0.2769 -0.9029
 6252WAT      O26812   1.804   6.291   7.659  0.0992  0.0702 -0.0540
 6252WAT     H126813   1.815   6.379   7.622  0.6123  0.7335  1.6155
 6252WAT     H226814   1.787   6.236   7.582 -0.8765  1.7013 -1.0858
 6252WAT    EPW26815   1.803   6.296   7.644  0.0383  0.3726  0.0300
 6253WAT      O26816   9.389   7.125   2.236  0.7267  0.4602  0.3080
 6253WAT     H126817   9.392   7.218   2.257  2.2737  0.5291 -0.0431
 6253WAT     H226818   9.470   7.110   2.186  0.2038 -0.9452 -0.1537
 6253WAT    EPW26819   9.400   7.135   2.232  0.8616  0.2840  0.2010
 6254WAT      O26820   2.229   6.305   2.166 -0.5444  0.3054  0.2903
 6254WAT     H126821   2.178   6.339   2.092 -0.9908  0.6524  0.7539
 6254WAT     H226822   2.168   6.301   2.239 -0.1806 -0.3307  0.5717
 6254WAT    EPW26823   2.214   6.309   2.166 -0.5553  0.2673  0.3884
 6255WAT      O26824   1.566   0.015   2.998 -0.4796  0.0653  0.1927
 6255WAT     H126825   1.560  -0.003   2.905 -0.1594 -0.1642  0.2152
 6255WAT     H226826   1.490  -0.031   3.036 -0.0836 -0.6356  0.1583
 6255WAT    EPW26827   1.555   0.006   2.991 -0.3858 -0.0572  0.1910
 6256WAT      O26828   0.161   4.135   1.585  0.0478  0.1246  0.4546
 6256WAT     H126829   0.107   4.057   1.596  0.1902  0.0908  0.9541
 6256WAT     H226830   0.251   4.102   1.582  0.0970  0.2538  0.4760
 6256WAT    EPW26831   0.166   4.121   1.586  0.0730  0.1373  0.5233
 6257WAT      O26832   0.714  10.254   3.935 -0.3481  0.0608  0.1380
 6257WAT     H126833   0.810  10.255   3.930 -0.3633 -0.5393 -0.3180
 6257WAT     H226834   0.695  10.295   4.019  0.2944  0.5452  0.0588
 6257WAT    EPW26835   0.724  10.260   3.946 -0.2653  0.0453  0.0675
 6258WAT      O26836   0.621   2.211   3.808 -0.3624 -0.8128  0.2761
 6258WAT     H126837   0.714   2.193   3.818 -0.7605 -3.5079  0.0700
 6258WAT     H226838   0.589   2.219   3.898 -0.1349 -1.3169  0.4104
 6258WAT    EPW26839   0.629   2.209   3.821 -0.3849 -1.2347  0.2667
 6259WAT      O26840   0.212   3.238   1.845 -0.5735 -0.6297  0.1293
 6259WAT     H126841   0.179   3.228   1.756  1.9678 -1.1595 -0.8448
 6259WAT     H226842   0.277   3.168   1.854  3.9445  3.0780  0.0140
 6259WAT    EPW26843   0.216   3.227   1.835  0.3576 -0.2105 -0.0143
 6260WAT      O26844   0.864   0.639   2.932 -0.4362  0.1963 -0.3533
 6260WAT     H126845   0.820   0.584   2.867 -0.2861 -0.2114 -0.1115
 6260WAT     H226846   0.795   0.698   2.964 -1.3679 -1.7526  1.4782
 6260WAT    EPW26847   0.849   0.640   2.928 -0.5393 -0.1145 -0.0796
 6261WAT      O26848  10.443   1.547   1.859  0.1185 -0.1636  0.3786
 6261WAT     H126849  10.371   1.506   1.907  1.2331 -0.8942  1.5077
 6261WAT     H226850  10.517   1.487   1.871  0.5076 -0.3186 -2.2102
 6261WAT    EPW26851  10.443   1.534   1.867  0.3171 -0.2804  0.1861
 6262WAT      O26852   2.579   2.760   2.042  0.1186 -0.6132  0.1386
 6262WAT     H126853   2.590   2.665   2.051  2.2501 -0.2656  1.9611
 6262WAT     H226854   2.596   2.795   2.129 -1.3517  1.4375 -0.3186
 6262WAT    EPW26855   2.583   2.752   2.055  0.2058 -0.2971  0.3185
 6263WAT      O26856   0.648   9.987   1.347 -0.1162  0.4695  0.8106
 6263WAT     H126857   0.679   9.934   1.421 -1.1479  0.3357  1.1788
 6263WAT     H226858   0.578  10.041   1.385 -1.0050  0.0434 -0.1579
 6263WAT    EPW26859   0.643   9.987   1.362 -0.3695  0.3953  0.7315
 6264WAT      O26860   7.718   2.741   4.047 -0.2314 -0.7402 -0.9409
 6264WAT     H126861   7.805   2.778   4.063  0.3108 -0.8266 -3.2689
 6264WAT     H226862   7.733   2.673   3.981 -2.1402 -0.1960 -2.0231
 6264WAT    EPW26863   7.731   2.737   4.040 -0.4115 -0.6799 -1.3909
 6265WAT      O26864  10.941   4.206   1.384  0.7536 -0.1016  1.2649
 6265WAT     H126865  10.982   4.237   1.304  0.3155 -4.3211 -0.8631
 6265WAT     H226866  11.010   4.212   1.450  1.2831  2.9595  0.6134
 6265WAT    EPW26867  10.955   4.211   1.382  0.7658 -0.2546  0.8984
 6266WAT      O26868   9.902   3.390   0.535 -0.1463  0.4633  0.2196
 6266WAT     H126869   9.887   3.472   0.582 -0.2957 -1.0662  3.0440
 6266WAT     H226870   9.986   3.358   0.569 -0.9329 -1.3885  0.4995
 6266WAT    EPW26871   9.911   3.397   0.546 -0.2694  0.0173  0.6291
 6267WAT      O26872   9.390   2.937   2.583  0.1410  0.5424  0.3683
 6267WAT     H126873   9.301   2.972   2.576  0.3507  1.1147  0.5095
 6267WAT     H226874   9.447   3.013   2.571  0.6053  0.2384  0.6023
 6267WAT    EPW26875   9.386   2.951   2.580  0.2298  0.5778  0.4179
 6268WAT      O26876   8.704   0.375   2.870  0.3573  0.1187  0.5601
 6268WAT     H126877   8.679   0.448   2.814  1.1334 -0.4994 -0.6289
 6268WAT     H226878   8.753   0.416   2.942  0.5906  0.7907  0.0288
 6268WAT    EPW26879   8.707   0.390   2.872  0.4902  0.1258  0.3333
 6269WAT      O26880   3.607   4.939   2.605 -0.4746 -0.0701 -0.2831
 6269WAT     H126881   3.620   4.878   2.677  0.5657 -1.0661 -1.2791
 6269WAT     H226882   3.647   4.897   2.529 -1.3224  1.0460 -1.4111
 6269WAT    EPW26883   3.614   4.926   2.604 -0.4492 -0.0541 -0.5631
 6270WAT      O26884  10.691   1.387   1.254  0.0518 -0.6100 -0.0292
 6270WAT     H126885  10.705   1.360   1.344 -0.4206  1.5996  0.7846
 6270WAT     H226886  10.778   1.386   1.214  0.4200 -0.5926  0.7641
 6270WAT    EPW26887  10.704   1.384   1.261  0.0381 -0.3163  0.1827
 6271WAT      O26888   8.118   3.638   2.751  0.4907 -0.3821 -0.0748
 6271WAT     H126889   8.051   3.613   2.815  2.3668  0.4283  2.3263
 6271WAT     H226890   8.100   3.581   2.675 -1.4609 -1.8210  1.3515
 6271WAT    EPW26891   8.107   3.627   2.749  0.4802 -0.4652  0.4301
 6272WAT      O26892   5.645   8.499   8.454  0.0771  0.5558  0.5775
 6272WAT     H126893   5.727   8.522   8.409 -0.0386 -1.1437 -0.5936
 6272WAT     H226894   5.657   8.409   8.482 -0.8634  0.7599  1.7151
 6272WAT    EPW26895   5.657   8.490   8.452 -0.0625  0.3586  0.5736
 6273WAT      O26896   2.878   2.555   1.284  0.1052 -0.6659  0.3770
 6273WAT     H126897   2.924   2.473   1.300 -0.2233 -1.0416 -0.5218
 6273WAT     H226898   2.786   2.529   1.277  0.0161 -0.2387 -0.0364
 6273WAT    EPW26899   2.872   2.541   1.285  0.0501 -0.6590  0.2039
 6274WAT      O26900   1.102   5.035   0.086 -0.4505  0.3698 -0.0597
 6274WAT     H126901   1.161   5.100   0.123 -0.1759 -2.0275  4.3921
 6274WAT     H226902   1.023   5.041   0.139 -1.0195 -1.8221 -0.5711
 6274WAT    EPW26903   1.100   5.044   0.098 -0.4894 -0.2356  0.4600
 6275WAT      O26904   0.012   2.610   3.333  0.2812  0.4046 -1.0898
 6275WAT     H126905   0.002   2.556   3.255  0.4864  1.5898 -1.9608
 6275WAT     H226906  -0.013   2.553   3.405  2.4606 -1.5081 -1.7461
 6275WAT    EPW26907   0.007   2.596   3.332  0.5956  0.3086 -1.2913
 6276WAT      O26908   7.207   3.201   2.109 -0.3602 -0.7310 -0.0025
 6276WAT     H126909   7.211   3.213   2.204  0.9763  0.2284 -0.1579
 6276WAT     H226910   7.186   3.108   2.098 -1.6523 -0.6155  1.2202
 6276WAT    EPW26911   7.205   3.190   2.120 -0.3545 -0.5894  0.1383
 6277WAT      O26912   7.919   7.700   8.787 -0.6756 -0.1361  0.2756
 6277WAT     H126913   7.845   7.653   8.827 -1.6830  1.4427  0.3548
 6277WAT     H226914   7.916   7.675   8.695 -1.1389 -0.3015  0.3336
 6277WAT    EPW26915   7.909   7.690   8.780 -0.8695  0.0503  0.2937
 6278WAT      O26916   0.471   6.286   2.457 -0.3634 -0.1828 -0.1715
 6278WAT     H126917   0.540   6.267   2.394 -0.9843  2.9729 -1.9863
 6278WAT     H226918   0.516   6.286   2.542  1.3586 -0.4879 -1.0312
 6278WAT    EPW26919   0.486   6.283   2.460 -0.2182  0.1931 -0.5244
 6279WAT      O26920   7.839   1.655   1.821 -0.2875 -0.3423  0.0588
 6279WAT     H126921   7.801   1.743   1.820  1.0394  0.2546 -0.4125
 6279WAT     H226922   7.929   1.668   1.793  0.9635 -1.3762  3.1722
 6279WAT    EPW26923   7.846   1.668   1.817  0.0525 -0.4000  0.4072
 6280WAT      O26924   7.083  10.009   6.474 -0.5271  0.2102  0.5956
 6280WAT     H126925   6.991  10.016   6.447 -0.4714 -1.4735 -0.1744
 6280WAT     H226926   7.099   9.915   6.480  1.7045  0.3807 -1.3136
 6280WAT    EPW26927   7.073   9.997   6.471 -0.2253  0.0105  0.2425
 6281WAT      O26928   4.108   6.728   1.152 -0.3215 -0.4739  0.2651
 6281WAT     H126929   4.144   6.724   1.241 -0.2095 -4.0665  0.2255
 6281WAT     H226930   4.147   6.806   1.113  0.4026  0.6483  3.0479
 6281WAT    EPW26931   4.118   6.737   1.158 -0.2112 -0.7997  0.6269
 6282WAT      O26932   4.252   9.385   7.914  0.3923  0.5750  1.2271
 6282WAT     H126933   4.335   9.404   7.870 -1.0561  1.3698 -1.4353
 6282WAT     H226934   4.234   9.462   7.967  1.2966  0.4333  1.7505
 6282WAT    EPW26935   4.261   9.398   7.915  0.3207  0.6614  0.9449
 6283WAT      O26936   1.208   3.494   0.401  0.1228  0.7424 -0.4369
 6283WAT     H126937   1.230   3.500   0.308 -1.0066  2.8433 -0.6295
 6283WAT     H226938   1.261   3.562   0.442  0.0414  0.3387  0.3395
 6283WAT    EPW26939   1.218   3.504   0.394 -0.0369  0.9662 -0.3599
 6284WAT      O26940   9.798   1.576   2.628  0.1029  0.0567  0.3026
 6284WAT     H126941   9.845   1.624   2.559  0.9384 -1.8677 -0.5262
 6284WAT     H226942   9.710   1.562   2.592 -0.3309  1.4132  0.7844
 6284WAT    EPW26943   9.793   1.581   2.614  0.1554 -0.0181  0.2568
 6285WAT      O26944   2.253   1.706   3.439 -0.6275 -1.3848  0.1920
 6285WAT     H126945   2.208   1.774   3.489  3.0381  1.2411  0.3346
 6285WAT     H226946   2.188   1.636   3.429 -4.4934  1.7882  0.5937
 6285WAT    EPW26947   2.239   1.706   3.444 -0.6539 -0.6199  0.2637
 6286WAT      O26948   1.232   2.347   2.257  0.0030 -0.7901 -0.1171
 6286WAT     H126949   1.315   2.336   2.212 -0.3543 -0.7837 -0.7977
 6286WAT     H226950   1.225   2.441   2.273 -0.6591 -0.5394 -1.6531
 6286WAT    EPW26951   1.242   2.358   2.253 -0.1314 -0.7563 -0.4095
 6287WAT      O26952   0.649   0.667   2.416 -0.3407  0.4695  0.3347
 6287WAT     H126953   0.607   0.582   2.404  0.7055  0.0822 -0.8131
 6287WAT     H226954   0.628   0.716   2.336 -1.8007  1.7101  1.4162
 6287WAT    EPW26955   0.640   0.662   2.404 -0.3953  0.5820  0.3259
 6288WAT      O26956  10.002   4.325   3.161  0.4682  0.9102 -0.9096
 6288WAT     H126957   9.909   4.329   3.180  0.4064 -1.3155 -0.5358
 6288WAT     H226958  10.044   4.359   3.240 -0.0020  0.3333 -0.4022
 6288WAT    EPW26959   9.995   4.330   3.174  0.3977  0.5405 -0.7936
 6289WAT      O26960   8.903   2.500   0.089 -0.5511  0.2027  0.5013
 6289WAT     H126961   8.903   2.437   0.160  3.1315 -0.5221  0.0573
 6289WAT     H226962   8.892   2.448   0.010 -0.0590  0.4306  0.2785
 6289WAT    EPW26963   8.901   2.485   0.088 -0.0010  0.1371  0.4133
 6290WAT      O26964   9.547   1.918   1.221 -0.1783 -0.0430 -0.7367
 6290WAT     H126965   9.562   1.851   1.287  0.9235  0.6657 -0.2356
 6290WAT     H226966   9.572   1.877   1.139 -1.0726 -0.7636 -0.6655
 6290WAT    EPW26967   9.552   1.904   1.219 -0.1507 -0.0446 -0.6613
 6291WAT      O26968   9.427   4.259   0.197  0.4845 -0.6576 -1.0633
 6291WAT     H126969   9.425   4.193   0.267  0.5593 -0.4433 -0.8598
 6291WAT     H226970   9.337   4.259   0.163 -1.4348  3.4248  2.9584
 6291WAT    EPW26971   9.415   4.250   0.201  0.2413 -0.0908 -0.5060
 6292WAT      O26972   4.180   3.189   7.980 -0.0841  0.2781  0.9536
 6292WAT     H126973   4.178   3.102   8.020  2.3263  0.4252  1.5487
 6292WAT     H226974   4.213   3.173   7.891 -0.9035  0.4681  0.6067
 6292WAT    EPW26975   4.184   3.175   7.973  0.1256  0.3225  0.9863
 6293WAT      O26976  10.464   1.278   2.437 -1.0869  0.4812  0.0095
 6293WAT     H126977  10.523   1.212   2.401  0.2749  1.6264  0.0687
 6293WAT     H226978  10.379   1.259   2.396 -1.4520 -2.9238  2.0406
 6293WAT    EPW26979  10.460   1.267   2.427 -0.9556  0.1832  0.2853
 6294WAT      O26980   1.303   7.794   8.805  0.3766 -0.2548 -0.0531
 6294WAT     H126981   1.350   7.830   8.880  1.5274 -0.8631 -0.4691
 6294WAT     H226982   1.280   7.705   8.833 -0.5838  0.0361  0.1536
 6294WAT    EPW26983   1.306   7.787   8.819  0.4016 -0.2968 -0.0806
 6295WAT      O26984   5.784  10.068   4.557 -0.2087 -0.5541 -0.3410
 6295WAT     H126985   5.768  10.113   4.475 -1.1056  0.4553  0.3624
 6295WAT     H226986   5.878  10.046   4.555 -0.2332 -0.5752 -1.6246
 6295WAT    EPW26987   5.795  10.071   4.546 -0.3302 -0.4234 -0.4175
 6296WAT      O26988   9.848   0.463   1.842 -0.1425  0.8259  0.5268
 6296WAT     H126989   9.800   0.545   1.853  0.2110  0.8287  2.3158
 6296WAT     H226990   9.902   0.456   1.920  2.1179  0.3570 -0.9757
 6296WAT    EPW26991   9.849   0.473   1.854  0.2027  0.7644  0.5645
 6297WAT      O26992   9.337   1.844   0.062 -0.8766  0.1118 -0.3034
 6297WAT     H126993   9.405   1.856   0.128 -1.5393  0.4041  0.3421
 6297WAT     H226994   9.256   1.870   0.106 -1.2888  0.6237 -1.3280
 6297WAT    EPW26995   9.335   1.849   0.076 -1.0180  0.2179 -0.3534
 6298WAT      O26996   0.185   8.384   3.722  0.0083  0.4828 -0.0655
 6298WAT     H126997   0.184   8.289   3.734 -2.0775  0.5978  1.1132
 6298WAT     H226998   0.138   8.399   3.640  1.6812  0.4700 -1.0799
 6298WAT    EPW26999   0.179   8.374   3.713 -0.0461  0.4964 -0.0439
 6299WAT      O27000  10.361   2.110   7.921  0.0950 -0.0674  0.1132
 6299WAT     H127001  10.319   2.196   7.931 -0.4348  0.0344 -2.3875
 6299WAT     H227002  10.292   2.047   7.944  0.3909  0.1206  1.6446
 6299WAT    EPW27003  10.346   2.113   7.925  0.0639 -0.0292 -0.0145
 6300WAT      O27004   2.061   4.744   0.715 -0.3998  0.3203 -0.6317
 6300WAT     H127005   2.145   4.697   0.718 -0.9212 -0.6950  2.6165
 6300WAT     H227006   1.995   4.675   0.710 -1.0838  0.9540 -0.5226
 6300WAT    EPW27007   2.063   4.729   0.715 -0.5587  0.2699 -0.1889
 6301WAT      O27008   7.825   8.864   1.874  0.3455  0.5654  0.1864
 6301WAT     H127009   7.875   8.846   1.794  0.7509  0.7144  0.4055
 6301WAT     H227010   7.828   8.959   1.884 -1.4338  0.7755 -0.7325
 6301WAT    EPW27011   7.832   8.874   1.864  0.1643  0.6127  0.0941
 6302WAT      O27012   9.622   4.404   5.250  0.6364 -0.2047 -0.6574
 6302WAT     H127013   9.682   4.365   5.187  0.6251  0.4059 -1.0536
 6302WAT     H227014   9.678   4.455   5.309  0.6142 -0.5145 -0.3619
 6302WAT    EPW27015   9.637   4.405   5.250  0.6318 -0.1647 -0.6707
 6303WAT      O27016   3.334   0.390   2.699 -0.2313 -0.5427  0.6086
 6303WAT     H127017   3.420   0.354   2.719 -0.4802 -1.5960 -0.1316
 6303WAT     H227018   3.286   0.317   2.661 -0.9775  0.4007 -0.3269
 6303WAT    EPW27019   3.339   0.376   2.697 -0.3628 -0.5572  0.3878
 6304WAT      O27020   8.479   1.548   2.082  0.1319  0.2564 -0.0992
 6304WAT     H127021   8.429   1.469   2.105  1.4359 -0.5932 -0.0484
 6304WAT     H227022   8.570   1.521   2.093  0.6509  1.3074 -1.6283
 6304WAT    EPW27023   8.484   1.534   2.087  0.3719  0.2829 -0.2942
 6305WAT      O27024   1.010   2.941   1.087  0.5176 -0.7970  0.0871
 6305WAT     H127025   1.087   2.951   1.143  1.3718 -2.1418 -0.8045
 6305WAT     H227026   0.952   2.882   1.136  1.4446 -2.3129 -0.5761
 6305WAT    EPW27027   1.013   2.935   1.101  0.7526 -1.1743 -0.1180
 6306WAT      O27028   8.393   8.154   2.077 -0.3545  0.6456  0.8553
 6306WAT     H127029   8.439   8.233   2.050  0.0289 -0.2970 -1.4278
 6306WAT     H227030   8.443   8.082   2.039 -0.9633 -0.7152  2.4794
 6306WAT    EPW27031   8.405   8.155   2.069 -0.3839  0.3414  0.7684
 6307WAT      O27032   0.155   2.085   1.137  0.1653  0.2331 -0.1719
 6307WAT     H127033   0.151   2.027   1.213  0.9860 -1.6341 -1.4821
 6307WAT     H227034   0.203   2.162   1.168 -0.0196 -0.2330  1.3329
 6307WAT    EPW27035   0.161   2.088   1.151  0.2492 -0.0746 -0.1462
 6308WAT      O27036   5.903   9.806   0.959 -0.7960  0.1128 -0.2729
 6308WAT     H127037   5.909   9.818   0.865  1.3096 -1.6224 -0.4383
 6308WAT     H227038   5.983   9.845   0.994 -1.9773  1.5824  0.9453
 6308WAT    EPW27039   5.915   9.813   0.951 -0.6740  0.0777 -0.1340
 6309WAT      O27040   1.811   2.332   2.759 -0.3268  0.2774  0.1618
 6309WAT     H127041   1.899   2.297   2.745 -1.4659 -2.4881 -0.5216
 6309WAT     H227042   1.824   2.399   2.827  2.4507  0.8275 -0.7660
 6309WAT    EPW27043   1.825   2.337   2.766 -0.1107 -0.0148 -0.0505
 6310WAT      O27044   3.264   1.340   1.029  0.9960  0.3597  0.3826
 6310WAT     H127045   3.274   1.392   0.950  0.5075  0.4139  0.3514
 6310WAT     H227046   3.211   1.396   1.087  2.9058  1.1149  1.4800
 6310WAT    EPW27047   3.258   1.354   1.027  1.1835  0.4665  0.5233
 6311WAT      O27048  10.634   4.457   0.831  0.0569  0.2921 -0.3190
 6311WAT     H127049  10.682   4.538   0.847  0.1380  0.4463 -1.2516
 6311WAT     H227050  10.577   4.477   0.757 -0.9383 -0.1009  0.3272
 6311WAT    EPW27051  10.633   4.470   0.823 -0.0629  0.2606 -0.3568
 6312WAT      O27052  10.392   8.006   4.761  0.4309 -0.4111  0.1565
 6312WAT     H127053  10.355   7.972   4.842  0.7151  1.2929  1.0609
 6312WAT     H227054  10.328   7.982   4.694 -0.8379 -0.1192  1.2128
 6312WAT    EPW27055  10.378   7.999   4.763  0.3004 -0.1478  0.4151
 6313WAT      O27056  10.935   0.638   1.711  0.5695  0.4912 -0.2503
 6313WAT     H127057  10.967   0.712   1.660  1.3763  0.6069  0.4057
 6313WAT     H227058  10.989   0.564   1.684  0.9560  0.5375  0.3683
 6313WAT    EPW27059  10.946   0.638   1.701  0.7272  0.5126 -0.0823
 6314WAT      O27060   7.912   4.063   1.381 -0.3464 -0.2436 -0.3030
 6314WAT     H127061   7.976   4.102   1.441 -1.4512  1.1231  0.0570
 6314WAT     H227062   7.945   3.975   1.364  2.9935  1.2020 -2.1774
 6314WAT    EPW27063   7.925   4.057   1.387 -0.0513  0.1273 -0.5027
 6315WAT      O27064  10.820   1.126   2.661  0.5302  0.1847  0.0450
 6315WAT     H127065  10.892   1.113   2.600 -0.0776 -1.2543 -0.4025
 6315WAT     H227066  10.797   1.038   2.690 -1.4485  0.5531 -0.2945
 6315WAT    EPW27067  10.827   1.113   2.657  0.1893  0.0435 -0.0588
 6316WAT      O27068   7.712   7.362   8.683 -0.1974 -0.1920 -0.3680
 6316WAT     H127069   7.624   7.357   8.721  0.0190 -0.5457  0.0929
 6316WAT     H227070   7.706   7.308   8.604 -0.3278 -0.4335 -0.1981
 6316WAT    EPW27071   7.699   7.354   8.678 -0.1862 -0.2704 -0.2847
 6317WAT      O27072   5.975   2.985   1.855  0.9428 -0.0299  0.3886
 6317WAT     H127073   5.963   2.964   1.948 -1.0657  2.5221  0.8226
 6317WAT     H227074   6.070   2.989   1.843  1.3365 -3.1590  1.5596
 6317WAT    EPW27075   5.986   2.982   1.866  0.7298 -0.1060  0.6002
 6318WAT      O27076   3.751   8.897   0.069  0.3311  0.5362 -0.4561
 6318WAT     H127077   3.663   8.917   0.101  0.3493 -0.8080  0.5057
 6318WAT     H227078   3.739   8.880  -0.025 -0.3007  1.0428 -0.4787
 6318WAT    EPW27079   3.738   8.898   0.061  0.2501  0.4258 -0.3322
 6319WAT      O27080   8.148   5.320   1.722  0.9233 -0.3284  0.2216
 6319WAT     H127081   8.196   5.396   1.756 -1.2107  0.0689  2.6476
 6319WAT     H227082   8.098   5.355   1.648  2.5922 -0.2579 -0.9311
 6319WAT    EPW27083   8.148   5.335   1.716  0.8621 -0.2668  0.3896
 6320WAT      O27084   2.435   1.970   2.223  0.1842  0.0043  0.5726
 6320WAT     H127085   2.508   1.995   2.280 -0.6027  2.2092  0.7080
 6320WAT     H227086   2.477   1.941   2.142  1.2383 -0.1175  1.1414
 6320WAT    EPW27087   2.450   1.970   2.220  0.2195  0.2791  0.6655
 6321WAT      O27088   9.569  10.327   4.065 -0.1927 -0.2016 -0.1637
 6321WAT     H127089   9.558  10.388   4.139 -0.0695  0.2133 -0.4843
 6321WAT     H227090   9.581  10.241   4.106 -0.2832  0.0039  0.2966
 6321WAT    EPW27091   9.569  10.324   4.080 -0.1884 -0.1192 -0.1452
 6322WAT      O27092   2.043   4.497   2.035 -0.3196  0.8341  0.4687
 6322WAT     H127093   2.100   4.565   2.000 -1.0743  2.0445  1.4684
 6322WAT     H227094   2.097   4.418   2.038  0.4201  1.2358 -1.2184
 6322WAT    EPW27095   2.057   4.496   2.031 -0.3216  1.0467  0.3781
 6323WAT      O27096   5.513   0.680   2.160 -0.1250  0.0059  0.0103
 6323WAT     H127097   5.510   0.653   2.252  3.8084  0.3950  0.4097
 6323WAT     H227098   5.548   0.604   2.113  0.9035  0.8255 -0.6018
 6323WAT    EPW27099   5.517   0.667   2.166  0.5295  0.1653 -0.0179
 6324WAT      O27100   1.082   2.252   4.017  0.0092  0.0584  0.3686
 6324WAT     H127101   1.069   2.203   4.098 -3.5534 -0.6255 -0.4323
 6324WAT     H227102   1.054   2.341   4.038  0.3726  0.2180  0.1998
 6324WAT    EPW27103   1.077   2.257   4.030 -0.4128 -0.0106  0.2406
 6325WAT      O27104  10.936   1.678   1.683 -0.4589  0.2855  0.6594
 6325WAT     H127105  10.917   1.705   1.773  2.0135  1.8667  0.8156
 6325WAT     H227106  10.852   1.681   1.639 -1.6463  0.0009  2.7920
 6325WAT    EPW27107  10.923   1.682   1.689 -0.2894  0.4565  0.9613
 6326WAT      O27108   9.688   5.276   1.349  0.2432  0.4630  0.0863
 6326WAT     H127109   9.626   5.208   1.377 -0.6047  0.0530 -2.5389
 6326WAT     H227110   9.741   5.294   1.427 -0.2276 -2.4113  1.1686
 6326WAT    EPW27111   9.687   5.270   1.363  0.0691  0.0298 -0.1171
 6327WAT      O27112  10.360   4.291   4.151  0.2454 -0.2857 -0.5120
 6327WAT     H127113  10.426   4.231   4.187 -1.3494 -1.6432  0.2792
 6327WAT     H227114  10.356   4.363   4.214  0.0578 -0.8354  0.1124
 6327WAT    EPW27115  10.368   4.292   4.164  0.0100 -0.5372 -0.3257
 6328WAT      O27116   2.416   9.111   8.838 -0.2844 -0.0304 -0.5311
 6328WAT     H127117   2.335   9.161   8.849 -0.3289  0.2618 -1.9913
 6328WAT     H227118   2.448   9.136   8.751  1.1317 -0.4992 -0.1660
 6328WAT    EPW27119   2.410   9.121   8.828 -0.1035 -0.0539 -0.6757
 6329WAT      O27120  10.889   3.414   0.034 -0.4431  0.0070  0.4089
 6329WAT     H127121  10.833   3.337   0.046  1.1881 -1.3586 -0.3034
 6329WAT     H227122  10.858   3.453  -0.048 -1.2060  0.0313  0.7054
 6329WAT    EPW27123  10.877   3.409   0.024 -0.3290 -0.1698  0.3541
 6330WAT      O27124   3.936   2.932   8.789  0.6547  0.2030 -0.2414
 6330WAT     H127125   3.860   2.968   8.835  1.4760 -0.0652  1.4055
 6330WAT     H227126   3.979   2.876   8.854  2.4225  0.5853 -1.0298
 6330WAT    EPW27127   3.931   2.929   8.803  0.9961  0.2180 -0.1287
 6331WAT      O27128   8.704   9.843   2.819 -0.4758  0.1108  0.6850
 6331WAT     H127129   8.749   9.793   2.887 -1.4815 -0.5469  0.8939
 6331WAT     H227130   8.748   9.820   2.738 -1.2667 -1.5945  0.6913
 6331WAT    EPW27131   8.716   9.834   2.817 -0.7129 -0.2012  0.7133
 6332WAT      O27132   3.339   6.056   3.926 -0.3694 -0.0213 -1.0521
 6332WAT     H127133   3.314   5.965   3.940  0.4352  0.0788  1.5548
 6332WAT     H227134   3.262   6.096   3.885 -1.2198 -1.5608 -1.0222
 6332WAT    EPW27135   3.325   6.049   3.922 -0.3755 -0.2112 -0.7043
 6333WAT      O27136   0.228   2.800   4.697  0.0549  0.0930 -0.6710
 6333WAT     H127137   0.309   2.752   4.681 -0.8757 -1.2680 -1.4699
 6333WAT     H227138   0.250   2.891   4.677  1.7645 -0.0055  0.5766
 6333WAT    EPW27139   0.242   2.806   4.692  0.1576 -0.0995 -0.6120
 6334WAT      O27140  10.959   8.185   8.069 -0.4363 -0.0872 -0.2113
 6334WAT     H127141  10.976   8.189   8.163  1.0656  3.0776 -0.4663
 6334WAT     H227142  10.874   8.228   8.058  0.1307  1.0311 -0.3765
 6334WAT    EPW27143  10.950   8.191   8.080 -0.1636  0.4773 -0.2670
 6335WAT      O27144  10.911   3.743   0.902 -0.7243  0.2146 -0.2927
 6335WAT     H127145  10.879   3.799   0.832 -0.4165  1.6191  0.6495
 6335WAT     H227146  10.847   3.754   0.973 -1.3454 -1.6258 -0.5158
 6335WAT    EPW27147  10.898   3.752   0.902 -0.7653  0.1571 -0.1978
 6336WAT      O27148   0.531   2.213   3.520 -0.4784  0.2546  0.0419
 6336WAT     H127149   0.607   2.207   3.578  1.0886  2.6272 -1.5559
 6336WAT     H227150   0.541   2.139   3.460  0.5140  0.4716 -0.0752
 6336WAT    EPW27151   0.543   2.202   3.520 -0.1408  0.5963 -0.1843
 6337WAT      O27152   9.759   0.780   4.322  0.3061 -1.1951  0.9134
 6337WAT     H127153   9.719   0.866   4.336  1.2135 -0.5254 -0.4178
 6337WAT     H227154   9.693   0.730   4.275 -1.0506 -1.9849  3.4970
 6337WAT    EPW27155   9.745   0.785   4.318  0.2470 -1.2109  1.0786
 6338WAT      O27156   0.275   1.513   4.819  0.6034  0.0931  0.0334
 6338WAT     H127157   0.189   1.489   4.853 -0.5851  1.1253 -2.1033
 6338WAT     H227158   0.332   1.512   4.897 -0.6980 -3.1454  1.1368
 6338WAT    EPW27159   0.271   1.509   4.834  0.2750 -0.1979 -0.1030
 6339WAT      O27160   7.339   9.224   0.908  0.7138 -1.0365 -0.2852
 6339WAT     H127161   7.288   9.275   0.971  1.9697 -0.6781  0.4657
 6339WAT     H227162   7.327   9.133   0.935  1.3516 -0.8760  0.5770
 6339WAT    EPW27163   7.331   9.218   0.920  0.9634 -0.9685 -0.0724
 6340WAT      O27164   8.264   0.150   2.986  0.5697 -0.3821 -0.3380
 6340WAT     H127165   8.223   0.117   3.066  0.3106  0.5328 -0.0744
 6340WAT     H227166   8.324   0.218   3.017  0.1307  0.2951 -0.9362
 6340WAT    EPW27167   8.266   0.154   3.001  0.4773 -0.1721 -0.3821
 6341WAT      O27168  10.306   3.378   2.398  0.3975  1.1350  0.0810
 6341WAT     H127169  10.216   3.394   2.425 -0.1148  2.4483 -2.1258
 6341WAT     H227170  10.301   3.301   2.342  0.5347  1.5382 -0.4942
 6341WAT    EPW27171  10.294   3.370   2.394  0.3476  1.3614 -0.2857
 6342WAT      O27172   2.468   2.145   8.451 -1.2501  0.4696 -0.8050
 6342WAT     H127173   2.460   2.052   8.472 -0.1530  0.5485  0.1306
 6342WAT     H227174   2.379   2.175   8.437 -1.8664 -0.2448  1.1823
 6342WAT    EPW27175   2.455   2.137   8.452 -1.1866  0.3858 -0.4196
 6343WAT      O27176   0.782   2.611   0.294  0.0017  0.8644 -0.9642
 6343WAT     H127177   0.822   2.526   0.315 -1.0122  0.4718 -0.5672
 6343WAT     H227178   0.856   2.668   0.275  0.7193 -0.0097 -0.8611
 6343WAT    EPW27179   0.797   2.607   0.294 -0.0373  0.6975 -0.8983
 6344WAT      O27180   8.821   3.533   2.678 -0.9862  0.2405  0.6358
 6344WAT     H127181   8.806   3.596   2.748 -1.3494  1.4244 -0.4563
 6344WAT     H227182   8.744   3.541   2.622  0.1163  0.7154 -0.8919
 6344WAT    EPW27183   8.809   3.543   2.680 -0.8883  0.4593  0.2903
 6345WAT      O27184  10.416   0.800   6.015  0.1914  0.4298 -0.3575
 6345WAT     H127185  10.334   0.847   6.027 -0.4679 -0.1795 -2.1291
 6345WAT     H227186  10.483   0.861   6.044 -0.8858  0.7707  1.5659
 6345WAT    EPW27187  10.414   0.814   6.020 -0.0377  0.3944 -0.3376
 6346WAT      O27188   5.872   3.151   2.430 -0.0260  0.4835 -0.4882
 6346WAT     H127189   5.897   3.149   2.337 -2.5878  3.1619 -1.3782
 6346WAT     H227190   5.776   3.150   2.429 -0.1655 -1.8208  2.3273
 6346WAT    EPW27191   5.862   3.151   2.417 -0.3822  0.5327 -0.2342
 6347WAT      O27192   7.548   2.328   1.713 -0.2139  0.3398  0.6423
 6347WAT     H127193   7.494   2.250   1.699  1.1002 -0.7568  1.3843
 6347WAT     H227194   7.590   2.343   1.629  1.5047 -1.3653  1.1269
 6347WAT    EPW27195   7.546   2.320   1.700  0.1860 -0.0298  0.8041
 6348WAT      O27196   0.157   7.539   7.157  0.0160  0.2777  0.0112
 6348WAT     H127197   0.250   7.536   7.178  0.0043  0.1635  0.0495
 6348WAT     H227198   0.146   7.473   7.088  0.0513  0.6402 -0.3434
 6348WAT    EPW27199   0.168   7.530   7.151  0.0191  0.3107 -0.0305
 6349WAT      O27200  10.003   2.809   4.253 -0.3732  0.0283  0.7200
 6349WAT     H127201   9.929   2.759   4.220  0.6327 -0.4831 -0.8920
 6349WAT     H227202   9.977   2.836   4.341 -2.1039 -0.8578  0.5169
 6349WAT    EPW27203   9.990   2.806   4.260 -0.4683 -0.1560  0.4804
 6350WAT      O27204   2.413   0.881   4.788 -0.2620 -0.2109  0.8664
 6350WAT     H127205   2.472   0.817   4.747  0.2001  0.8946 -0.2537
 6350WAT     H227206   2.397   0.946   4.720 -1.3809  0.4409  1.7225
 6350WAT    EPW27207   2.419   0.881   4.773 -0.3487  0.0209  0.8316
 6351WAT      O27208  10.073   1.933   2.392 -0.4822  0.5124  0.9741
 6351WAT     H127209  10.129   1.882   2.450  1.3472  0.6080 -0.6126
 6351WAT     H227210   9.985   1.900   2.408  0.0551  0.0077  3.2041
 6351WAT    EPW27211  10.069   1.922   2.402 -0.1698  0.4584  1.0588
 6352WAT      O27212  10.639   0.474   3.121 -0.2393 -0.2278 -0.0112
 6352WAT     H127213  10.694   0.552   3.114 -1.9330  1.2070  1.4927
 6352WAT     H227214  10.684   0.417   3.183  0.9069 -0.3846 -0.9540
 6352WAT    EPW27215  10.652   0.477   3.128 -0.3114 -0.0592  0.0627
 6353WAT      O27216   1.265   4.521   0.263  0.2369  0.4581 -0.3253
 6353WAT     H127217   1.173   4.496   0.266  0.1051  0.9328  2.3765
 6353WAT     H227218   1.310   4.455   0.317  1.5448  0.1114 -1.7660
 6353WAT    EPW27219   1.259   4.509   0.271  0.3921  0.4749 -0.1590
 6354WAT      O27220   5.891   9.163   1.627  0.1935  0.7366  0.8736
 6354WAT     H127221   5.828   9.235   1.630  0.6250  1.1023  1.2209
 6354WAT     H227222   5.838   9.084   1.638 -0.2028  1.0406  1.1635
 6354WAT    EPW27223   5.875   9.162   1.629  0.1979  0.8254  0.9577
 6355WAT      O27224   7.951   9.365   3.787  0.6674 -0.0426  0.2119
 6355WAT     H127225   7.997   9.341   3.707  1.9194  0.2695  0.8262
 6355WAT     H227226   7.859   9.370   3.760  1.1649  1.0621 -1.4568
 6355WAT    EPW27227   7.945   9.363   3.773  0.8981  0.1445  0.0728
 6356WAT      O27228   6.355   5.232   8.425  0.4041  0.4358 -0.2059
 6356WAT     H127229   6.320   5.192   8.346  0.8446 -0.3094 -0.0381
 6356WAT     H227230   6.284   5.226   8.489  0.9309 -1.4355  0.2560
 6356WAT    EPW27231   6.341   5.226   8.423  0.5319  0.0908 -0.1225
 6357WAT      O27232   0.820   5.379   3.109 -0.0492 -1.1205 -0.3153
 6357WAT     H127233   0.847   5.288   3.118  1.0536 -0.6874  1.0702
 6357WAT     H227234   0.877   5.414   3.040  1.6031 -0.7616  1.1526
 6357WAT    EPW27235   0.831   5.371   3.101  0.3142 -1.0161  0.0610
 6358WAT      O27236   1.963   1.993   0.899 -0.2880 -0.2264  0.4669
 6358WAT     H127237   2.018   1.995   0.977  0.8822  0.8812 -0.3519
 6358WAT     H227238   2.018   1.953   0.832 -0.5166  0.7605 -0.3287
 6358WAT    EPW27239   1.978   1.988   0.900 -0.1637  0.0498  0.2539
 6359WAT      O27240   6.973   7.791   2.606 -0.0783 -0.1095  0.2748
 6359WAT     H127241   6.891   7.748   2.633 -0.8593  1.6787  0.8994
 6359WAT     H227242   7.031   7.781   2.681 -0.2610 -0.0519  0.4238
 6359WAT    EPW27243   6.970   7.784   2.619 -0.2053  0.1340  0.3768
 6360WAT      O27244   0.539   0.610   0.213 -0.6737  0.0683  0.2977
 6360WAT     H127245   0.547   0.695   0.257  0.8847 -0.4208  1.0079
 6360WAT     H227246   0.454   0.576   0.243 -1.4913  1.5046 -0.2833
 6360WAT    EPW27247   0.529   0.617   0.223 -0.5760  0.1932  0.3147
 6361WAT      O27248   0.021   2.125   3.143  0.2712  0.4958  0.2997
 6361WAT     H127249   0.104   2.162   3.112  1.0897  0.9430  2.8279
 6361WAT     H227250   0.034   2.030   3.138  0.0425  0.5203 -1.4308
 6361WAT    EPW27251   0.034   2.117   3.138  0.3490  0.5580  0.4050
 6362WAT      O27252  10.042  10.098   2.636 -0.7081  0.3782  0.0830
 6362WAT     H127253  10.064  10.191   2.645  0.2066  0.4719 -2.3528
 6362WAT     H227254  10.117  10.052   2.676  0.2500  0.7215 -1.2560
 6362WAT    EPW27255  10.055  10.104   2.643 -0.4611  0.4358 -0.4148
 6363WAT      O27256   7.447  10.000   3.931  0.4470  0.2255  0.0792
 6363WAT     H127257   7.421  10.090   3.912 -0.7455  0.6171  3.1249
 6363WAT     H227258   7.367   9.949   3.914 -0.1239  0.3600  2.1253
 6363WAT    EPW27259   7.433  10.005   3.926  0.2141  0.2952  0.7508
 6364WAT      O27260   7.225   9.118   1.348 -0.2870  0.5533 -0.1110
 6364WAT     H127261   7.227   9.114   1.443 -0.3797 -0.3267 -0.1363
 6364WAT     H227262   7.133   9.134   1.326 -1.0603 -3.0437 -0.1201
 6364WAT    EPW27263   7.213   9.119   1.357 -0.4010 -0.0377 -0.1156
 6365WAT      O27264   6.934  10.170   0.917 -0.3020 -0.6802  0.2041
 6365WAT     H127265   6.932  10.093   0.974 -1.0570 -0.3644  0.6169
 6365WAT     H227266   7.027  10.194   0.912 -0.2205 -0.7060  1.3241
 6365WAT    EPW27267   6.946  10.163   0.924 -0.3908 -0.6418  0.4063
 6366WAT      O27268   6.030   9.103   3.009  0.0649  0.4579 -0.3872
 6366WAT     H127269   6.081   9.024   3.021  1.1239  1.0543 -0.8167
 6366WAT     H227270   5.958   9.096   3.072  0.5527 -0.4933  0.0729
 6366WAT    EPW27271   6.027   9.092   3.019  0.2689  0.4110 -0.3831
 6367WAT      O27272   3.682   5.454   7.973 -0.3566  0.1470 -0.9591
 6367WAT     H127273   3.735   5.375   7.961 -0.7495 -0.0536 -1.4027
 6367WAT     H227274   3.744   5.526   7.967  0.4710 -0.1887  2.0671
 6367WAT    EPW27275   3.697   5.453   7.971 -0.2995  0.0763 -0.6182
 6368WAT      O27276   1.405   3.561   3.726  0.2441 -0.4628  0.0524
 6368WAT     H127277   1.484   3.549   3.674  0.0447  0.9523 -0.6134
 6368WAT     H227278   1.349   3.488   3.702  0.5701 -0.3930 -0.9646
 6368WAT    EPW27279   1.408   3.550   3.716  0.2608 -0.2670 -0.1696
 6369WAT      O27280   3.828   5.618   7.795  0.5860  0.1635 -0.0835
 6369WAT     H127281   3.881   5.542   7.769 -0.8947 -0.5709 -1.1466
 6369WAT     H227282   3.795   5.653   7.712 -0.5817  0.5817  0.5333
 6369WAT    EPW27283   3.831   5.613   7.780  0.2366  0.1216 -0.1423
 6370WAT      O27284   1.677   4.721   8.737 -0.4114  0.1150 -0.1113
 6370WAT     H127285   1.758   4.764   8.764 -0.3824 -1.0513  1.8576
 6370WAT     H227286   1.612   4.792   8.734 -0.1029  0.5510  1.9063
 6370WAT    EPW27287   1.679   4.736   8.740 -0.3668  0.0186  0.4144
 6371WAT      O27288   3.171   0.986   0.460  0.0997 -0.4848 -0.3535
 6371WAT     H127289   3.228   0.911   0.445 -0.8304 -1.2820 -0.0281
 6371WAT     H227290   3.085   0.948   0.479  0.1025  0.5426  2.1888
 6371WAT    EPW27291   3.167   0.971   0.461 -0.0225 -0.4544  0.0247
 6372WAT      O27292   8.452   3.337   2.221 -0.1539  0.3485  0.4560
 6372WAT     H127293   8.539   3.377   2.217 -1.1500  3.1403  2.7748
 6372WAT     H227294   8.469   3.244   2.234  2.4130  0.4737 -1.2734
 6372WAT    EPW27295   8.466   3.330   2.222  0.0534  0.7334  0.5337
 6373WAT      O27296   3.752   8.420   7.025 -0.2752 -0.2332  0.4594
 6373WAT     H127297   3.673   8.470   7.046 -1.0608 -0.8383 -0.8966
 6373WAT     H227298   3.730   8.375   6.944  1.6479 -0.0537 -0.1982
 6373WAT    EPW27299   3.738   8.421   7.017 -0.1251 -0.2899  0.1938
 6374WAT      O27300   1.849   2.959   3.517 -0.4687  1.1549 -0.2560
 6374WAT     H127301   1.899   2.909   3.581  0.1427 -1.0221 -2.3036
 6374WAT     H227302   1.867   3.050   3.540 -1.1912  0.5719  3.3052
 6374WAT    EPW27303   1.858   2.964   3.529 -0.4834  0.7908 -0.0564
 6375WAT      O27304   3.179   8.671   8.609  0.0490 -0.2686 -0.2873
 6375WAT     H127305   3.103   8.695   8.556 -0.3133  0.2181  0.4343
 6375WAT     H227306   3.186   8.576   8.599 -0.4714 -0.2814 -0.6022
 6375WAT    EPW27307   3.170   8.662   8.601 -0.0675 -0.2060 -0.2332
 6376WAT      O27308   1.293   3.646   3.333 -0.0524  0.2670  0.6079
 6376WAT     H127309   1.221   3.650   3.270  0.6073  2.2648 -0.1067
 6376WAT     H227310   1.311   3.552   3.343 -0.9257 -0.1601 -1.3263
 6376WAT    EPW27311   1.286   3.634   3.326 -0.0806  0.4741  0.2587
 6377WAT      O27312   1.766   3.166   2.867  0.5620  0.5617  0.4111
 6377WAT     H127313   1.788   3.082   2.908  0.6459  0.5949  0.4337
 6377WAT     H227314   1.689   3.146   2.812 -1.5587  1.1433  2.9488
 6377WAT    EPW27315   1.758   3.152   2.865  0.2933  0.6428  0.7488
 6378WAT      O27316   1.837   9.633   6.653  0.5661 -0.3865  0.1572
 6378WAT     H127317   1.815   9.726   6.647  1.0403 -0.1707  1.4898
 6378WAT     H227318   1.780   9.591   6.588  0.1319  0.7928 -0.2538
 6378WAT    EPW27319   1.826   9.640   6.644  0.5714 -0.2017  0.2787
 6379WAT      O27320   1.523   3.050   5.116 -0.2992 -0.2271 -0.0867
 6379WAT     H127321   1.453   3.113   5.098  0.1180  0.4608  0.6349
 6379WAT     H227322   1.501   3.013   5.201 -0.9148 -1.6009 -0.8063
 6379WAT    EPW27323   1.511   3.053   5.125 -0.3253 -0.3176 -0.0863
 6380WAT      O27324  10.975   1.269   2.178 -0.1682  0.1355  0.4884
 6380WAT     H127325  10.984   1.244   2.270  0.7313  1.3758  0.7576
 6380WAT     H227326  11.050   1.230   2.135 -1.1039 -1.2762  0.0582
 6380WAT    EPW27327  10.986   1.261   2.184 -0.1726  0.1129  0.4673
 6381WAT      O27328   1.893   3.950   6.841  0.9124  0.7226 -0.3122
 6381WAT     H127329   1.890   3.926   6.749  0.4832 -0.3767 -0.0256
 6381WAT     H227330   1.956   4.022   6.845  1.6930  0.1146 -1.3123
 6381WAT    EPW27331   1.901   3.956   6.830  0.9587  0.4973 -0.4067
 6382WAT      O27332   0.491   2.071   2.369  0.3623 -0.6776 -0.6117
 6382WAT     H127333   0.535   2.058   2.285 -1.5832 -0.1138 -1.7864
 6382WAT     H227334   0.425   2.138   2.352 -0.0126 -0.4591  1.4145
 6382WAT    EPW27335   0.488   2.078   2.356  0.0563 -0.5745 -0.4995
 6383WAT      O27336   9.441   8.553   2.262 -0.4866 -0.1540 -0.6646
 6383WAT     H127337   9.404   8.641   2.266 -1.2178 -0.4926  0.3601
 6383WAT     H227338   9.369   8.495   2.287  0.6250 -0.8479  1.1883
 6383WAT    EPW27339   9.427   8.557   2.266 -0.4363 -0.2909 -0.2851
 6384WAT      O27340   1.031   1.136   3.089 -0.3690 -0.3643  0.2755
 6384WAT     H127341   1.078   1.151   3.172 -0.3928  1.6338 -0.0245
 6384WAT     H227342   1.101   1.134   3.023 -0.3774 -1.6539  0.2854
 6384WAT    EPW27343   1.047   1.138   3.091 -0.3732 -0.2708  0.2372
 6385WAT      O27344   1.394   0.617   1.105 -0.6589  0.0190 -0.1696
 6385WAT     H127345   1.453   0.614   1.030  0.4982 -1.8482  0.7504
 6385WAT     H227346   1.311   0.650   1.069  0.6075  1.7116 -1.6853
 6385WAT    EPW27347   1.391   0.621   1.090 -0.3392 -0.0040 -0.2481
 6386WAT      O27348   4.241   6.739   8.743  0.0607 -0.8802  0.2511
 6386WAT     H127349   4.283   6.825   8.740  0.9568 -1.2382  1.5321
 6386WAT     H227350   4.313   6.677   8.752 -0.5465 -1.8231 -1.0005
 6386WAT    EPW27351   4.256   6.742   8.744  0.0989 -1.0519  0.2556
 6387WAT      O27352   2.460   0.289   0.949  0.3256 -0.0916  0.1766
 6387WAT     H127353   2.436   0.377   0.920 -1.1622 -0.5232  0.0150
 6387WAT     H227354   2.537   0.302   1.004  0.7089  1.1928 -0.6247
 6387WAT    EPW27355   2.467   0.302   0.952  0.1799  0.0209  0.0496
 6388WAT      O27356   2.959   7.207   8.941  0.6126  0.3851  0.0843
 6388WAT     H127357   2.921   7.295   8.942  1.1557  0.6240  0.2065
 6388WAT     H227358   2.924   7.167   8.862  0.0545  0.5719  0.2302
 6388WAT    EPW27359   2.950   7.214   8.931  0.6108  0.4413  0.1197
 6389WAT      O27360   5.398   5.779   0.154 -0.2763 -0.1806 -0.4361
 6389WAT     H127361   5.374   5.846   0.219  1.8947  0.5806 -0.3267
 6389WAT     H227362   5.446   5.713   0.205 -0.5103 -0.7176 -0.9074
 6389WAT    EPW27363   5.402   5.779   0.169 -0.0210 -0.1509 -0.4839
 6390WAT      O27364   9.072   0.306   5.676  0.1652  0.3105 -0.2394
 6390WAT     H127365   8.998   0.259   5.637  1.5385 -1.2174 -1.1655
 6390WAT     H227366   9.032   0.375   5.729 -2.3710 -4.3376  4.8758
 6390WAT    EPW27367   9.057   0.309   5.678  0.0119 -0.5041  0.3130
 6391WAT      O27368  10.177   1.829   5.588 -0.2692 -0.0639  0.5051
 6391WAT     H127369  10.109   1.761   5.588 -0.7350  0.3410 -1.3195
 6391WAT     H227370  10.255   1.786   5.623 -0.6227 -1.4898 -0.3918
 6391WAT    EPW27371  10.178   1.815   5.593 -0.3772 -0.1985  0.1462
 6392WAT      O27372   7.537   9.763   1.988 -0.1872 -0.5049  1.2982
 6392WAT     H127373   7.558   9.845   2.031  1.0765  0.7456 -1.4790
 6392WAT     H227374   7.441   9.762   1.984 -0.2432  2.0960 -0.6729
 6392WAT    EPW27375   7.527   9.774   1.993 -0.0279  0.0029  0.6720
 6393WAT      O27376  10.025   2.287   3.691 -0.2308  0.5728 -0.1209
 6393WAT     H127377  10.049   2.274   3.599 -0.8776  0.0867 -0.2293
 6393WAT     H227378  10.107   2.312   3.734  0.4277 -0.7725 -0.5280
 6393WAT    EPW27379  10.039   2.289   3.685 -0.2289  0.3312 -0.1888
 6394WAT      O27380   3.873   3.165   1.193  0.1958 -0.2788  0.5956
 6394WAT     H127381   3.786   3.167   1.233 -0.2142 -1.4425 -0.2013
 6394WAT     H227382   3.874   3.238   1.132 -1.2955 -1.8932 -1.4951
 6394WAT    EPW27383   3.862   3.175   1.191 -0.0550 -0.6450  0.2148
 6395WAT      O27384   1.777   2.540   0.266  0.3647 -0.2006  0.0768
 6395WAT     H127385   1.727   2.580   0.195 -0.6757  2.2071  2.0541
 6395WAT     H227386   1.718   2.473   0.301 -0.1110  0.2751  0.2041
 6395WAT    EPW27387   1.762   2.536   0.261  0.1647  0.1799  0.3544
 6396WAT      O27388  10.372   2.203   0.638  0.2650  0.1028  0.2236
 6396WAT     H127389  10.367   2.196   0.733  0.2167 -3.2773  0.0941
 6396WAT     H227390  10.394   2.295   0.621 -0.7169  1.0260  3.4035
 6396WAT    EPW27391  10.374   2.214   0.648  0.1292 -0.2213  0.6259
 6397WAT      O27392   2.042   0.114   1.617  0.3415  0.0651 -0.2260
 6397WAT     H127393   2.011   0.116   1.708  0.2262  1.1705 -0.2756
 6397WAT     H227394   2.037   0.022   1.592  1.3749 -0.4167  1.2282
 6397WAT    EPW27395   2.037   0.102   1.626  0.4625  0.1473 -0.0407
 6398WAT      O27396   0.162   1.847   1.285  0.1642 -0.0568  0.1295
 6398WAT     H127397   0.205   1.824   1.202 -1.1651  0.8834 -0.8749
 6398WAT     H227398   0.076   1.805   1.279  0.1647 -0.2162  1.1733
 6398WAT    EPW27399   0.156   1.838   1.273 -0.0111  0.0462  0.1346
 6399WAT      O27400  10.973   2.463   3.048  0.2397 -0.4990  0.5430
 6399WAT     H127401  10.916   2.470   2.971  2.2081 -0.5383 -0.9898
 6399WAT     H227402  10.994   2.370   3.053  0.7820 -0.3727  0.6277
 6399WAT    EPW27403  10.968   2.452   3.038  0.5708 -0.4874  0.3520
 6400WAT      O27404   3.660   6.370   8.512 -0.2188  0.1401  0.0382
 6400WAT     H127405   3.673   6.343   8.603 -1.9868 -0.1852  0.2298
 6400WAT     H227406   3.611   6.297   8.472  3.6067 -1.5179 -2.2541
 6400WAT    EPW27407   3.655   6.357   8.518  0.0527 -0.1216 -0.2389
 6401WAT      O27408   1.928   3.161   0.277  0.3038 -0.6905 -0.6048
 6401WAT     H127409   1.964   3.173   0.189  1.5580  0.1438 -0.0109
 6401WAT     H227410   2.004   3.145   0.332 -0.5096 -1.7231  0.2667
 6401WAT    EPW27411   1.942   3.161   0.273  0.3619 -0.7166 -0.4115
 6402WAT      O27412  10.653   2.137   3.664 -0.1482  0.4219  0.4445
 6402WAT     H127413  10.669   2.061   3.608 -1.0256  0.9928 -0.6301
 6402WAT     H227414  10.566   2.120   3.702 -0.7988  1.3148 -0.5839
 6402WAT    EPW27415  10.644   2.125   3.661 -0.3495  0.6150  0.1670
 6403WAT      O27416   9.829   3.575   3.089 -0.3821 -0.3137  0.5106
 6403WAT     H127417   9.919   3.572   3.058 -0.8808  0.7432 -1.2094
 6403WAT     H227418   9.836   3.597   3.182  1.1218  1.3704  0.0683
 6403WAT    EPW27419   9.842   3.578   3.097 -0.2499  0.0478  0.2254
 6404WAT      O27420   9.060   0.708   7.591  0.4703  0.0194  0.6652
 6404WAT     H127421   9.014   0.636   7.634 -0.6291 -1.2909 -2.4229
 6404WAT     H227422   9.008   0.786   7.613 -1.2676 -0.9258  0.1273
 6404WAT    EPW27423   9.047   0.709   7.599  0.0968 -0.2781  0.1867
 6405WAT      O27424   0.296   4.945   2.551  0.3893 -0.9675 -0.2062
 6405WAT     H127425   0.241   5.000   2.607  2.9047  1.7380 -0.1570
 6405WAT     H227426   0.241   4.869   2.530 -2.9156  1.0144  0.6278
 6405WAT    EPW27427   0.281   4.942   2.556  0.2851 -0.3493 -0.0898
 6406WAT      O27428   3.121   1.744   3.405 -0.4700  0.1418 -0.9753
 6406WAT     H127429   3.098   1.656   3.436 -2.7960  0.4062 -1.7105
 6406WAT     H227430   3.048   1.799   3.435  1.9765  2.3544  1.4383
 6406WAT    EPW27431   3.108   1.740   3.413 -0.4541  0.4686 -0.7539
 6407WAT      O27432   0.751   1.155   1.366 -0.6770 -0.2221  0.5450
 6407WAT     H127433   0.750   1.111   1.281  2.2892  4.4764 -2.4238
 6407WAT     H227434   0.788   1.091   1.426  3.1705 -2.0657 -3.2467
 6407WAT    EPW27435   0.755   1.141   1.363  0.2217  0.1544 -0.3467
 6408WAT      O27436   9.183   9.783   0.401  0.5488  0.3398  0.2452
 6408WAT     H127437   9.237   9.814   0.329  2.9841 -2.5911  0.6339
 6408WAT     H227438   9.181   9.688   0.391 -0.3677 -0.0485  3.1433
 6408WAT    EPW27439   9.190   9.775   0.390  0.7491 -0.0987  0.6787
 6409WAT      O27440   2.146   2.795   3.115  0.1944  0.5574  0.4133
 6409WAT     H127441   2.179   2.877   3.079 -0.8019  0.6611 -0.3112
 6409WAT     H227442   2.052   2.798   3.098 -0.5408  1.0279  3.8890
 6409WAT    EPW27443   2.138   2.806   3.108 -0.0341  0.6331  0.7763
 6410WAT      O27444   8.726   4.666   0.919  0.3538  0.2974  0.3888
 6410WAT     H127445   8.641   4.625   0.903 -0.2406  0.2732  3.1133
 6410WAT     H227446   8.705   4.758   0.935  0.8107  0.2914  1.0643
 6410WAT    EPW27447   8.712   4.672   0.919  0.3352  0.2935  0.8372
 6411WAT      O27448   1.014   2.612   1.016 -0.7819 -0.4762  0.2893
 6411WAT     H127449   1.050   2.698   0.993 -2.1670  0.3400  1.0432
 6411WAT     H227450   1.005   2.567   0.932 -2.5391  1.1512 -0.4724
 6411WAT    EPW27451   1.017   2.617   1.002 -1.1963 -0.1539  0.2883
 6412WAT      O27452   8.742   0.973   1.332  0.0214  0.0840  0.3802
 6412WAT     H127453   8.742   0.921   1.252  1.1534  1.0122 -0.2638
 6412WAT     H227454   8.750   0.909   1.402 -1.9149 -0.8090 -0.1680
 6412WAT    EPW27455   8.743   0.958   1.330 -0.0844  0.0887  0.2229
 6413WAT      O27456   0.454   2.893   4.252 -0.2469  0.1450  0.1144
 6413WAT     H127457   0.487   2.805   4.270  0.0326  0.3157  0.4546
 6413WAT     H227458   0.518   2.932   4.192 -0.3169  0.1535  0.0440
 6413WAT    EPW27459   0.466   2.887   4.246 -0.2193  0.1686  0.1497
 6414WAT      O27460   1.023   2.567   3.992 -0.2886 -0.0935  0.0442
 6414WAT     H127461   0.946   2.576   3.935 -0.3046  0.0415  0.0855
 6414WAT     H227462   1.024   2.649   4.042 -0.7316 -0.5445  0.8048
 6414WAT    EPW27463   1.013   2.579   3.991 -0.3491 -0.1351  0.1500
 6415WAT      O27464   1.730   2.798   3.303  0.5848  0.8243  0.8494
 6415WAT     H127465   1.752   2.857   3.375 -1.5415  3.3057 -0.3418
 6415WAT     H227466   1.772   2.837   3.226  0.5777 -0.2430  0.2833
 6415WAT    EPW27467   1.738   2.811   3.302  0.3035  1.0108  0.6176
 6416WAT      O27468   7.860   9.462   0.974  0.2301 -0.0296 -0.5871
 6416WAT     H127469   7.874   9.400   1.046 -1.1080  0.1479 -0.1587
 6416WAT     H227470   7.807   9.415   0.910 -1.4585  0.8639  0.0832
 6416WAT    EPW27471   7.855   9.448   0.975 -0.1688  0.1116 -0.4422
 6417WAT      O27472   9.962   1.858   0.491  0.1658 -0.7767 -0.3150
 6417WAT     H127473  10.057   1.856   0.502  0.1887 -1.8088 -0.6780
 6417WAT     H227474   9.927   1.854   0.581  0.4509 -2.4371 -0.2485
 6417WAT    EPW27475   9.970   1.858   0.505  0.2065 -1.1318 -0.3541
 6418WAT      O27476   0.405   0.337   1.389  0.0250  0.0601  0.5307
 6418WAT     H127477   0.381   0.245   1.396  0.3355 -0.0175  0.5750
 6418WAT     H227478   0.361   0.368   1.309  1.6244 -0.6573 -0.6762
 6418WAT    EPW27479   0.396   0.329   1.379  0.2769 -0.0448  0.3774
 6419WAT      O27480   8.808   0.756   4.332  0.0109 -0.0209 -0.3799
 6419WAT     H127481   8.856   0.762   4.414  0.1472 -1.0780 -0.3650
 6419WAT     H227482   8.718   0.781   4.355  0.6488  2.7466 -0.5704
 6419WAT    EPW27483   8.802   0.760   4.346  0.1130  0.2047 -0.4029
 6420WAT      O27484   0.610   1.425   2.553  0.0069 -0.5538  0.1181
 6420WAT     H127485   0.539   1.413   2.616  0.5282 -0.1556  0.7826
 6420WAT     H227486   0.623   1.519   2.549  1.3851 -0.6884  1.0002
 6420WAT    EPW27487   0.602   1.436   2.561  0.2575 -0.5191  0.3220
 6421WAT      O27488   7.130  10.332   0.435 -0.1824  0.2843  0.0465
 6421WAT     H127489   7.087  10.247   0.442  1.0103 -0.2895  0.7562
 6421WAT     H227490   7.223  10.311   0.431  0.1675  1.5748  0.7959
 6421WAT    EPW27491   7.137  10.318   0.435  0.0207  0.3786  0.2389
 6422WAT      O27492   7.679   8.271   1.371 -0.3235  0.0317  0.5419
 6422WAT     H127493   7.656   8.214   1.444 -0.1664  1.1960  1.5257
 6422WAT     H227494   7.712   8.211   1.304 -0.9978 -1.1123  1.2010
 6422WAT    EPW27495   7.681   8.255   1.372 -0.3917  0.0339  0.7586
 6423WAT      O27496   1.252   4.345   0.954 -0.9098 -0.5323 -0.7075
 6423WAT     H127497   1.319   4.353   0.886 -0.2194 -3.0572 -0.4328
 6423WAT     H227498   1.302   4.338   1.036 -1.6777  0.8596 -0.0781
 6423WAT    EPW27499   1.268   4.345   0.956 -0.9201 -0.6816 -0.5883
 6424WAT      O27500   9.328   0.657   3.687  0.7940 -0.5494  0.3243
 6424WAT     H127501   9.247   0.696   3.655  0.7211 -1.9529 -1.3520
 6424WAT     H227502   9.303   0.569   3.714  2.0178 -1.7699 -2.1403
 6424WAT    EPW27503   9.314   0.650   3.686  0.9460 -0.8955 -0.2218
 6425WAT      O27504   8.115   9.372   2.047  0.8442  0.0398  0.2813
 6425WAT     H127505   8.139   9.457   2.011  2.5887 -0.2860  0.5803
 6425WAT     H227506   8.093   9.390   2.138  0.5986  0.2475  0.1831
 6425WAT    EPW27507   8.115   9.385   2.054  1.0419  0.0238  0.3077
 6426WAT      O27508   0.282   4.762   4.517 -0.4206  0.3199 -0.5063
 6426WAT     H127509   0.336   4.693   4.477 -2.2165 -0.3889 -1.8236
 6426WAT     H227510   0.235   4.801   4.444 -2.7295 -0.0193  0.7068
 6426WAT    EPW27511   0.283   4.758   4.502 -0.9620  0.1819 -0.5200
 6427WAT      O27512   0.633   9.634   7.494 -0.2227  0.1084  0.2805
 6427WAT     H127513   0.641   9.694   7.420  1.1830 -1.6320 -1.0572
 6427WAT     H227514   0.578   9.563   7.461 -0.2881 -0.2844  1.2013
 6427WAT    EPW27515   0.626   9.633   7.480 -0.0459 -0.1740  0.2255
 6428WAT      O27516   7.818   9.645   0.262  0.5732  0.6227 -0.0847
 6428WAT     H127517   7.742   9.646   0.320  0.1743  1.0133 -0.6148
 6428WAT     H227518   7.791   9.590   0.189  0.8396  0.6827 -0.2273
 6428WAT    EPW27519   7.804   9.638   0.260  0.5558  0.6824 -0.1734
 6429WAT      O27520   3.762   5.903   7.855 -0.5257  0.2691 -0.4496
 6429WAT     H127521   3.674   5.924   7.824 -1.5355 -0.3802  1.7427
 6429WAT     H227522   3.770   5.809   7.840 -0.0666  0.3820 -0.9299
 6429WAT    EPW27523   3.751   5.893   7.849 -0.5983  0.1986 -0.2239
 6430WAT      O27524   4.432   1.023   0.724  0.7736 -0.1569  0.8134
 6430WAT     H127525   4.417   1.054   0.635  0.7424 -1.1365  0.4632
 6430WAT     H227526   4.501   0.957   0.715  0.3438 -0.6991  1.4232
 6430WAT    EPW27527   4.439   1.018   0.711  0.7126 -0.3575  0.8476
 6431WAT      O27528  10.882   2.629   2.136  0.4332  0.1071 -0.7576
 6431WAT     H127529  10.921   2.697   2.190 -0.0565  0.1154 -0.4116
 6431WAT     H227530  10.820   2.676   2.080 -1.1459 -0.2241  0.6210
 6431WAT    EPW27531  10.879   2.644   2.135  0.1602  0.0645 -0.5301
 6432WAT      O27532  10.648   3.552   5.288  0.1587 -0.0108  0.4483
 6432WAT     H127533  10.632   3.576   5.197  0.8178  4.8825  1.3631
 6432WAT     H227534  10.562   3.534   5.325 -0.0408 -3.0317 -1.1912
 6432WAT    EPW27535  10.635   3.553   5.281  0.2193  0.2363  0.3526
 6433WAT      O27536   1.281   5.064   2.440 -0.3640 -0.0020 -0.1779
 6433WAT     H127537   1.264   5.132   2.505 -3.7992 -0.8982  0.0887
 6433WAT     H227538   1.207   5.003   2.450  1.9933 -3.2887 -1.0461
 6433WAT    EPW27539   1.269   5.065   2.450 -0.5063 -0.5536 -0.2573
 6434WAT      O27540   0.376   5.153   1.281 -0.3230 -0.0375 -0.9425
 6434WAT     H127541   0.382   5.245   1.308  2.7855 -0.1173 -0.9984
 6434WAT     H227542   0.464   5.131   1.251 -1.2606 -2.7423 -2.0247
 6434WAT    EPW27543   0.388   5.162   1.281 -0.0367 -0.4051 -1.0926
 6435WAT      O27544   9.219   1.327   2.701 -0.7827 -0.0453 -0.2354
 6435WAT     H127545   9.225   1.421   2.722 -1.1887  0.0415 -0.5070
 6435WAT     H227546   9.132   1.316   2.663 -0.6730 -0.5053 -0.3583
 6435WAT    EPW27547   9.209   1.338   2.699 -0.8221 -0.0946 -0.2873
 6436WAT      O27548   4.274   9.284   0.565 -0.1043  0.2309 -0.0957
 6436WAT     H127549   4.190   9.258   0.602  0.3931 -3.1396 -0.9383
 6436WAT     H227550   4.333   9.288   0.640 -0.0640 -2.1410  0.0726
 6436WAT    EPW27551   4.271   9.281   0.580 -0.0334 -0.5264 -0.1846
 6437WAT      O27552   3.501   8.874   6.276  0.0433  0.1689  0.3200
 6437WAT     H127553   3.552   8.793   6.272  1.0868  0.7247  1.5435
 6437WAT     H227554   3.567   8.943   6.289 -0.8073  1.2416 -0.6978
 6437WAT    EPW27555   3.517   8.873   6.277  0.0689  0.3834  0.3474
 6438WAT      O27556   2.047   8.529   8.430  0.0116  0.2202  0.1098
 6438WAT     H127557   2.087   8.479   8.359  0.3731  1.8825 -0.9205
 6438WAT     H227558   1.953   8.511   8.423  0.2528 -1.3445  0.6284
 6438WAT    EPW27559   2.040   8.520   8.420  0.0912  0.2327  0.0429
 6439WAT      O27560   1.309   8.869   1.081  0.2027 -0.1173 -0.0882
 6439WAT     H127561   1.280   8.883   0.991  0.9062 -0.5415 -0.3895
 6439WAT     H227562   1.402   8.894   1.081  0.7997 -2.1207 -0.0149
 6439WAT    EPW27563   1.318   8.874   1.069  0.3742 -0.4373 -0.1183
 6440WAT      O27564   9.626   0.477   4.564  0.9424 -0.0095  0.6379
 6440WAT     H127565   9.569   0.400   4.573  2.7134 -1.2760  1.6627
 6440WAT     H227566   9.640   0.508   4.653 -0.0561  1.8113  0.2149
 6440WAT    EPW27567   9.620   0.471   4.577  1.0438  0.0636  0.7172
 6441WAT      O27568  10.820   4.867   4.125  0.3412  1.1274  0.3572
 6441WAT     H127569  10.828   4.855   4.030  0.0015 -1.6599  0.5755
 6441WAT     H227570  10.790   4.957   4.135 -3.0637  0.5666 -2.4426
 6441WAT    EPW27571  10.817   4.877   4.114 -0.1526  0.6857  0.0167
 6442WAT      O27572   9.874   4.291   1.497  1.4679  0.7532 -0.4451
 6442WAT     H127573   9.917   4.330   1.421  2.0447  1.3191  0.1443
 6442WAT     H227574   9.852   4.367   1.553 -1.6886  0.6729 -1.3639
 6442WAT    EPW27575   9.877   4.306   1.494  1.1277  0.8171 -0.4886
 6443WAT      O27576   4.389   1.479   0.216 -0.1225 -0.0425 -0.0649
 6443WAT     H127577   4.404   1.490   0.122 -1.4080 -2.3955 -0.6390
 6443WAT     H227578   4.359   1.565   0.246  0.9904  0.9446 -1.6330
 6443WAT    EPW27579   4.387   1.492   0.207 -0.1454 -0.2227 -0.3474
 6444WAT      O27580   9.126   1.786   2.086 -0.3025  0.4909 -0.2285
 6444WAT     H127581   9.097   1.873   2.110 -1.1246 -0.0570  0.8631
 6444WAT     H227582   9.212   1.777   2.128  0.4388  1.2432 -1.4947
 6444WAT    EPW27583   9.134   1.796   2.095 -0.3133  0.5178 -0.2514
 6445WAT      O27584   1.679   0.991   1.400  0.0417 -0.0266  0.1807
 6445WAT     H127585   1.750   0.930   1.379  1.8273  1.6789  0.9885
 6445WAT     H227586   1.637   0.952   1.477  0.2275 -0.9212 -0.1491
 6445WAT    EPW27587   1.683   0.978   1.407  0.3017  0.0803  0.2437
 6446WAT      O27588   0.271   1.797   2.980 -0.1345 -0.9651 -0.1925
 6446WAT     H127589   0.249   1.831   3.067 -2.5590  1.3256 -1.5544
 6446WAT     H227590   0.215   1.721   2.969 -0.0837 -1.0490  0.1071
 6446WAT    EPW27591   0.261   1.792   2.990 -0.4476 -0.6741 -0.3326
 6447WAT      O27592   9.482   2.460   4.515  0.2304  0.0006  1.0203
 6447WAT     H127593   9.510   2.509   4.438 -0.2615  0.2728  1.0123
 6447WAT     H227594   9.494   2.521   4.588  1.1171 -0.4049  1.2263
 6447WAT    EPW27595   9.487   2.474   4.514  0.2828 -0.0170  1.0462
 6448WAT      O27596   1.552   5.157   1.645  0.0688  0.0832  0.1001
 6448WAT     H127597   1.576   5.196   1.561  0.2579 -1.3278 -0.5184
 6448WAT     H227598   1.475   5.207   1.673  1.4854  2.2907  0.3767
 6448WAT    EPW27599   1.545   5.169   1.638  0.2806  0.1881  0.0551
 6449WAT      O27600   1.728   4.342   3.107 -0.5564 -0.1798  0.8602
 6449WAT     H127601   1.776   4.376   3.031 -1.0285 -1.7788 -0.2072
 6449WAT     H227602   1.659   4.407   3.122 -0.0523  0.4947  0.3389
 6449WAT    EPW27603   1.725   4.355   3.099 -0.5523 -0.3018  0.6506
 6450WAT      O27604   2.063   4.478   3.655 -0.2386 -0.7884  0.0889
 6450WAT     H127605   2.094   4.399   3.700  0.7892 -0.3970  0.1038
 6450WAT     H227606   2.128   4.493   3.586  0.2400  0.6886  0.8165
 6450WAT    EPW27607   2.076   4.470   3.652 -0.0398 -0.5417  0.1868
 6451WAT      O27608   1.274   2.778   4.159  0.9754 -0.0250  0.1709
 6451WAT     H127609   1.238   2.802   4.074  0.1428  0.7470  0.7166
 6451WAT     H227610   1.358   2.736   4.139  0.2417 -0.9593 -1.0803
 6451WAT    EPW27611   1.280   2.776   4.145  0.7689 -0.0465  0.0780
 6452WAT      O27612   8.197   7.509   0.973 -0.3261  0.8012  0.6214
 6452WAT     H127613   8.120   7.484   0.922  0.7645 -0.1578 -0.6262
 6452WAT     H227614   8.269   7.463   0.931  0.6410 -0.0652  3.0466
 6452WAT    EPW27615   8.196   7.499   0.961 -0.0553  0.5603  0.7767
 6453WAT      O27616   1.351   2.381   1.783 -0.0239 -0.0448 -0.3687
 6453WAT     H127617   1.332   2.338   1.700  0.9780 -1.5064  0.1135
 6453WAT     H227618   1.431   2.338   1.815 -0.6324  0.1490  1.5626
 6453WAT    EPW27619   1.359   2.370   1.776  0.0280 -0.2121 -0.0504
 6454WAT      O27620  10.086   9.464   1.521 -0.0368 -0.2868 -0.0307
 6454WAT     H127621  10.089   9.558   1.507  0.7547 -0.5583 -2.1166
 6454WAT     H227622   9.998   9.447   1.556  0.3545  1.3439  1.9105
 6454WAT    EPW27623  10.075   9.474   1.524  0.1192 -0.1073 -0.0498
 6455WAT      O27624   9.946   6.304   3.889  0.2488 -0.0706  0.1634
 6455WAT     H127625   9.949   6.364   3.814 -2.0114  0.3204  0.3257
 6455WAT     H227626   9.894   6.230   3.857 -2.9001  1.1750  1.9662
 6455WAT    EPW27627   9.940   6.302   3.875 -0.4649  0.1454  0.4226
 6456WAT      O27628   9.257  10.351   1.878 -0.1307 -0.4907  0.0127
 6456WAT     H127629   9.221  10.426   1.926 -0.1079 -0.1662 -0.4674
 6456WAT     H227630   9.335  10.326   1.927  0.1963  0.1812 -0.1491
 6456WAT    EPW27631   9.263  10.358   1.891 -0.0846 -0.3592 -0.0720
 6457WAT      O27632  10.948   3.608   4.201 -0.4577  0.1833  0.8281
 6457WAT     H127633  11.040   3.633   4.214 -0.6567  0.4551  1.7734
 6457WAT     H227634  10.951   3.539   4.136  0.0892  3.2230 -2.7370
 6457WAT    EPW27635  10.961   3.602   4.194 -0.4120  0.6200  0.4823
 6458WAT      O27636   0.390   4.179   5.125  0.3902 -0.1527 -0.3980
 6458WAT     H127637   0.440   4.109   5.167  0.3574 -0.9551 -1.6689
 6458WAT     H227638   0.299   4.158   5.143  0.4222  0.8836  1.2401
 6458WAT    EPW27639   0.385   4.167   5.133  0.3901 -0.1221 -0.3495
 6459WAT      O27640   0.897   1.730   2.859 -0.2848 -0.1694 -1.2690
 6459WAT     H127641   0.880   1.804   2.801 -2.3130 -1.0751 -1.8892
 6459WAT     H227642   0.890   1.767   2.948 -0.2332  0.5844 -1.5723
 6459WAT    EPW27643   0.894   1.745   2.863 -0.5455 -0.1894 -1.3909
 6460WAT      O27644   1.378   7.150   0.215 -0.3597 -0.3224 -0.0774
 6460WAT     H127645   1.333   7.121   0.135  0.5689 -1.5373 -0.1871
 6460WAT     H227646   1.323   7.117   0.286  0.5861 -2.2785 -0.2027
 6460WAT    EPW27647   1.364   7.142   0.213 -0.1124 -0.7405 -0.1084
 6461WAT      O27648   0.931   6.067   0.016 -0.2736  0.7931  0.1345
 6461WAT     H127649   0.955   5.982  -0.021 -1.7204 -0.6482  2.2125
 6461WAT     H227650   0.851   6.091  -0.030  0.9247  1.8103 -1.4842
 6461WAT    EPW27651   0.923   6.059   0.005 -0.3065  0.7374  0.1950
 6462WAT      O27652   2.488   3.635   2.176 -0.6251 -0.5873  0.2695
 6462WAT     H127653   2.437   3.668   2.102  0.4551 -0.8559 -0.6101
 6462WAT     H227654   2.453   3.547   2.192 -0.0126 -1.0379 -0.7672
 6462WAT    EPW27655   2.476   3.628   2.169 -0.4019 -0.6821  0.0168
 6463WAT      O27656   1.404   6.977   2.424  0.2071  0.3534  0.2918
 6463WAT     H127657   1.447   6.944   2.346  0.4807  0.8559  0.2206
 6463WAT     H227658   1.359   6.902   2.461  1.1010 -0.1779  0.3296
 6463WAT    EPW27659   1.404   6.963   2.419  0.3611  0.3495  0.2874
 6464WAT      O27660   0.907   3.736   4.265 -0.6314 -0.0202 -1.2137
 6464WAT     H127661   0.910   3.782   4.349 -0.3376  0.1737 -1.3302
 6464WAT     H227662   0.839   3.669   4.277 -1.0607  0.4428 -1.0456
 6464WAT    EPW27663   0.898   3.733   4.278 -0.6492  0.0664 -1.2071
 6465WAT      O27664   0.907   1.797   4.245  0.0800 -0.0426  0.4185
 6465WAT     H127665   0.911   1.768   4.336  0.2962 -1.7239 -0.0901
 6465WAT     H227666   0.833   1.858   4.242 -0.9902 -1.2587  1.3845
 6465WAT    EPW27667   0.898   1.801   4.257 -0.0326 -0.4248  0.4790
 6466WAT      O27668  10.769   0.780   3.525  0.1557  0.5451  0.2539
 6466WAT     H127669  10.757   0.819   3.438 -0.9516 -0.4851 -0.0820
 6466WAT     H227670  10.725   0.696   3.519  0.4684  0.2610  1.6922
 6466WAT    EPW27671  10.762   0.774   3.513  0.0510  0.3718  0.3995
 6467WAT      O27672   6.590  10.161   2.138  0.8775 -0.4367 -0.2040
 6467WAT     H127673   6.503  10.136   2.169  1.2429  1.0290  2.3910
 6467WAT     H227674   6.639  10.079   2.135 -0.3145 -1.1532 -0.7296
 6467WAT    EPW27675   6.585  10.147   2.142  0.7684 -0.3376  0.0689
 6468WAT      O27676   1.204   9.157   7.279 -0.2958 -0.2370  0.5055
 6468WAT     H127677   1.153   9.175   7.200 -1.5588 -1.8889  0.8881
 6468WAT     H227678   1.294   9.179   7.256 -0.8612  0.7654 -0.8689
 6468WAT    EPW27679   1.209   9.163   7.266 -0.5370 -0.3223  0.3743
 6469WAT      O27680   4.636   1.772   5.222 -0.2669  0.3524  0.0685
 6469WAT     H127681   4.638   1.854   5.172 -1.8411  1.3918  1.5975
 6469WAT     H227682   4.601   1.797   5.308 -1.0431 -1.9914  0.5007
 6469WAT    EPW27683   4.632   1.786   5.227 -0.5770  0.1804  0.3271
 6470WAT      O27684  10.560   4.913   1.581 -0.2720 -0.0212  0.0128
 6470WAT     H127685  10.580   4.852   1.652 -1.9950  1.6158  2.0531
 6470WAT     H227686  10.641   4.918   1.531  1.2844 -0.7639  2.2746
 6470WAT    EPW27687  10.573   4.906   1.584 -0.2947  0.0968  0.5801
 6471WAT      O27688   5.419  10.187   7.317 -0.5828  0.1055 -0.5908
 6471WAT     H127689   5.397  10.207   7.226 -1.9592  0.5191 -0.1992
 6471WAT     H227690   5.359  10.117   7.342 -1.9157  1.6066  0.6755
 6471WAT    EPW27691   5.408  10.181   7.309 -0.9403  0.3576 -0.3719
 6472WAT      O27692  10.810   2.606   1.251 -0.2075 -0.0090 -0.0060
 6472WAT     H127693  10.834   2.515   1.267 -1.5992 -0.8523 -2.2765
 6472WAT     H227694  10.768   2.605   1.165  0.3223  2.9038 -0.3854
 6472WAT    EPW27695  10.808   2.594   1.242 -0.3214  0.2640 -0.3555
 6473WAT      O27696   0.614   5.463   1.961  0.0485 -0.9693  0.0230
 6473WAT     H127697   0.687   5.464   1.899  0.0687 -0.7778  0.0487
 6473WAT     H227698   0.542   5.421   1.913 -0.1660 -0.1564 -0.3962
 6473WAT    EPW27699   0.614   5.458   1.946  0.0229 -0.8366 -0.0289
 6474WAT      O27700   1.510   5.249   7.415  0.5997  0.2732  0.3196
 6474WAT     H127701   1.553   5.333   7.432  1.4579 -0.3828  1.5768
 6474WAT     H227702   1.533   5.195   7.491 -2.2068 -0.2399  0.9073
 6474WAT    EPW27703   1.519   5.253   7.428  0.3427  0.1192  0.5629
 6475WAT      O27704  10.404   6.722   3.364  0.1392 -0.3618  0.3022
 6475WAT     H127705  10.310   6.735   3.377  0.0781 -3.3702  5.1540
 6475WAT     H227706  10.445   6.797   3.407  0.2239  1.5042 -2.6908
 6475WAT    EPW27707  10.397   6.734   3.371  0.1421 -0.5124  0.5475
 6476WAT      O27708   1.032   1.114   2.019 -0.8646 -0.0312  0.2885
 6476WAT     H127709   0.991   1.156   1.944 -2.5457  2.2867  2.3360
 6476WAT     H227710   1.120   1.153   2.023 -0.3461 -0.9878 -1.0205
 6476WAT    EPW27711   1.039   1.125   2.010 -1.0180  0.1483  0.3858
 6477WAT      O27712   0.600   2.805   2.427 -0.0101  0.4516  0.0632
 6477WAT     H127713   0.589   2.831   2.519  1.1442 -1.1373  0.7031
 6477WAT     H227714   0.541   2.730   2.417 -0.5389  0.9610 -0.6581
 6477WAT    EPW27715   0.591   2.799   2.438  0.0724  0.3092  0.0525
 6478WAT      O27716   1.659   5.155   1.914  0.3237  0.0086  1.0014
 6478WAT     H127717   1.739   5.206   1.901 -0.4880  1.3137  1.0270
 6478WAT     H227718   1.619   5.152   1.827 -0.5673  1.0277  1.3622
 6478WAT    EPW27719   1.664   5.161   1.901  0.0991  0.3152  1.0523
 6479WAT      O27720   2.234   4.266   0.045 -0.4034 -0.4454  0.6910
 6479WAT     H127721   2.288   4.190   0.022 -0.3794 -0.3789  0.5270
 6479WAT     H227722   2.286   4.314   0.109  0.1196  0.0819 -0.1123
 6479WAT    EPW27723   2.248   4.262   0.051 -0.3314 -0.3672  0.5635
 6480WAT      O27724   0.269   2.882   1.198 -0.5367  0.8959  0.6659
 6480WAT     H127725   0.336   2.824   1.164 -1.4265  0.4777 -0.4168
 6480WAT     H227726   0.316   2.962   1.222  0.3855  0.4938  0.2094
 6480WAT    EPW27727   0.284   2.885   1.197 -0.5324  0.7877  0.4629
 6481WAT      O27728  10.427   4.762   2.542  0.1414 -0.0819  0.4688
 6481WAT     H127729  10.391   4.685   2.496  0.3296  0.2951 -0.3338
 6481WAT     H227730  10.516   4.770   2.509 -0.3955  1.4377 -0.7298
 6481WAT    EPW27731  10.434   4.753   2.531  0.0958  0.1683  0.2048
 6482WAT      O27732   8.514   8.504   7.671  0.3490  0.0267 -0.3158
 6482WAT     H127733   8.513   8.454   7.589  0.5532 -0.7825  0.1644
 6482WAT     H227734   8.432   8.480   7.714  0.7270 -0.3678  0.1947
 6482WAT    EPW27735   8.503   8.494   7.665  0.4263 -0.1321 -0.1853
 6483WAT      O27736   1.599   2.080   3.148  0.2999  0.2363  0.2954
 6483WAT     H127737   1.550   2.126   3.080 -0.0363  0.6069  0.7797
 6483WAT     H227738   1.611   1.992   3.113 -0.5350  0.1970  0.0774
 6483WAT    EPW27739   1.594   2.075   3.134  0.1454  0.2800  0.3307
 6484WAT      O27740   3.183   1.336   4.039 -0.3621 -0.7947 -0.2616
 6484WAT     H127741   3.206   1.417   4.086 -1.7122 -0.3279 -0.3423
 6484WAT     H227742   3.112   1.298   4.092 -1.7440 -0.3905 -1.7325
 6484WAT    EPW27743   3.177   1.342   4.052 -0.7224 -0.6799 -0.4663
 6485WAT      O27744   0.183   5.642   0.845 -0.4000 -0.4781 -1.2324
 6485WAT     H127745   0.223   5.570   0.796  0.2081 -1.8217  1.1045
 6485WAT     H227746   0.248   5.666   0.910 -1.4478  0.7604 -0.5950
 6485WAT    EPW27747   0.196   5.636   0.847 -0.4580 -0.4923 -0.8401
 6486WAT      O27748   0.992   2.384   2.469 -0.2359 -0.3928 -0.3848
 6486WAT     H127749   0.899   2.361   2.457 -1.4423  3.6475 -0.0659
 6486WAT     H227750   1.011   2.446   2.398  1.3980  0.8886  1.0913
 6486WAT    EPW27751   0.982   2.389   2.458 -0.1795  0.3091 -0.1481
 6487WAT      O27752   1.807   3.242   4.242  0.2642  0.5465 -1.1423
 6487WAT     H127753   1.728   3.265   4.193 -0.0522 -1.3231 -1.6106
 6487WAT     H227754   1.858   3.190   4.180  1.1613  0.4793 -0.3571
 6487WAT    EPW27755   1.803   3.238   4.227  0.3408  0.2909 -1.1005
 6488WAT      O27756   3.320   3.154   2.589 -0.3996  0.2588  1.0929
 6488WAT     H127757   3.263   3.096   2.640  0.5546 -0.1016  1.7781
 6488WAT     H227758   3.374   3.095   2.537 -0.9004  0.6103  0.1596
 6488WAT    EPW27759   3.319   3.139   2.589 -0.3397  0.2577  1.0602
 6489WAT      O27760   0.139   3.673   1.781  0.1609  0.6321  0.0910
 6489WAT     H127761   0.193   3.743   1.818 -0.9474  0.6845  1.6618
 6489WAT     H227762   0.191   3.593   1.794  0.6243  0.9073 -0.0428
 6489WAT    EPW27763   0.153   3.672   1.787  0.0758  0.6753  0.2805
 6490WAT      O27764   8.961   4.989   1.182 -0.3679 -0.4966  0.2106
 6490WAT     H127765   8.992   5.040   1.107 -0.2494 -0.3094  0.3840
 6490WAT     H227766   8.909   4.919   1.144  0.4338 -0.9362 -0.1101
 6490WAT    EPW27767   8.958   4.987   1.167 -0.2460 -0.5300  0.1912
 6491WAT      O27768  10.836   4.351   3.697 -0.0352  0.6689  0.5665
 6491WAT     H127769  10.776   4.287   3.658  1.3517  0.4037 -1.2378
 6491WAT     H227770  10.886   4.301   3.762  0.2797  0.1654 -0.0538
 6491WAT    EPW27771  10.835   4.336   3.700  0.1893  0.5677  0.2466
 6492WAT      O27772  10.133   2.241   0.042  0.3096  0.0419 -0.6363
 6492WAT     H127773  10.134   2.334   0.066 -0.6907 -0.7108  2.9698
 6492WAT     H227774  10.050   2.229  -0.003 -1.4534  0.3437  2.2520
 6492WAT    EPW27775  10.122   2.252   0.039 -0.0544 -0.0175  0.2203
 6493WAT      O27776   4.081   6.438   8.822  0.3413 -0.5870  0.4161
 6493WAT     H127777   3.989   6.422   8.843  0.1705  0.3034  0.3670
 6493WAT     H227778   4.116   6.352   8.799 -0.4106 -0.9719  0.7002
 6493WAT    EPW27779   4.074   6.425   8.822  0.2196 -0.5205  0.4468
 6494WAT      O27780   0.865   3.127   1.394  0.3182  0.5847 -0.3758
 6494WAT     H127781   0.886   3.036   1.372  0.9902  0.0707  2.0624
 6494WAT     H227782   0.933   3.153   1.456 -1.7117  1.6249  1.5505
 6494WAT    EPW27783   0.877   3.118   1.399  0.1391  0.6542  0.1999
 6495WAT      O27784   0.289   4.086   2.551  0.4640  0.0649 -0.2365
 6495WAT     H127785   0.236   4.045   2.482  0.7173 -1.2214  0.3174
 6495WAT     H227786   0.280   4.028   2.626  1.3111  0.7290  0.3991
 6495WAT    EPW27787   0.281   4.073   2.552  0.6091 -0.0174 -0.0796
 6496WAT      O27788   1.618   5.387   2.420  0.0429 -0.4512 -0.5355
 6496WAT     H127789   1.613   5.292   2.429  2.1027 -0.6918 -1.3352
 6496WAT     H227790   1.551   5.409   2.356 -1.4361 -1.1458  0.7187
 6496WAT    EPW27791   1.608   5.377   2.413  0.1194 -0.5746 -0.4755
 6497WAT      O27792   0.130   0.626   0.961  0.1822  0.4580 -0.3872
 6497WAT     H127793   0.136   0.621   0.866 -2.3902 -1.0115 -0.5736
 6497WAT     H227794   0.084   0.546   0.987 -0.0544  1.2662  1.9865
 6497WAT    EPW27795   0.125   0.615   0.952 -0.1883  0.3708 -0.0987
 6498WAT      O27796   2.896   3.144   3.376  0.6925  0.4790  0.0091
 6498WAT     H127797   2.836   3.069   3.368 -0.9070  1.7511 -0.4863
 6498WAT     H227798   2.965   3.125   3.312  0.7372 -0.9124  0.4218
 6498WAT    EPW27799   2.897   3.131   3.366  0.4874  0.4632 -0.0018
 6499WAT      O27800   2.457   0.870   4.480  0.6158 -0.9584 -0.4193
 6499WAT     H127801   2.528   0.809   4.501 -0.0854 -1.2076  1.4715
 6499WAT     H227802   2.500   0.954   4.465  1.4142 -1.4064 -0.6726
 6499WAT    EPW27803   2.472   0.873   4.481  0.6286 -1.0504 -0.2034
 6500WAT      O27804   6.249   7.921   7.670 -0.0876 -0.1566  0.2632
 6500WAT     H127805   6.315   7.868   7.625 -0.6801 -0.3568 -0.3933
 6500WAT     H227806   6.300   7.987   7.718  0.5774 -0.1165 -0.4730
 6500WAT    EPW27807   6.265   7.923   7.670 -0.0780 -0.1779  0.0799
 6501WAT      O27808   9.686   3.061   1.194 -0.5598  0.3503  0.0119
 6501WAT     H127809   9.614   3.125   1.192  0.2393  1.3009 -2.3007
 6501WAT     H227810   9.658   2.993   1.133 -0.9541 -1.0722  1.7059
 6501WAT    EPW27811   9.673   3.061   1.185 -0.5059  0.2881 -0.0697
 6502WAT      O27812   2.467   6.034   3.487 -0.3098 -0.0457 -0.4301
 6502WAT     H127813   2.553   6.011   3.451  0.9801  1.6711  1.2859
 6502WAT     H227814   2.442   6.114   3.442 -0.0095  0.5708  0.4632
 6502WAT    EPW27815   2.475   6.041   3.477 -0.1000  0.2620 -0.0859
 6503WAT      O27816   0.478   4.840   2.255 -0.4531  0.8530 -0.4490
 6503WAT     H127817   0.536   4.914   2.238  2.1311 -0.7901  0.7101
 6503WAT     H227818   0.459   4.845   2.348  1.0653 -0.7721 -0.0091
 6503WAT    EPW27819   0.483   4.850   2.265  0.0880  0.4218 -0.2381
 6504WAT      O27820   9.877   1.607   0.387  0.8569  0.0895  0.1713
 6504WAT     H127821   9.870   1.680   0.448  0.8442  0.0033  0.2739
 6504WAT     H227822   9.822   1.632   0.313  0.7587  0.1325  0.2584
 6504WAT    EPW27823   9.869   1.620   0.385  0.8421  0.0838  0.1963
 6505WAT      O27824   4.205   6.699   3.998  0.4864  0.1346 -0.4932
 6505WAT     H127825   4.256   6.762   3.946  0.1124 -0.3890 -1.5151
 6505WAT     H227826   4.189   6.626   3.938  0.3804 -0.6677  0.4852
 6505WAT    EPW27827   4.210   6.697   3.983  0.4232 -0.0403 -0.4988
 6506WAT      O27828   1.324   3.308   3.362 -1.0114  0.4632  0.7433
 6506WAT     H127829   1.268   3.284   3.289 -0.9913  2.2960  0.0857
 6506WAT     H227830   1.268   3.360   3.420 -0.9314 -0.6743  1.9030
 6506WAT    EPW27831   1.309   3.312   3.360 -0.9982  0.5549  0.8096
 6507WAT      O27832   3.913   5.758   0.686  0.1606 -0.0802  0.4923
 6507WAT     H127833   3.975   5.716   0.626 -0.4418 -0.0226 -0.1834
 6507WAT     H227834   3.964   5.775   0.766  1.3547  1.0398 -0.4579
 6507WAT    EPW27835   3.928   5.755   0.689  0.2387  0.0751  0.2778
 6508WAT      O27836   0.988   5.097   5.291 -0.0694 -0.5417  0.4072
 6508WAT     H127837   0.910   5.149   5.270  0.0242 -0.1093  1.0712
 6508WAT     H227838   1.029   5.080   5.207 -1.3010 -1.4562 -0.0389
 6508WAT    EPW27839   0.983   5.101   5.277 -0.2195 -0.6053  0.4361
 6509WAT      O27840   1.258   3.511   1.814 -0.2148  0.2864  0.0425
 6509WAT     H127841   1.194   3.470   1.756  1.1710 -1.7387 -0.1500
 6509WAT     H227842   1.317   3.559   1.756  1.4894 -2.1723 -0.4214
 6509WAT    EPW27843   1.257   3.512   1.799  0.1926 -0.3051 -0.0442
 6510WAT      O27844   7.755   6.889   1.150 -0.3191 -0.0711 -0.6619
 6510WAT     H127845   7.758   6.959   1.215  0.4166 -1.5638  0.9867
 6510WAT     H227846   7.681   6.912   1.094 -3.8114 -0.7737  3.1619
 6510WAT    EPW27847   7.746   6.901   1.151 -0.6826 -0.3605  0.0599
 6511WAT      O27848   3.499   5.201   3.763  0.5124 -0.1023  0.7840
 6511WAT     H127849   3.431   5.134   3.754 -2.2226  2.3774  1.5755
 6511WAT     H227850   3.554   5.169   3.834 -0.5961 -1.5867  1.0387
 6511WAT    EPW27851   3.497   5.188   3.771  0.0054  0.0293  0.9221
 6512WAT      O27852   1.340   2.702   0.162 -0.2628 -0.7224 -0.3203
 6512WAT     H127853   1.316   2.778   0.215 -2.7652 -1.3083 -0.4961
 6512WAT     H227854   1.307   2.627   0.211 -0.8758 -1.4227 -1.7393
 6512WAT    EPW27855   1.333   2.702   0.175 -0.6738 -0.8920 -0.5306
 6513WAT      O27856   5.535   7.091   0.972  0.4896 -0.0817  0.6190
 6513WAT     H127857   5.478   7.144   1.028 -0.5008 -1.8226  1.3315
 6513WAT     H227858   5.555   7.014   1.024  0.3391 -1.3133 -1.0711
 6513WAT    EPW27859   5.530   7.088   0.986  0.3390 -0.4737  0.4901
 6514WAT      O27860   3.408   9.516   0.116  0.7990 -0.4478  0.2514
 6514WAT     H127861   3.399   9.611   0.124  0.1816 -0.5018  0.2585
 6514WAT     H227862   3.401   9.499   0.022  1.1613 -0.4670  0.2249
 6514WAT    EPW27863   3.406   9.526   0.104  0.7653 -0.4573  0.2488
 6515WAT      O27864   1.938   2.472   6.307 -0.7394  0.6138  0.2699
 6515WAT     H127865   1.931   2.381   6.280  0.1932  1.0543 -1.6134
 6515WAT     H227866   1.849   2.506   6.297 -0.8830  0.1651 -0.0044
 6515WAT    EPW27867   1.925   2.465   6.302 -0.6354  0.6127 -0.0148
 6516WAT      O27868   5.275   5.940   4.215  0.1104  0.1228  0.4419
 6516WAT     H127869   5.333   5.948   4.290 -0.6538 -0.6412  1.1478
 6516WAT     H227870   5.187   5.952   4.251 -0.2303  0.4675 -0.4613
 6516WAT    EPW27871   5.271   5.942   4.229 -0.0350  0.0675  0.4158
 6517WAT      O27872   3.465   0.582   7.681 -0.4294 -0.4697  0.6886
 6517WAT     H127873   3.448   0.665   7.636  2.3859  0.1277  0.5798
 6517WAT     H227874   3.518   0.607   7.757  0.0086 -2.1106  0.9608
 6517WAT    EPW27875   3.470   0.596   7.685 -0.0005 -0.6073  0.7102
 6518WAT      O27876   5.305   8.644   1.774  0.4890 -0.3219 -0.3887
 6518WAT     H127877   5.272   8.622   1.687 -0.1151  0.9004 -0.4963
 6518WAT     H227878   5.250   8.717   1.803  0.6358 -0.7459  1.0535
 6518WAT    EPW27879   5.293   8.651   1.767  0.4284 -0.2170 -0.2126
 6519WAT      O27880  10.093   0.306   1.103 -0.0438 -0.4701 -0.5341
 6519WAT     H127881  10.028   0.265   1.045 -1.0983 -0.6804  0.7440
 6519WAT     H227882  10.047   0.317   1.186  0.7594  1.7035 -0.3015
 6519WAT    EPW27883  10.078   0.302   1.106 -0.0772 -0.2111 -0.3349
 6520WAT      O27884   6.372   8.542   0.566  0.4188 -0.1697 -0.5859
 6520WAT     H127885   6.358   8.462   0.617  2.1247 -0.1628 -0.0511
 6520WAT     H227886   6.314   8.532   0.491 -1.9958 -0.2929  1.1764
 6520WAT    EPW27887   6.363   8.530   0.563  0.3254 -0.1850 -0.2829
 6521WAT      O27888   7.405   6.900   0.359  0.0370 -0.1177 -0.2954
 6521WAT     H127889   7.346   6.924   0.287 -0.1267 -0.7745 -0.3822
 6521WAT     H227890   7.490   6.935   0.332  0.3267 -1.6857 -1.5487
 6521WAT    EPW27891   7.408   6.908   0.346  0.0536 -0.4110 -0.4721
 6522WAT      O27892   3.532   1.067   8.440  0.4743  0.5981  0.2448
 6522WAT     H127893   3.608   1.111   8.401  0.5240  0.3678  0.0748
 6522WAT     H227894   3.569   0.988   8.479  0.0810 -0.4728 -1.4338
 6522WAT    EPW27895   3.547   1.062   8.440  0.4289  0.4265  0.0010
 6523WAT      O27896   8.113   6.215   1.249  0.0090 -0.2710 -0.3793
 6523WAT     H127897   8.128   6.174   1.164 -0.1540 -1.1433 -0.0016
 6523WAT     H227898   8.138   6.148   1.313 -1.2888 -0.1948  0.2564
 6523WAT    EPW27899   8.118   6.200   1.246 -0.1841 -0.3762 -0.2456
 6524WAT      O27900   2.987   4.853   6.814  0.6075  0.1747  0.3813
 6524WAT     H127901   2.975   4.832   6.907  0.2378  0.4087  0.3875
 6524WAT     H227902   2.995   4.948   6.811  0.1457  0.2084  0.1226
 6524WAT    EPW27903   2.986   4.862   6.826  0.4978  0.2100  0.3481
 6525WAT      O27904   0.061   4.727   7.239  0.3911  0.1437  0.0266
 6525WAT     H127905   0.025   4.682   7.316 -0.7605 -3.3931 -2.3673
 6525WAT     H227906   0.156   4.730   7.256  0.4683 -2.8131  0.6182
 6525WAT    EPW27907   0.069   4.721   7.252  0.2494 -0.7129 -0.2112
 6526WAT      O27908   8.235   9.183   2.958 -0.5711 -0.2902  0.8234
 6526WAT     H127909   8.191   9.106   2.921 -0.8822  0.4970 -0.5416
 6526WAT     H227910   8.189   9.257   2.919  0.9831  0.5782  0.5626
 6526WAT    EPW27911   8.223   9.183   2.948 -0.4072 -0.0715  0.6088
 6527WAT      O27912   8.079   8.151   1.368 -0.5423  0.5426 -0.5240
 6527WAT     H127913   8.076   8.058   1.390  0.9298  0.6077  0.0613
 6527WAT     H227914   8.126   8.155   1.284 -1.9581  0.6667 -1.3483
 6527WAT    EPW27915   8.085   8.139   1.360 -0.5345  0.5679 -0.5555
 6528WAT      O27916   0.303   1.565   5.910 -0.5916 -0.5981 -0.0193
 6528WAT     H127917   0.241   1.603   5.848 -0.4847  0.2884  0.3967
 6528WAT     H227918   0.249   1.515   5.970 -0.6745 -1.6681 -0.9469
 6528WAT    EPW27919   0.288   1.564   5.910 -0.5884 -0.6223 -0.0868
 6529WAT      O27920   6.665   8.290   2.289  0.4362  0.3909 -0.2426
 6529WAT     H127921   6.662   8.216   2.350 -1.3016 -0.9724 -1.8669
 6529WAT     H227922   6.579   8.291   2.247  1.3079  1.7161 -2.1643
 6529WAT    EPW27923   6.653   8.281   2.292  0.3221  0.3858 -0.7102
 6530WAT      O27924   4.291   6.774   2.371 -0.3839 -0.1118  0.2534
 6530WAT     H127925   4.252   6.806   2.452  1.5393  2.2697  0.3628
 6530WAT     H227926   4.372   6.731   2.399 -1.1665 -1.9924 -0.2213
 6530WAT    EPW27927   4.297   6.773   2.385 -0.2334 -0.0455  0.2052
 6531WAT      O27928   5.542   4.147   8.323  0.6618 -0.0144 -0.5738
 6531WAT     H127929   5.485   4.116   8.394 -0.8497 -0.2750 -1.8513
 6531WAT     H227930   5.483   4.185   8.259  2.1766  2.2376 -0.7467
 6531WAT    EPW27931   5.527   4.148   8.324  0.6621  0.2482 -0.7653
 6532WAT      O27932   7.280   7.333   2.104  0.0958  0.4083  0.0403
 6532WAT     H127933   7.285   7.413   2.156 -0.3626  0.6224 -0.2446
 6532WAT     H227934   7.303   7.360   2.015  0.7599  0.0648  0.0939
 6532WAT    EPW27935   7.284   7.347   2.099  0.1228  0.3915  0.0099
 6533WAT      O27936   8.515   7.444   1.342 -0.1174 -0.0442  0.1037
 6533WAT     H127937   8.540   7.455   1.250 -1.1470 -2.6777 -0.5852
 6533WAT     H227938   8.452   7.371   1.341  1.5777 -1.7459  3.1075
 6533WAT    EPW27939   8.510   7.436   1.330 -0.0296 -0.6156  0.4090
 6534WAT      O27940   4.765   6.291   8.583 -0.1341  0.0896 -0.3641
 6534WAT     H127941   4.671   6.273   8.589  0.4779 -3.5935  0.6403
 6534WAT     H227942   4.783   6.347   8.659 -1.2953 -0.3381  0.2584
 6534WAT    EPW27943   4.755   6.296   8.594 -0.2065 -0.4523 -0.1497
 6535WAT      O27944   6.804   2.926   8.118 -0.0014  0.7340  0.3722
 6535WAT     H127945   6.797   2.883   8.033  1.1658  1.1061  0.0619
 6535WAT     H227946   6.898   2.939   8.130 -0.2527  4.6348 -0.3320
 6535WAT    EPW27947   6.816   2.922   8.108  0.1194  1.2974  0.2384
 6536WAT      O27948   9.258   8.049   0.621 -0.1263 -0.3003  0.5085
 6536WAT     H127949   9.286   8.121   0.565  1.7935 -1.3211  0.0953
 6536WAT     H227950   9.319   8.050   0.695  0.2689 -1.8245  0.2295
 6536WAT    EPW27951   9.270   8.059   0.624  0.1788 -0.6356  0.4172
 6537WAT      O27952   0.987   2.374   6.762  0.6155  0.2133 -0.7372
 6537WAT     H127953   0.906   2.397   6.808  0.6105 -1.0162 -0.0927
 6537WAT     H227954   0.962   2.303   6.703  1.0381  0.4256 -1.1731
 6537WAT    EPW27955   0.973   2.368   6.761  0.6706  0.0790 -0.7098
 6538WAT      O27956   7.220   7.542   2.329  0.1887  0.2446  0.4273
 6538WAT     H127957   7.164   7.617   2.346 -0.5417  0.0490 -0.9904
 6538WAT     H227958   7.205   7.484   2.404 -1.2896  0.3238  0.2223
 6538WAT    EPW27959   7.211   7.544   2.341 -0.1028  0.2289  0.2133
 6539WAT      O27960   8.251   8.086   1.683 -0.1498  0.2330 -0.0863
 6539WAT     H127961   8.326   8.113   1.631  0.4212  1.1546  1.1665
 6539WAT     H227962   8.185   8.061   1.619  1.2919 -0.8436 -1.2222
 6539WAT    EPW27963   8.252   8.086   1.668  0.1154  0.2122 -0.0710
 6540WAT      O27964   4.451   3.516   8.836  1.0201  0.2608  0.4473
 6540WAT     H127965   4.359   3.489   8.834 -0.3703  3.9983  2.6697
 6540WAT     H227966   4.483   3.483   8.920  0.6183  1.7378  1.2081
 6540WAT    EPW27967   4.443   3.508   8.847  0.7839  0.9485  0.8411
 6541WAT      O27968   3.487   1.692   6.196  0.4359 -0.1111 -0.3278
 6541WAT     H127969   3.569   1.693   6.145  0.8798  1.5471  0.3365
 6541WAT     H227970   3.469   1.600   6.210  0.7979 -0.6230 -2.6785
 6541WAT    EPW27971   3.496   1.680   6.191  0.5423  0.0401 -0.5503
 6542WAT      O27972   5.543   3.976   2.328  0.0527  0.8290  0.3867
 6542WAT     H127973   5.506   3.894   2.362 -0.7775  0.7855 -0.5738
 6542WAT     H227974   5.631   3.980   2.366  0.4432 -0.9627 -0.2337
 6542WAT    EPW27975   5.550   3.966   2.337 -0.0052  0.5870  0.1781
 6543WAT      O27976   2.831   2.574   8.408  0.2544 -0.4409 -0.4921
 6543WAT     H127977   2.830   2.542   8.319 -0.2306 -1.1475 -0.2397
 6543WAT     H227978   2.922   2.565   8.437  0.4149 -0.1865 -0.9148
 6543WAT    EPW27979   2.843   2.569   8.400  0.2116 -0.5004 -0.5150
 6544WAT      O27980   6.242   7.436   0.496  0.1712  0.4934  1.0943
 6544WAT     H127981   6.152   7.430   0.529 -0.0730  1.3279  0.6076
 6544WAT     H227982   6.254   7.529   0.475  0.0662 -0.0596 -1.8139
 6544WAT    EPW27983   6.232   7.448   0.497  0.1249  0.5305  0.6465
 6545WAT      O27984   2.748   7.640   1.612 -0.1922 -0.2903 -0.3534
 6545WAT     H127985   2.770   7.634   1.705 -0.9009  0.1364 -0.1462
 6545WAT     H227986   2.761   7.551   1.578 -0.2118 -0.5159  0.2234
 6545WAT    EPW27987   2.752   7.627   1.620 -0.2882 -0.2637 -0.2500
 6546WAT      O27988   0.207   1.698   0.600 -0.2160 -0.5546  0.4332
 6546WAT     H127989   0.290   1.717   0.644  0.5766 -0.5037 -1.0400
 6546WAT     H227990   0.143   1.752   0.646  1.0948  1.8554 -0.3867
 6546WAT    EPW27991   0.210   1.707   0.612  0.0614 -0.2301  0.1307
 6547WAT      O27992  10.179   0.870   8.056  0.1224 -0.8355  0.1540
 6547WAT     H127993  10.256   0.852   8.001  0.7111  0.3993  0.5245
 6547WAT     H227994  10.112   0.811   8.024  1.2797 -2.0690 -0.0813
 6547WAT    EPW27995  10.180   0.860   8.044  0.3529 -0.8353  0.1717
 6548WAT      O27996   3.366   4.354   7.238  0.9346 -0.3893 -0.6108
 6548WAT     H127997   3.433   4.306   7.190  0.2324 -1.1784 -0.8334
 6548WAT     H227998   3.325   4.409   7.171  0.4059 -0.9876 -0.7916
 6548WAT    EPW27999   3.369   4.355   7.223  0.7724 -0.5722 -0.6640
 6549WAT      O28000   6.696   5.726   0.502  0.2261  0.9893 -0.1476
 6549WAT     H128001   6.622   5.718   0.442  0.1698 -1.4108  0.1819
 6549WAT     H228002   6.761   5.663   0.470  0.9462  0.9733  1.2580
 6549WAT    EPW28003   6.695   5.717   0.490  0.3135  0.6707  0.0812
 6550WAT      O28004  10.222   7.861   5.855  0.1078 -0.3018 -0.4091
 6550WAT     H128005  10.276   7.787   5.827  2.3563  1.0247  0.2534
 6550WAT     H228006  10.142   7.820   5.888  1.4503 -2.4927  0.3446
 6550WAT    EPW28007  10.218   7.846   5.856  0.5817 -0.4160 -0.2224
 6551WAT      O28008   2.992   2.707   7.496  0.1479 -0.1307 -0.2054
 6551WAT     H128009   3.039   2.701   7.579 -1.5662 -1.3295  0.7274
 6551WAT     H228010   2.974   2.801   7.485  2.4733  0.3489 -0.4936
 6551WAT    EPW28011   2.996   2.719   7.505  0.2285 -0.2257 -0.1204
 6552WAT      O28012   5.211   5.959   2.953 -0.1838 -0.2450 -0.3100
 6552WAT     H128013   5.136   6.007   2.918  0.5036 -0.6722 -2.5067
 6552WAT     H228014   5.187   5.941   3.045 -2.8232 -0.4905 -0.9537
 6552WAT    EPW28015   5.198   5.963   2.961 -0.4413 -0.3335 -0.6846
 6553WAT      O28016   8.465   8.591   0.664 -0.5495 -0.6076 -1.1930
 6553WAT     H128017   8.479   8.609   0.571  3.6071 -0.0126 -0.6403
 6553WAT     H228018   8.469   8.496   0.672 -1.6959 -0.7145 -1.6335
 6553WAT    EPW28019   8.467   8.581   0.653 -0.1531 -0.5426 -1.1782
 6554WAT      O28020   3.298   2.873   7.408 -0.2616 -0.0444 -0.0978
 6554WAT     H128021   3.209   2.867   7.373  0.6049 -0.5509 -2.3884
 6554WAT     H228022   3.323   2.783   7.428  0.2207 -0.0836 -0.8298
 6554WAT    EPW28023   3.290   2.860   7.406 -0.0838 -0.1165 -0.4964
 6555WAT      O28024   5.376   0.990   6.325  0.2109 -0.2979 -0.2314
 6555WAT     H128025   5.344   0.911   6.367 -0.3039 -0.2304 -0.4899
 6555WAT     H228026   5.453   0.962   6.275 -0.3101 -0.7524 -0.7943
 6555WAT    EPW28027   5.382   0.976   6.324  0.0741 -0.3490 -0.3397
 6556WAT      O28028   1.590   2.425   1.981 -0.3732 -0.0772 -0.4273
 6556WAT     H128029   1.672   2.397   1.941 -0.7024  0.2505 -1.3502
 6556WAT     H228030   1.594   2.521   1.981  0.0180 -0.0589  1.1901
 6556WAT    EPW28031   1.602   2.434   1.976 -0.3650 -0.0317 -0.3357
 6557WAT      O28032   4.111   7.179   1.479 -0.0932 -0.4696 -0.1742
 6557WAT     H128033   4.191   7.138   1.513 -0.6926 -1.7647 -0.2633
 6557WAT     H228034   4.110   7.156   1.386  0.4994  1.3537 -0.6801
 6557WAT    EPW28035   4.122   7.171   1.472 -0.0942 -0.4003 -0.2527
 6558WAT      O28036   2.662   3.043   6.654 -0.3876 -0.4978 -0.3618
 6558WAT     H128037   2.589   3.051   6.715  2.1701 -0.9848  3.0374
 6558WAT     H228038   2.705   2.961   6.678  2.3635  0.6798 -0.8851
 6558WAT    EPW28039   2.658   3.034   6.665  0.3127 -0.4067  0.0174
 6559WAT      O28040   1.038   3.779   7.020 -0.6276 -0.7738  0.3631
 6559WAT     H128041   1.004   3.691   7.004 -0.7057 -1.3091  3.0614
 6559WAT     H228042   0.961   3.835   7.017 -0.4237 -0.4641 -2.7301
 6559WAT    EPW28043   1.024   3.775   7.017 -0.6110 -0.8035  0.3109
 6560WAT      O28044   7.522   1.269   4.530  0.0730 -0.3413 -0.2314
 6560WAT     H128045   7.475   1.275   4.447  0.5986  2.2381 -0.4036
 6560WAT     H228046   7.609   1.301   4.511  1.0925 -2.3048  0.7626
 6560WAT    EPW28047   7.527   1.274   4.517  0.2768 -0.2601 -0.1230
 6561WAT      O28048   6.523   8.475   1.997  0.8774 -0.0782  0.3081
 6561WAT     H128049   6.503   8.429   1.916 -2.5209  1.3752  0.1281
 6561WAT     H228050   6.569   8.554   1.969 -2.3419  1.6385 -0.6929
 6561WAT    EPW28051   6.526   8.479   1.983  0.0045  0.3400  0.1522
 6562WAT      O28052   2.246   3.842   7.949 -0.1357 -0.2574  0.0369
 6562WAT     H128053   2.204   3.927   7.949 -0.6853 -0.5117 -0.8651
 6562WAT     H228054   2.188   3.786   8.001 -0.6340 -0.4694 -0.7327
 6562WAT    EPW28055   2.233   3.846   7.956 -0.2738 -0.3189 -0.1836
 6563WAT      O28056   7.428   9.080   3.521  0.5413  0.5848 -0.1983
 6563WAT     H128057   7.418   9.169   3.554  1.2861  0.2826  0.8952
 6563WAT     H228058   7.505   9.084   3.464 -0.1765  0.8958 -1.1800
 6563WAT    EPW28059   7.437   9.093   3.518  0.5448  0.5865 -0.1835
 6564WAT      O28060   6.114   8.417   0.795  0.2826  0.2114  0.3645
 6564WAT     H128061   6.111   8.346   0.860  0.2779 -1.8080 -1.7350
 6564WAT     H228062   6.167   8.382   0.724 -0.7652  1.8588 -1.2937
 6564WAT    EPW28063   6.121   8.403   0.794  0.1440  0.1626 -0.1311
 6565WAT      O28064   0.415   2.421   7.899 -0.3702  0.8200  0.8400
 6565WAT     H128065   0.495   2.433   7.847  0.6153 -2.6141  1.3378
 6565WAT     H228066   0.411   2.499   7.954 -1.3144  4.6049 -3.8694
 6565WAT    EPW28067   0.425   2.433   7.899 -0.3647  0.8663  0.2842
 6566WAT      O28068   4.963   7.293   1.033 -0.1141 -0.3245 -0.4731
 6566WAT     H128069   5.039   7.351   1.025  0.7216 -1.5357 -1.6202
 6566WAT     H228070   4.888   7.350   1.017  0.6413  0.5968 -0.8337
 6566WAT    EPW28071   4.963   7.308   1.030  0.0958 -0.3631 -0.6719
 6567WAT      O28072   8.431   9.074   7.650  0.4045  0.0679 -0.6330
 6567WAT     H128073   8.374   9.034   7.584 -0.7225 -0.8727  0.8432
 6567WAT     H228074   8.373   9.129   7.702  1.0699  0.0083  0.1965
 6567WAT    EPW28075   8.416   9.076   7.648  0.3433 -0.0639 -0.3290
 6568WAT      O28076   6.503   9.430   4.404 -0.2175 -0.1403 -0.0761
 6568WAT     H128077   6.416   9.432   4.366  0.0825 -2.6257 -1.0668
 6568WAT     H228078   6.557   9.481   4.343 -1.3452  3.9992  2.0332
 6568WAT    EPW28079   6.499   9.437   4.391 -0.3266  0.0782  0.0713
 6569WAT      O28080   4.942   4.338   7.766 -0.2572  0.5537 -0.1184
 6569WAT     H128081   4.900   4.411   7.811 -1.9958 -0.7209  0.4352
 6569WAT     H228082   5.032   4.368   7.750 -1.0276  2.9663 -0.3281
 6569WAT    EPW28083   4.948   4.352   7.769 -0.5882  0.7036 -0.0732
 6570WAT      O28084   6.193   8.345   1.944 -0.2686 -0.2907 -0.7520
 6570WAT     H128085   6.173   8.320   2.034  0.1365  1.6238 -0.0806
 6570WAT     H228086   6.143   8.283   1.890 -0.2044 -1.7223  0.7531
 6570WAT    EPW28087   6.184   8.333   1.949 -0.2067 -0.2265 -0.4650
 6571WAT      O28088   4.577   8.188   1.714 -0.6542  0.1595 -0.0017
 6571WAT     H128089   4.529   8.119   1.761  2.1193 -1.1867  1.0576
 6571WAT     H228090   4.537   8.190   1.627 -1.4113 -2.1791  0.2217
 6571WAT    EPW28091   4.565   8.179   1.709 -0.3884 -0.3266  0.1675
 6572WAT      O28092   6.651   8.923   3.645 -0.2052  0.1593  0.4980
 6572WAT     H128093   6.694   8.954   3.724 -2.2535  1.2499  1.2459
 6572WAT     H228094   6.558   8.944   3.657 -0.3759  2.3704 -3.0643
 6572WAT    EPW28095   6.644   8.930   3.657 -0.4976  0.5941  0.1267
 6573WAT      O28096   1.581   2.216   7.196  0.4170 -0.0780 -0.3971
 6573WAT     H128097   1.596   2.164   7.116 -0.1975 -1.2806  0.2381
 6573WAT     H228098   1.616   2.302   7.175  0.5228 -0.4455 -1.8757
 6573WAT    EPW28099   1.588   2.220   7.182  0.3498 -0.2850 -0.5083
 6574WAT      O28100   2.614   2.372   7.986  0.9942 -0.4007  0.0851
 6574WAT     H128101   2.522   2.395   7.979  0.7469 -1.4821 -0.2777
 6574WAT     H228102   2.639   2.345   7.898  0.4097 -4.6128  0.9870
 6574WAT    EPW28103   2.605   2.372   7.974  0.8845 -1.0991  0.1564
 6575WAT      O28104   8.941   9.834   1.111  0.0719  0.0179 -0.7338
 6575WAT     H128105   8.917   9.751   1.072 -1.4287  0.3394 -0.5439
 6575WAT     H228106   8.911   9.828   1.202 -2.2201  1.5862 -1.2938
 6575WAT    EPW28107   8.934   9.823   1.118 -0.4282  0.2670 -0.7827
 6576WAT      O28108   5.443   3.044   6.677  0.1574  0.2862 -0.3993
 6576WAT     H128109   5.350   3.036   6.655  0.3704  1.0157 -1.6662
 6576WAT     H228110   5.444   3.105   6.751 -0.4885 -1.2407  0.9139
 6576WAT    EPW28111   5.431   3.051   6.684  0.1001  0.1811 -0.3932
 6577WAT      O28112   6.515   9.136   2.084  0.1523  0.1399 -0.7542
 6577WAT     H128113   6.606   9.149   2.058  0.6191 -2.2564 -0.5878
 6577WAT     H228114   6.511   9.170   2.174  0.6943  0.8403 -0.9859
 6577WAT    EPW28115   6.526   9.142   2.093  0.2854 -0.0839 -0.7628
 6578WAT      O28116   4.734   9.821   1.628  0.2986  0.1949 -0.0016
 6578WAT     H128117   4.795   9.822   1.554 -0.0227 -1.4272 -0.3232
 6578WAT     H228118   4.753   9.739   1.674 -1.5729 -0.3210 -0.0734
 6578WAT    EPW28119   4.745   9.810   1.624  0.0095 -0.0868 -0.0535
 6579WAT      O28120   9.998   7.733   1.007 -0.1639  0.1267  0.0685
 6579WAT     H128121   9.903   7.729   1.014 -0.5777 -0.1469 -3.7137
 6579WAT     H228122  10.015   7.819   0.968  1.1129  0.0591  0.4280
 6579WAT    EPW28123   9.988   7.744   1.002 -0.0505  0.0820 -0.3830
 6580WAT      O28124   7.619  10.031   1.189 -0.1118  0.4511  0.2646
 6580WAT     H128125   7.615   9.987   1.104 -1.3431  0.0414  0.5025
 6580WAT     H228126   7.695  10.088   1.183  1.6303 -1.7749 -0.0131
 6580WAT    EPW28127   7.628  10.033   1.177 -0.0443  0.1035  0.2593
 6581WAT      O28128   7.758   9.005   3.658 -0.5561 -0.1877  0.1885
 6581WAT     H128129   7.821   9.007   3.730 -0.1556 -1.2507 -0.1114
 6581WAT     H228130   7.810   9.029   3.581 -1.0189  1.1047  0.2597
 6581WAT    EPW28131   7.773   9.008   3.657 -0.5643 -0.1574  0.1583
 6582WAT      O28132   0.770   3.886   6.524 -0.0697 -0.2384  0.2310
 6582WAT     H128133   0.815   3.807   6.553 -1.1066 -0.5255  1.0951
 6582WAT     H228134   0.683   3.881   6.564 -1.0973  0.0327 -1.8220
 6582WAT    EPW28135   0.764   3.875   6.533 -0.3420 -0.2407  0.0744
 6583WAT      O28136   8.201   7.444   2.918 -0.1660  0.2139  0.1936
 6583WAT     H128137   8.119   7.474   2.957  0.3444  0.7746  0.8507
 6583WAT     H228138   8.204   7.487   2.833 -0.9219 -0.4196 -0.1679
 6583WAT    EPW28139   8.191   7.453   2.912 -0.1984  0.2046  0.2326
 6584WAT      O28140   5.514   4.533   8.597 -0.5477 -0.6164 -0.0376
 6584WAT     H128141   5.605   4.520   8.624 -0.0996 -3.0674 -2.3144
 6584WAT     H228142   5.520   4.588   8.518 -1.3014  1.1902  1.1003
 6584WAT    EPW28143   5.527   4.539   8.590 -0.5882 -0.7012 -0.1879
 6585WAT      O28144   0.194   1.731   5.708 -0.5796  0.1484 -1.0124
 6585WAT     H128145   0.128   1.770   5.650 -0.2069  3.0972  0.3284
 6585WAT     H228146   0.277   1.745   5.662 -0.5988 -1.0225 -1.4387
 6585WAT    EPW28147   0.196   1.738   5.695 -0.5329  0.3828 -0.8919
 6586WAT      O28148  10.432   0.288   1.936 -0.0270  0.1945 -0.1080
 6586WAT     H128149  10.407   0.209   1.984 -0.0855  0.0296 -0.4081
 6586WAT     H228150  10.354   0.310   1.885 -0.2989  0.9096  0.5788
 6586WAT    EPW28151  10.418   0.281   1.936 -0.0706  0.2671 -0.0570
 6587WAT      O28152   7.431   2.768   7.463  0.4457  0.3108  0.2287
 6587WAT     H128153   7.509   2.743   7.513  1.4926  0.3364 -1.3416
 6587WAT     H228154   7.373   2.692   7.470  0.9729 -0.0602  0.6630
 6587WAT    EPW28155   7.433   2.755   7.471  0.6530  0.2654  0.0789
 6588WAT      O28156   2.634   3.383   8.883 -0.5097 -0.1931  0.5090
 6588WAT     H128157   2.616   3.477   8.878 -0.6036 -0.2313  0.0795
 6588WAT     H228158   2.704   3.368   8.819  1.3411  0.0059  2.3839
 6588WAT    EPW28159   2.641   3.393   8.874 -0.2780 -0.1719  0.6990
 6589WAT      O28160   2.798   1.094   6.742 -0.7687 -0.1025  0.2525
 6589WAT     H128161   2.888   1.063   6.738 -1.1456 -1.2741  0.5290
 6589WAT     H228162   2.778   1.120   6.652 -0.2762 -0.1784  0.1179
 6589WAT    EPW28163   2.807   1.093   6.729 -0.7534 -0.2671  0.2713
 6590WAT      O28164   1.980   1.134   1.618 -0.4258 -0.2039 -0.6496
 6590WAT     H128165   1.992   1.039   1.620 -0.5945 -0.2389 -1.1732
 6590WAT     H228166   1.985   1.161   1.710 -0.7923 -0.7758 -0.4566
 6590WAT    EPW28167   1.982   1.125   1.631 -0.4964 -0.2839 -0.6932
 6591WAT      O28168   4.213  10.076   0.592 -0.2756  0.3346 -0.3381
 6591WAT     H128169   4.255  10.045   0.672 -1.4731  1.3966  0.7428
 6591WAT     H228170   4.134  10.023   0.585  1.7325 -2.7140 -3.1640
 6591WAT    EPW28171   4.208  10.065   0.602 -0.1688  0.0720 -0.5682
 6592WAT      O28172   1.750   2.931   7.812 -0.1206 -0.1023  1.0955
 6592WAT     H128173   1.816   2.899   7.873  0.8965 -0.7194 -0.2604
 6592WAT     H228174   1.777   3.021   7.791  0.5155 -0.4693  0.2828
 6592WAT    EPW28175   1.762   2.939   7.817  0.0975 -0.2322  0.8094
 6593WAT      O28176  10.370   1.062   1.775 -0.0327  0.9405  0.0192
 6593WAT     H128177  10.315   1.123   1.726  2.0207  2.3243 -0.7060
 6593WAT     H228178  10.446   1.047   1.718  0.5356 -0.6115  1.1102
 6593WAT    EPW28179  10.373   1.068   1.761  0.3133  0.9183  0.0675
 6594WAT      O28180   5.104   6.223   0.940 -0.0007 -0.3198  0.7745
 6594WAT     H128181   5.040   6.168   0.986 -1.1710  0.9753  0.7583
 6594WAT     H228182   5.077   6.220   0.849 -0.7556  1.1111  0.9211
 6594WAT    EPW28183   5.092   6.215   0.934 -0.2546  0.0398  0.7917
 6595WAT      O28184   7.463   5.807   8.536  0.0448 -0.3231  0.6714
 6595WAT     H128185   7.403   5.849   8.598 -1.8696  1.3832 -2.1608
 6595WAT     H228186   7.421   5.722   8.518 -0.7425  0.2283 -0.1481
 6595WAT    EPW28187   7.449   5.801   8.542 -0.3116 -0.0255  0.1903
 6596WAT      O28188   0.121  10.108   2.795  0.4751 -0.3794 -0.1493
 6596WAT     H128189   0.148  10.028   2.841  0.7154 -0.1044  0.1946
 6596WAT     H228190   0.200  10.163   2.794 -0.2554  0.8092  1.6552
 6596WAT    EPW28191   0.135  10.105   2.801  0.4105 -0.1860  0.1339
 6597WAT      O28192   4.783   9.608   1.842 -0.5993 -0.3458 -0.6332
 6597WAT     H128193   4.802   9.516   1.862 -1.7625 -0.1498  1.6734
 6597WAT     H228194   4.867   9.652   1.852 -0.3320 -0.9280 -0.2346
 6597WAT    EPW28195   4.797   9.601   1.846 -0.7176 -0.3963 -0.2764
 6598WAT      O28196   4.261   6.606   3.410  0.2941  0.1526  0.1617
 6598WAT     H128197   4.330   6.618   3.474 -1.1568  2.7161  1.4373
 6598WAT     H228198   4.303   6.622   3.325  1.0135  3.5117  1.0194
 6598WAT    EPW28199   4.275   6.610   3.407  0.1974  0.9339  0.4430
 6599WAT      O28200   3.914   8.478   0.686  0.2522  0.0884  0.6735
 6599WAT     H128201   3.843   8.520   0.734 -0.8581  1.0491 -1.6610
 6599WAT     H228202   3.877   8.460   0.600  2.8225  0.6333 -0.6444
 6599WAT    EPW28203   3.900   8.481   0.681  0.4447  0.2871  0.1918
 6600WAT      O28204   0.123   7.744   7.538  0.2460  0.1375 -0.5268
 6600WAT     H128205   0.159   7.656   7.529  0.1423  0.0715 -0.3000
 6600WAT     H228206   0.181   7.799   7.485 -1.0928 -0.4416 -2.7067
 6600WAT    EPW28207   0.135   7.740   7.530  0.0558  0.0525 -0.7844
 6601WAT      O28208   3.237   2.777   6.768  0.1967  0.9684 -0.1422
 6601WAT     H128209   3.269   2.703   6.820  0.1975 -0.6528 -2.3190
 6601WAT     H228210   3.312   2.835   6.760  0.4304  0.8344  0.9528
 6601WAT    EPW28211   3.251   2.775   6.774  0.2277  0.7368 -0.2849
 6602WAT      O28212   3.579   9.228   3.578  0.5983  0.3698  0.0800
 6602WAT     H128213   3.506   9.208   3.520  1.4668  1.1351 -1.3236
 6602WAT     H228214   3.572   9.164   3.649 -0.3147 -0.8008 -1.0289
 6602WAT    EPW28215   3.569   9.217   3.580  0.5924  0.3161 -0.2513
 6603WAT      O28216  10.371  10.273   7.527  0.6559  0.8649  0.3591
 6603WAT     H128217  10.313  10.214   7.479 -1.9643  1.6444  2.3541
 6603WAT     H228218  10.314  10.320   7.587  3.1990  2.6988  1.5449
 6603WAT    EPW28219  10.356  10.271   7.529  0.6456  1.2097  0.7789
 6604WAT      O28220   3.758   2.264   7.536 -0.2125 -0.7644 -0.4805
 6604WAT     H128221   3.780   2.246   7.445 -0.8491 -0.0968 -0.7726
 6604WAT     H228222   3.799   2.349   7.554  1.0788 -1.4988  0.2881
 6604WAT    EPW28223   3.767   2.273   7.526 -0.1262 -0.7733 -0.4175
 6605WAT      O28224   9.177   9.393   0.749 -0.3595  0.0723 -0.3577
 6605WAT     H128225   9.220   9.478   0.750 -0.1147 -0.0334  1.3240
 6605WAT     H228226   9.247   9.331   0.772 -0.6449 -0.5340 -1.0785
 6605WAT    EPW28227   9.192   9.396   0.752 -0.3643 -0.0219 -0.2310
 6606WAT      O28228   7.934   7.782   0.240 -0.0454 -0.1169  0.3195
 6606WAT     H128229   7.938   7.847   0.310  0.4865  0.2501 -0.0503
 6606WAT     H228230   7.841   7.760   0.234 -0.2023  0.4544  0.5836
 6606WAT    EPW28231   7.922   7.787   0.248  0.0041  0.0067  0.3056
 6607WAT      O28232   9.152   8.360   0.011 -0.1853  0.1138 -0.6302
 6607WAT     H128233   9.093   8.346  -0.063 -1.4021  0.6248  0.2148
 6607WAT     H228234   9.095   8.358   0.088  0.7639  1.4380  0.1442
 6607WAT    EPW28235   9.137   8.358   0.011 -0.2208  0.3562 -0.4166
 6608WAT      O28236   5.987   6.127   2.039 -0.4850 -0.6770 -1.1154
 6608WAT     H128237   5.893   6.132   2.055 -0.3149 -0.7394 -0.0347
 6608WAT     H228238   5.999   6.048   1.987 -0.9262 -1.2190 -0.4076
 6608WAT    EPW28239   5.977   6.117   2.034 -0.5207 -0.7567 -0.8795
 6609WAT      O28240   7.776  10.228   2.786  0.7549  0.1308  0.9739
 6609WAT     H128241   7.791  10.145   2.832  0.6075 -1.2588 -1.3240
 6609WAT     H228242   7.691  10.258   2.817  0.6840 -0.7344  1.6520
 6609WAT    EPW28243   7.767  10.221   2.796  0.7260 -0.1664  0.7602
 6610WAT      O28244  10.210   8.464   8.305  0.2784 -0.3774 -0.0850
 6610WAT     H128245  10.128   8.417   8.292  1.3057 -1.6472 -2.7014
 6610WAT     H228246  10.237   8.441   8.393 -2.2815  0.3743  1.0071
 6610WAT    EPW28247  10.203   8.455   8.315  0.0763 -0.4458 -0.2861
 6611WAT      O28248   1.151   2.315   7.428 -0.0338  0.0516 -0.2765
 6611WAT     H128249   1.153   2.259   7.350 -1.5295 -1.4565  0.6912
 6611WAT     H228250   1.102   2.264   7.493 -2.3047  2.8352  0.4035
 6611WAT    EPW28251   1.145   2.301   7.426 -0.5305  0.2199 -0.0589
 6612WAT      O28252   4.920   4.900   8.629 -0.3736  0.1989 -0.2602
 6612WAT     H128253   4.987   4.837   8.654 -0.1253  1.4153  2.4567
 6612WAT     H228254   4.909   4.887   8.535  1.8955 -1.6946 -0.3501
 6612WAT    EPW28255   4.927   4.890   8.620 -0.0412  0.1097  0.0858
 6613WAT      O28256   3.766   5.225   1.984  0.1555 -0.0184  0.3485
 6613WAT     H128257   3.723   5.304   2.016  0.2740  0.1249  0.1528
 6613WAT     H228258   3.803   5.185   2.063 -0.8190 -0.4452  0.5955
 6613WAT    EPW28259   3.765   5.230   1.999  0.0426 -0.0556  0.3552
 6614WAT      O28260   6.974   9.252   1.444 -0.4978  0.0097 -0.1245
 6614WAT     H128261   6.881   9.263   1.464 -0.7187 -0.2972 -0.9568
 6614WAT     H228262   7.014   9.333   1.475 -1.4082  1.2301 -1.9229
 6614WAT    EPW28263   6.967   9.264   1.451 -0.6471  0.1297 -0.4715
 6615WAT      O28264   7.449   6.090   0.921  0.3190 -0.5895  0.2830
 6615WAT     H128265   7.456   6.060   0.830  1.3832 -3.9160  1.3220
 6615WAT     H228266   7.522   6.151   0.931 -0.3466  0.5337 -1.2797
 6615WAT    EPW28267   7.460   6.094   0.910  0.3715 -0.8800  0.2139
 6616WAT      O28268   0.762   0.963   0.718  0.5364 -0.1231  0.4399
 6616WAT     H128269   0.674   0.968   0.756 -1.4665  2.6950 -3.8790
 6616WAT     H228270   0.758   0.888   0.659  0.8865  0.2713 -0.0884
 6616WAT    EPW28271   0.749   0.954   0.715  0.3184  0.3006 -0.1994
 6617WAT      O28272   5.384   9.775   3.416  0.4206 -0.0166  0.3203
 6617WAT     H128273   5.470   9.763   3.376 -0.0640  0.8030 -1.0351
 6617WAT     H228274   5.322   9.757   3.345 -0.4560  3.3192  0.0652
 6617WAT    EPW28275   5.387   9.771   3.401  0.2410  0.5312  0.1078
 6618WAT      O28276   2.149   0.375   7.851 -0.0493 -0.7041  0.5718
 6618WAT     H128277   2.061   0.413   7.848 -0.0197 -0.6736  0.0761
 6618WAT     H228278   2.144   0.311   7.922 -0.2560 -0.1770  1.0496
 6618WAT    EPW28279   2.137   0.372   7.860 -0.0727 -0.6306  0.5691
 6619WAT      O28280   0.920   3.668   8.208  0.2608 -0.0335  0.4574
 6619WAT     H128281   1.003   3.624   8.196 -0.9167 -1.9496 -1.2342
 6619WAT     H228282   0.942   3.749   8.254  3.0353 -0.4312 -0.0311
 6619WAT    EPW28283   0.934   3.673   8.213  0.4714 -0.3387  0.1698
 6620WAT      O28284   8.983   8.129   1.846  0.6189 -0.6962  0.1918
 6620WAT     H128285   9.010   8.219   1.827  0.8834 -0.8689 -0.2745
 6620WAT     H228286   8.998   8.082   1.764 -1.5921 -0.7002 -0.2675
 6620WAT    EPW28287   8.988   8.135   1.833  0.3619 -0.7200  0.0698
 6621WAT      O28288   5.856   8.723   0.940  0.0265  0.3066 -0.0965
 6621WAT     H128289   5.884   8.679   0.860  2.6817 -2.0884  1.9644
 6621WAT     H228290   5.909   8.803   0.943  0.5661 -0.0379 -0.3354
 6621WAT    EPW28291   5.867   8.728   0.930  0.4480 -0.0544  0.1438
 6622WAT      O28292   4.279   2.444   8.935  0.6028 -0.1079  0.0797
 6622WAT     H128293   4.373   2.434   8.948  0.5867  1.1695  1.5575
 6622WAT     H228294   4.244   2.452   9.024 -0.9829 -1.0744 -0.4225
 6622WAT    EPW28295   4.287   2.444   8.948  0.3917 -0.0670  0.2084
 6623WAT      O28296   8.908   7.779   0.188 -0.4510  0.1353 -0.3488
 6623WAT     H128297   8.906   7.707   0.124  0.2133 -1.7945  1.6876
 6623WAT     H228298   8.835   7.835   0.162 -0.3890 -0.7142 -2.6020
 6623WAT    EPW28299   8.898   7.777   0.176 -0.3552 -0.2313 -0.3774
 6624WAT      O28300   7.046   9.477   0.197  0.1798 -0.0261  0.4293
 6624WAT     H128301   7.041   9.572   0.209  0.3554 -0.2240  2.6544
 6624WAT     H228302   6.981   9.442   0.259 -0.3817 -1.3502 -0.8661
 6624WAT    EPW28303   7.037   9.485   0.207  0.1287 -0.2270  0.5519
 6625WAT      O28304   5.456   7.536   0.286  0.6226 -0.5616 -0.2899
 6625WAT     H128305   5.538   7.576   0.257  0.5641 -0.4596 -0.3165
 6625WAT     H228306   5.447   7.457   0.233  0.0496  0.1010 -1.2088
 6625WAT    EPW28307   5.465   7.531   0.275  0.5391 -0.4606 -0.4146
 6626WAT      O28308   6.982   8.992   3.372  0.0777 -0.0446 -0.1093
 6626WAT     H128309   7.064   8.992   3.323  0.3961 -0.1678  0.4096
 6626WAT     H228310   6.926   9.055   3.327 -0.2409 -1.3488 -1.6128
 6626WAT    EPW28311   6.986   9.000   3.360  0.0777 -0.2332 -0.2393
 6627WAT      O28312  10.851   1.513   5.982  0.1792  0.2553  0.6083
 6627WAT     H128313  10.764   1.475   5.996 -0.8880  2.0672 -0.6069
 6627WAT     H228314  10.864   1.571   6.057  0.6513 -0.5221  1.1341
 6627WAT    EPW28315  10.841   1.516   5.994  0.1011  0.3917  0.5174
 6628WAT      O28316   5.480   9.999   0.766 -0.3672 -0.6471 -0.3517
 6628WAT     H128317   5.479  10.022   0.859 -2.6249  0.7074 -0.6412
 6628WAT     H228318   5.507   9.907   0.764  0.7562 -0.3996  1.5308
 6628WAT    EPW28319   5.483   9.990   0.778 -0.5167 -0.4363 -0.1416
 6629WAT      O28320   9.028   0.327   2.807  0.2549  0.5942 -0.2962
 6629WAT     H128321   9.069   0.241   2.818 -0.4035  0.2352 -0.6402
 6629WAT     H228322   8.937   0.308   2.786 -0.1770  1.3969  0.7714
 6629WAT    EPW28323   9.021   0.313   2.805  0.1106  0.6527 -0.2007
 6630WAT      O28324  10.424   4.337   7.282 -0.3399  0.4490  0.0325
 6630WAT     H128325  10.341   4.294   7.261 -0.3091 -0.7631  2.1018
 6630WAT     H228326  10.450   4.381   7.201 -1.2827 -1.9779 -1.7078
 6630WAT    EPW28327  10.417   4.337   7.269 -0.4601 -0.0310  0.0761
 6631WAT      O28328   3.823   6.527   0.325  0.5218 -0.7955 -0.3244
 6631WAT     H128329   3.911   6.563   0.322  0.6551 -0.9628  0.8872
 6631WAT     H228330   3.832   6.445   0.374 -0.3414 -0.6929  0.0289
 6631WAT    EPW28331   3.836   6.521   0.331  0.4256 -0.8039 -0.1180
 6632WAT      O28332   0.490   9.645   2.138 -0.2442  0.2918  0.1420
 6632WAT     H128333   0.514   9.732   2.168 -1.5133 -0.0204  2.2912
 6632WAT     H228334   0.474   9.595   2.218 -4.3896 -0.4989 -0.9024
 6632WAT    EPW28335   0.491   9.650   2.153 -0.9583  0.1464  0.2878
 6633WAT      O28336   4.525   6.185   0.870  0.4053 -0.1824  0.1588
 6633WAT     H128337   4.598   6.222   0.821  0.5007 -1.8663 -1.0640
 6633WAT     H228338   4.452   6.185   0.807 -0.2366  0.1188  0.8950
 6633WAT    EPW28339   4.525   6.190   0.855  0.3333 -0.3650  0.0946
 6634WAT      O28340   6.083   8.193   0.294  0.3616 -0.0188 -0.5428
 6634WAT     H128341   6.059   8.165   0.382 -1.5545  0.2273 -0.9400
 6634WAT     H228342   6.127   8.117   0.255 -0.3614 -0.7411  0.0261
 6634WAT    EPW28343   6.086   8.179   0.300  0.0136 -0.0815 -0.5201
 6635WAT      O28344   2.707   4.368   8.616 -0.0031  0.3679  0.4350
 6635WAT     H128345   2.754   4.358   8.533  0.2730 -1.2130  0.7567
 6635WAT     H228346   2.634   4.427   8.594 -0.8394 -1.1947 -1.3505
 6635WAT    EPW28347   2.703   4.375   8.602 -0.0769 -0.0465  0.2418
 6636WAT      O28348  10.376   0.529   2.325 -0.2368  0.4345  0.8586
 6636WAT     H128349  10.341   0.562   2.408  2.9027  1.1396  2.0422
 6636WAT     H228350  10.346   0.438   2.321  0.1529  0.1256  3.2017
 6636WAT    EPW28351  10.367   0.521   2.336  0.2289  0.4868  1.3239
 6637WAT      O28352   7.346   8.959   1.658 -0.0821 -0.8092 -0.3256
 6637WAT     H128353   7.364   8.867   1.678 -2.4570 -1.6727 -1.7428
 6637WAT     H228354   7.267   8.980   1.709 -0.1918  0.0964 -0.8331
 6637WAT    EPW28355   7.338   8.950   1.667 -0.4098 -0.8030 -0.5795
 6638WAT      O28356   8.432   7.356   1.628  0.3612 -0.0180  0.7545
 6638WAT     H128357   8.464   7.337   1.539  0.4062 -0.9680  0.9603
 6638WAT     H228358   8.364   7.422   1.615 -0.9347 -1.4613 -0.2091
 6638WAT    EPW28359   8.427   7.362   1.614  0.1965 -0.3338  0.6545
 6639WAT      O28360   6.308   9.172   2.715  0.7189  0.4339 -1.1776
 6639WAT     H128361   6.324   9.254   2.668  1.8768  0.8096 -0.1766
 6639WAT     H228362   6.312   9.197   2.807  2.5954 -0.9860 -0.8235
 6639WAT    EPW28363   6.311   9.186   2.721  1.1191  0.2961 -0.9989
 6640WAT      O28364   9.004   2.179   1.044  0.4907  0.2725 -0.0543
 6640WAT     H128365   8.932   2.156   1.103  0.4755  1.1650  0.2985
 6640WAT     H228366   8.984   2.268   1.016  1.1555  0.3145 -0.4138
 6640WAT    EPW28367   8.992   2.188   1.048  0.5765  0.3958 -0.0552
 6641WAT      O28368   4.682   3.841   8.377 -0.1739  0.9210  0.4003
 6641WAT     H128369   4.759   3.896   8.395  0.8065 -0.6141  1.2106
 6641WAT     H228370   4.643   3.878   8.298  2.5120  0.6696 -1.1764
 6641WAT    EPW28371   4.687   3.853   8.369  0.3097  0.6853  0.2990
 6642WAT      O28372  10.767   2.867   1.415  0.3198  0.0502 -0.2631
 6642WAT     H128373  10.840   2.897   1.361 -0.5509 -0.1906 -1.6292
 6642WAT     H228374  10.710   2.943   1.424  1.2207  0.5498  1.7208
 6642WAT    EPW28375  10.769   2.881   1.409  0.3238  0.0843 -0.1816
 6643WAT      O28376   9.572   9.887   0.634  1.1054 -0.0802 -0.0959
 6643WAT     H128377   9.591   9.976   0.605 -2.6436 -0.0222 -3.3384
 6643WAT     H228378   9.486   9.892   0.675  1.1885 -2.0778  0.4562
 6643WAT    EPW28379   9.563   9.899   0.635  0.6218 -0.3362 -0.4507
 6644WAT      O28380   4.778   2.716   7.609 -0.3228 -0.2612 -0.4683
 6644WAT     H128381   4.733   2.753   7.533 -0.9556  1.6927  0.7803
 6644WAT     H228382   4.869   2.743   7.598 -0.4673  0.2745 -0.4165
 6644WAT    EPW28383   4.784   2.725   7.597 -0.4253  0.0671 -0.2966
 6645WAT      O28384   6.890   9.541   1.536  0.4184  0.5707  0.3361
 6645WAT     H128385   6.848   9.521   1.620  0.9113 -1.1364  0.1995
 6645WAT     H228386   6.828   9.509   1.471  1.2779 -0.7250  0.1171
 6645WAT    EPW28387   6.876   9.534   1.539  0.5968  0.1750  0.2891
 6646WAT      O28388   2.743   1.890   0.787  0.2592  0.5265 -0.0187
 6646WAT     H128389   2.833   1.863   0.803  0.5792  2.1912  1.2350
 6646WAT     H228390   2.693   1.808   0.787  1.7478 -0.4270 -0.7904
 6646WAT    EPW28391   2.748   1.876   0.789  0.4978  0.6203  0.0449
 6647WAT      O28392   6.026   8.800   1.846  0.0322 -0.1689  0.1419
 6647WAT     H128393   6.036   8.707   1.868 -2.3441 -0.4184  0.3595
 6647WAT     H228394   5.962   8.833   1.909 -0.7246  1.1056 -1.2326
 6647WAT    EPW28395   6.019   8.792   1.857 -0.3810 -0.0339 -0.0106
 6648WAT      O28396   4.217   5.729   7.847  0.2330  0.0348 -0.3521
 6648WAT     H128397   4.129   5.693   7.829 -1.2805  3.6236 -0.9282
 6648WAT     H228398   4.268   5.705   7.770 -0.8477 -0.3516 -0.9813
 6648WAT    EPW28399   4.212   5.721   7.834 -0.1092  0.4573 -0.5109
 6649WAT      O28400  10.664   0.403   2.316  0.7519  0.0057  0.1653
 6649WAT     H128401  10.614   0.323   2.310  1.8319 -0.7233  0.5340
 6649WAT     H228402  10.609   0.462   2.369  0.3816 -0.8377  0.7366
 6649WAT    EPW28403  10.650   0.400   2.322  0.8454 -0.2017  0.2892
 6650WAT      O28404   6.700   1.980   8.538  0.3306  0.0527 -0.6689
 6650WAT     H128405   6.631   1.926   8.498 -0.2318 -0.5017  0.9864
 6650WAT     H228406   6.781   1.937   8.512 -0.1257 -2.1939  1.3376
 6650WAT    EPW28407   6.701   1.967   8.529  0.1965 -0.3167 -0.1860
 6651WAT      O28408   8.558   4.559   7.914 -0.6308 -0.4366 -0.5839
 6651WAT     H128409   8.640   4.514   7.933 -0.5720  0.0988  0.4873
 6651WAT     H228410   8.490   4.500   7.946 -0.7044 -1.0259 -1.7582
 6651WAT    EPW28411   8.560   4.545   7.920 -0.6328 -0.4437 -0.5975
 6652WAT      O28412   9.886   0.768   1.045  0.8320  0.0220  0.1847
 6652WAT     H128413   9.864   0.740   1.134 -0.9836  1.2839  0.1892
 6652WAT     H228414   9.824   0.838   1.026  0.2801 -1.0831 -2.5557
 6652WAT    EPW28415   9.875   0.773   1.054  0.5198  0.0427 -0.1761
 6653WAT      O28416   3.783   7.409   2.620  0.3024  0.1870  0.1257
 6653WAT     H128417   3.877   7.400   2.639  0.6044 -2.9707 -2.1088
 6653WAT     H228418   3.740   7.388   2.703  1.4279  2.5763  1.4568
 6653WAT    EPW28419   3.790   7.405   2.634  0.4907  0.0856  0.0066
 6654WAT      O28420   4.766   8.757   8.849  0.1868 -0.3898 -0.0583
 6654WAT     H128421   4.732   8.813   8.918  1.5052  2.2240 -1.3839
 6654WAT     H228422   4.741   8.669   8.875 -2.1394  0.7836  2.0749
 6654WAT    EPW28423   4.759   8.753   8.861  0.0544  0.1092  0.0482
 6655WAT      O28424   9.142   9.419   3.291 -0.0785 -0.4743 -1.2822
 6655WAT     H128425   9.097   9.335   3.286 -1.5829 -0.0082  1.8631
 6655WAT     H228426   9.189   9.416   3.374  1.3196  1.1259 -1.9679
 6655WAT    EPW28427   9.142   9.408   3.301 -0.0925 -0.2022 -0.9577
 6656WAT      O28428   7.190   3.408   8.543  0.7792 -0.0556  0.1742
 6656WAT     H128429   7.223   3.498   8.533  1.4682 -0.0988  1.7817
 6656WAT     H228430   7.164   3.382   8.455  1.1097  1.5172 -0.4155
 6656WAT    EPW28431   7.191   3.417   8.530  0.9136  0.1460  0.3080
 6657WAT      O28432   9.958   9.136   1.334  0.2459 -0.5538 -0.2494
 6657WAT     H128433   9.885   9.192   1.363  0.6827 -1.0824  2.0510
 6657WAT     H228434  10.020   9.196   1.294 -0.0739  0.3818  0.6104
 6657WAT    EPW28435   9.956   9.151   1.333  0.2613 -0.4997  0.1674
 6658WAT      O28436   7.346   5.811   3.521  0.8736  0.0692  0.0780
 6658WAT     H128437   7.440   5.818   3.501  1.1004  0.8729  1.3171
 6658WAT     H228438   7.304   5.809   3.436  1.9509  0.8179 -0.4996
 6658WAT    EPW28439   7.353   5.811   3.507  1.0455  0.2739  0.1652
 6659WAT      O28440   2.157   4.099   0.903 -0.4936 -0.2503  0.4865
 6659WAT     H128441   2.104   4.151   0.843  0.8330  1.0430  0.3786
 6659WAT     H228442   2.243   4.140   0.900  0.9265 -3.0971 -0.3815
 6659WAT    EPW28443   2.161   4.111   0.895 -0.1312 -0.4549  0.3578
 6660WAT      O28444   5.016   9.661   1.986 -0.0063 -0.0430 -0.1875
 6660WAT     H128445   5.050   9.731   1.930  1.2611  2.6622  3.5139
 6660WAT     H228446   5.090   9.601   1.997 -0.6070 -1.2352 -2.1068
 6660WAT    EPW28447   5.030   9.662   1.980  0.0815  0.1564  0.0474
 6661WAT      O28448   8.821  10.104   1.710 -0.1970 -0.6518 -0.0128
 6661WAT     H128449   8.750  10.165   1.731  0.3123 -0.9556  3.0328
 6661WAT     H228450   8.899  10.159   1.706 -0.0820 -0.7894  0.3310
 6661WAT    EPW28451   8.822  10.119   1.712 -0.1149 -0.7105  0.4342
 6662WAT      O28452   3.737   4.734   7.206  0.0128  0.1482  1.0019
 6662WAT     H128453   3.792   4.808   7.235  0.4268  0.4029 -0.3654
 6662WAT     H228454   3.781   4.701   7.128 -0.7926 -0.8447  0.9524
 6662WAT    EPW28455   3.750   4.740   7.200 -0.0389  0.0510  0.8152
 6663WAT      O28456   3.538   9.291   0.175 -0.2407 -0.5783 -0.5872
 6663WAT     H128457   3.607   9.292   0.108 -0.0371  0.7918 -0.3911
 6663WAT     H228458   3.484   9.367   0.155 -0.5091 -0.4776  0.4646
 6663WAT    EPW28459   3.540   9.301   0.163 -0.2491 -0.3843 -0.4226
 6664WAT      O28460   4.740   2.452   8.421  0.2590  0.3443  0.0968
 6664WAT     H128461   4.805   2.443   8.491  0.6210  2.0268  0.0213
 6664WAT     H228462   4.751   2.542   8.390  0.8244 -0.6192 -2.8407
 6664WAT    EPW28463   4.750   2.463   8.426  0.3815  0.4390 -0.3009
 6665WAT      O28464   0.679   8.847   1.633  0.3027  0.0562 -0.4876
 6665WAT     H128465   0.746   8.811   1.575  1.2458  0.1032  0.5502
 6665WAT     H228466   0.673   8.939   1.610  1.7013  0.4016  0.4136
 6665WAT    EPW28467   0.687   8.854   1.622  0.6116  0.1078 -0.2319
 6666WAT      O28468   4.518   2.987   5.348  0.2434 -0.5803  0.5804
 6666WAT     H128469   4.523   3.073   5.306  2.9823 -0.5809  0.7140
 6666WAT     H228470   4.606   2.951   5.339 -0.0637 -2.1809  3.0275
 6666WAT    EPW28471   4.530   2.993   5.341  0.5641 -0.7913  0.9210
 6667WAT      O28472   2.660   4.697   8.690 -0.4563  0.2032 -0.2491
 6667WAT     H128473   2.581   4.647   8.669  0.4012 -1.1456 -0.3697
 6667WAT     H228474   2.690   4.660   8.773  1.5807 -1.2926 -1.5542
 6667WAT    EPW28475   2.654   4.685   8.698 -0.0744 -0.1719 -0.4377
 6668WAT      O28476   3.250   4.607   8.712  0.0192 -1.0381  0.1854
 6668WAT     H128477   3.212   4.558   8.785  1.4651 -2.8664 -0.2122
 6668WAT     H228478   3.294   4.541   8.659 -1.7258  0.0586 -2.8934
 6668WAT    EPW28479   3.251   4.592   8.715 -0.0203 -1.1344 -0.2732
 6669WAT      O28480   5.310   9.663   0.722 -0.4382 -0.9360  0.2903
 6669WAT     H128481   5.391   9.702   0.752  0.5002 -2.5826  0.0087
 6669WAT     H228482   5.334   9.574   0.696 -1.5507 -0.2992 -3.4402
 6669WAT    EPW28483   5.324   9.656   0.723 -0.4611 -1.0686 -0.2389
 6670WAT      O28484   0.558   1.706   1.862  0.2973  0.3847  0.0202
 6670WAT     H128485   0.477   1.722   1.912 -0.3778  1.2962 -1.2912
 6670WAT     H228486   0.620   1.769   1.897 -0.7849  2.4729 -1.5533
 6670WAT    EPW28487   0.555   1.717   1.873  0.0655  0.7803 -0.3604
 6671WAT      O28488   5.668  10.122   1.033 -0.0815  0.0110  0.9050
 6671WAT     H128489   5.749  10.125   1.083 -0.8973  1.0288  2.2298
 6671WAT     H228490   5.635  10.212   1.033 -0.0743  0.0878 -1.6081
 6671WAT    EPW28491   5.674  10.134   1.040 -0.1881  0.1550  0.7482
 6672WAT      O28492   2.096   2.625   5.827  0.0008  0.2531  0.0660
 6672WAT     H128493   2.185   2.661   5.824 -0.3479  1.1749  0.3883
 6672WAT     H228494   2.041   2.699   5.853 -0.9949 -0.0671 -1.0586
 6672WAT    EPW28495   2.101   2.639   5.830 -0.1767  0.3325 -0.0398
 6673WAT      O28496   2.570   2.868   7.730 -0.1629 -0.7420 -0.6739
 6673WAT     H128497   2.630   2.799   7.756  1.3340  0.5550 -0.5335
 6673WAT     H228498   2.622   2.948   7.734 -1.9816  0.4886 -0.2318
 6673WAT    EPW28499   2.585   2.870   7.734 -0.2053 -0.4086 -0.5972
 6674WAT      O28500   6.300  10.081   2.969  0.5096 -0.5375  0.1205
 6674WAT     H128501   6.262  10.067   2.882 -1.1875  0.6969  0.6022
 6674WAT     H228502   6.389  10.110   2.952  0.5595 -1.3623 -1.1599
 6674WAT    EPW28503   6.307  10.083   2.955  0.2925 -0.4835  0.0153
 6675WAT      O28504   6.701   1.601   2.955  0.3995  0.1261 -0.3856
 6675WAT     H128505   6.703   1.624   2.862  1.5100  0.7969 -0.2242
 6675WAT     H228506   6.661   1.677   2.998 -2.0260 -1.0072 -0.4782
 6675WAT    EPW28507   6.696   1.614   2.948  0.2260  0.0651 -0.3765
 6676WAT      O28508   5.551   2.565   8.708 -0.5599  0.5197  0.5748
 6676WAT     H128509   5.544   2.508   8.631 -2.4789 -2.0153  2.4482
 6676WAT     H228510   5.631   2.615   8.693  0.1617 -1.2101 -2.1760
 6676WAT    EPW28511   5.560   2.564   8.696 -0.7176 -0.0428  0.4592
 6677WAT      O28512   4.374   3.583   8.400 -0.0324 -0.3412 -0.4731
 6677WAT     H128513   4.463   3.566   8.370 -0.1811 -1.0920 -0.5217
 6677WAT     H228514   4.376   3.673   8.433  0.9952 -0.6968  0.4714
 6677WAT    EPW28515   4.386   3.593   8.400  0.0834 -0.4871 -0.3548
 6678WAT      O28516   5.403   8.952   1.530  0.4383  0.4075 -0.1729
 6678WAT     H128517   5.464   8.881   1.509  0.1385 -1.3421  3.8819
 6678WAT     H228518   5.344   8.955   1.455  1.7737 -2.1537 -1.4899
 6678WAT    EPW28519   5.403   8.943   1.518  0.5751 -0.1616  0.1882
 6679WAT      O28520   9.732   2.528   0.793  0.2650 -0.7976  0.1291
 6679WAT     H128521   9.750   2.622   0.786  0.1663 -0.7282  0.7523
 6679WAT     H228522   9.791   2.497   0.861 -0.9693 -0.8292  1.2276
 6679WAT    EPW28523   9.742   2.537   0.801  0.0892 -0.7927  0.3561
 6680WAT      O28524   6.910   9.306   3.021 -0.1678  0.1539 -0.2498
 6680WAT     H128525   6.889   9.389   3.064  0.2335 -0.7588  1.8057
 6680WAT     H228526   6.851   9.303   2.945 -1.2909  1.5944  0.5206
 6680WAT    EPW28527   6.900   9.317   3.017 -0.2627  0.2232  0.1230
 6681WAT      O28528   8.646   8.734   0.871  0.1139  0.6089 -0.0597
 6681WAT     H128529   8.731   8.688   0.868  0.0105  0.4420 -0.8292
 6681WAT     H228530   8.600   8.702   0.793 -0.4139  1.1662  0.0208
 6681WAT    EPW28531   8.651   8.724   0.860  0.0305  0.6604 -0.1506
 6682WAT      O28532   8.991   8.127   0.672  0.6406  0.2378  0.2405
 6682WAT     H128533   8.950   8.145   0.587  0.8848  2.0960  0.4818
 6682WAT     H228534   9.067   8.073   0.651  0.0847 -0.2421 -0.5974
 6682WAT    EPW28535   8.995   8.122   0.658  0.5994  0.4196  0.1618
 6683WAT      O28536   2.801   4.416   7.938 -0.3638  0.3621  0.4001
 6683WAT     H128537   2.854   4.427   7.859 -0.9406 -0.6407 -0.1354
 6683WAT     H228538   2.843   4.345   7.986 -0.4565  0.4615  0.6336
 6683WAT    EPW28539   2.813   4.408   7.934 -0.4522  0.2427  0.3600
 6684WAT      O28540   6.723   7.322   1.250 -0.1528 -0.0040 -0.0710
 6684WAT     H128541   6.792   7.259   1.228 -0.3907  0.3150 -1.8840
 6684WAT     H228542   6.642   7.271   1.248 -0.3112  0.2684 -1.2369
 6684WAT    EPW28543   6.722   7.307   1.247 -0.2053  0.0739 -0.4639
 6685WAT      O28544   2.782   0.075   0.359  0.5230 -0.4219  0.4305
 6685WAT     H128545   2.756   0.080   0.451 -0.4705 -2.1210  0.2883
 6685WAT     H228546   2.753   0.158   0.321 -0.3661 -0.2975  1.3433
 6685WAT    EPW28547   2.775   0.087   0.366  0.2747 -0.6296  0.5322
 6686WAT      O28548   6.838   6.927   1.360  0.4766 -0.3777  0.3526
 6686WAT     H128549   6.792   6.990   1.416  0.8661  0.2314 -0.0046
 6686WAT     H228550   6.884   6.870   1.421  0.4946 -0.0288  0.6703
 6686WAT    EPW28551   6.838   6.928   1.376  0.5302 -0.2513  0.3474
 6687WAT      O28552   5.073   8.414   1.301  0.7695 -0.0053 -0.6675
 6687WAT     H128553   5.009   8.433   1.232 -3.5986  0.0499  2.9621
 6687WAT     H228554   5.072   8.492   1.356  2.8264 -0.6804  0.4307
 6687WAT    EPW28555   5.064   8.427   1.299  0.4649 -0.0863 -0.0439
 6688WAT      O28556   9.143   0.540   0.069  0.6265  1.2351  0.0196
 6688WAT     H128557   9.200   0.566   0.142 -0.5111 -3.4929  3.0565
 6688WAT     H228558   9.068   0.499   0.111  0.3627 -2.8445 -3.7647
 6688WAT    EPW28559   9.141   0.538   0.084  0.4420  0.0734 -0.0790
 6689WAT      O28560  10.319   7.896   5.006  0.5378 -0.2610 -0.2967
 6689WAT     H128561  10.341   7.987   5.024  1.5571 -0.0051 -2.4383
 6689WAT     H228562  10.350   7.848   5.083 -0.9383  1.2510  1.3330
 6689WAT    EPW28563  10.326   7.901   5.018  0.4778 -0.0279 -0.3643
 6690WAT      O28564   9.501   9.371   4.508  0.1410  0.9968 -0.4763
 6690WAT     H128565   9.486   9.303   4.442  0.2510  0.5800 -0.0767
 6690WAT     H228566   9.418   9.419   4.512 -0.5733 -0.2607  0.5422
 6690WAT    EPW28567   9.488   9.369   4.500  0.0610  0.7763 -0.2894
 6691WAT      O28568   1.427   0.049   3.798 -0.2743 -0.8249  1.8693
 6691WAT     H128569   1.420  -0.036   3.755  0.4973 -0.4761  1.0110
 6691WAT     H228570   1.343   0.092   3.780  0.4027 -0.2692 -0.2843
 6691WAT    EPW28571   1.415   0.044   3.790 -0.0833 -0.7056  1.4721
 6692WAT      O28572   9.186   1.373   2.168 -0.2555 -0.4685  0.3632
 6692WAT     H128573   9.139   1.361   2.085 -0.2206 -2.5713  0.5826
 6692WAT     H228574   9.130   1.432   2.219 -0.7214  0.1418 -0.8322
 6692WAT    EPW28575   9.172   1.379   2.164 -0.3119 -0.6653  0.2344
 6693WAT      O28576   5.016   7.191   1.270  0.0983 -0.4376  0.4281
 6693WAT     H128577   5.110   7.174   1.263  0.1967  0.1246  0.2754
 6693WAT     H228578   4.987   7.203   1.180 -0.5055 -2.4528  0.3037
 6693WAT    EPW28579   5.025   7.190   1.257  0.0317 -0.6292  0.3916
 6694WAT      O28580   0.615   0.518   2.781  0.0246  0.0816 -0.1932
 6694WAT     H128581   0.630   0.457   2.853  0.5021  4.0122  3.4290
 6694WAT     H228582   0.521   0.512   2.764 -0.4195  0.1678  1.9566
 6694WAT    EPW28583   0.605   0.509   2.788  0.0291  0.6113  0.5682
 6695WAT      O28584   9.263   8.621   0.593  0.0732 -0.4206  0.3764
 6695WAT     H128585   9.217   8.538   0.584 -1.4587  0.4522 -0.3170
 6695WAT     H228586   9.331   8.605   0.658 -0.6821 -2.0018  0.8073
 6695WAT    EPW28587   9.266   8.608   0.600 -0.2284 -0.5140  0.3417
 6696WAT      O28588   7.927   8.396   0.941  0.7563 -0.1430  0.7878
 6696WAT     H128589   7.861   8.465   0.943 -1.0211 -1.6166 -1.3817
 6696WAT     H228590   8.005   8.439   0.907  0.5829  1.3763  2.2217
 6696WAT    EPW28591   7.929   8.410   0.936  0.4990 -0.1373  0.6908
 6697WAT      O28592   2.083   9.236   2.216  0.2087 -0.6672 -0.2001
 6697WAT     H128593   2.162   9.237   2.270  2.4448 -0.6751 -3.2013
 6697WAT     H228594   2.046   9.149   2.229  2.0550 -1.5384 -0.4329
 6697WAT    EPW28595   2.089   9.224   2.225  0.7472 -0.7830 -0.6267
 6698WAT      O28596   1.156   4.122   5.852 -0.3302 -0.3810  0.3911
 6698WAT     H128597   1.251   4.135   5.858 -0.3275 -0.5745  0.8744
 6698WAT     H228598   1.119   4.202   5.888 -0.3663  0.0067 -0.4784
 6698WAT    EPW28599   1.164   4.134   5.858 -0.3346 -0.3555  0.3400
 6699WAT      O28600   7.445   5.548   1.360  0.3267  0.1571  0.2983
 6699WAT     H128601   7.351   5.557   1.379 -0.7799 -3.0262 -2.7462
 6699WAT     H228602   7.483   5.516   1.442 -1.9196 -1.5971  0.7516
 6699WAT    EPW28603   7.438   5.545   1.374 -0.1154 -0.4942 -0.0435
 6700WAT      O28604  10.648   1.469   1.695  0.1569 -0.4452  0.2746
 6700WAT     H128605  10.704   1.483   1.772 -0.3435 -0.7847  0.7070
 6700WAT     H228606  10.574   1.528   1.709  0.0489 -0.5336  0.0709
 6700WAT    EPW28607  10.646   1.479   1.707  0.0768 -0.5016  0.3048
 6701WAT      O28608   6.042   9.157   1.864 -0.6318  0.5769  0.5190
 6701WAT     H128609   6.014   9.149   1.772 -1.5508 -1.2457  0.9132
 6701WAT     H228610   6.135   9.133   1.863 -0.7518  0.1212  0.1326
 6701WAT    EPW28611   6.051   9.153   1.852 -0.7689  0.2761  0.5201
 6702WAT      O28612  10.664   0.329   3.350 -0.6119 -0.1009  0.1906
 6702WAT     H128613  10.569   0.319   3.337 -0.4368 -1.6388 -0.0995
 6702WAT     H228614  10.671   0.381   3.431 -1.6850  0.8835 -0.3036
 6702WAT    EPW28615  10.652   0.335   3.359 -0.7305 -0.1739  0.0871
 6703WAT      O28616   2.185   2.307   8.157 -0.3847  0.4444 -0.3661
 6703WAT     H128617   2.165   2.215   8.172  1.2920  0.1484  0.1713
 6703WAT     H228618   2.200   2.343   8.244 -1.0170  1.2499 -0.5710
 6703WAT    EPW28619   2.184   2.300   8.171 -0.2469  0.5118 -0.3219
 6704WAT      O28620   5.545   4.097   7.378 -0.3872 -0.4006 -0.0354
 6704WAT     H128621   5.484   4.163   7.347  0.3319  0.4101  0.2360
 6704WAT     H228622   5.593   4.071   7.300 -0.7250 -0.6705 -0.1568
 6704WAT    EPW28623   5.543   4.102   7.364 -0.3369 -0.3293 -0.0155
 6705WAT      O28624   5.708   7.914   1.782 -0.1066  0.2340  0.0939
 6705WAT     H128625   5.756   7.896   1.863  0.7369  0.0438 -0.4378
 6705WAT     H228626   5.644   7.981   1.806  0.6477  0.7318  0.7412
 6705WAT    EPW28627   5.706   7.921   1.796  0.1040  0.2744  0.1091
 6706WAT      O28628   5.052   9.504   1.392  0.9872 -0.3347  0.1896
 6706WAT     H128629   5.131   9.450   1.395 -0.9938 -3.5389  0.2974
 6706WAT     H228630   5.033   9.525   1.483  1.1466 -0.5023  0.2609
 6706WAT    EPW28631   5.060   9.499   1.404  0.7472 -0.7796  0.2133
 6707WAT      O28632   4.509   3.908   8.133 -0.0809  0.6204 -0.0307
 6707WAT     H128633   4.450   3.859   8.076  3.6903 -3.2302 -1.1725
 6707WAT     H228634   4.551   3.972   8.075 -0.8785  1.2941  0.1033
 6707WAT    EPW28635   4.507   3.910   8.118  0.3114  0.2015 -0.1640
 6708WAT      O28636   6.635   7.172   2.005  0.3314  0.3976  0.3270
 6708WAT     H128637   6.585   7.105   1.957 -0.1121  1.0591 -0.1505
 6708WAT     H228638   6.612   7.156   2.097 -1.5367  1.2591  0.0642
 6708WAT    EPW28639   6.625   7.161   2.011  0.0265  0.5984  0.2295
 6709WAT      O28640   0.078   0.663   0.495  0.0619 -0.5339 -0.1415
 6709WAT     H128641   0.067   0.637   0.404  0.7098  2.0606 -1.0357
 6709WAT     H228642  -0.010   0.659   0.532 -0.5637  0.3653 -1.4702
 6709WAT    EPW28643   0.065   0.659   0.488  0.0649 -0.0731 -0.4347
 6710WAT      O28644   3.183   0.136   2.907 -0.3569 -0.6156  0.0862
 6710WAT     H128645   3.177   0.109   2.815  0.2297  1.4148 -0.6259
 6710WAT     H228646   3.144   0.224   2.908  0.6125 -0.1668  1.5586
 6710WAT    EPW28647   3.177   0.144   2.895 -0.1516 -0.2886  0.1864
 6711WAT      O28648   3.697   1.967   5.829  0.6251 -0.0289 -0.2921
 6711WAT     H128649   3.642   1.983   5.906 -0.2768 -0.9214 -0.7136
 6711WAT     H228650   3.646   1.905   5.777  1.4193  0.2174 -1.3945
 6711WAT    EPW28651   3.683   1.961   5.832  0.6108 -0.1142 -0.4930
 6712WAT      O28652   1.702   0.926   0.943 -0.2657  0.1588  0.8455
 6712WAT     H128653   1.633   0.906   0.880  0.6551 -2.8888  0.6584
 6712WAT     H228654   1.663   0.906   1.028 -0.3345  0.7178  0.9501
 6712WAT    EPW28655   1.688   0.921   0.946 -0.1533 -0.1695  0.8346
 6713WAT      O28656   0.074   1.761   2.203  0.0236 -0.5052  0.3022
 6713WAT     H128657   0.147   1.749   2.143  1.1696 -0.7456  1.6865
 6713WAT     H228658   0.048   1.852   2.190  2.5128  0.5288  1.8015
 6713WAT    EPW28659   0.080   1.772   2.193  0.5030 -0.4006  0.6826
 6714WAT      O28660   2.402   3.677   5.822 -0.3425  0.5820  0.2560
 6714WAT     H128661   2.393   3.593   5.777 -4.7604  0.7992  0.2727
 6714WAT     H228662   2.379   3.742   5.756 -0.6243  1.4433  1.1710
 6714WAT    EPW28663   2.398   3.675   5.807 -0.9624  0.7243  0.3788
 6715WAT      O28664   8.675   9.936   1.311 -0.3251  0.6697  0.8755
 6715WAT     H128665   8.592   9.982   1.298  0.1314  1.2083 -0.2066
 6715WAT     H228666   8.727   9.996   1.364 -1.1492 -0.3225  2.9221
 6715WAT    EPW28667   8.671   9.950   1.316 -0.3734  0.6099  1.0028
 6716WAT      O28668   8.474   0.909   1.546 -0.5125  0.1453  0.3156
 6716WAT     H128669   8.433   0.966   1.612 -0.4186  1.0209 -0.3523
 6716WAT     H228670   8.483   0.965   1.468 -1.5520 -1.1469 -0.7860
 6716WAT    EPW28671   8.470   0.924   1.544 -0.6371  0.0904  0.0821
 6717WAT      O28672   8.567  10.112   0.573 -0.4294  0.5001 -0.4674
 6717WAT     H128673   8.474  10.112   0.597  0.3905 -0.3185  3.2879
 6717WAT     H228674   8.580  10.028   0.529 -1.0133 -0.7035  1.5072
 6717WAT    EPW28675   8.556  10.101   0.570 -0.3986  0.2332  0.2883
 6718WAT      O28676  10.717   1.990   2.092  0.3513  0.9317 -0.4581
 6718WAT     H128677  10.690   1.908   2.134 -1.4098  0.5794 -2.1066
 6718WAT     H228678  10.724   1.968   1.999  4.8995  1.4859 -0.4568
 6718WAT    EPW28679  10.714   1.976   2.085  0.7186  0.9583 -0.6753
 6719WAT      O28680   9.652   9.520   4.312  0.6154  0.2895 -0.3061
 6719WAT     H128681   9.743   9.549   4.322 -0.1956  3.4712 -0.8344
 6719WAT     H228682   9.624   9.501   4.402  1.2580  1.2721  0.1297
 6719WAT    EPW28683   9.660   9.522   4.326  0.5927  0.8388 -0.3181
 6720WAT      O28684   0.942   7.225   8.801  0.1859  0.4286  0.0372
 6720WAT     H128685   0.993   7.152   8.835  0.6552  0.3058 -0.9060
 6720WAT     H228686   1.000   7.269   8.738 -0.8020  0.3683 -0.9542
 6720WAT    EPW28687   0.956   7.222   8.797  0.1175  0.4044 -0.2184
 6721WAT      O28688   7.498   2.781   8.513 -0.1433 -0.5044  0.1007
 6721WAT     H128689   7.462   2.870   8.510 -1.8569 -1.1740 -1.0841
 6721WAT     H228690   7.522   2.768   8.605  0.5433  1.3051  0.2182
 6721WAT    EPW28691   7.496   2.791   8.525 -0.2789 -0.3541 -0.0396
 6722WAT      O28692   2.024   2.409   0.306 -0.1082 -0.1500  0.2930
 6722WAT     H128693   2.090   2.424   0.238  0.1886  0.6875  0.7482
 6722WAT     H228694   1.949   2.462   0.278 -0.7913 -1.4523 -0.4613
 6722WAT    EPW28695   2.023   2.418   0.293 -0.1590 -0.2114  0.2536
 6723WAT      O28696   5.906   4.311   8.863  0.6406  0.2354  0.0897
 6723WAT     H128697   5.886   4.355   8.780 -0.9432 -1.1811 -0.3484
 6723WAT     H228698   5.837   4.244   8.871  0.6198  0.4879  2.6781
 6723WAT    EPW28699   5.894   4.308   8.853  0.4292  0.0818  0.3734
 6724WAT      O28700   1.333   0.103   2.232 -0.1827  0.3339 -0.2845
 6724WAT     H128701   1.376   0.035   2.283 -2.1046 -0.0173  0.9836
 6724WAT     H228702   1.254   0.124   2.282 -1.6572  0.6904 -2.5827
 6724WAT    EPW28703   1.328   0.097   2.245 -0.6307  0.3346 -0.4203
 6725WAT      O28704   1.422   1.576   2.997  0.1278  0.5039  0.5220
 6725WAT     H128705   1.438   1.543   3.086  0.8102  1.4760  0.7875
 6725WAT     H228706   1.503   1.624   2.976 -0.0429  0.2964 -0.6174
 6725WAT    EPW28707   1.435   1.578   3.006  0.1953  0.6047  0.4067
 6726WAT      O28708   4.315   2.262   8.721  0.0054 -0.6090 -0.3628
 6726WAT     H128709   4.393   2.247   8.776  0.1720  1.7104  0.1393
 6726WAT     H228710   4.253   2.304   8.780 -0.8551 -0.5528 -1.2912
 6726WAT    EPW28711   4.317   2.266   8.736 -0.0861 -0.2958 -0.4191
 6727WAT      O28712   1.166   0.269   0.281 -0.7528  0.2985  0.6126
 6727WAT     H128713   1.109   0.266   0.204 -0.5119 -3.9943  0.3608
 6727WAT     H228714   1.106   0.253   0.355 -0.4727  0.1949  0.8189
 6727WAT    EPW28715   1.151   0.266   0.281 -0.6840 -0.2814  0.6066
 6728WAT      O28716   2.407   1.846   0.643  0.5535 -0.3415  0.1253
 6728WAT     H128717   2.370   1.884   0.723 -0.2651 -2.7656  0.9756
 6728WAT     H228718   2.331   1.831   0.587  0.5842 -2.2924  0.5391
 6728WAT    EPW28719   2.392   1.849   0.646  0.4497 -0.9186  0.2920
 6729WAT      O28720   3.433   4.783   8.605  0.1328 -0.6693  0.1615
 6729WAT     H128721   3.514   4.748   8.568  0.7181  0.4917  0.3031
 6729WAT     H228722   3.398   4.712   8.659  0.2028 -1.7491 -1.1582
 6729WAT    EPW28723   3.439   4.769   8.607  0.2192 -0.6588  0.0062
 6730WAT      O28724   4.172   5.249   7.719  0.0508 -0.0471  0.1894
 6730WAT     H128725   4.243   5.250   7.783 -0.6344 -0.0209  0.9643
 6730WAT     H228726   4.152   5.156   7.706 -0.2659 -0.0304  0.5369
 6730WAT    EPW28727   4.179   5.237   7.725 -0.0813 -0.0415  0.3376
 6731WAT      O28728   3.439   5.216   7.221  0.5217  0.0210 -0.2137
 6731WAT     H128729   3.434   5.151   7.151  2.3330 -0.8126  0.3689
 6731WAT     H228730   3.351   5.220   7.257  0.1872 -1.5387 -0.7994
 6731WAT    EPW28731   3.427   5.208   7.217  0.7166 -0.2947 -0.2139
 6732WAT      O28732   7.762   1.542   0.246  0.3585  0.5799  0.2237
 6732WAT     H128733   7.685   1.554   0.303  0.3397  3.6717 -0.2441
 6732WAT     H228734   7.820   1.485   0.296 -2.0389 -1.5929  0.7301
 6732WAT    EPW28735   7.760   1.536   0.260  0.0398  0.7011  0.2288
 6733WAT      O28736   6.037   6.461   2.058  0.4915 -0.2896 -0.0130
 6733WAT     H128737   6.112   6.437   2.113  0.1575 -1.4105 -0.0182
 6733WAT     H228738   6.075   6.479   1.972  0.8490  0.0378  0.2080
 6733WAT    EPW28739   6.052   6.460   2.054  0.4947 -0.3943  0.0154
 6734WAT      O28740   2.787   5.677   7.904  0.5419  0.0658 -0.0682
 6734WAT     H128741   2.733   5.744   7.862 -2.0158 -0.7510  1.6317
 6734WAT     H228742   2.869   5.722   7.925 -0.6859  2.3951  0.0883
 6734WAT    EPW28743   2.790   5.692   7.901  0.0427  0.2651  0.1762
 6735WAT      O28744   7.069   6.544   1.289  0.2687 -0.1871  0.3943
 6735WAT     H128745   7.034   6.487   1.220  1.6111  1.7664 -2.0900
 6735WAT     H228746   7.073   6.631   1.248  4.2948  0.4675  1.6958
 6735WAT    EPW28747   7.065   6.548   1.274  0.9770  0.1569  0.2382
 6736WAT      O28748   1.057   9.841   1.303  0.0793  0.2783 -0.3159
 6736WAT     H128749   1.145   9.863   1.275 -0.1338 -1.9910 -3.1805
 6736WAT     H228750   1.000   9.880   1.237 -1.0968  1.2583  1.2023
 6736WAT    EPW28751   1.061   9.849   1.291 -0.1038  0.1082 -0.4934
 6737WAT      O28752   7.022  10.057   0.427  0.4125  0.2324 -0.4954
 6737WAT     H128753   6.935  10.077   0.393  1.1267  0.2183 -2.4600
 6737WAT     H228754   7.006  10.021   0.515 -1.6447 -0.9985 -1.3044
 6737WAT    EPW28755   7.008  10.055   0.434  0.2356  0.0687 -0.8612
 6738WAT      O28756   1.380   0.089   1.477  0.2939 -0.5121  0.0779
 6738WAT     H128757   1.357   0.078   1.569 -1.2439 -1.1599 -0.3448
 6738WAT     H228758   1.316   0.153   1.444  0.0376 -1.1946 -0.8022
 6738WAT    EPW28759   1.368   0.096   1.484  0.0573 -0.6875 -0.0939
 6739WAT      O28760   4.086   4.627   7.580  0.4804  0.1115  0.7027
 6739WAT     H128761   4.079   4.577   7.499 -2.6370  0.8970  0.3306
 6739WAT     H228762   4.179   4.649   7.587  1.0750 -1.1424 -1.9161
 6739WAT    EPW28763   4.097   4.623   7.570  0.1476  0.0498  0.3083
 6740WAT      O28764   0.804   2.932   0.880  0.3792 -0.4869  0.7604
 6740WAT     H128765   0.826   2.929   0.973  2.8805 -0.2676  0.2442
 6740WAT     H228766   0.887   2.916   0.835 -0.4348  0.9861 -1.4439
 6740WAT    EPW28767   0.818   2.929   0.886  0.6017 -0.2636  0.4016
 6741WAT      O28768   1.129   3.452   6.617  0.3045  0.5643 -0.5330
 6741WAT     H128769   1.039   3.480   6.598  0.3894  0.0307 -1.7801
 6741WAT     H228770   1.175   3.533   6.638  0.5353  1.5060 -4.0420
 6741WAT    EPW28771   1.123   3.466   6.617  0.3462  0.6181 -1.1601
 6742WAT      O28772   7.291   6.391   1.949 -0.3666  0.1444 -0.0771
 6742WAT     H128773   7.265   6.466   2.002 -2.2090 -0.1245 -0.5366
 6742WAT     H228774   7.245   6.316   1.988  0.2446 -0.4847 -0.5364
 6742WAT    EPW28775   7.282   6.391   1.961 -0.5288  0.0260 -0.1984
 6743WAT      O28776   5.298   3.104   8.803 -0.5210  0.4278 -0.0587
 6743WAT     H128777   5.223   3.095   8.863 -3.3258 -1.6535 -3.4936
 6743WAT     H228778   5.277   3.182   8.751 -1.6781 -1.3933 -2.5304
 6743WAT    EPW28779   5.285   3.113   8.804 -1.0438 -0.0868 -0.8383
 6744WAT      O28780   1.164   5.157   5.727  0.4597 -0.0984  0.5113
 6744WAT     H128781   1.217   5.211   5.786 -0.8532  1.4248  0.3565
 6744WAT     H228782   1.186   5.067   5.751  2.5758  0.4717  0.9146
 6744WAT    EPW28783   1.174   5.152   5.738  0.5656  0.1779  0.5441
 6745WAT      O28784   3.907   6.954   7.852  0.3117  0.4074  0.5566
 6745WAT     H128785   3.960   6.910   7.785 -3.3404 -2.0642 -1.0770
 6745WAT     H228786   3.863   7.024   7.804 -0.4762  0.2059  0.9790
 6745WAT    EPW28787   3.908   6.958   7.837 -0.2739  0.0551  0.3970
 6746WAT      O28788   5.330  10.310   0.418 -0.4110 -0.1774  0.2398
 6746WAT     H128789   5.301  10.372   0.351 -0.0550 -0.5748 -0.2821
 6746WAT     H228790   5.373  10.365   0.484  1.8467 -0.0400 -1.2333
 6746WAT    EPW28791   5.332  10.326   0.418 -0.0663 -0.2117 -0.0234
 6747WAT      O28792  10.895   0.011   3.142  0.2701  0.5463  0.2357
 6747WAT     H128793  10.908   0.095   3.187  1.0280  1.1493 -1.0216
 6747WAT     H228794  10.830  -0.035   3.195  1.5391  0.9477  2.2350
 6747WAT    EPW28795  10.888   0.016   3.155  0.5372  0.6785  0.3335
 6748WAT      O28796   5.981   8.278   1.745  0.2512 -0.0061  0.4974
 6748WAT     H128797   5.967   8.218   1.819 -0.6286 -0.7033 -0.2084
 6748WAT     H228798   5.893   8.310   1.723  0.6476  1.0984  0.4916
 6748WAT    EPW28799   5.967   8.274   1.752  0.1876  0.0482  0.4035
 6749WAT      O28800   1.715   4.505   7.909 -0.0007 -0.2204  0.0697
 6749WAT     H128801   1.693   4.415   7.884  0.5590 -0.0165 -1.1766
 6749WAT     H228802   1.810   4.505   7.916  0.1175  0.6070 -1.3040
 6749WAT    EPW28803   1.724   4.493   7.907  0.0887 -0.0844 -0.2761
 6750WAT      O28804   5.693   8.441   1.724  0.1655 -0.2887 -0.5088
 6750WAT     H128805   5.633   8.367   1.713  1.7871 -1.3429 -3.2187
 6750WAT     H228806   5.713   8.470   1.635  0.6141  2.6465  0.4139
 6750WAT    EPW28807   5.688   8.435   1.711  0.4385 -0.0401 -0.7445
 6751WAT      O28808   8.051   6.730   6.961 -0.4056  0.0662  0.1700
 6751WAT     H128809   7.977   6.685   6.920  1.3883 -1.1619 -1.9729
 6751WAT     H228810   8.056   6.814   6.916  0.6566 -0.6808 -1.2094
 6751WAT    EPW28811   8.042   6.735   6.949 -0.0291 -0.1945 -0.2944
 6752WAT      O28812   0.929   6.491   8.644  0.1969 -0.3480 -0.0133
 6752WAT     H128813   0.984   6.429   8.597  0.9218  0.9716 -0.9437
 6752WAT     H228814   0.859   6.436   8.682  1.2406 -1.8235 -0.1248
 6752WAT    EPW28815   0.927   6.475   8.643  0.4301 -0.3686 -0.1502
 6753WAT      O28816   5.249   8.475   0.572  0.0527  0.0135  0.4927
 6753WAT     H128817   5.229   8.567   0.584 -0.4970 -0.0079 -0.2134
 6753WAT     H228818   5.319   8.474   0.506  1.5628  0.0183  2.0013
 6753WAT    EPW28819   5.256   8.487   0.565  0.1793  0.0114  0.5986
 6754WAT      O28820   6.149   4.297   8.662  0.1397  0.8531 -0.1082
 6754WAT     H128821   6.205   4.374   8.667  0.0175  0.8831  1.8202
 6754WAT     H228822   6.097   4.301   8.743 -0.5395 -0.7409 -0.4290
 6754WAT    EPW28823   6.149   4.308   8.673  0.0339  0.6468  0.1035
 6755WAT      O28824   1.689   2.644   2.309 -0.4156 -0.4848  0.0342
 6755WAT     H128825   1.654   2.559   2.335  1.2346 -0.7865  1.4938
 6755WAT     H228826   1.703   2.690   2.392 -1.2729  1.2270 -0.7280
 6755WAT    EPW28827   1.686   2.639   2.323 -0.3110 -0.2989  0.1262
 6756WAT      O28828   2.778   5.932   7.442 -0.4397 -0.1345  0.4309
 6756WAT     H128829   2.856   5.903   7.394 -0.9696 -1.8066  0.5129
 6756WAT     H228830   2.813   5.971   7.522  0.3775  1.1408 -0.5006
 6756WAT    EPW28831   2.793   5.933   7.446 -0.4017 -0.1869  0.3188
 6757WAT      O28832   2.169   3.606   8.104 -0.6249 -0.5877 -0.6499
 6757WAT     H128833   2.162   3.646   8.191 -1.9984 -0.7352 -0.6699
 6757WAT     H228834   2.263   3.601   8.088 -0.3789  1.5824 -0.1849
 6757WAT    EPW28835   2.181   3.610   8.114 -0.7734 -0.3209 -0.5913
 6758WAT      O28836   6.925   8.371   3.270  0.1356  0.0551  0.4616
 6758WAT     H128837   6.911   8.280   3.296 -2.1791  0.1155 -0.3414
 6758WAT     H228838   6.958   8.364   3.180  0.3771  0.0225  0.5499
 6758WAT    EPW28839   6.928   8.358   3.261 -0.1380  0.0587  0.3673
 6759WAT      O28840   6.840   8.691   0.885 -0.6490 -0.2484  1.3034
 6759WAT     H128841   6.872   8.734   0.964 -3.3696  2.1804  1.2555
 6759WAT     H228842   6.880   8.740   0.813 -0.5939 -0.4341  1.2084
 6759WAT    EPW28843   6.849   8.703   0.886 -1.0004  0.0467  1.2845
 6760WAT      O28844  10.537   0.779   4.239 -0.1637  0.1143  0.0668
 6760WAT     H128845  10.445   0.766   4.217 -0.5221 -2.0261  2.4863
 6760WAT     H228846  10.536   0.834   4.317  0.7522  1.3278 -0.7191
 6760WAT    EPW28847  10.525   0.785   4.246 -0.0906 -0.0080  0.2823
 6761WAT      O28848   9.404   9.166   0.218 -0.2320 -0.3207 -0.0671
 6761WAT     H128849   9.337   9.127   0.273 -0.0390 -1.0722 -0.3605
 6761WAT     H228850   9.356   9.225   0.159 -0.6128 -0.7233 -0.1612
 6761WAT    EPW28851   9.389   9.169   0.217 -0.2565 -0.4725 -0.1182
 6762WAT      O28852   6.342   8.991   0.301  0.6172  0.7462  0.3585
 6762WAT     H128853   6.326   9.066   0.359 -3.2823 -0.7948  1.6315
 6762WAT     H228854   6.313   8.915   0.351 -0.1874 -1.0373 -2.5164
 6762WAT    EPW28855   6.336   8.991   0.315 -0.0033  0.3080  0.1473
 6763WAT      O28856   0.458   0.736   0.813 -0.3728 -0.3186 -0.0056
 6763WAT     H128857   0.455   0.829   0.835 -2.0221 -0.3255 -0.0742
 6763WAT     H228858   0.550   0.713   0.821 -0.1223  0.9752  1.4298
 6763WAT    EPW28859   0.469   0.746   0.817 -0.5573 -0.1489  0.1746
 6764WAT      O28860   1.592   2.185   8.658 -0.6779 -0.1131 -0.0634
 6764WAT     H128861   1.637   2.269   8.642 -0.4706 -0.2661 -0.3058
 6764WAT     H228862   1.640   2.146   8.731  0.5252 -0.9318 -1.2428
 6764WAT    EPW28863   1.604   2.191   8.665 -0.4920 -0.2414 -0.2513
 6765WAT      O28864  10.956   8.620   1.592  0.5186 -0.0967 -0.8801
 6765WAT     H128865  10.954   8.606   1.686 -0.7272 -0.6478 -0.9622
 6765WAT     H228866  10.865   8.639   1.569  1.0032  1.3077 -1.7916
 6765WAT    EPW28867  10.943   8.621   1.601  0.4182  0.0157 -1.0112
 6766WAT      O28868   6.575  10.303   2.383  0.6013  0.0777 -0.5713
 6766WAT     H128869   6.660  10.344   2.401  0.5317 -0.4085  0.9809
 6766WAT     H228870   6.582  10.272   2.292  2.0114  0.2154 -0.5261
 6766WAT    EPW28871   6.587  10.304   2.373  0.7777  0.0319 -0.3606
 6767WAT      O28872   6.507   9.920   0.795  0.0500 -0.0839  0.1225
 6767WAT     H128873   6.455   9.859   0.847 -1.2207  0.5780 -0.3326
 6767WAT     H228874   6.445   9.989   0.770  1.6393  1.9333  1.4266
 6767WAT    EPW28875   6.492   9.921   0.798  0.0920  0.2699  0.2345
 6768WAT      O28876   5.165   4.381   8.863 -0.0260  0.4683  0.4332
 6768WAT     H128877   5.156   4.428   8.945  0.4350  2.5645 -0.6451
 6768WAT     H228878   5.076   4.368   8.832 -0.1704  0.3767  0.8819
 6768WAT    EPW28879   5.152   4.385   8.869  0.0157  0.7327  0.3500
 6769WAT      O28880  10.162   0.135   1.634  0.3004  0.4223  0.2053
 6769WAT     H128881  10.116   0.075   1.694  0.3926 -0.0446 -0.1897
 6769WAT     H228882  10.165   0.218   1.682  1.4882 -0.2693  1.3722
 6769WAT    EPW28883  10.156   0.138   1.649  0.4692  0.2695  0.3071
 6770WAT      O28884   5.864   3.190   8.971  0.2683 -0.2977 -0.2176
 6770WAT     H128885   5.918   3.263   8.942  4.0177 -0.6868  4.5277
 6770WAT     H228886   5.817   3.224   9.048 -0.5784 -1.9882  0.0577
 6770WAT    EPW28887   5.865   3.204   8.977  0.6509 -0.5717  0.4445
 6771WAT      O28888   5.633   9.045   4.914  0.2525 -0.1446 -0.4380
 6771WAT     H128889   5.683   9.079   4.987  0.7096 -1.7609  0.0422
 6771WAT     H228890   5.694   9.046   4.840  0.6362 -0.9585 -0.1469
 6771WAT    EPW28891   5.648   9.049   4.914  0.3633 -0.4654 -0.3364
 6772WAT      O28892   7.625   9.004   3.306  0.5093  0.2036  0.8501
 6772WAT     H128893   7.685   9.049   3.247 -1.9451  1.3930 -0.9366
 6772WAT     H228894   7.634   8.911   3.284 -0.1579  0.5949 -1.3163
 6772WAT    EPW28895   7.634   8.997   3.295  0.0975  0.4120  0.3287
 6773WAT      O28896   0.679   3.357   1.337  0.4161 -0.1316 -0.1414
 6773WAT     H128897   0.652   3.434   1.287 -3.8015  0.5617  2.6293
 6773WAT     H228898   0.717   3.393   1.417 -0.4425 -0.8797  0.6301
 6773WAT    EPW28899   0.680   3.372   1.341 -0.2535 -0.1388  0.3259
 6774WAT      O28900   9.320   3.133   2.911 -0.6040 -0.4590 -0.1806
 6774WAT     H128901   9.237   3.173   2.938 -0.3493 -0.6346  0.9438
 6774WAT     H228902   9.349   3.186   2.837 -1.8042 -0.5149 -0.7096
 6774WAT    EPW28903   9.313   3.145   2.905 -0.7286 -0.4895 -0.1020
 6775WAT      O28904   8.601   9.475   4.169 -0.2046 -0.4781  0.3096
 6775WAT     H128905   8.554   9.539   4.115 -0.8135 -0.9569  0.2601
 6775WAT     H228906   8.684   9.463   4.124 -0.2518 -0.0360  0.0914
 6775WAT    EPW28907   8.606   9.482   4.156 -0.2913 -0.4826  0.2744
 6776WAT      O28908   7.510   9.473   0.112  0.0244  0.6558  0.3780
 6776WAT     H128909   7.448   9.415   0.156  0.6522 -1.3383 -1.1821
 6776WAT     H228910   7.457   9.519   0.046 -0.0671  0.0204  0.0009
 6776WAT    EPW28911   7.495   9.472   0.109  0.0951  0.3085  0.1225
 6777WAT      O28912   8.587   0.176   0.152  0.5244 -1.0002 -0.9139
 6777WAT     H128913   8.669   0.126   0.143  1.7430  0.4818  0.9971
 6777WAT     H228914   8.615   0.262   0.184 -1.7890 -0.4365 -0.2109
 6777WAT    EPW28915   8.602   0.181   0.155  0.3800 -0.7304 -0.5691
 6778WAT      O28916   1.348   4.367   5.909 -0.2764  0.3478 -0.5392
 6778WAT     H128917   1.394   4.431   5.963 -1.4533  0.4804  0.3430
 6778WAT     H228918   1.371   4.282   5.947 -1.4862  0.4654  0.5199
 6778WAT    EPW28919   1.357   4.364   5.921 -0.5912  0.3810 -0.2830
 6779WAT      O28920   3.517   5.097   8.884 -0.0895  0.6932  0.4284
 6779WAT     H128921   3.523   5.142   8.968 -0.0292  0.2178  0.6851
 6779WAT     H228922   3.424   5.105   8.859 -0.8681 -1.8784  2.1008
 6779WAT    EPW28923   3.505   5.104   8.892 -0.1842  0.2913  0.6824
 6780WAT      O28924   8.126  10.123   0.792  0.2978 -0.2347  0.2709
 6780WAT     H128925   8.099  10.062   0.859 -1.2241  0.0829 -0.0177
 6780WAT     H228926   8.127  10.208   0.836 -1.4293  0.0886 -0.2310
 6780WAT    EPW28927   8.123  10.126   0.806 -0.1307 -0.1502  0.1667
 6781WAT      O28928   3.205   4.968   8.538 -0.5028  0.5793  0.2078
 6781WAT     H128929   3.291   4.926   8.542 -0.3355  0.6266 -1.7438
 6781WAT     H228930   3.143   4.895   8.540 -0.2251  0.1360 -2.8119
 6781WAT    EPW28931   3.209   4.953   8.539 -0.4442  0.5271 -0.4478
 6782WAT      O28932   3.491   3.001   6.152 -0.7826 -0.6249  0.2349
 6782WAT     H128933   3.570   3.050   6.130 -1.0113 -0.3619 -0.0120
 6782WAT     H228934   3.457   2.970   6.067 -0.2644 -1.8106  0.4374
 6782WAT    EPW28935   3.497   3.003   6.138 -0.7445 -0.7466  0.2291
 6783WAT      O28936   9.810   0.871   3.452 -0.2987  0.0269  0.1329
 6783WAT     H128937   9.792   0.957   3.415  0.3734  1.1619  2.2477
 6783WAT     H228938   9.723   0.832   3.464 -0.5402 -0.2074 -2.1071
 6783WAT    EPW28939   9.796   0.877   3.449 -0.2422  0.1457  0.1163
 6784WAT      O28940   8.637   1.162   2.723 -0.0101  0.6252  0.0386
 6784WAT     H128941   8.690   1.082   2.716  1.6685  1.8132 -3.0347
 6784WAT     H228942   8.625   1.174   2.817  2.1625 -1.6789  0.7561
 6784WAT    EPW28943   8.643   1.153   2.734  0.4978  0.4780 -0.2720
 6785WAT      O28944   5.523   7.539   3.802 -0.5616 -0.2432 -0.0543
 6785WAT     H128945   5.471   7.605   3.849  2.4001  1.6444  0.7968
 6785WAT     H228946   5.485   7.456   3.829 -1.6147  0.9371  2.4099
 6785WAT    EPW28947   5.511   7.537   3.812 -0.3097  0.1612  0.3830
 6786WAT      O28948  10.383   0.055   2.092  0.1786  0.1635  0.7238
 6786WAT     H128949  10.451   0.037   2.158 -0.6945 -1.4689  1.2353
 6786WAT     H228950  10.334  -0.027   2.086  0.7295 -0.0463 -2.5979
 6786WAT    EPW28951  10.385   0.042   2.100  0.1364 -0.0795  0.3531
 6787WAT      O28952   3.445   1.530   8.349 -0.6008 -1.0836  0.0166
 6787WAT     H128953   3.496   1.610   8.366 -0.3827 -1.3770  0.7669
 6787WAT     H228954   3.354   1.558   8.353 -0.5127 -0.6854 -0.6685
 6787WAT    EPW28955   3.440   1.544   8.352 -0.5604 -1.0697  0.0253
 6788WAT      O28956   6.572   6.758   1.662  0.1659 -0.2860  0.0867
 6788WAT     H128957   6.613   6.808   1.591  0.1126 -2.4754 -1.5744
 6788WAT     H228958   6.637   6.691   1.685 -0.3315 -0.3864  1.2646
 6788WAT    EPW28959   6.586   6.756   1.656  0.0932 -0.5879  0.0229
 6789WAT      O28960   4.356   3.853   8.509 -0.8957  0.4417  0.8550
 6789WAT     H128961   4.417   3.927   8.522 -1.6381  1.5011 -1.1654
 6789WAT     H228962   4.309   3.876   8.428 -1.4499 -2.0756  0.4001
 6789WAT    EPW28963   4.358   3.866   8.500 -1.0669  0.2493  0.5288
 6790WAT      O28964   3.408   3.583   8.935  0.6300 -0.9835  0.1833
 6790WAT     H128965   3.439   3.634   9.010 -1.0779 -1.9082  1.5858
 6790WAT     H228966   3.380   3.649   8.871  0.6804 -0.1658  0.9862
 6790WAT    EPW28967   3.409   3.599   8.936  0.4115 -0.9975  0.4740
 6791WAT      O28968   8.271   8.322   1.067 -0.5415  0.2589  0.3934
 6791WAT     H128969   8.228   8.237   1.067  0.4002 -0.2493  1.0316
 6791WAT     H228970   8.231   8.370   0.996 -1.1005 -0.7233  0.0269
 6791WAT    EPW28971   8.260   8.317   1.058 -0.4911  0.0629  0.4293
 6792WAT      O28972   6.457   6.785   4.326  0.2975  0.3749 -0.3595
 6792WAT     H128973   6.426   6.741   4.405 -0.3540  0.8240 -0.3565
 6792WAT     H228974   6.381   6.785   4.267  0.2734  1.5089 -0.3480
 6792WAT    EPW28975   6.443   6.779   4.329  0.2086  0.5834 -0.3576
 6793WAT      O28976   0.195   0.936   3.506 -0.7380 -0.4313  0.4149
 6793WAT     H128977   0.140   0.873   3.552 -1.5551  0.4619  0.6905
 6793WAT     H228978   0.135   1.004   3.477  0.0565 -0.0017 -0.2971
 6793WAT    EPW28979   0.180   0.937   3.508 -0.7410 -0.2568  0.3574
 6794WAT      O28980   2.979   5.993   8.835 -0.0131  0.8140  0.3422
 6794WAT     H128981   3.061   5.949   8.815  0.1873  1.4093 -0.2038
 6794WAT     H228982   2.978   6.069   8.776 -0.7162  1.0895  0.6952
 6794WAT    EPW28983   2.990   5.997   8.825 -0.0794  0.9289  0.3171
 6795WAT      O28984   3.774   0.641   2.086 -0.5115  0.0380  0.4583
 6795WAT     H128985   3.782   0.652   1.991 -1.0811 -1.1819  0.2376
 6795WAT     H228986   3.685   0.671   2.106  0.0982  1.6676  0.8629
 6795WAT    EPW28987   3.763   0.646   2.076 -0.5062  0.0920  0.4827
 6796WAT      O28988   0.519   4.869   7.627 -0.2434  0.2461  0.2223
 6796WAT     H128989   0.530   4.959   7.655  0.5453  0.4528 -0.6975
 6796WAT     H228990   0.591   4.821   7.669  0.0908  0.2888 -0.2950
 6796WAT    EPW28991   0.530   4.874   7.636 -0.0953  0.2792  0.0329
 6797WAT      O28992   2.960   3.821   4.181 -0.0276  0.5064 -0.2134
 6797WAT     H128993   3.038   3.864   4.146  0.4530  1.1670  1.5990
 6797WAT     H228994   2.980   3.806   4.273 -1.4742 -0.6724 -0.0572
 6797WAT    EPW28995   2.973   3.824   4.188 -0.1551  0.4381  0.0463
 6798WAT      O28996   1.517   4.688   7.785  0.0702  0.6389  0.7594
 6798WAT     H128997   1.541   4.751   7.853 -0.6767  0.9871  0.7100
 6798WAT     H228998   1.565   4.609   7.807  1.6240  1.4420  0.4142
 6798WAT    EPW28999   1.527   4.686   7.797  0.1765  0.7908  0.7071
 6799WAT      O29000   8.797   7.179   0.291 -0.9283  0.5321  0.3797
 6799WAT     H129001   8.867   7.172   0.356 -0.7193  1.0437  0.2094
 6799WAT     H229002   8.755   7.092   0.292 -0.7566  0.4503  0.9993
 6799WAT    EPW29003   8.801   7.167   0.300 -0.8783  0.5889  0.4390
 6800WAT      O29004   3.035   5.185   8.488 -0.9312  0.2242  0.2542
 6800WAT     H129005   2.960   5.181   8.548  2.1035  0.5836  4.5787
 6800WAT     H229006   3.098   5.123   8.524  1.6341  1.3879 -1.8800
 6800WAT    EPW29007   3.033   5.176   8.501 -0.1926  0.4253  0.5436
 6801WAT      O29008   3.803   9.267   1.671  0.2592  0.5911  0.4161
 6801WAT     H129009   3.870   9.276   1.739 -0.4047 -2.3971  1.6008
 6801WAT     H229010   3.843   9.210   1.605 -0.4568  0.3069  0.2206
 6801WAT    EPW29011   3.817   9.261   1.671  0.0772  0.1597  0.5467
 6802WAT      O29012   8.290   8.721   1.024 -0.2536 -0.1065 -0.7014
 6802WAT     H129013   8.198   8.747   1.036 -1.0691 -2.3447 -1.4588
 6802WAT     H229014   8.309   8.744   0.933 -1.2147 -2.5457 -1.6084
 6802WAT    EPW29015   8.280   8.727   1.013 -0.4883 -0.7238 -0.9209
 6803WAT      O29016   3.103   4.631   7.381 -0.5245 -0.0396  0.2934
 6803WAT     H129017   3.008   4.636   7.392 -0.4296 -0.0863  1.2468
 6803WAT     H229018   3.129   4.719   7.354 -0.7250  0.2452  1.0227
 6803WAT    EPW29019   3.094   4.643   7.379 -0.5383 -0.0079  0.5152
 6804WAT      O29020   8.567   7.158   1.179 -0.6100 -0.5078  0.2085
 6804WAT     H129021   8.490   7.176   1.233 -0.3417 -0.6543  0.6477
 6804WAT     H229022   8.629   7.116   1.239  0.0931  0.2639  0.0453
 6804WAT    EPW29023   8.565   7.154   1.194 -0.4816 -0.4256  0.2449
 6805WAT      O29024   8.751   8.433   4.268  0.2083 -0.3257 -0.4139
 6805WAT     H129025   8.710   8.353   4.302  0.1576  0.0393  0.3881
 6805WAT     H229026   8.687   8.502   4.285  1.4848  0.4255  1.7237
 6805WAT    EPW29027   8.737   8.431   4.275  0.3700 -0.1788 -0.0262
 6806WAT      O29028  10.035   1.746   2.138 -0.1569  0.6789  0.4059
 6806WAT     H129029  10.040   1.663   2.091 -1.8048  1.2517 -0.8602
 6806WAT     H229030  10.116   1.749   2.189  1.9760  0.1711 -2.6550
 6806WAT    EPW29031  10.046   1.735   2.139 -0.0930  0.6875 -0.1647
 6807WAT      O29032   2.570   6.667   8.773 -0.3266 -0.0031 -0.7857
 6807WAT     H129033   2.552   6.702   8.685  0.4463  1.2261 -0.4708
 6807WAT     H229034   2.622   6.734   8.816 -2.4072  0.3869  1.3666
 6807WAT    EPW29035   2.574   6.680   8.767 -0.4991  0.2103 -0.4601
 6808WAT      O29036   1.648   0.231   1.454  0.1793  0.8470  1.0601
 6808WAT     H129037   1.573   0.173   1.462 -0.0711  1.1249  0.7528
 6808WAT     H229038   1.713   0.179   1.407 -0.2820  1.0307  0.2045
 6808WAT    EPW29039   1.647   0.216   1.449  0.0854  0.9079  0.9067
 6809WAT      O29040   5.769   2.668   8.380  0.9241 -0.0197 -0.9604
 6809WAT     H129041   5.713   2.631   8.448  1.2340 -0.6875 -1.0664
 6809WAT     H229042   5.843   2.706   8.429 -0.7359  3.0526 -0.5912
 6809WAT    EPW29043   5.772   2.668   8.396  0.7460  0.2973 -0.9251
 6810WAT      O29044   7.751   8.179   0.759  0.4759  0.0955  0.2942
 6810WAT     H129045   7.715   8.114   0.819  0.0676 -0.9945 -1.0709
 6810WAT     H229046   7.829   8.212   0.803 -0.2091 -0.1272  1.7261
 6810WAT    EPW29047   7.756   8.174   0.773  0.3314 -0.0777  0.3030
 6811WAT      O29048  10.265   7.549   2.443  0.2526 -0.2535  0.2309
 6811WAT     H129049  10.298   7.469   2.483 -0.2175  0.4583  2.1687
 6811WAT     H229050  10.301   7.619   2.498  1.4944  0.9771 -1.9877
 6811WAT    EPW29051  10.274   7.548   2.455  0.3543  0.0026  0.1937
 6812WAT      O29052   2.048   0.955   0.760 -0.0328 -0.0487 -0.0835
 6812WAT     H129053   1.967   0.994   0.729 -0.1794  2.4733  2.9806
 6812WAT     H229054   2.117   1.011   0.724  0.0092  0.4996  0.7930
 6812WAT    EPW29055   2.047   0.968   0.751 -0.0467  0.3562  0.4362
 6813WAT      O29056   6.580   8.717   0.686 -0.7859  0.0083  0.2885
 6813WAT     H129057   6.509   8.672   0.640 -0.2642 -1.7076  1.0601
 6813WAT     H229058   6.598   8.662   0.762 -2.4379  3.3479  3.3618
 6813WAT    EPW29059   6.573   8.704   0.690 -0.9351  0.2217  0.7956
 6814WAT      O29060  10.762   3.173   4.445 -0.1285 -0.1747 -0.0825
 6814WAT     H129061  10.675   3.184   4.484 -0.8952 -0.3409 -1.7055
 6814WAT     H229062  10.798   3.262   4.441 -0.5705 -0.0022 -0.1996
 6814WAT    EPW29063  10.756   3.186   4.450 -0.2880 -0.1739 -0.3121
 6815WAT      O29064   8.851   9.887   0.537 -0.9130  0.1241  0.2057
 6815WAT     H129065   8.843   9.854   0.627  2.3063  0.5528  0.7751
 6815WAT     H229066   8.919   9.953   0.542  3.2610 -3.2731 -3.2521
 6815WAT    EPW29067   8.859   9.891   0.550  0.0625 -0.2675 -0.1752
 6816WAT      O29068   6.106   8.239   4.101  0.6861  0.1329 -0.6633
 6816WAT     H129069   6.065   8.207   4.021  0.0584 -0.8061  0.0095
 6816WAT     H229070   6.047   8.210   4.171  3.0629 -2.3975  0.4790
 6816WAT    EPW29071   6.093   8.231   4.100  0.9167 -0.3247 -0.4239
 6817WAT      O29072   7.340   8.462   2.014  0.1864  0.0129 -0.2125
 6817WAT     H129073   7.312   8.549   2.040 -4.3032 -0.5845 -2.1595
 6817WAT     H229074   7.302   8.403   2.079 -1.0253 -0.6902 -1.4869
 6817WAT    EPW29075   7.331   8.465   2.026 -0.5653 -0.1583 -0.6374
 6818WAT      O29076   2.126   1.917   3.121  0.2637  0.3991 -0.5977
 6818WAT     H129077   2.187   1.847   3.099 -0.1136 -0.0170 -0.3234
 6818WAT     H229078   2.180   1.997   3.118  0.8322  0.0310 -0.3101
 6818WAT    EPW29079   2.141   1.919   3.118  0.2890  0.2956 -0.5234
 6819WAT      O29080  10.507   0.503   0.937 -0.6794 -0.3571  0.1234
 6819WAT     H129081  10.520   0.500   0.843  3.7812  0.0715  0.5070
 6819WAT     H229082  10.534   0.417   0.969  0.0080  0.2105  1.1486
 6819WAT    EPW29083  10.512   0.491   0.929 -0.0010 -0.2258  0.3092
 6820WAT      O29084  10.705   0.821   0.890 -0.5692  0.1390 -0.3360
 6820WAT     H129085  10.619   0.810   0.850  0.1643 -1.9791 -1.5112
 6820WAT     H229086  10.710   0.751   0.955 -0.0773  0.8397  0.4021
 6820WAT    EPW29087  10.695   0.810   0.893 -0.4077 -0.0480 -0.3936
 6821WAT      O29088   2.732   5.303   7.532  0.1912 -0.9516  0.2521
 6821WAT     H129089   2.758   5.377   7.587 -1.5729 -0.2618  0.2363
 6821WAT     H229090   2.645   5.279   7.564 -0.9278 -0.4848 -2.2094
 6821WAT    EPW29091   2.724   5.310   7.543 -0.1891 -0.7992 -0.0749
 6822WAT      O29092  10.487   2.818   1.661  0.1602  0.3038  0.4259
 6822WAT     H129093  10.396   2.843   1.645  0.8776  2.5460 -0.5128
 6822WAT     H229094  10.529   2.897   1.694  2.1300 -0.1910 -0.7009
 6822WAT    EPW29095  10.481   2.831   1.663  0.5145  0.5344  0.1535
 6823WAT      O29096   0.756   2.352   0.698  0.0206 -0.1443 -0.3069
 6823WAT     H129097   0.830   2.330   0.642 -1.1261 -0.1320 -1.9158
 6823WAT     H229098   0.761   2.447   0.708 -0.0564 -0.0772 -0.8555
 6823WAT    EPW29099   0.766   2.362   0.692 -0.1408 -0.1336 -0.5915
 6824WAT      O29100   4.567   8.607   2.484  0.2048 -0.8275  0.0020
 6824WAT     H129101   4.560   8.671   2.413 -0.5851 -0.6008  0.2699
 6824WAT     H229102   4.539   8.655   2.562 -0.1395 -1.4296  0.2506
 6824WAT    EPW29103   4.562   8.622   2.485  0.0551 -0.8774  0.0703
 6825WAT      O29104   7.028   8.556   2.159 -0.3642 -0.2029 -0.2085
 6825WAT     H129105   7.013   8.631   2.102  0.5313 -0.4290 -0.7472
 6825WAT     H229106   7.047   8.595   2.245 -2.2673  0.1280  0.1182
 6825WAT    EPW29107   7.029   8.571   2.163 -0.4971 -0.1893 -0.2365
 6826WAT      O29108   8.136   8.956   2.246  0.5316 -0.0095 -0.5382
 6826WAT     H129109   8.157   8.973   2.155 -0.3938  0.1487 -0.7338
 6826WAT     H229110   8.092   8.871   2.245 -0.7826  0.6367 -0.4574
 6826WAT    EPW29111   8.133   8.947   2.234  0.2360  0.0973 -0.5533
 6827WAT      O29112   6.112   3.218   8.134  0.1297 -0.1675  0.2907
 6827WAT     H129113   6.023   3.191   8.157 -1.7105  1.3737 -3.9080
 6827WAT     H229114   6.122   3.306   8.169  0.3872 -0.6692  1.5080
 6827WAT    EPW29115   6.102   3.226   8.141 -0.0789 -0.0304 -0.1025
 6828WAT      O29116   4.768   3.806   7.021  0.2624  0.3206 -0.2671
 6828WAT     H129117   4.720   3.724   7.029  1.7060 -0.4931  0.4103
 6828WAT     H229118   4.763   3.846   7.108 -2.1361  2.0057 -1.0673
 6828WAT    EPW29119   4.761   3.801   7.034  0.1366  0.4356 -0.2835
 6829WAT      O29120   1.308   4.934   7.752 -0.5448  0.2477 -0.1535
 6829WAT     H129121   1.372   4.949   7.682 -1.1263 -1.7760 -1.1934
 6829WAT     H229122   1.232   4.899   7.707 -1.1792 -0.4981  1.4363
 6829WAT    EPW29123   1.307   4.931   7.737 -0.7052 -0.1175 -0.0811
 6830WAT      O29124   4.874   4.034   8.436 -0.4936  0.0264  0.5030
 6830WAT     H129125   4.919   4.026   8.352  1.9369 -3.8914  1.9300
 6830WAT     H229126   4.937   4.080   8.492 -1.4838  1.2579  0.6529
 6830WAT    EPW29127   4.888   4.039   8.433 -0.3037 -0.3281  0.7110
 6831WAT      O29128   3.485   1.136   5.162  0.6178 -0.6064  0.5339
 6831WAT     H129129   3.440   1.059   5.196 -1.0645 -0.3889 -1.0588
 6831WAT     H229130   3.575   1.107   5.148  0.2315 -2.0019  0.8024
 6831WAT    EPW29131   3.491   1.122   5.165  0.3450 -0.7617  0.3593
 6832WAT      O29132   4.571   4.459   7.779 -0.6131  0.4709 -0.4169
 6832WAT     H129133   4.522   4.445   7.698  1.1424 -0.3242 -1.3791
 6832WAT     H229134   4.565   4.375   7.825 -0.5240  0.5130 -0.3275
 6832WAT    EPW29135   4.563   4.446   7.774 -0.3698  0.3717 -0.5319
 6833WAT      O29136   2.573   0.426   3.865 -0.4403  0.3337 -0.3713
 6833WAT     H129137   2.606   0.492   3.804 -0.3617 -1.7386 -2.7113
 6833WAT     H229138   2.649   0.402   3.918  0.1705  0.3728 -1.2025
 6833WAT    EPW29139   2.587   0.432   3.864 -0.3495  0.0655 -0.7896
 6834WAT      O29140   8.739   2.080   7.611  0.6078  0.2046  0.0605
 6834WAT     H129141   8.722   2.010   7.675  3.1076 -0.1831  0.4089
 6834WAT     H229142   8.807   2.133   7.652  2.0490  0.1361 -2.1060
 6834WAT    EPW29143   8.745   2.078   7.625  1.1277  0.1444 -0.1793
 6835WAT      O29144   7.124   5.932   8.526  0.3554  0.3708  0.1058
 6835WAT     H129145   7.178   5.992   8.577 -0.3862 -0.4915  2.0085
 6835WAT     H229146   7.041   5.928   8.574 -0.2592 -0.7722 -0.9936
 6835WAT    EPW29147   7.120   5.940   8.539  0.1767  0.1063  0.2122
 6836WAT      O29148   9.981   0.863   4.487 -0.5584  0.2112 -0.7779
 6836WAT     H129149   9.903   0.810   4.469 -0.2272  0.1321 -2.0940
 6836WAT     H229150  10.008   0.836   4.574 -1.9495  0.1782 -0.3264
 6836WAT    EPW29151   9.974   0.852   4.496 -0.6976  0.1964 -0.8919
 6837WAT      O29152   4.583   5.002   7.929  0.4480  0.4512 -0.2778
 6837WAT     H129153   4.522   4.935   7.898  1.0768 -1.8484  2.8635
 6837WAT     H229154   4.665   4.984   7.883  0.4447 -0.5954  0.1052
 6837WAT    EPW29155   4.586   4.991   7.919  0.5305  0.0100  0.1869
 6838WAT      O29156   4.413   5.601   8.979  0.5016 -0.5392  0.2374
 6838WAT     H129157   4.343   5.598   9.044  0.4074  0.6734  0.2021
 6838WAT     H229158   4.441   5.692   8.977  1.3975 -0.8125 -0.4825
 6838WAT    EPW29159   4.407   5.612   8.987  0.6074 -0.4154  0.1378
 6839WAT      O29160   8.676   0.383   0.315 -0.0111 -0.6307  0.2901
 6839WAT     H129161   8.690   0.365   0.408  2.1370 -0.0937  0.1422
 6839WAT     H229162   8.623   0.463   0.313  0.9091  0.0355  1.1115
 6839WAT    EPW29163   8.671   0.391   0.327  0.3929 -0.4720  0.3790
 6840WAT      O29164   0.457   8.567   1.913 -0.4757 -0.0842  0.3944
 6840WAT     H129165   0.394   8.593   1.980  0.2324  1.9184  0.3648
 6840WAT     H229166   0.537   8.613   1.937 -0.0526  0.2483 -1.4828
 6840WAT    EPW29167   0.459   8.577   1.925 -0.3265  0.2236  0.1429
 6841WAT      O29168   5.143   4.479   7.211 -0.1863  0.1056  0.9472
 6841WAT     H129169   5.145   4.443   7.300  1.4049  1.2528  1.4303
 6841WAT     H229170   5.057   4.455   7.178 -1.0141  0.0471  2.9599
 6841WAT    EPW29171   5.132   4.471   7.219 -0.0856  0.2491  1.2763
 6842WAT      O29172   2.429   4.281   0.596 -0.0187 -0.0959  0.2866
 6842WAT     H129173   2.370   4.232   0.539  2.0779  0.8452 -2.9786
 6842WAT     H229174   2.502   4.221   0.614 -0.8082 -0.5016  2.4220
 6842WAT    EPW29175   2.431   4.267   0.591  0.1538 -0.0253  0.1375
 6843WAT      O29176   3.060   5.890   8.477  0.2159  0.4301 -0.4842
 6843WAT     H129177   3.084   5.832   8.549 -1.1438 -0.8265 -1.0086
 6843WAT     H229178   3.143   5.928   8.448  1.8419 -3.9187 -2.4166
 6843WAT    EPW29179   3.074   5.888   8.482  0.2511 -0.3092 -0.8087
 6844WAT      O29180   3.543   2.764   8.336 -0.7321 -0.3305  0.6899
 6844WAT     H129181   3.497   2.808   8.265 -2.4119  0.3524  2.1168
 6844WAT     H229182   3.500   2.795   8.415  1.2351 -0.8627  2.0524
 6844WAT    EPW29183   3.531   2.774   8.337 -0.6943 -0.3107  1.0576
 6845WAT      O29184   7.103   6.116   0.926 -0.5141  0.4441  0.0050
 6845WAT     H129185   7.067   6.027   0.926 -0.2214  0.2115 -2.7675
 6845WAT     H229186   7.031   6.171   0.894 -0.3100  0.9921  0.4854
 6845WAT    EPW29187   7.089   6.111   0.922 -0.4487  0.4854 -0.2973
 6846WAT      O29188   7.312   2.193   8.859 -0.0991  0.5625  0.4395
 6846WAT     H129189   7.357   2.160   8.781 -0.3895  1.1619  0.0118
 6846WAT     H229190   7.291   2.284   8.839 -1.7261  0.2436  0.5259
 6846WAT    EPW29191   7.315   2.201   8.846 -0.3521  0.5995  0.3939
 6847WAT      O29192   6.527   4.425   2.392 -0.2628  0.1280  0.1284
 6847WAT     H129193   6.597   4.372   2.431 -1.3377 -0.4969  1.2876
 6847WAT     H229194   6.568   4.510   2.375  0.4887  0.1577  1.8685
 6847WAT    EPW29195   6.542   4.429   2.395 -0.3057  0.0494  0.5107
 6848WAT      O29196   8.104   7.172   0.476 -0.1175  0.1781 -0.2745
 6848WAT     H129197   8.043   7.228   0.428 -1.3300 -0.2382  0.7222
 6848WAT     H229198   8.056   7.145   0.554  1.4019 -0.0524  0.6391
 6848WAT    EPW29199   8.090   7.176   0.480 -0.0768  0.0925 -0.0226
 6849WAT      O29200   0.402   0.168   1.771 -0.3349  0.2592  0.1909
 6849WAT     H129201   0.490   0.158   1.736 -0.0179  0.3421  0.9523
 6849WAT     H229202   0.406   0.246   1.826 -0.4415 -0.6271  1.5140
 6849WAT    EPW29203   0.414   0.177   1.773 -0.3072  0.1533  0.4659
 6850WAT      O29204   8.813   3.713   8.101  0.3285  0.2487  0.2603
 6850WAT     H129205   8.854   3.630   8.124  1.7069  0.3947 -1.4842
 6850WAT     H229206   8.877   3.757   8.045 -0.6611  2.1883  0.5566
 6850WAT    EPW29207   8.827   3.708   8.097  0.3796  0.5238  0.0691
 6851WAT      O29208   7.150   8.524   1.779  0.8286 -0.4402 -0.3022
 6851WAT     H129209   7.119   8.442   1.740 -4.0297  1.5541 -1.2797
 6851WAT     H229210   7.193   8.497   1.861  3.2732 -4.0805 -2.4890
 6851WAT    EPW29211   7.152   8.509   1.785  0.5102 -0.6571 -0.7195
 6852WAT      O29212   2.827   4.586   0.458  0.4089  0.5703  0.5368
 6852WAT     H129213   2.796   4.605   0.547 -0.5859 -0.9223  0.5265
 6852WAT     H229214   2.872   4.502   0.466  0.3744  0.4589 -0.3595
 6852WAT    EPW29215   2.829   4.578   0.471  0.2731  0.3586  0.4172
 6853WAT      O29216   3.471   7.267   8.018 -0.4350 -0.1087 -0.0565
 6853WAT     H129217   3.492   7.211   8.093 -1.3335 -0.4827 -0.0673
 6853WAT     H229218   3.516   7.227   7.944 -3.9480 -3.1332 -0.8727
 6853WAT    EPW29219   3.480   7.255   8.018 -1.0170 -0.5572 -0.1659
 6854WAT      O29220   2.251   5.322   0.530  0.4522 -0.5181  0.2407
 6854WAT     H129221   2.298   5.250   0.573  1.1192 -0.3105 -0.1270
 6854WAT     H229222   2.183   5.279   0.479 -0.6754 -0.7490  1.8562
 6854WAT    EPW29223   2.248   5.307   0.529  0.3912 -0.5212  0.4052
 6855WAT      O29224   1.069   9.288   0.668 -0.8979  0.0329  0.2092
 6855WAT     H129225   1.104   9.261   0.753  1.5844  2.1286 -0.0048
 6855WAT     H229226   1.079   9.211   0.612  2.3463  0.0397  0.5747
 6855WAT    EPW29227   1.075   9.274   0.672 -0.1425  0.3104  0.2292
 6856WAT      O29228   2.244   0.692   1.621 -0.2360  0.5786  0.5753
 6856WAT     H129229   2.159   0.650   1.632 -1.1531  0.8490 -3.7746
 6856WAT     H229230   2.298   0.628   1.575  0.6432  1.7361 -0.0707
 6856WAT    EPW29231   2.240   0.678   1.617 -0.2410  0.7670 -0.0836
 6857WAT      O29232  10.723   0.044   1.200 -0.3218 -0.6451 -0.4848
 6857WAT     H129233  10.643  -0.005   1.218 -0.8984  0.4771  0.1136
 6857WAT     H229234  10.727   0.110   1.270 -0.5288  1.3178 -2.2246
 6857WAT    EPW29235  10.713   0.046   1.212 -0.4253 -0.2382 -0.6353
 6858WAT      O29236   1.281   4.112   2.538  0.0975  0.4227  0.2949
 6858WAT     H129237   1.263   4.024   2.502  0.0952 -0.3060  2.0045
 6858WAT     H229238   1.199   4.137   2.580  0.1498  1.1939 -0.0566
 6858WAT    EPW29239   1.268   4.104   2.538  0.1041  0.4282  0.4740
 6859WAT      O29240   7.800   9.177   0.711  0.3121  0.7222 -0.3977
 6859WAT     H129241   7.759   9.121   0.644  1.5399  0.0634 -0.6170
 6859WAT     H229242   7.726   9.208   0.764 -0.3573 -2.2585  0.6328
 6859WAT    EPW29243   7.785   9.174   0.709  0.3860  0.2418 -0.2907
 6860WAT      O29244   5.536   7.096   8.529 -0.1934 -0.7455  0.2083
 6860WAT     H129245   5.485   7.178   8.530 -1.0234 -1.2537  1.0094
 6860WAT     H229246   5.493   7.043   8.462 -1.5638 -1.6643  1.7452
 6860WAT    EPW29247   5.523   7.100   8.520 -0.4833 -0.9334  0.5159
 6861WAT      O29248   3.754   6.330   8.764 -0.3336 -0.2251 -0.3026
 6861WAT     H129249   3.699   6.376   8.827 -2.3632 -1.7930 -0.7984
 6861WAT     H229250   3.756   6.239   8.796 -0.6485 -0.8578 -1.9728
 6861WAT    EPW29251   3.747   6.324   8.777 -0.6428 -0.5152 -0.5884
 6862WAT      O29252  10.672   5.476   1.252  0.4897  0.3772  0.5606
 6862WAT     H129253  10.697   5.504   1.164 -0.5049  0.4076  0.2801
 6862WAT     H229254  10.742   5.510   1.309 -0.8243  3.8539  0.3247
 6862WAT    EPW29255  10.685   5.484   1.248  0.1860  0.8397  0.4926
 6863WAT      O29256   5.385   3.637   7.915 -0.2861  0.0132  0.7412
 6863WAT     H129257   5.399   3.631   8.009 -0.8244 -1.3186  0.7485
 6863WAT     H229258   5.438   3.567   7.878 -1.3308 -0.5172  0.1993
 6863WAT    EPW29259   5.394   3.627   7.922 -0.4950 -0.2323  0.6704
 6864WAT      O29260   3.633   5.302   8.721 -0.0056  0.0195  0.3325
 6864WAT     H129261   3.583   5.232   8.763  0.0028 -0.5353 -0.5489
 6864WAT     H229262   3.654   5.267   8.634 -0.5673  1.3914 -0.3733
 6864WAT    EPW29263   3.629   5.288   8.715 -0.0786  0.1273  0.1230
 6865WAT      O29264   8.179   1.922   1.082 -0.1082  0.5836 -0.1508
 6865WAT     H129265   8.118   1.881   1.021  1.0034  0.0290 -0.9246
 6865WAT     H229266   8.228   1.849   1.120  0.1792  1.0290  0.3551
 6865WAT    EPW29267   8.177   1.907   1.079  0.0768  0.5692 -0.1861
 6866WAT      O29268   1.548   3.506   2.004 -0.4668  0.7122  0.2581
 6866WAT     H129269   1.529   3.418   1.971 -1.4253  1.7926 -2.3019
 6866WAT     H229270   1.640   3.502   2.030  0.1877 -0.4680 -1.9733
 6866WAT    EPW29271   1.558   3.494   2.003 -0.5069  0.6990 -0.3738
 6867WAT      O29272   0.190   1.095   2.157  0.2765 -1.0221  0.1789
 6867WAT     H129273   0.180   1.029   2.226  2.2417 -0.1265  1.4068
 6867WAT     H229274   0.210   1.044   2.078 -0.0421 -1.9709  0.6978
 6867WAT    EPW29275   0.191   1.080   2.156  0.4937 -1.0291  0.4092
 6868WAT      O29276   8.344   9.682   1.951 -0.4556  0.1352 -0.3051
 6868WAT     H129277   8.293   9.639   1.882  2.1150 -1.4787 -1.3472
 6868WAT     H229278   8.353   9.615   2.019 -0.6196  0.7724  0.3542
 6868WAT    EPW29279   8.339   9.667   1.951 -0.1383  0.0067 -0.3557
 6869WAT      O29280   9.722   1.608   0.785  0.1048 -0.0460 -0.1933
 6869WAT     H129281   9.733   1.562   0.868 -2.3688  1.4718  1.0673
 6869WAT     H229282   9.712   1.538   0.721  1.1230 -1.2480  0.8976
 6869WAT    EPW29283   9.722   1.592   0.787 -0.0868 -0.0044  0.1169
 6870WAT      O29284   8.013   8.680   1.695 -0.1762  0.0313 -0.6371
 6870WAT     H129285   7.949   8.620   1.657 -0.5896  0.0648 -0.0287
 6870WAT     H229286   8.098   8.649   1.664 -0.3177 -1.2884  0.1985
 6870WAT    EPW29287   8.015   8.668   1.686 -0.2489 -0.1383 -0.4466
 6871WAT      O29288   0.495   1.627   2.938 -0.0010  0.5341 -0.2304
 6871WAT     H129289   0.430   1.697   2.943 -2.2098 -1.4173  0.6720
 6871WAT     H229290   0.543   1.634   3.021  0.6327  1.6837 -0.6767
 6871WAT    EPW29291   0.493   1.637   2.950 -0.2088  0.4284 -0.1704
 6872WAT      O29292   9.908   1.082   1.351 -0.3677  0.0766 -0.6511
 6872WAT     H129293   9.977   1.136   1.389 -1.6379  1.1627  0.1871
 6872WAT     H229294   9.920   1.090   1.257  0.8087  0.0202 -0.5233
 6872WAT    EPW29295   9.919   1.090   1.344 -0.3796  0.2124 -0.5237
 6873WAT      O29296   6.570   7.039   7.214  0.6768  0.0563  0.0936
 6873WAT     H129297   6.498   7.008   7.159  1.5114  0.6583 -1.4195
 6873WAT     H229298   6.647   6.993   7.179  1.1351 -0.0619  1.2271
 6873WAT    EPW29299   6.571   7.028   7.202  0.8473  0.1199  0.0436
 6874WAT      O29300   3.682   5.004   8.292 -0.1934 -0.0277 -0.6861
 6874WAT     H129301   3.772   5.023   8.266  0.4393 -1.9864 -0.1004
 6874WAT     H229302   3.628   5.050   8.227  1.2248  0.5568 -1.4951
 6874WAT    EPW29303   3.686   5.013   8.280  0.0770 -0.2091 -0.7157
 6875WAT      O29304   0.229   0.509   0.077 -0.0673  0.1431 -0.4876
 6875WAT     H129305   0.272   0.591   0.055  2.9676 -1.1715  0.1050
 6875WAT     H229306   0.150   0.535   0.124  0.3206  2.6993 -1.1255
 6875WAT    EPW29307   0.224   0.523   0.081  0.3841  0.3069 -0.4936
 6876WAT      O29308   9.160   0.850   2.141  0.5368 -0.1846  0.1711
 6876WAT     H129309   9.141   0.780   2.204  1.2481 -0.2127  0.3582
 6876WAT     H229310   9.182   0.926   2.195  1.2505 -0.2358 -0.0383
 6876WAT    EPW29311   9.160   0.851   2.156  0.7243 -0.1951  0.1681
 6877WAT      O29312   6.080   6.475   2.737  0.4708 -0.4904  0.6935
 6877WAT     H129313   5.995   6.497   2.776 -0.1766 -1.7710  0.0389
 6877WAT     H229314   6.106   6.555   2.690  0.1083  0.2371  1.6831
 6877WAT    EPW29315   6.073   6.489   2.736  0.3378 -0.5631  0.7378
 6878WAT      O29316   3.268   3.564   1.751 -0.0049  0.1056 -0.1674
 6878WAT     H129317   3.292   3.554   1.659 -0.4108  1.4199 -0.4445
 6878WAT     H229318   3.178   3.530   1.757 -0.7373  1.8382 -0.7203
 6878WAT    EPW29319   3.259   3.558   1.740 -0.1551  0.5075 -0.2769
 6879WAT      O29320  10.246   1.601   3.761 -0.0249 -0.3028 -0.3943
 6879WAT     H129321  10.238   1.573   3.852  0.4351 -3.6209 -1.2553
 6879WAT     H229322  10.161   1.639   3.740 -0.0388  0.7839  1.4533
 6879WAT    EPW29323  10.234   1.602   3.770  0.0339 -0.5972 -0.2642
 6880WAT      O29324   5.447   5.158   8.951  0.7782 -0.1262 -0.3856
 6880WAT     H129325   5.385   5.103   8.999 -0.4534  1.1614 -0.4309
 6880WAT     H229326   5.437   5.131   8.860  0.0373  0.2853 -0.4346
 6880WAT    EPW29327   5.437   5.147   8.945  0.5183  0.0978 -0.3982
 6881WAT      O29328   0.954   1.630   7.436 -0.0883  0.0654 -1.0562
 6881WAT     H129329   0.859   1.627   7.450 -0.1099 -0.0899 -1.2217
 6881WAT     H229330   0.964   1.676   7.353 -0.0430 -0.2705 -1.2408
 6881WAT    EPW29331   0.943   1.636   7.427 -0.0852  0.0006 -1.1024
 6882WAT      O29332   5.059   3.607   8.902  0.0930  0.0943  0.2658
 6882WAT     H129333   5.071   3.702   8.902  0.9455  0.1327  3.6427
 6882WAT     H229334   5.106   3.578   8.981 -1.5391 -2.9398  0.2496
 6882WAT    EPW29335   5.067   3.615   8.912 -0.0100 -0.3009  0.7091
 6883WAT      O29336   8.005   1.943   1.633 -0.1707 -0.2508  0.0476
 6883WAT     H129337   8.073   1.987   1.684 -0.9259 -0.7628  1.5611
 6883WAT     H229338   8.018   1.975   1.544 -1.4791  4.1440  1.1855
 6883WAT    EPW29339   8.016   1.953   1.628 -0.4425  0.2613  0.3974
 6884WAT      O29340   7.900  10.300   0.030 -0.0713  0.6382  0.5804
 6884WAT     H129341   7.906  10.247  -0.049 -0.3978  1.6537 -0.1478
 6884WAT     H229342   7.893  10.237   0.101 -0.9011 -0.2831 -0.2952
 6884WAT    EPW29343   7.900  10.285   0.029 -0.2239  0.6509  0.3689
 6885WAT      O29344   2.194   5.236   8.896 -0.4794 -0.0172 -0.1798
 6885WAT     H129345   2.184   5.298   8.823  0.6743 -1.3990 -1.6018
 6885WAT     H229346   2.116   5.248   8.949 -1.0337  1.5393 -1.2635
 6885WAT    EPW29347   2.183   5.246   8.893 -0.4004  0.0060 -0.5107
 6886WAT      O29348  10.891   1.824   2.568 -0.2343  0.3720  0.2250
 6886WAT     H129349  10.866   1.842   2.659 -0.4557 -1.5412  0.5892
 6886WAT     H229350  10.938   1.902   2.540 -0.2024  1.0186  1.9668
 6886WAT    EPW29351  10.894   1.836   2.576 -0.2599  0.2049  0.5027
 6887WAT      O29352   3.151   2.991   0.982 -0.1047  0.3133 -1.1029
 6887WAT     H129353   3.168   3.062   0.920  0.7939 -1.4290 -2.9830
 6887WAT     H229354   3.126   2.917   0.927  1.6224 -1.6114  0.5215
 6887WAT    EPW29355   3.150   2.990   0.967  0.2415 -0.1705 -1.1367
 6888WAT      O29356   3.614   6.131   8.193  0.1139 -0.3988  0.4553
 6888WAT     H129357   3.536   6.168   8.234 -0.0391 -3.3508  3.1745
 6888WAT     H229358   3.580   6.070   8.127  0.2336  0.0472 -0.0302
 6888WAT    EPW29359   3.599   6.128   8.189  0.1096 -0.7291  0.7501
 6889WAT      O29360   6.137   8.523   1.700 -0.4708  0.3199  0.6354
 6889WAT     H129361   6.085   8.554   1.626  1.5376  1.4628 -0.3722
 6889WAT     H229362   6.074   8.479   1.757 -2.6485  2.2325 -0.1583
 6889WAT    EPW29363   6.122   8.521   1.698 -0.4930  0.7229  0.3979
 6890WAT      O29364   2.402   0.235   0.313  0.1099 -0.6515  0.2247
 6890WAT     H129365   2.335   0.291   0.351 -1.0726 -1.7515 -0.1939
 6890WAT     H229366   2.412   0.268   0.224  1.4583  0.6486  0.7984
 6890WAT    EPW29367   2.395   0.247   0.306  0.1317 -0.6251  0.2452
 6891WAT      O29368   1.674   1.626   8.372  0.5233 -0.6679 -0.2372
 6891WAT     H129369   1.616   1.679   8.317  0.1772 -1.2302 -0.4244
 6891WAT     H229370   1.627   1.615   8.454  1.9655  2.0399  1.0727
 6891WAT    EPW29371   1.661   1.632   8.376  0.6678 -0.3849 -0.0892
 6892WAT      O29372   1.849   6.028   3.170 -0.0381  0.3123 -0.2615
 6892WAT     H129373   1.899   5.946   3.165 -0.3098  0.1496 -0.3729
 6892WAT     H229374   1.773   6.006   3.224 -0.8258  0.1036 -1.4165
 6892WAT    EPW29375   1.845   6.014   3.176 -0.1778  0.2632 -0.4286
 6893WAT      O29376   8.681   8.656   2.169  0.0095 -0.3378  0.0244
 6893WAT     H129377   8.591   8.668   2.199 -0.6207 -1.0621 -1.4659
 6893WAT     H229378   8.673   8.645   2.074  2.0012  2.8768 -0.6545
 6893WAT    EPW29379   8.668   8.656   2.160  0.1888 -0.0095 -0.2617
 6894WAT      O29380   6.900   7.846   0.197  0.1050  0.3490  0.5171
 6894WAT     H129381   6.861   7.908   0.259 -1.7046 -0.4626  0.2553
 6894WAT     H229382   6.864   7.873   0.112 -0.7929 -1.0963  0.4126
 6894WAT    EPW29383   6.890   7.858   0.194 -0.2520  0.0517  0.4688
 6895WAT      O29384   2.314   1.103   1.160  0.4360  0.1935  0.3607
 6895WAT     H129385   2.298   1.040   1.230 -0.2702  0.2402  0.2569
 6895WAT     H229386   2.244   1.085   1.097 -0.9877  2.3489  1.2317
 6895WAT    EPW29387   2.302   1.092   1.161  0.1551  0.4839  0.4619
 6896WAT      O29388   3.913   3.131   6.908 -0.3948 -0.1567  0.1998
 6896WAT     H129389   3.843   3.144   6.972 -1.1720  0.4699 -0.7447
 6896WAT     H229390   3.883   3.056   6.856 -0.1654 -0.1488  0.0567
 6896WAT    EPW29391   3.900   3.123   6.910 -0.4671 -0.0731  0.0563
 6897WAT      O29392   7.218   7.160   8.803 -0.8231  0.3546  0.1072
 6897WAT     H129393   7.296   7.176   8.855 -0.2133  2.4415 -1.3406
 6897WAT     H229394   7.210   7.064   8.800  0.5904  0.1460  1.7898
 6897WAT    EPW29395   7.227   7.149   8.810 -0.5565  0.6025  0.1378
 6898WAT      O29396   8.958   0.522   0.972 -0.2329 -0.3355  1.0431
 6898WAT     H129397   8.985   0.545   0.884 -1.3984 -0.4020  0.6559
 6898WAT     H229398   8.949   0.426   0.970  0.2832 -0.4014  1.4064
 6898WAT    EPW29399   8.960   0.512   0.960 -0.3190 -0.3529  1.0400
 6899WAT      O29400   5.571   4.180   8.021  0.1134  0.3693 -0.0916
 6899WAT     H129401   5.540   4.097   7.986  0.4757  1.2419 -2.6804
 6899WAT     H229402   5.491   4.226   8.047 -0.2675  0.0968 -0.7517
 6899WAT    EPW29403   5.556   4.175   8.020  0.1109  0.4485 -0.5198
 6900WAT      O29404   4.789   5.640   8.511  0.5816  0.1244  0.3638
 6900WAT     H129405   4.774   5.570   8.447  0.4311 -0.3365  0.8961
 6900WAT     H229406   4.848   5.601   8.575  1.9815  1.0791 -0.3061
 6900WAT    EPW29407   4.795   5.625   8.511  0.7463  0.1895  0.3457
 6901WAT      O29408   0.758   0.698   1.577 -0.1492  0.1852 -0.7664
 6901WAT     H129409   0.721   0.664   1.658 -2.5310  0.1373 -1.7866
 6901WAT     H229410   0.793   0.621   1.532  2.8421  0.4345  0.9112
 6901WAT    EPW29411   0.758   0.683   1.582 -0.0688  0.2117 -0.6797
 6902WAT      O29412   8.517   4.758   3.374  0.2162 -0.7284  0.0734
 6902WAT     H129413   8.601   4.768   3.328  2.1305 -1.2848  3.1775
 6902WAT     H229414   8.492   4.848   3.398 -0.5748 -0.4795 -1.4977
 6902WAT    EPW29415   8.525   4.772   3.371  0.3643 -0.7689  0.2756
 6903WAT      O29416  10.987   2.841   1.220 -0.0599 -0.2295 -0.4522
 6903WAT     H129417  11.076   2.851   1.186  0.5154 -0.0617  1.0104
 6903WAT     H229418  10.967   2.748   1.209  1.1822 -0.7308  1.2109
 6903WAT    EPW29419  10.996   2.830   1.214  0.1798 -0.2735 -0.0399
 6904WAT      O29420   9.413   2.672   0.341  0.0349 -0.2833  0.8361
 6904WAT     H129421   9.472   2.748   0.342 -0.1100 -0.0308 -2.0122
 6904WAT     H229422   9.470   2.598   0.363  0.8502  0.2804  0.6998
 6904WAT    EPW29423   9.429   2.673   0.344  0.1230 -0.1755  0.4425
 6905WAT      O29424   8.362   8.885   0.800 -0.5840 -0.0116 -0.2014
 6905WAT     H129425   8.356   8.947   0.873 -0.0389 -0.9923  0.7001
 6905WAT     H229426   8.455   8.872   0.787 -0.6770 -1.5458  0.4301
 6905WAT    EPW29427   8.373   8.891   0.808 -0.5245 -0.3428  0.0008
 6906WAT      O29428   0.608   2.462   1.144 -0.5488 -0.9117  0.0614
 6906WAT     H129429   0.653   2.383   1.111  0.1526 -0.3941 -0.2426
 6906WAT     H229430   0.674   2.531   1.138 -1.3744 -0.1473 -0.3187
 6906WAT    EPW29431   0.623   2.460   1.139 -0.5652 -0.7427 -0.0288
 6907WAT      O29432   3.452   2.144   1.973  0.2122  0.0932 -0.4639
 6907WAT     H129433   3.496   2.148   2.058  1.3972  1.7997 -1.1111
 6907WAT     H229434   3.359   2.144   1.995  0.2815  4.7624  0.9170
 6907WAT    EPW29435   3.445   2.144   1.987  0.3775  0.9341 -0.3671
 6908WAT      O29436   8.079   9.736   2.713  0.0824  0.5899  0.1737
 6908WAT     H129437   8.069   9.830   2.733 -0.2677  0.3450  1.2217
 6908WAT     H229438   8.173   9.726   2.697  0.0047  1.2700 -0.8041
 6908WAT    EPW29439   8.090   9.747   2.714  0.0253  0.6471  0.1831
 6909WAT      O29440   1.815   0.350   1.900 -0.6628  1.3586  0.3339
 6909WAT     H129441   1.804   0.302   1.817 -3.6489  0.6051  1.0175
 6909WAT     H229442   1.842   0.283   1.963  0.6802  1.7490  0.2022
 6909WAT    EPW29443   1.817   0.335   1.897 -0.8796  1.3107  0.4067
 6910WAT      O29444   4.084   2.973   7.720  0.0632 -0.1734  0.2756
 6910WAT     H129445   4.128   2.888   7.715 -0.5706 -0.4560 -1.5547
 6910WAT     H229446   4.154   3.038   7.710  0.3491 -0.5512 -0.2323
 6910WAT    EPW29447   4.099   2.970   7.718  0.0172 -0.2606 -0.0327
 6911WAT      O29448   1.880   6.155   8.539  0.1566  0.8113 -0.0232
 6911WAT     H129449   1.899   6.127   8.629  0.6826 -0.1039 -0.4043
 6911WAT     H229450   1.965   6.153   8.495  0.0145  1.9090 -0.3796
 6911WAT    EPW29451   1.894   6.151   8.545  0.2071  0.8354 -0.1206
 6912WAT      O29452  10.095   4.875   0.244  0.2164  0.3251 -0.3045
 6912WAT     H129453  10.054   4.788   0.238  1.1395 -0.1100 -0.4985
 6912WAT     H229454  10.021   4.936   0.242 -0.7403 -0.5207  2.7758
 6912WAT    EPW29455  10.079   4.872   0.243  0.2117  0.1562  0.0762
 6913WAT      O29456   5.647   4.479   8.262 -0.0014 -0.0244  0.6615
 6913WAT     H129457   5.682   4.462   8.175  0.6151 -1.7664  1.1969
 6913WAT     H229458   5.712   4.441   8.322 -1.8318 -1.5795  1.7665
 6913WAT    EPW29459   5.660   4.472   8.259 -0.1616 -0.4594  0.8783
 6914WAT      O29460   3.440   2.957   0.015  0.6991 -0.1128 -0.2474
 6914WAT     H129461   3.490   3.025   0.060 -0.8599  0.3995  0.7995
 6914WAT     H229462   3.473   2.875   0.051 -1.1792  0.2958  2.7798
 6914WAT    EPW29463   3.451   2.955   0.026  0.2457  0.0086  0.2900
 6915WAT      O29464   0.796   0.221   1.950 -0.5613  0.9170  0.7814
 6915WAT     H129465   0.856   0.207   2.023  0.9417 -1.5564 -0.7997
 6915WAT     H229466   0.753   0.137   1.938  0.7155  0.5817 -2.3752
 6915WAT    EPW29467   0.798   0.208   1.958 -0.1947  0.5465  0.1565
 6916WAT      O29468   3.005   3.452   1.047 -0.4876  0.2641  0.2967
 6916WAT     H129469   2.986   3.481   0.957  0.6541  1.9967  0.5555
 6916WAT     H229470   2.933   3.393   1.069 -1.6777  1.0791 -1.1868
 6916WAT    EPW29471   2.993   3.448   1.038 -0.4941  0.6002  0.1352
 6917WAT      O29472   2.655   3.974   3.315 -0.0865 -0.2900  0.1987
 6917WAT     H129473   2.640   3.998   3.224  1.6476  0.9970  0.1950
 6917WAT     H229474   2.638   3.880   3.318 -0.0193 -0.3880 -1.4992
 6917WAT    EPW29475   2.651   3.965   3.304  0.1510 -0.1333 -0.0259
 6918WAT      O29476   1.472   4.349   0.782  0.3104  0.0402 -0.5498
 6918WAT     H129477   1.481   4.355   0.687  0.8730  0.4568 -0.4751
 6918WAT     H229478   1.491   4.258   0.802 -0.4438 -0.1995 -0.9014
 6918WAT    EPW29479   1.476   4.338   0.772  0.2851  0.0637 -0.5863
 6919WAT      O29480   8.237   9.773   0.799 -0.2807  0.3253 -1.1123
 6919WAT     H129481   8.297   9.845   0.816 -1.1771  0.8996 -0.2394
 6919WAT     H229482   8.256   9.745   0.710  0.7183  1.0253 -1.1246
 6919WAT    EPW29483   8.247   9.779   0.790 -0.2670  0.4935 -0.9988
 6920WAT      O29484   3.665   4.825   8.859 -0.0628 -1.0312  0.4416
 6920WAT     H129485   3.595   4.890   8.862 -2.2661 -3.2468  1.5770
 6920WAT     H229486   3.743   4.871   8.890 -0.9016  1.6067 -1.0393
 6920WAT    EPW29487   3.666   4.839   8.864 -0.4641 -0.9756  0.3963
 6921WAT      O29488   0.097   8.376   0.482  0.2205  0.2248  0.2297
 6921WAT     H129489   0.003   8.362   0.477  0.5360 -2.2029 -0.0454
 6921WAT     H229490   0.116   8.383   0.576 -0.4692  3.2657  0.2428
 6921WAT    EPW29491   0.087   8.375   0.494  0.1711  0.3052  0.1952
 6922WAT      O29492   7.248   9.813   0.451 -0.0410  0.7317  0.3372
 6922WAT     H129493   7.153   9.799   0.455  0.3343 -2.3205  3.6026
 6922WAT     H229494   7.261   9.896   0.496 -1.1155  0.5286  1.0760
 6922WAT    EPW29495   7.237   9.822   0.458 -0.1333  0.3028  0.8654
 6923WAT      O29496   0.252   3.525   3.391 -0.0534 -0.2828  0.0079
 6923WAT     H129497   0.231   3.435   3.415 -0.7394  0.0556  0.7279
 6923WAT     H229498   0.343   3.522   3.363 -0.2840 -1.3243 -0.6536
 6923WAT    EPW29499   0.261   3.513   3.391 -0.1743 -0.3756  0.0156
 6924WAT      O29500   2.702   5.164   8.544 -0.2220 -0.7424 -0.0475
 6924WAT     H129501   2.703   5.179   8.449 -1.3738  0.0029  0.0408
 6924WAT     H229502   2.647   5.088   8.555 -1.5593  0.2176  0.1291
 6924WAT    EPW29503   2.695   5.156   8.533 -0.5504 -0.5174 -0.0124
 6925WAT      O29504   9.548   6.649   5.962 -1.1661  0.0978  0.2044
 6925WAT     H129505   9.626   6.606   5.998 -2.5580 -1.1895  1.9176
 6925WAT     H229506   9.496   6.576   5.926 -1.3104  1.0095 -1.5402
 6925WAT    EPW29507   9.551   6.633   5.962 -1.3685  0.0484  0.2000
 6926WAT      O29508   1.191   1.726   1.710  0.3750  0.4683  0.3221
 6926WAT     H129509   1.266   1.760   1.758  1.0523 -1.9485  1.1013
 6926WAT     H229510   1.162   1.649   1.760 -1.0749 -0.1124 -1.2892
 6926WAT    EPW29511   1.197   1.720   1.723  0.2730  0.0729  0.2123
 6927WAT      O29512   3.787   6.661   8.758 -0.1428 -0.4314 -0.7334
 6927WAT     H129513   3.786   6.756   8.750  0.4197 -0.1736  1.6824
 6927WAT     H229514   3.760   6.630   8.671 -1.7255  1.9241 -1.1762
 6927WAT    EPW29515   3.783   6.670   8.745 -0.2774 -0.0868 -0.4735
 6928WAT      O29516   3.617   5.201   8.452 -0.4542 -1.0270 -0.5531
 6928WAT     H129517   3.624   5.118   8.405  0.9379 -0.7916 -0.7940
 6928WAT     H229518   3.524   5.222   8.448 -1.0601 -3.1447  0.5121
 6928WAT    EPW29519   3.606   5.193   8.445 -0.3505 -1.2751 -0.4444
 6929WAT      O29520   0.350   2.402   0.038 -0.1589 -0.1143 -0.0537
 6929WAT     H129521   0.306   2.481   0.069 -1.5030 -0.7733 -0.1853
 6929WAT     H229522   0.279   2.349   0.001  0.8073 -1.1102 -0.5231
 6929WAT    EPW29523   0.335   2.405   0.037 -0.2088 -0.3326 -0.1329
 6930WAT      O29524   7.766   8.609   0.984 -0.0428  0.7883 -0.2789
 6930WAT     H129525   7.691   8.584   0.930  1.3999 -1.4143 -1.3879
 6930WAT     H229526   7.727   8.646   1.063 -2.2443  1.8540 -1.7780
 6930WAT    EPW29527   7.751   8.610   0.987 -0.1431  0.6385 -0.6229
 6931WAT      O29528   7.415   5.053   6.582  0.2183 -0.3274  0.5694
 6931WAT     H129529   7.348   5.098   6.530 -1.1436 -3.2557 -0.4409
 6931WAT     H229530   7.369   5.023   6.660  1.8829  2.6463  2.9214
 6931WAT    EPW29531   7.400   5.055   6.585  0.2582 -0.3216  0.7465
 6932WAT      O29532   9.422   7.688   3.156 -0.3669 -0.3965  0.1600
 6932WAT     H129533   9.329   7.686   3.179 -0.2588  1.4263  0.9972
 6932WAT     H229534   9.465   7.634   3.223 -0.5439  1.2296  1.6583
 6932WAT    EPW29535   9.416   7.681   3.168 -0.3757  0.0582  0.4681
 6933WAT      O29536   4.017   6.157   8.377 -0.0616 -0.1106 -0.0304
 6933WAT     H129537   3.977   6.190   8.458 -0.0764 -0.4564  0.1022
 6933WAT     H229538   3.966   6.198   8.308  1.5691  2.2892  0.0670
 6933WAT    EPW29539   4.005   6.167   8.379  0.1516  0.1602  0.0000
 6934WAT      O29540   8.634   5.268   0.367  0.0222  0.1514 -0.5381
 6934WAT     H129541   8.719   5.269   0.324 -0.9657  1.2800 -2.6284
 6934WAT     H229542   8.607   5.360   0.369 -0.7950 -0.0795  0.8908
 6934WAT    EPW29543   8.642   5.280   0.362 -0.2160  0.2697 -0.6254
 6935WAT      O29544   0.521   3.487   2.105  0.5034 -0.7086  0.3575
 6935WAT     H129545   0.485   3.424   2.167  0.2278 -0.7769  0.1315
 6935WAT     H229546   0.491   3.572   2.136 -0.7966 -0.8479 -0.4428
 6935WAT    EPW29547   0.513   3.490   2.117  0.2956 -0.7360  0.2222
 6936WAT      O29548   2.226   1.163   2.134  0.0840  0.0850  0.7028
 6936WAT     H129549   2.183   1.147   2.050  0.5410  1.1068  0.2528
 6936WAT     H229550   2.320   1.160   2.114  0.1963  0.9213  1.0497
 6936WAT    EPW29551   2.233   1.161   2.120  0.1593  0.3300  0.6893
 6937WAT      O29552   1.380   1.743   0.893 -0.4057  0.0726 -0.7352
 6937WAT     H129553   1.338   1.675   0.839  0.1322 -0.2478 -0.7521
 6937WAT     H229554   1.433   1.694   0.956 -0.1952  0.4733 -0.6000
 6937WAT    EPW29555   1.381   1.727   0.894 -0.3070  0.0832 -0.7196
 6938WAT      O29556   2.773   0.962   2.263  0.3301  0.5148 -0.3247
 6938WAT     H129557   2.789   1.020   2.188  2.2874  0.5455  0.0639
 6938WAT     H229558   2.736   1.019   2.330 -0.7939  0.6304 -1.0297
 6938WAT    EPW29559   2.771   0.977   2.262  0.4402  0.5341 -0.3664
 6939WAT      O29560   0.872   1.083   0.036 -0.5073  0.1392  0.3910
 6939WAT     H129561   0.858   0.997   0.077  0.0845 -1.7116 -2.9529
 6939WAT     H229562   0.959   1.077  -0.003 -1.9526  0.6443 -3.2883
 6939WAT    EPW29563   0.882   1.071   0.036 -0.6199 -0.0382 -0.5353
 6940WAT      O29564   2.078   0.639   1.867 -0.1456 -0.4330  0.0669
 6940WAT     H129565   2.127   0.560   1.892  0.9208  0.1149 -0.2114
 6940WAT     H229566   1.986   0.615   1.878  0.1570 -0.3549  4.1923
 6940WAT    EPW29567   2.073   0.625   1.871  0.0349 -0.3504  0.5744
 6941WAT      O29568   8.926   9.566   0.189  0.1359 -0.1236 -0.5409
 6941WAT     H129569   8.995   9.566   0.123  0.6634  0.7409 -0.0188
 6941WAT     H229570   8.886   9.479   0.182  0.6233 -0.2861 -1.5233
 6941WAT    EPW29571   8.930   9.554   0.179  0.2699 -0.0305 -0.6016
 6942WAT      O29572   3.764   5.459   8.280  0.4032 -0.3403  0.3397
 6942WAT     H129573   3.734   5.375   8.314 -0.4681 -0.4730 -0.7179
 6942WAT     H229574   3.826   5.436   8.211 -2.2289 -0.2647 -2.2183
 6942WAT    EPW29575   3.768   5.445   8.276 -0.0590 -0.3479 -0.1373
 6943WAT      O29576   1.732   2.195   0.939 -0.2189 -0.1067 -0.9103
 6943WAT     H129577   1.805   2.134   0.928  0.0815  0.2006 -0.6693
 6943WAT     H229578   1.676   2.180   0.864 -0.6048 -1.2918 -0.4041
 6943WAT    EPW29579   1.734   2.185   0.928 -0.2301 -0.2224 -0.8118
 6944WAT      O29580  10.652   0.498   3.563 -0.5532 -0.1180  0.2835
 6944WAT     H129581  10.709   0.460   3.630 -0.5473  0.4838  0.6358
 6944WAT     H229582  10.564   0.471   3.588 -0.3826 -1.6909 -0.6934
 6944WAT    EPW29583  10.648   0.490   3.575 -0.5298 -0.2461  0.2011
 6945WAT      O29584  10.576   9.951   0.034 -0.4928 -0.3750 -0.2027
 6945WAT     H129585  10.504   9.960   0.096 -1.1504  0.2296 -1.0257
 6945WAT     H229586  10.655   9.942   0.088 -1.1561 -0.7844  0.7057
 6945WAT    EPW29587  10.577   9.951   0.049 -0.6666 -0.3495 -0.1914
 6946WAT      O29588   1.696   1.575   1.278 -0.8869  0.1846  0.0067
 6946WAT     H129589   1.763   1.511   1.255  0.6245  2.4573 -2.3638
 6946WAT     H229590   1.647   1.533   1.349  3.2287 -1.4849  2.2508
 6946WAT    EPW29591   1.698   1.561   1.285 -0.1448  0.2642 -0.0099
 6947WAT      O29592   6.909   5.563   7.430  0.1665  0.1404  0.4057
 6947WAT     H129593   6.995   5.584   7.466 -0.1563 -0.6239  1.6966
 6947WAT     H229594   6.850   5.568   7.505 -0.7760 -0.1585 -0.2934
 6947WAT    EPW29595   6.912   5.566   7.445 -0.0002  0.0002  0.4838
 6948WAT      O29596   6.951   7.246   8.228  1.0100  0.0468  0.3285
 6948WAT     H129597   7.025   7.185   8.220  0.0577 -1.0483 -0.3042
 6948WAT     H229598   6.966   7.310   8.157 -0.2303 -1.9408 -1.8746
 6948WAT    EPW29599   6.963   7.247   8.217  0.7207 -0.3598 -0.0458
 6949WAT      O29600   8.258   6.007   8.219 -0.2161  0.4044  0.1179
 6949WAT     H129601   8.244   5.915   8.195 -0.7895  1.0583 -2.3062
 6949WAT     H229602   8.254   6.007   8.315 -3.3843 -1.6608  0.1542
 6949WAT    EPW29603   8.256   5.995   8.229 -0.7100  0.2184 -0.1974
 6950WAT      O29604   4.980   3.849   8.632 -0.6693  0.3588  0.0525
 6950WAT     H129605   4.958   3.867   8.541 -2.4523 -0.1285  0.3469
 6950WAT     H229606   5.039   3.773   8.628 -0.7002  0.3655 -0.6916
 6950WAT    EPW29607   4.985   3.841   8.620 -0.9086  0.2955 -0.0072
 6951WAT      O29608   4.412   8.199   8.711  0.6108 -0.0195 -0.3630
 6951WAT     H129609   4.465   8.274   8.685 -2.3423  1.9697 -1.1209
 6951WAT     H229610   4.395   8.153   8.628 -0.8088  0.7920 -0.5570
 6951WAT    EPW29611   4.417   8.202   8.696  0.0341  0.3505 -0.4883
 6952WAT      O29612   7.286   9.812   5.697 -0.0327  0.6425  0.1670
 6952WAT     H129613   7.237   9.892   5.678 -1.3997  0.0194  0.9694
 6952WAT     H229614   7.242   9.744   5.646 -0.1657  0.0263  1.0917
 6952WAT    EPW29615   7.274   9.813   5.688 -0.2308  0.4797  0.3946
 6953WAT      O29616   4.680   2.321   0.721 -0.0005 -0.1146  0.2417
 6953WAT     H129617   4.663   2.379   0.795 -1.0057 -0.2152  0.1028
 6953WAT     H229618   4.765   2.283   0.740 -0.7048 -0.9628  1.9098
 6953WAT    EPW29619   4.689   2.324   0.734 -0.2260 -0.2396  0.4434
 6954WAT      O29620   6.482   5.654   8.304  0.0839  0.8193  0.2839
 6954WAT     H129621   6.578   5.653   8.296  0.1820  1.0221  1.3425
 6954WAT     H229622   6.465   5.628   8.395 -0.9256 -0.6835 -0.2973
 6954WAT    EPW29623   6.493   5.650   8.315 -0.0360  0.6478  0.3467
 6955WAT      O29624   7.529   9.963   0.729  0.2998  0.0027 -0.4069
 6955WAT     H129625   7.605   9.965   0.672 -0.5759  2.4338 -1.6339
 6955WAT     H229626   7.456   9.990   0.673 -1.0427  0.0181  1.2625
 6955WAT    EPW29627   7.529   9.967   0.714  0.0072  0.3252 -0.3485
 6956WAT      O29628   7.815   9.506   1.889  0.7211  0.8804  0.4178
 6956WAT     H129629   7.801   9.416   1.920  0.6687  0.8466  0.2947
 6956WAT     H229630   7.727   9.540   1.872  0.6917  1.2095  1.1846
 6956WAT    EPW29631   7.801   9.498   1.891  0.7102  0.9193  0.5027
 6957WAT      O29632   0.388   3.120   2.998  0.2645 -0.5478 -0.3362
 6957WAT     H129633   0.339   3.202   2.997  2.5046  0.9237  0.9145
 6957WAT     H229634   0.401   3.099   2.906  0.1842  0.8586 -0.6887
 6957WAT    EPW29635   0.383   3.128   2.986  0.5493 -0.1682 -0.2177
 6958WAT      O29636  10.638   1.155   3.173  0.0494  0.3295 -0.4526
 6958WAT     H129637  10.596   1.170   3.088 -0.8171 -1.4911 -0.3953
 6958WAT     H229638  10.588   1.209   3.235  0.2047  1.0714 -0.9643
 6958WAT    EPW29639  10.626   1.164   3.170 -0.0448  0.1873 -0.5126
 6959WAT      O29640   0.728   2.027   0.177  0.3547  0.0665  0.0737
 6959WAT     H129641   0.682   2.104   0.212  1.3747  0.7583 -0.0505
 6959WAT     H229642   0.659   1.964   0.158 -0.5220  0.9914  0.0992
 6959WAT    EPW29643   0.713   2.029   0.179  0.3736  0.2798  0.0607
 6960WAT      O29644   2.594   4.660   1.716 -0.1461 -0.3637  1.1725
 6960WAT     H129645   2.543   4.738   1.736 -0.7964  0.2202 -2.1527
 6960WAT     H229646   2.528   4.592   1.701  0.2030 -0.4809  0.1310
 6960WAT    EPW29647   2.578   4.661   1.717 -0.1857 -0.3023  0.5966
 6961WAT      O29648  10.516   1.099   0.547 -0.1582 -0.5909  0.4357
 6961WAT     H129649  10.446   1.130   0.604  1.5273  1.7927  1.3674
 6961WAT     H229650  10.525   1.167   0.481  1.3365 -0.7635  0.4227
 6961WAT    EPW29651  10.508   1.112   0.546  0.2613 -0.2993  0.5569
 6962WAT      O29652   3.203   1.960   0.207 -0.1637  0.1077  0.2501
 6962WAT     H129653   3.231   1.932   0.294 -2.9825  0.0555  1.2268
 6962WAT     H229654   3.135   1.898   0.182  1.4708 -0.6899 -2.6652
 6962WAT    EPW29655   3.198   1.948   0.215 -0.3198 -0.0045 -0.0056
 6963WAT      O29656   1.638   0.316   1.173  0.6379  0.1198 -1.1127
 6963WAT     H129657   1.722   0.304   1.129  0.5223 -1.1485 -1.0100
 6963WAT     H229658   1.661   0.319   1.266  1.0115  3.8444 -1.1744
 6963WAT    EPW29659   1.652   0.315   1.180  0.6720  0.4438 -1.1073
 6964WAT      O29660   9.699   2.559   0.232  0.0054 -0.1637 -0.6450
 6964WAT     H129661   9.771   2.621   0.228 -0.4259  0.3204 -0.9716
 6964WAT     H229662   9.694   2.534   0.324  1.0686 -0.7766 -0.7390
 6964WAT    EPW29663   9.708   2.564   0.243  0.0887 -0.1807 -0.7004
 6965WAT      O29664   3.106   0.122   0.266 -0.9878 -0.2916 -0.7488
 6965WAT     H129665   3.023   0.109   0.313 -2.4213  3.6940 -1.7613
 6965WAT     H229666   3.156   0.183   0.321 -1.2155  1.7080 -2.6081
 6965WAT    EPW29667   3.102   0.128   0.279 -1.2068  0.4978 -1.1275
 6966WAT      O29668   2.410   5.997   1.787 -0.0187  0.6912 -0.4657
 6966WAT     H129669   2.335   5.989   1.728  0.1665  0.7564 -0.7082
 6966WAT     H229670   2.464   6.066   1.749 -0.7065  1.8992  0.6477
 6966WAT    EPW29671   2.407   6.005   1.774 -0.0849  0.8593 -0.3510
 6967WAT      O29672   9.510  10.015   2.698 -0.4433  0.4054 -0.1468
 6967WAT     H129673   9.531   9.987   2.609  3.7063  0.7818  0.4935
 6967WAT     H229674   9.537   9.941   2.753 -0.5400  1.1285  0.9020
 6967WAT    EPW29675   9.517  10.001   2.693  0.0916  0.5507  0.0761
 6968WAT      O29676   0.315   6.049   0.573 -0.0590  0.5628  0.5778
 6968WAT     H129677   0.341   6.048   0.481  0.2395  0.2959  0.6619
 6968WAT     H229678   0.270   6.133   0.585  0.0362  0.6651  0.2270
 6968WAT    EPW29679   0.312   6.060   0.563 -0.0071  0.5412  0.5426
 6969WAT      O29680  10.249   1.034   3.021 -0.1616  0.2636  0.3287
 6969WAT     H129681  10.338   1.003   3.037 -0.0741 -0.8020 -1.8602
 6969WAT     H229682  10.197   0.995   3.091  0.7287 -1.1124  0.2646
 6969WAT    EPW29683  10.254   1.025   3.032 -0.0329 -0.0584  0.0316
 6970WAT      O29684   6.741  10.301   1.591 -0.2886  0.2965 -0.8634
 6970WAT     H129685   6.830  10.297   1.626 -0.7589 -2.1830  0.2303
 6970WAT     H229686   6.707  10.384   1.623  0.5072 -0.2687  1.6875
 6970WAT    EPW29687   6.748  10.311   1.600 -0.2456 -0.1044 -0.3827
 6971WAT      O29688   8.823   2.052   1.228 -0.1978  0.0873  0.2894
 6971WAT     H129689   8.756   2.011   1.173  0.6252  1.3143 -1.7702
 6971WAT     H229690   8.877   1.979   1.258 -0.2133 -0.5953 -1.2328
 6971WAT    EPW29691   8.822   2.037   1.225 -0.0911  0.1591 -0.1830
 6972WAT      O29692   1.432   1.387   0.240 -0.1805 -0.1155  0.2280
 6972WAT     H129693   1.392   1.309   0.278  1.2948 -0.6834  0.7065
 6972WAT     H229694   1.358   1.438   0.207 -1.4855 -0.1663  2.7674
 6972WAT    EPW29695   1.417   1.383   0.241 -0.1580 -0.1971  0.6261
 6973WAT      O29696   6.130   6.927   1.638  0.6848  0.0464  0.4950
 6973WAT     H129697   6.220   6.955   1.621  1.3807 -0.1606  3.3142
 6973WAT     H229698   6.076   7.002   1.614  1.3398 -0.3410 -2.6943
 6973WAT    EPW29699   6.135   6.940   1.632  0.8631 -0.0319  0.4462
 6974WAT      O29700  10.976   1.417   3.356 -0.7016  0.0433 -0.4191
 6974WAT     H129701  10.986   1.471   3.434  2.2368  0.4698 -1.0026
 6974WAT     H229702  10.905   1.459   3.307 -1.0064  1.1257  0.9008
 6974WAT    EPW29703  10.968   1.429   3.360 -0.3538  0.2422 -0.3219
 6975WAT      O29704   0.484  10.121   0.294  0.1170 -0.1042  0.0136
 6975WAT     H129705   0.466  10.043   0.348 -0.2279  0.3146  0.5115
 6975WAT     H229706   0.452  10.194   0.347  3.3872  0.7434  1.0322
 6975WAT    EPW29707   0.477  10.120   0.308  0.5028  0.0625  0.2136
 6976WAT      O29708  10.435   2.449   4.256 -0.1819  0.1797  0.5511
 6976WAT     H129709  10.499   2.514   4.284  0.8977 -0.5368 -0.1637
 6976WAT     H229710  10.352   2.496   4.254  0.2328  1.0175  1.9293
 6976WAT    EPW29711  10.433   2.464   4.259  0.0148  0.1957  0.6382
 6977WAT      O29712   9.928   5.349   1.868  0.0293  0.0300 -0.6746
 6977WAT     H129713  10.007   5.314   1.909 -0.2143 -0.8050 -0.9111
 6977WAT     H229714   9.861   5.282   1.883 -0.7181  0.8555 -0.2090
 6977WAT    EPW29715   9.929   5.336   1.876 -0.1011  0.0286 -0.6443
 6978WAT      O29716   7.426   9.312   2.293  0.3185 -0.5250 -0.2159
 6978WAT     H129717   7.443   9.235   2.238 -0.8242  0.1520 -1.5816
 6978WAT     H229718   7.477   9.382   2.253  1.3514 -0.5300  1.0221
 6978WAT    EPW29719   7.435   9.311   2.281  0.3040 -0.4358 -0.2327
 6979WAT      O29720   2.698   0.652   2.737 -0.0550 -0.4105  0.5050
 6979WAT     H129721   2.748   0.598   2.798  0.6294  0.1901  0.4977
 6979WAT     H229722   2.606   0.630   2.754 -0.0199  0.9779  2.9914
 6979WAT    EPW29723   2.692   0.642   2.748  0.0399 -0.1481  0.8320
 6980WAT      O29724   9.382   0.531   0.869  0.6181  0.2855 -0.4520
 6980WAT     H129725   9.450   0.598   0.880  0.3559  1.0907 -2.9835
 6980WAT     H229726   9.310   0.577   0.826 -0.2014 -1.2821 -0.8314
 6980WAT    EPW29727   9.382   0.546   0.865  0.4754  0.1849 -0.8359
 6981WAT      O29728   1.737   1.830   2.422 -0.8957  0.5908  0.5649
 6981WAT     H129729   1.826   1.834   2.389 -0.5776 -0.6993  1.2048
 6981WAT     H229730   1.693   1.765   2.366 -1.3396  0.9734  0.4620
 6981WAT    EPW29731   1.743   1.822   2.410 -0.9123  0.4711  0.6357
 6982WAT      O29732   9.074   9.695   2.411  0.2642 -0.2240 -0.1292
 6982WAT     H129733   9.168   9.704   2.425  0.7955 -0.2703 -3.0829
 6982WAT     H229734   9.056   9.751   2.336 -2.2850  0.5145  0.9301
 6982WAT    EPW29735   9.084   9.704   2.403 -0.0024 -0.1326 -0.3791
 6983WAT      O29736   2.333   5.834   8.931  0.2878 -0.4080  0.2214
 6983WAT     H129737   2.345   5.748   8.972  0.1101 -1.0377 -0.9856
 6983WAT     H229738   2.287   5.815   8.849  2.8665  0.4653 -1.5592
 6983WAT    EPW29739   2.329   5.820   8.926  0.6045 -0.3760 -0.1731
 6984WAT      O29740   7.311   1.612   1.124  0.6785 -0.8347 -0.3610
 6984WAT     H129741   7.233   1.585   1.076 -0.2090 -1.7460  1.4831
 6984WAT     H229742   7.384   1.594   1.065 -0.3889 -1.5533 -1.4854
 6984WAT    EPW29743   7.311   1.606   1.110  0.4208 -1.0497 -0.2661
 6985WAT      O29744   8.024   9.847   1.541 -0.0459  0.0006  0.9703
 6985WAT     H129745   7.994   9.887   1.460 -0.4526 -0.9158  0.6636
 6985WAT     H229746   7.944   9.824   1.588  0.1042 -2.6196  0.0632
 6985WAT    EPW29747   8.010   9.850   1.537 -0.0796 -0.4659  0.8101
 6986WAT      O29748   8.608  10.282   0.101 -0.6747  0.5341 -0.4998
 6986WAT     H129749   8.568  10.228   0.169 -0.6461  1.1564  0.0204
 6986WAT     H229750   8.675  10.225   0.062 -1.8774 -0.4329 -1.2278
 6986WAT    EPW29751   8.612  10.267   0.105 -0.8302  0.4888 -0.5272
 6987WAT      O29752   9.518   1.717   0.942 -0.2208 -0.1768 -0.4657
 6987WAT     H129753   9.438   1.766   0.920  0.2365  1.0545  0.4808
 6987WAT     H229754   9.566   1.713   0.860 -1.1963 -0.8514 -1.0307
 6987WAT    EPW29755   9.513   1.723   0.929 -0.2894 -0.1034 -0.4154
 6988WAT      O29756   6.214   8.226   2.376  0.4433  1.3324 -0.0829
 6988WAT     H129757   6.165   8.269   2.446 -0.2282  0.7692 -0.1854
 6988WAT     H229758   6.276   8.291   2.345  1.4470  1.2849  1.7062
 6988WAT    EPW29759   6.216   8.240   2.381  0.4869  1.2517  0.1395
 6989WAT      O29760  10.381   1.580   0.087  1.1043 -0.0423  0.8396
 6989WAT     H129761  10.306   1.559   0.143 -0.0794 -0.3272 -0.8074
 6989WAT     H229762  10.449   1.518   0.115  0.0493 -1.1881  0.9677
 6989WAT    EPW29763  10.380   1.569   0.098  0.8092 -0.2310  0.6393
 6990WAT      O29764  10.763   0.200   1.427  0.2886 -0.4869 -0.3499
 6990WAT     H129765  10.698   0.199   1.498  0.3732 -0.5513 -0.2738
 6990WAT     H229766  10.747   0.283   1.382  1.6093  0.5585  1.0150
 6990WAT    EPW29767  10.752   0.211   1.431  0.4740 -0.3575 -0.1598
 6991WAT      O29768   2.923   4.208   8.067 -0.0364  0.4191 -0.7790
 6991WAT     H129769   2.990   4.155   8.024 -0.8516 -0.8707 -0.4886
 6991WAT     H229770   2.914   4.170   8.154 -1.8998 -0.1364 -1.1740
 6991WAT    EPW29771   2.930   4.196   8.073 -0.3897  0.1755 -0.7925
 6992WAT      O29772   0.092   1.050   0.451 -0.2009 -0.0803  0.4774
 6992WAT     H129773  -0.003   1.042   0.456 -0.2993 -1.1036 -1.7830
 6992WAT     H229774   0.108   1.106   0.375  0.9905 -0.9680  0.0366
 6992WAT    EPW29775   0.082   1.056   0.441 -0.0567 -0.3324  0.1211
 6993WAT      O29776   4.606   3.533   7.989  0.4434 -0.1860  0.1213
 6993WAT     H129777   4.620   3.596   7.919  0.6058  0.2084  0.5074
 6993WAT     H229778   4.677   3.470   7.979  0.2449 -0.3502 -0.3022
 6993WAT    EPW29779   4.617   3.533   7.979  0.4385 -0.1556  0.1166
 6994WAT      O29780  10.155   9.337   1.742  0.2794  0.5119 -0.6265
 6994WAT     H129781  10.216   9.390   1.793  1.0643 -1.0577  0.1516
 6994WAT     H229782  10.133   9.392   1.667  1.5503  1.6799 -0.1963
 6994WAT    EPW29783  10.160   9.351   1.739  0.5507  0.4592 -0.4671
 6995WAT      O29784  10.857   0.863   1.908  0.3785 -0.0906  0.0215
 6995WAT     H129785  10.857   0.813   1.826  1.0084  0.5798 -0.4036
 6995WAT     H229786  10.769   0.852   1.943 -0.0299 -0.0464 -0.9585
 6995WAT    EPW29787  10.846   0.855   1.901  0.4077  0.0036 -0.1639
 6996WAT      O29788   2.120   0.323   0.835  0.1764  0.1502 -0.5332
 6996WAT     H129789   2.139   0.367   0.918 -0.7068 -1.6707  0.6973
 6996WAT     H229790   2.033   0.355   0.810  0.1935  0.2615 -0.4521
 6996WAT    EPW29791   2.111   0.333   0.843  0.0621 -0.0753 -0.3602
 6997WAT      O29792   5.059   4.388   8.112  0.5631  0.2596 -0.6486
 6997WAT     H129793   5.079   4.473   8.072 -3.6091  1.4793 -0.6349
 6997WAT     H229794   5.073   4.403   8.206  2.2727  0.0937 -0.8628
 6997WAT    EPW29795   5.063   4.401   8.119  0.2382  0.3989 -0.6752
 6998WAT      O29796   0.407   0.886   3.725  0.3843  0.3386 -0.1283
 6998WAT     H129797   0.355   0.894   3.646  0.6555 -0.0407 -0.3494
 6998WAT     H229798   0.482   0.945   3.711  1.6694 -1.4323 -1.1779
 6998WAT    EPW29799   0.410   0.895   3.713  0.5896  0.0550 -0.2959
 6999WAT      O29800   9.774  10.188   4.677  0.0902 -0.4128  0.2307
 6999WAT     H129801   9.800  10.276   4.651 -2.6433  0.2758 -0.4642
 6999WAT     H229802   9.800  10.133   4.604 -0.6894  0.2896 -0.5974
 6999WAT    EPW29803   9.781  10.193   4.664 -0.3734 -0.2294  0.0298
 7000WAT      O29804   3.850   6.295   8.182  0.2573 -0.0310  0.3585
 7000WAT     H129805   3.859   6.264   8.092 -0.1662  3.2969 -0.9742
 7000WAT     H229806   3.761   6.270   8.206 -0.0570  0.1081 -0.6050
 7000WAT    EPW29807   3.839   6.287   8.173  0.1601  0.4263  0.0558
 7001WAT      O29808   4.301   7.025   8.597  0.2076  0.4193 -0.5019
 7001WAT     H129809   4.237   7.004   8.529 -0.3841 -0.2610  0.2401
 7001WAT     H229810   4.372   7.070   8.551 -0.6000  0.7916 -1.4119
 7001WAT    EPW29811   4.302   7.028   8.582  0.0234  0.3786 -0.5236
 7002WAT      O29812  10.436   9.584   3.712  0.3757  0.1514  0.2882
 7002WAT     H129813  10.361   9.557   3.765  0.4907  1.2227  1.0332
 7002WAT     H229814  10.404   9.657   3.660 -0.0807 -1.6327 -2.0997
 7002WAT    EPW29815  10.422   9.590   3.712  0.3304  0.0582  0.0716
 7003WAT      O29816   3.018   1.753   0.188  0.0440  0.4008 -0.4233
 7003WAT     H129817   3.086   1.687   0.173  0.4641  0.7270  0.0150
 7003WAT     H229818   2.977   1.765   0.103  0.0813 -0.2970 -0.5480
 7003WAT    EPW29819   3.022   1.745   0.175  0.1042  0.3518 -0.3820
 7004WAT      O29820   9.092   0.508   1.481  0.1535  0.0942 -0.6644
 7004WAT     H129821   9.130   0.425   1.453 -1.6671 -1.3331  0.8043
 7004WAT     H229822   9.055   0.545   1.401 -0.4338 -1.3420 -1.1017
 7004WAT    EPW29823   9.092   0.502   1.466 -0.1636 -0.2835 -0.5284
 7005WAT      O29824  10.131   1.919   1.659  0.9320 -0.4124  1.4207
 7005WAT     H129825  10.217   1.877   1.665  0.4331 -1.7497 -0.2006
 7005WAT     H229826  10.106   1.909   1.567 -1.3665 -0.8446  2.0490
 7005WAT    EPW29827  10.139   1.912   1.647  0.5627 -0.6459  1.2897
 7006WAT      O29828   4.012   2.965   1.093  0.0380 -0.5554  0.2538
 7006WAT     H129829   4.077   2.996   1.030 -0.5238 -1.6112 -0.9061
 7006WAT     H229830   3.973   3.044   1.129  1.5403  0.0834  0.5380
 7006WAT    EPW29831   4.016   2.979   1.089  0.1621 -0.6105  0.1383
 7007WAT      O29832   9.294   0.563   1.661 -0.4249  0.2423  0.0184
 7007WAT     H129833   9.379   0.576   1.619  1.5150  0.9597  3.7911
 7007WAT     H229834   9.232   0.565   1.588  2.6901 -0.0241 -2.9078
 7007WAT    EPW29835   9.297   0.565   1.646  0.2422  0.3018  0.1301
 7008WAT      O29836   3.859   5.220   8.918 -0.3383 -0.0586 -0.0021
 7008WAT     H129837   3.836   5.136   8.958  2.6475 -1.3570 -0.7951
 7008WAT     H229838   3.779   5.247   8.872 -1.1576 -2.9180 -0.4474
 7008WAT    EPW29839   3.845   5.213   8.917 -0.0526 -0.6073 -0.1650
 7009WAT      O29840   0.860   5.100   0.247  0.4785  0.2334  0.2894
 7009WAT     H129841   0.876   5.187   0.211  1.5006  0.2622  0.7635
 7009WAT     H229842   0.840   5.116   0.339  0.0626  0.0035  0.2406
 7009WAT    EPW29843   0.860   5.114   0.254  0.5585  0.2067  0.3455
 7010WAT      O29844   1.429   0.880   0.209 -0.2945  0.1470 -0.1200
 7010WAT     H129845   1.397   0.958   0.254  1.2225  0.2660  0.8417
 7010WAT     H229846   1.416   0.809   0.272  0.0460 -0.0421 -0.2609
 7010WAT    EPW29847   1.423   0.881   0.224 -0.0495  0.1377 -0.0118
 7011WAT      O29848   9.469   2.007   0.690  0.1598  0.3017 -0.2820
 7011WAT     H129849   9.429   2.094   0.692 -0.5560  0.1885 -3.6774
 7011WAT     H229850   9.409   1.952   0.741 -0.9216  1.2777 -0.4558
 7011WAT    EPW29851   9.456   2.011   0.697 -0.0772  0.4154 -0.7527
 7012WAT      O29852   0.204   1.477   2.204 -0.0697  0.5359 -0.1560
 7012WAT     H129853   0.157   1.556   2.230 -0.7094  0.7485 -1.8503
 7012WAT     H229854   0.140   1.407   2.213  0.3493  0.2579  0.8566
 7012WAT    EPW29855   0.190   1.478   2.208 -0.0988  0.5273 -0.2458
 7013WAT      O29856   7.554   9.501   2.117  0.0615 -0.3046  0.5243
 7013WAT     H129857   7.522   9.583   2.079 -0.0251 -0.3519  0.4942
 7013WAT     H229858   7.530   9.434   2.053 -0.5124 -0.4499  0.8854
 7013WAT    EPW29859   7.546   9.503   2.104 -0.0257 -0.3300  0.5680
 7014WAT      O29860   4.328   2.135   1.581 -1.0141 -0.0978 -0.0517
 7014WAT     H129861   4.413   2.169   1.553 -0.9992 -0.2611 -0.2060
 7014WAT     H229862   4.341   2.109   1.672 -1.0785  0.4966  0.1304
 7014WAT    EPW29863   4.341   2.136   1.589 -1.0207 -0.0409 -0.0481
 7015WAT      O29864   3.871   0.099   3.370 -0.5886 -0.1167  0.6747
 7015WAT     H129865   3.926   0.174   3.393 -0.7938  1.1303 -2.4579
 7015WAT     H229866   3.922   0.050   3.306 -1.3822 -1.3898  0.9863
 7015WAT    EPW29867   3.885   0.103   3.365 -0.7203 -0.1202  0.3027
 7016WAT      O29868   3.493   3.262   1.430  0.2401  0.2853  0.2115
 7016WAT     H129869   3.431   3.332   1.448  1.0144  0.8850  0.5959
 7016WAT     H229870   3.447   3.182   1.455 -1.0137  0.5352 -1.1329
 7016WAT    EPW29871   3.479   3.260   1.436  0.1769  0.3973  0.0848
 7017WAT      O29872   0.979   9.702   0.199  0.7060 -1.4184 -0.0138
 7017WAT     H129873   0.948   9.764   0.264 -2.0048 -1.2560 -1.3378
 7017WAT     H229874   1.070   9.684   0.224  0.4387  0.2881  2.4740
 7017WAT    EPW29875   0.987   9.708   0.211  0.3133 -1.1716  0.1397
 7018WAT      O29876   5.181   3.637   8.534 -0.5384  0.3554 -1.1669
 7018WAT     H129877   5.122   3.562   8.533 -1.3855  1.0176 -1.5387
 7018WAT     H229878   5.190   3.663   8.442 -0.9074  1.2147 -0.9655
 7018WAT    EPW29879   5.175   3.630   8.522 -0.6990  0.5560 -1.1892
 7019WAT      O29880   8.918   1.645   2.879 -0.4294 -0.2495  0.1166
 7019WAT     H129881   8.823   1.646   2.883 -0.4367 -0.6069  0.0753
 7019WAT     H229882   8.938   1.682   2.793 -0.5423 -0.4326  0.0096
 7019WAT    EPW29883   8.908   1.650   2.868 -0.4454 -0.3208  0.0969
 7020WAT      O29884   0.188   2.199   1.828  0.1032  0.0278 -0.5534
 7020WAT     H129885   0.116   2.242   1.874  1.4435  1.3161  0.4132
 7020WAT     H229886   0.144   2.145   1.762 -1.7853 -0.2000  0.8032
 7020WAT    EPW29887   0.173   2.198   1.825  0.0309  0.1677 -0.2469
 7021WAT      O29888  10.769   4.333   1.878  0.1064 -0.3459 -0.6757
 7021WAT     H129889  10.720   4.267   1.925 -0.3724  1.5989  1.7460
 7021WAT     H229890  10.854   4.336   1.923  1.4551 -1.6103 -2.9449
 7021WAT    EPW29891  10.774   4.325   1.890  0.2208 -0.2561 -0.6556
 7022WAT      O29892   7.624   8.734   3.257 -0.5247  0.8016 -0.0540
 7022WAT     H129893   7.571   8.705   3.183  0.0378 -0.4116 -0.0131
 7022WAT     H229894   7.604   8.672   3.327  1.5541 -0.2705 -0.3044
 7022WAT    EPW29895   7.615   8.722   3.256 -0.1764  0.5007 -0.0817
 7023WAT      O29896   1.700   1.722   1.026 -0.3862  0.9320  0.2795
 7023WAT     H129897   1.697   1.685   1.115  0.1123 -0.3788 -0.2278
 7023WAT     H229898   1.793   1.735   1.009 -0.4061  0.0992 -0.4799
 7023WAT    EPW29899   1.712   1.719   1.036 -0.3231  0.6493  0.1124
 7024WAT      O29900   8.652   0.618   2.145 -0.0924  0.5640 -0.1961
 7024WAT     H129901   8.699   0.690   2.188 -2.0877  2.4206 -0.9207
 7024WAT     H229902   8.626   0.655   2.060 -0.6364 -1.2562 -0.8613
 7024WAT    EPW29903   8.655   0.633   2.139 -0.4277  0.5688 -0.3793
 7025WAT      O29904   8.735   8.831   4.213  0.0634 -0.4067 -0.6943
 7025WAT     H129905   8.789   8.890   4.161 -2.1698 -0.0904 -2.7751
 7025WAT     H229906   8.702   8.886   4.285  0.2570  0.1084 -0.9944
 7025WAT    EPW29907   8.738   8.846   4.216 -0.2050 -0.2971 -1.0083
 7026WAT      O29908   3.284   4.817   8.902  0.0113  0.3665 -0.2419
 7026WAT     H129909   3.236   4.752   8.851  1.6013 -0.5959 -0.5763
 7026WAT     H229910   3.257   4.901   8.865 -1.7755 -0.0923 -0.0682
 7026WAT    EPW29911   3.274   4.820   8.890 -0.0147  0.1791 -0.2632
 7027WAT      O29912   9.106   9.741   2.111 -0.3896 -0.2905 -0.1409
 7027WAT     H129913   9.014   9.728   2.090 -0.4467  0.2628 -0.2466
 7027WAT     H229914   9.125   9.830   2.082  0.6327 -0.9992 -1.7668
 7027WAT    EPW29915   9.097   9.751   2.105 -0.2623 -0.3114 -0.3692
 7028WAT      O29916   4.604   0.313   2.255 -0.3092 -0.2347  0.2911
 7028WAT     H129917   4.512   0.292   2.271 -0.2118 -2.0066 -1.1040
 7028WAT     H229918   4.650   0.231   2.269  0.6296 -0.1642 -1.9153
 7028WAT    EPW29919   4.598   0.300   2.259 -0.1724 -0.4591 -0.1839
 7029WAT      O29920   5.851   7.892   2.028  0.3409  0.0007 -0.4547
 7029WAT     H129921   5.938   7.882   2.066  0.4637  4.1486  0.8938
 7029WAT     H229922   5.792   7.899   2.103 -0.6453  0.5538 -1.2439
 7029WAT    EPW29923   5.854   7.892   2.043  0.2272  0.6208 -0.3809
 7030WAT      O29924  10.372   9.465   2.664  0.0216 -0.2455  0.4213
 7030WAT     H129925  10.415   9.533   2.716  0.9459  0.7827 -1.5725
 7030WAT     H229926  10.280   9.472   2.687 -0.2018  2.9171 -0.9395
 7030WAT    EPW29927  10.366   9.475   2.674  0.1144  0.3071 -0.0212
 7031WAT      O29928   2.089   3.268   8.178 -0.3909  0.1228  0.6920
 7031WAT     H129929   2.028   3.282   8.105 -0.4828 -2.4678  0.1718
 7031WAT     H229930   2.175   3.290   8.142 -0.5206 -0.4518  0.0066
 7031WAT    EPW29931   2.092   3.273   8.164 -0.4201 -0.2946  0.5331
 7032WAT      O29932   2.145   0.947   0.298  0.4262  0.0308  0.0770
 7032WAT     H129933   2.239   0.965   0.309 -0.0140  1.7284  1.3535
 7032WAT     H229934   2.124   0.984   0.212  0.5718  1.3080  0.5692
 7032WAT    EPW29935   2.155   0.954   0.288  0.3873  0.4232  0.3103
 7033WAT      O29936   1.566   1.100   2.105  0.0680 -0.8799  0.0734
 7033WAT     H129937   1.585   1.145   2.188  0.5225  1.5933 -1.2888
 7033WAT     H229938   1.479   1.062   2.119  0.0096 -0.2850  1.6067
 7033WAT    EPW29939   1.557   1.101   2.118  0.1202 -0.4752  0.0960
 7034WAT      O29940   6.643   7.870   1.661  0.3267 -0.7194 -0.1527
 7034WAT     H129941   6.637   7.933   1.732  4.3429  0.4636 -0.6280
 7034WAT     H229942   6.636   7.923   1.581 -1.2588 -1.6615 -0.7038
 7034WAT    EPW29943   6.641   7.885   1.660  0.6473 -0.6876 -0.2881
 7035WAT      O29944   3.847   3.625   7.479  0.0140  0.3562 -0.2214
 7035WAT     H129945   3.769   3.680   7.480  0.4951  1.0577 -0.6466
 7035WAT     H229946   3.824   3.551   7.422 -0.8380 -0.2088  0.8212
 7035WAT    EPW29947   3.834   3.622   7.472 -0.0349  0.3743 -0.1400
 7036WAT      O29948  10.294   0.499   1.101  0.2233 -0.1439  0.4406
 7036WAT     H129949  10.244   0.418   1.114 -1.4071  0.6997 -0.3203
 7036WAT     H229950  10.358   0.476   1.033  0.9287 -1.2495  1.4436
 7036WAT    EPW29951  10.296   0.485   1.094  0.1011 -0.1785  0.4725
 7037WAT      O29952   2.678   7.211   8.733  0.1647  0.1914  0.3119
 7037WAT     H129953   2.604   7.184   8.679  1.6942  0.6849 -2.1987
 7037WAT     H229954   2.638   7.263   8.803 -2.0570 -1.7775  0.6545
 7037WAT    EPW29955   2.663   7.214   8.735  0.0734 -0.0033  0.0253
 7038WAT      O29956   0.354   8.235   8.579  0.5943  0.0843 -0.5055
 7038WAT     H129957   0.349   8.250   8.484 -0.7391  1.0050 -0.3225
 7038WAT     H229958   0.406   8.155   8.588 -1.2573 -1.4146 -2.1515
 7038WAT    EPW29959   0.361   8.227   8.567  0.1742  0.0081 -0.6986
 7039WAT      O29960   0.156   0.163   1.043 -0.6490 -0.3249  0.5556
 7039WAT     H129961   0.143   0.137   1.134  1.0627  0.8737  1.1966
 7039WAT     H229962   0.125   0.088   0.992  0.3264 -1.9247  2.1860
 7039WAT    EPW29963   0.150   0.150   1.049 -0.2946 -0.3778  0.8551
 7040WAT      O29964   0.130   1.179   0.211 -0.0124  0.0516  0.0774
 7040WAT     H129965   0.179   1.253   0.248 -1.1875  0.7843  0.2175
 7040WAT     H229966   0.196   1.130   0.162  0.5685  2.0052 -1.2664
 7040WAT    EPW29967   0.146   1.183   0.209 -0.0907  0.4060 -0.0814
 7041WAT      O29968  10.537   9.521   1.434  0.4011  0.3884  0.6402
 7041WAT     H129969  10.460   9.559   1.476  0.5030  2.0041 -0.5500
 7041WAT     H229970  10.503   9.477   1.356  0.5372 -0.0630  0.8323
 7041WAT    EPW29971  10.522   9.520   1.429  0.4320  0.5422  0.5086
 7042WAT      O29972   0.116   1.461   1.683 -0.3380 -0.6614 -0.4666
 7042WAT     H129973   0.048   1.528   1.681  0.7887  0.5075 -0.5980
 7042WAT     H229974   0.151   1.465   1.772 -0.4060 -1.2394 -0.4068
 7042WAT    EPW29975   0.112   1.470   1.695 -0.1983 -0.5835 -0.4760
 7043WAT      O29976   2.957   6.224   8.690  0.2633 -0.5031 -0.1256
 7043WAT     H129977   3.016   6.232   8.615  2.2699  0.4252  1.4508
 7043WAT     H229978   2.872   6.205   8.651  1.6076 -2.2899 -2.5236
 7043WAT    EPW29979   2.954   6.223   8.675  0.7054 -0.6166 -0.2341
 7044WAT      O29980   1.068   2.010   2.957 -0.3506 -0.3586  0.4733
 7044WAT     H129981   1.147   2.035   3.006 -1.5903 -0.4071  2.6432
 7044WAT     H229982   1.063   1.915   2.967  0.1114 -0.5596 -0.9939
 7044WAT    EPW29983   1.078   2.001   2.965 -0.4532 -0.3915  0.5658
 7045WAT      O29984   4.549   7.090   8.781  0.5825  0.4833 -0.4683
 7045WAT     H129985   4.478   7.060   8.724  1.1262 -0.3099 -0.7632
 7045WAT     H229986   4.619   7.025   8.767  0.1404 -0.7643  2.4004
 7045WAT    EPW29987   4.549   7.077   8.771  0.5960  0.2143 -0.1283
 7046WAT      O29988   7.948   7.427   0.427  0.4594 -0.0301 -0.6023
 7046WAT     H129989   8.020   7.487   0.404  0.5997  0.0486  0.0286
 7046WAT     H229990   7.898   7.419   0.346  1.7693 -0.9220 -1.3582
 7046WAT    EPW29991   7.951   7.434   0.413  0.6506 -0.1376 -0.6187
 7047WAT      O29992   8.235   5.051   8.106 -0.1099 -0.2259 -0.2728
 7047WAT     H129993   8.194   5.004   8.034 -0.6500  0.3735 -0.3657
 7047WAT     H229994   8.227   5.144   8.082  1.5920 -0.0944 -0.4427
 7047WAT    EPW29995   8.228   5.057   8.093  0.0434 -0.1295 -0.3076
 7048WAT      O29996   1.986   1.421   2.814  0.0788  0.0867  0.4356
 7048WAT     H129997   1.911   1.409   2.756 -1.8514  2.8033  2.0775
 7048WAT     H229998   1.967   1.365   2.889  1.1522 -1.3037 -0.2969
 7048WAT    EPW29999   1.973   1.412   2.817 -0.0342  0.2617  0.5554
 7049WAT      O30000  10.222   0.783   8.537 -0.1124 -0.0285  0.7435
 7049WAT     H130001  10.298   0.805   8.590 -0.6976  1.5047  0.9921
 7049WAT     H230002  10.147   0.816   8.587 -0.7886  0.1950 -0.3785
 7049WAT    EPW30003  10.222   0.790   8.551 -0.2789  0.2032  0.6285
 7050WAT      O30004   1.125   0.702   1.004  0.4144  0.5033  0.7268
 7050WAT     H130005   1.146   0.647   0.928 -0.4672 -0.7506  1.3588
 7050WAT     H230006   1.169   0.785   0.986  0.1252  0.2899 -1.2262
 7050WAT    EPW30007   1.134   0.706   0.992  0.2599  0.3097  0.5525
 7051WAT      O30008   2.272   2.468   0.160  0.1172 -0.2187 -0.2873
 7051WAT     H130009   2.258   2.472   0.066  1.5920  0.7684 -0.5180
 7051WAT     H230010   2.367   2.473   0.170 -0.0671  1.8305  1.2891
 7051WAT    EPW30011   2.283   2.469   0.149  0.2873  0.1819 -0.1098
 7052WAT      O30012   0.272   0.063   0.662  0.2039  0.0009 -0.5107
 7052WAT     H130013   0.216   0.138   0.678 -0.5335 -0.4469 -0.9396
 7052WAT     H230014   0.355   0.086   0.704 -0.4346  0.4707  0.5285
 7052WAT    EPW30015   0.276   0.076   0.669  0.0225  0.0038 -0.4302
 7053WAT      O30016   3.815   7.977   8.744  0.1550  0.5280 -0.4878
 7053WAT     H130017   3.770   7.934   8.817 -1.5289  0.4562 -1.5257
 7053WAT     H230018   3.766   8.057   8.730  1.4601  1.3499 -0.5184
 7053WAT    EPW30019   3.802   7.982   8.752  0.1050  0.6270 -0.6289
 7054WAT      O30020   8.925   8.010   1.392  0.0907 -0.3880 -0.6659
 7054WAT     H130021   8.998   8.033   1.335  0.6262 -0.9487 -0.2159
 7054WAT     H230022   8.889   8.094   1.420  2.2809 -0.0034  1.2964
 7054WAT    EPW30023   8.930   8.024   1.388  0.4501 -0.4115 -0.3477
 7055WAT      O30024   4.254   4.803   8.487 -0.7264 -0.1385  0.6562
 7055WAT     H130025   4.345   4.785   8.511  0.7831  4.1201 -0.8411
 7055WAT     H230026   4.225   4.867   8.552 -1.1134  1.6624 -1.2026
 7055WAT    EPW30027   4.262   4.809   8.499 -0.5782  0.6607  0.2131
 7056WAT      O30028   0.447   2.469   2.795  0.4482  0.4736 -0.1172
 7056WAT     H130029   0.488   2.419   2.865  1.2428 -0.2058 -1.0448
 7056WAT     H230030   0.382   2.524   2.839 -1.5006 -2.3797  0.8355
 7056WAT    EPW30031   0.444   2.470   2.810  0.2960  0.0077 -0.1140
 7057WAT      O30032   6.832   9.704   0.005 -0.7940 -0.3846 -0.4899
 7057WAT     H130033   6.800   9.618   0.033  0.2472 -0.5595  0.1856
 7057WAT     H230034   6.892   9.732   0.074 -0.7570  0.6802 -0.9338
 7057WAT    EPW30035   6.835   9.696   0.017 -0.6516 -0.2670 -0.4592
 7058WAT      O30036   1.315   2.818   2.546  0.7751 -0.1191 -0.1043
 7058WAT     H130037   1.237   2.769   2.570  0.7539 -0.4659 -0.8510
 7058WAT     H230038   1.291   2.861   2.464  1.5758 -0.7381 -0.6750
 7058WAT    EPW30039   1.301   2.818   2.538  0.8780 -0.2465 -0.2782
 7059WAT      O30040   6.528   8.400   7.862  0.0945 -0.1713  0.1082
 7059WAT     H130041   6.461   8.467   7.848  0.3407  0.0606  0.0393
 7059WAT     H230042   6.553   8.409   7.954  0.9260  0.5735 -0.1828
 7059WAT    EPW30043   6.522   8.410   7.872  0.2367 -0.0424  0.0610
 7060WAT      O30044   6.546  10.089   1.347 -0.0770  0.3877  0.3349
 7060WAT     H130045   6.468  10.144   1.348  0.2314  0.8396  1.6490
 7060WAT     H230046   6.607  10.135   1.289 -0.3096  0.7200  0.3504
 7060WAT    EPW30047   6.544  10.102   1.339 -0.0670  0.4911  0.5103
 7061WAT      O30048   0.216   9.122   0.737 -1.1338  0.7566  0.1670
 7061WAT     H130049   0.172   9.038   0.739  0.3469 -0.0471  0.2028
 7061WAT     H230050   0.175   9.173   0.808 -1.8975 -0.0020  0.2747
 7061WAT    EPW30051   0.205   9.118   0.747 -1.0393  0.5507  0.1859
 7062WAT      O30052   7.540   0.362   0.533 -0.6762 -0.4124  0.3779
 7062WAT     H130053   7.524   0.381   0.626 -1.6637  0.3629  0.0641
 7062WAT     H230054   7.478   0.418   0.486  1.3126  0.8733 -0.8405
 7062WAT    EPW30055   7.530   0.372   0.539 -0.5441 -0.1406  0.1758
 7063WAT      O30056   4.153   2.225   0.844 -0.3807  0.3033  0.4806
 7063WAT     H130057   4.157   2.258   0.933  2.7395  0.3949  0.4188
 7063WAT     H230058   4.086   2.279   0.801 -0.0541  2.0613  2.0677
 7063WAT    EPW30059   4.145   2.236   0.850  0.0739  0.5472  0.6818
 7064WAT      O30060   0.353   0.484   4.500  0.3163  0.3474 -0.1520
 7064WAT     H130061   0.279   0.515   4.552 -0.2979  0.2180 -0.9401
 7064WAT     H230062   0.425   0.543   4.524  0.8452 -1.3227  2.8797
 7064WAT    EPW30063   0.353   0.496   4.510  0.3050  0.1100  0.1440
 7065WAT      O30064   5.387   8.266   6.966  0.4387  0.2467  0.0221
 7065WAT     H130065   5.439   8.194   7.001 -1.4419 -0.5785  1.2869
 7065WAT     H230066   5.391   8.333   7.034 -1.9777 -0.7611  1.2809
 7065WAT    EPW30067   5.394   8.265   6.980 -0.1283  0.0048  0.3550
 7066WAT      O30068   0.582   1.203   0.102 -0.3121  0.0827  0.8299
 7066WAT     H130069   0.560   1.278   0.047 -2.0004  0.6862  2.2612
 7066WAT     H230070   0.646   1.154   0.050 -0.7210  1.4011 -1.0184
 7066WAT    EPW30071   0.587   1.206   0.088 -0.5888  0.3361  0.7749
 7067WAT      O30072   9.615  10.238   1.424  0.6175 -0.0950  0.3379
 7067WAT     H130073   9.614  10.287   1.507 -0.3809  0.8001 -0.1832
 7067WAT     H230074   9.664  10.295   1.364 -0.5300  0.2893 -0.2662
 7067WAT    EPW30075   9.621  10.252   1.427  0.3343  0.0734  0.1895
 7068WAT      O30076   3.666   6.670   8.157 -0.0112  1.2941 -0.4002
 7068WAT     H130077   3.640   6.735   8.222  2.7539  0.8668  1.3340
 7068WAT     H230078   3.616   6.592   8.179 -0.7518  1.8042 -0.2384
 7068WAT    EPW30079   3.656   6.669   8.168  0.2559  1.3051 -0.1502
 7069WAT      O30080   1.653   9.712   7.062 -0.3890 -0.1056 -0.3125
 7069WAT     H130081   1.716   9.761   7.009 -1.4868  2.8763  0.9173
 7069WAT     H230082   1.574   9.709   7.008 -0.3234 -0.5376 -0.3845
 7069WAT    EPW30083   1.651   9.718   7.048 -0.5252  0.2308 -0.1595
 7070WAT      O30084   6.489   9.273   0.122 -0.3422  0.3707 -0.1214
 7070WAT     H130085   6.449   9.293   0.206  1.4760  2.3111  0.3835
 7070WAT     H230086   6.436   9.320   0.058 -0.1088  1.2176  0.2941
 7070WAT    EPW30087   6.477   9.282   0.124 -0.0718  0.7381 -0.0000
 7071WAT      O30088   1.632   2.710   0.070 -0.4486  0.6411 -0.5131
 7071WAT     H130089   1.554   2.669   0.107 -0.0517  1.3564  1.2509
 7071WAT     H230090   1.605   2.800   0.050 -1.2196 -0.2357 -4.0310
 7071WAT    EPW30091   1.618   2.717   0.072 -0.4980  0.6198 -0.7445
 7072WAT      O30092   6.738   5.710   8.193  0.0149  0.1303  0.5712
 7072WAT     H130093   6.792   5.788   8.178 -0.8499  1.1501  2.4952
 7072WAT     H230094   6.800   5.644   8.226  0.5858  0.2752 -0.1784
 7072WAT    EPW30095   6.753   5.711   8.195 -0.0236  0.2842  0.7257
 7073WAT      O30096   0.982   3.472   2.929 -0.0163 -1.4967  0.8960
 7073WAT     H130097   0.952   3.406   2.866  1.6682 -0.6848 -0.8497
 7073WAT     H230098   1.076   3.455   2.939  0.9233  1.7221 -1.1350
 7073WAT    EPW30099   0.990   3.461   2.922  0.3299 -0.9652  0.3979
 7074WAT      O30100   5.229  10.308   8.010  0.1637  0.3298  0.3729
 7074WAT     H130101   5.236  10.238   7.946 -0.5988 -0.1335  0.7816
 7074WAT     H230102   5.220  10.388   7.958  1.1266  0.1477 -0.0950
 7074WAT    EPW30103   5.229  10.310   7.995  0.1903  0.2446  0.3650
 7075WAT      O30104   4.024   6.702   8.952 -0.0046 -0.3365  0.3679
 7075WAT     H130105   4.045   6.686   9.044 -2.1213 -3.2928  0.4831
 7075WAT     H230106   3.947   6.759   8.954 -1.7275 -2.5447  0.6523
 7075WAT    EPW30107   4.017   6.708   8.964 -0.5107 -1.0180  0.4206
 7076WAT      O30108   1.610   5.289   0.406  0.0121 -0.0305 -0.5744
 7076WAT     H130109   1.590   5.270   0.315 -3.4743  0.2278  0.0092
 7076WAT     H230110   1.647   5.377   0.406  0.8759 -0.3740 -1.7672
 7076WAT    EPW30111   1.612   5.298   0.394 -0.3338 -0.0415 -0.6548
 7077WAT      O30112   0.518   0.234   0.645 -0.6289 -0.1618 -0.2362
 7077WAT     H130113   0.510   0.221   0.739 -0.8084 -0.9194 -0.3473
 7077WAT     H230114   0.428   0.251   0.615 -0.7127 -0.8543 -0.3945
 7077WAT    EPW30115   0.505   0.234   0.653 -0.6637 -0.3531 -0.2717
 7078WAT      O30116   7.624   1.307   1.448  0.6530  0.2539  0.4108
 7078WAT     H130117   7.704   1.327   1.496  1.0360 -0.1707 -0.0411
 7078WAT     H230118   7.652   1.250   1.377  0.0972  0.8311 -0.2989
 7078WAT    EPW30119   7.638   1.302   1.445  0.6301  0.2739  0.2576
 7079WAT      O30120   9.477   9.660   2.849  0.2699 -0.0532 -0.8359
 7079WAT     H130121   9.392   9.701   2.834  0.3138  0.1210 -0.6199
 7079WAT     H230122   9.500   9.620   2.765 -0.4319 -0.8585 -0.6591
 7079WAT    EPW30123   9.469   9.660   2.836  0.1831 -0.1369 -0.7842
 7080WAT      O30124   1.864   3.818   1.329 -0.1970  0.1560  0.3117
 7080WAT     H130125   1.840   3.748   1.391  0.4425  0.1520  0.5570
 7080WAT     H230126   1.788   3.876   1.329 -0.8522 -0.6850 -0.1057
 7080WAT    EPW30127   1.851   3.816   1.337 -0.1991  0.0446  0.2890
 7081WAT      O30128   1.391   4.144   0.226  0.6096 -0.1515  0.1496
 7081WAT     H130129   1.414   4.086   0.154 -1.0989  0.0153 -0.5834
 7081WAT     H230130   1.426   4.229   0.201  0.2725 -0.1582 -0.3616
 7081WAT    EPW30131   1.399   4.147   0.213  0.3399 -0.1302 -0.0145
 7082WAT      O30132   0.213   0.908   0.957  0.7108 -0.5003 -0.1174
 7082WAT     H130133   0.282   0.913   1.024  1.2153 -2.3484 -0.4494
 7082WAT     H230134   0.172   0.823   0.971 -0.2998 -0.1942 -1.0959
 7082WAT    EPW30135   0.217   0.897   0.968  0.6440 -0.7037 -0.2902
 7083WAT      O30136   2.311   8.851   7.144  0.6858 -0.1532  1.0695
 7083WAT     H130137   2.382   8.830   7.204  1.0395 -2.0184  0.0839
 7083WAT     H230138   2.232   8.815   7.185  1.0427 -2.1443  0.1542
 7083WAT    EPW30139   2.310   8.843   7.157  0.7796 -0.6614  0.8187
 7084WAT      O30140   3.568   6.809   8.388 -0.1985 -0.0521  0.0367
 7084WAT     H130141   3.611   6.895   8.387 -0.3012  0.0407 -2.3959
 7084WAT     H230142   3.524   6.806   8.473  1.7750  1.2566  1.2202
 7084WAT    EPW30143   3.568   6.820   8.399  0.0483  0.1326 -0.1283
 7085WAT      O30144   6.729  10.359   0.932  0.0763 -0.0514  0.9297
 7085WAT     H130145   6.782  10.280   0.943 -0.6673 -0.6963  0.0646
 7085WAT     H230146   6.743  10.384   0.840  0.3722  0.8907  1.2175
 7085WAT    EPW30147   6.738  10.352   0.921  0.0172 -0.0122  0.8536
 7086WAT      O30148   0.266   0.844   0.377 -0.2378 -0.1888  1.1476
 7086WAT     H130149   0.192   0.825   0.435 -0.6679 -0.3279  0.5622
 7086WAT     H230150   0.261   0.938   0.361 -0.5558 -0.2762  0.7428
 7086WAT    EPW30151   0.256   0.854   0.383 -0.3365 -0.2186  1.0170
 7087WAT      O30152   2.503   4.960   1.053  0.1751  0.1168  0.7479
 7087WAT     H130153   2.539   4.876   1.082  2.3944  0.9301  0.5507
 7087WAT     H230154   2.425   4.937   1.004  0.1580 -1.7552  1.5662
 7087WAT    EPW30155   2.498   4.946   1.050  0.4656 -0.0226  0.8299
 7088WAT      O30156   4.360   4.177   3.072 -0.3355  0.4037  0.4429
 7088WAT     H130157   4.310   4.164   2.991  2.1899 -1.7467 -0.9877
 7088WAT     H230158   4.420   4.249   3.051 -0.0919  0.2497  0.6094
 7088WAT    EPW30159   4.362   4.185   3.058  0.0296  0.1001  0.2761
 7089WAT      O30160   8.995   9.939   3.219  0.4037  0.5276  0.5413
 7089WAT     H130161   8.949  10.013   3.259  0.5811 -0.0650  1.8921
 7089WAT     H230162   9.060   9.979   3.162 -1.2018  1.3935 -0.8005
 7089WAT    EPW30163   8.997   9.954   3.217  0.2155  0.5636  0.5425
 7090WAT      O30164   3.669   7.829   7.809  0.2542  0.5165 -0.0327
 7090WAT     H130165   3.649   7.913   7.767  1.9493  1.1399  0.3228
 7090WAT     H230166   3.760   7.838   7.838  0.0038 -0.9225  1.3039
 7090WAT    EPW30167   3.679   7.841   7.807  0.4447  0.4089  0.1905
 7091WAT      O30168   9.714   4.112   1.352  0.0523 -0.0784 -0.2552
 7091WAT     H130169   9.769   4.164   1.410 -0.2710 -0.0010 -0.0176
 7091WAT     H230170   9.774   4.048   1.314 -0.0777 -1.3842  1.6215
 7091WAT    EPW30171   9.729   4.110   1.354 -0.0076 -0.2406  0.0238
 7092WAT      O30172  10.018   3.808   1.436  0.3672 -0.1172 -0.4271
 7092WAT     H130173   9.957   3.838   1.369  0.8491  2.7585  0.2781
 7092WAT     H230174  10.098   3.787   1.389  0.8875  2.4023 -0.8426
 7092WAT    EPW30175  10.021   3.809   1.421  0.4988  0.5944 -0.3889
 7093WAT      O30176   5.124   4.789   8.791 -0.6664 -0.0784  0.3830
 7093WAT     H130177   5.160   4.868   8.832 -0.8835  0.0225  0.3792
 7093WAT     H230178   5.194   4.724   8.801 -1.8462 -1.0156  3.8226
 7093WAT    EPW30179   5.138   4.791   8.798 -0.8509 -0.1886  0.8359
 7094WAT      O30180   7.510   0.773   8.764 -0.0994 -0.1751 -0.9428
 7094WAT     H130181   7.510   0.688   8.808  1.1759  1.3847  2.3825
 7094WAT     H230182   7.596   0.780   8.724  0.9817  0.6076  1.3239
 7094WAT    EPW30183   7.521   0.763   8.764  0.2112  0.1339 -0.2050
 7095WAT      O30184   1.956   8.647   8.888  0.0469 -0.4625 -0.0795
 7095WAT     H130185   1.870   8.685   8.871 -0.4593 -0.9458  1.2727
 7095WAT     H230186   2.010   8.676   8.814 -0.2504  2.9466  0.8715
 7095WAT    EPW30187   1.952   8.656   8.876 -0.0591 -0.0763  0.2241
 7096WAT      O30188   4.928   6.115   8.759 -0.5824  0.3197 -1.0422
 7096WAT     H130189   4.993   6.151   8.819 -2.8790  2.3815  0.4216
 7096WAT     H230190   4.873   6.059   8.815 -0.2202 -1.2826 -2.2112
 7096WAT    EPW30191   4.929   6.112   8.774 -0.8378  0.3803 -1.0037
 7097WAT      O30192   7.681   1.311   7.878  0.1657  0.5426 -0.0441
 7097WAT     H130193   7.759   1.366   7.875  0.9433 -0.2898  2.5007
 7097WAT     H230194   7.700   1.238   7.819  0.2689  1.5179 -1.2698
 7097WAT    EPW30195   7.694   1.309   7.870  0.2818  0.5615  0.1297
 7098WAT      O30196   7.562   9.411   7.970 -0.1217 -0.5281 -0.0227
 7098WAT     H130197   7.505   9.349   7.924 -2.1010  0.2827  1.1659
 7098WAT     H230198   7.505   9.486   7.988  1.2700  0.2331  1.4780
 7098WAT    EPW30199   7.547   9.413   7.966 -0.1991 -0.3204  0.3319
 7099WAT      O30200   8.445   6.360   8.640 -0.1190  0.2611  0.6036
 7099WAT     H130201   8.379   6.429   8.639 -1.0888 -0.6199 -1.1410
 7099WAT     H230202   8.513   6.393   8.699 -0.4421  2.7799 -0.2904
 7099WAT    EPW30203   8.446   6.373   8.648 -0.2894  0.4771  0.2551
 7100WAT      O30204   4.312   1.728   0.452  0.2829 -0.7152  0.2434
 7100WAT     H130205   4.394   1.775   0.448 -0.3399  0.3350 -0.9035
 7100WAT     H230206   4.315   1.681   0.535  2.7665 -2.0950 -0.5283
 7100WAT    EPW30207   4.323   1.728   0.462  0.5281 -0.7586 -0.0097
 7101WAT      O30208  10.649   0.335   2.754 -0.4499 -0.0757 -1.0544
 7101WAT     H130209  10.674   0.300   2.668 -1.3599 -1.6868 -0.6798
 7101WAT     H230210  10.698   0.417   2.760  0.7235 -0.6163 -2.5163
 7101WAT    EPW30211  10.659   0.342   2.743 -0.4153 -0.3595 -1.1978
 7102WAT      O30212   1.798   5.362   3.190 -0.1087  0.6449 -0.5571
 7102WAT     H130213   1.824   5.271   3.201 -1.9009  0.1915  0.2831
 7102WAT     H230214   1.743   5.362   3.112 -0.6179  0.8768 -0.2040
 7102WAT    EPW30215   1.794   5.350   3.181 -0.4122  0.6156 -0.3997
 7103WAT      O30216   2.620   0.744   0.583 -0.6702  0.6716  0.6248
 7103WAT     H130217   2.636   0.838   0.589 -0.5274  0.5983  1.4312
 7103WAT     H230218   2.691   0.704   0.634  1.5661 -0.0884 -2.7441
 7103WAT    EPW30219   2.632   0.751   0.590 -0.3563  0.5617  0.2869
 7104WAT      O30220   4.987   0.573   0.984  0.3927 -0.2004 -0.2458
 7104WAT     H130221   5.073   0.589   1.025  0.4331  0.0325 -0.4208
 7104WAT     H230222   4.980   0.641   0.917 -0.7032  0.9057  0.9497
 7104WAT    EPW30223   4.998   0.584   0.981  0.2534 -0.0238 -0.1112
 7105WAT      O30224   7.679   0.701   7.827 -0.8182 -1.0287 -0.1986
 7105WAT     H130225   7.725   0.780   7.854 -0.9592 -1.1348  0.3708
 7105WAT     H230226   7.749   0.637   7.811 -0.7352 -1.0103  0.0767
 7105WAT    EPW30227   7.695   0.703   7.829 -0.8259 -1.0402 -0.0870
 7106WAT      O30228  10.863   0.689   1.085  0.1296  0.6899  0.3259
 7106WAT     H130229  10.892   0.773   1.120  2.2499 -0.0765  0.5468
 7106WAT     H230230  10.941   0.653   1.041 -0.6242 -1.2947  0.5157
 7106WAT    EPW30231  10.877   0.695   1.084  0.3099  0.3271  0.3801
 7107WAT      O30232   8.393   4.299   1.945 -0.0533 -0.1380  0.1582
 7107WAT     H130233   8.483   4.328   1.961  0.0838 -0.5710  0.2029
 7107WAT     H230234   8.341   4.348   2.008  0.2036 -0.1608  0.3948
 7107WAT    EPW30235   8.398   4.309   1.956 -0.0010 -0.1979  0.1954
 7108WAT      O30236   1.897   3.908   2.524 -0.1595  0.1868  0.0432
 7108WAT     H130237   1.842   3.979   2.557 -1.6570  0.5594 -2.9309
 7108WAT     H230238   1.835   3.839   2.501  0.5268  0.4891 -3.1080
 7108WAT    EPW30239   1.881   3.909   2.525 -0.2666  0.2759 -0.7647
 7109WAT      O30240   3.020   2.713   0.448  0.1192  0.0766 -0.0157
 7109WAT     H130241   3.074   2.647   0.491 -0.2045 -0.6692 -0.7240
 7109WAT     H230242   3.038   2.794   0.496  1.3367 -0.2942  0.1866
 7109WAT    EPW30243   3.029   2.715   0.460  0.2370 -0.0707 -0.0824
 7110WAT      O30244   0.580   2.747   3.014  0.1598 -0.2149 -0.0977
 7110WAT     H130245   0.492   2.737   2.978 -0.7011  0.5757  1.6576
 7110WAT     H230246   0.582   2.688   3.090  0.7498  0.5839  0.5306
 7110WAT    EPW30247   0.569   2.738   3.019  0.1240 -0.0052  0.2167
 7111WAT      O30248   4.016   5.470   8.581 -0.4676 -0.3404 -1.1553
 7111WAT     H130249   3.937   5.508   8.621  0.8685  1.3530  0.0591
 7111WAT     H230250   4.070   5.547   8.560  0.2624 -1.3777 -3.3195
 7111WAT    EPW30251   4.013   5.485   8.584 -0.1950 -0.2539 -1.2808
 7112WAT      O30252   6.492   8.530   6.946 -0.1019 -0.0965 -0.7214
 7112WAT     H130253   6.539   8.612   6.929  2.2031 -1.4612 -1.3928
 7112WAT     H230254   6.417   8.556   6.999  0.0146  2.5598 -1.6833
 7112WAT    EPW30255   6.489   8.544   6.950  0.2174  0.0734 -0.9367
 7113WAT      O30256   1.258   4.942   1.055 -0.6734  0.6381 -0.6045
 7113WAT     H130257   1.261   4.878   1.126 -1.1424  0.9607 -0.2897
 7113WAT     H230258   1.210   4.898   0.984  0.6091 -0.0330 -1.0902
 7113WAT    EPW30259   1.252   4.928   1.055 -0.5661  0.5922 -0.6270
 7114WAT      O30260   2.174   2.346   1.366  0.2889 -0.0310 -0.6558
 7114WAT     H130261   2.176   2.364   1.272 -1.3900  3.3071 -0.2017
 7114WAT     H230262   2.095   2.390   1.397  2.1234  1.2848  2.6951
 7114WAT    EPW30263   2.164   2.354   1.358  0.3095  0.5828 -0.1540
 7115WAT      O30264   3.038   1.027   5.171 -0.4735 -0.3258  0.1913
 7115WAT     H130265   2.968   1.039   5.106 -1.0893 -1.6255  0.5582
 7115WAT     H230266   3.062   1.115   5.198 -0.6316  0.2155 -1.3452
 7115WAT    EPW30267   3.032   1.040   5.166 -0.5757 -0.4258  0.0370
 7116WAT      O30268   2.319   4.924   0.630 -0.0397 -1.2019 -0.1375
 7116WAT     H130269   2.387   4.991   0.626 -0.2463 -1.0273 -0.9265
 7116WAT     H230270   2.238   4.972   0.642 -0.0689 -1.3917  0.4784
 7116WAT    EPW30271   2.318   4.939   0.631 -0.0707 -1.2040 -0.1604
 7117WAT      O30272  10.767   0.324   0.338  0.4622 -0.2611 -0.8852
 7117WAT     H130273  10.803   0.289   0.420  1.0369  1.3546 -0.4072
 7117WAT     H230274  10.808   0.271   0.269  1.0371 -0.7396 -0.1857
 7117WAT    EPW30275  10.778   0.313   0.340  0.6137 -0.1111 -0.7299
 7118WAT      O30276   0.178   9.725   2.463  0.0606 -0.0365  0.2428
 7118WAT     H130277   0.141   9.745   2.377 -1.3390 -0.4733  0.7133
 7118WAT     H230278   0.128   9.781   2.523  2.3627  1.7939  0.6223
 7118WAT    EPW30279   0.166   9.735   2.459  0.1796  0.1473  0.3548
 7119WAT      O30280   0.425   2.590   0.995  0.5442  0.0552  0.4779
 7119WAT     H130281   0.492   2.552   1.052  2.1809  0.2814 -1.1898
 7119WAT     H230282   0.426   2.535   0.917  0.4704  1.4479 -0.5493
 7119WAT    EPW30283   0.434   2.578   0.993  0.7504  0.2687  0.1225
 7120WAT      O30284   6.189   8.394   6.714 -0.4156 -0.6284 -0.1943
 7120WAT     H130285   6.123   8.349   6.767  0.1263 -2.7140 -1.1734
 7120WAT     H230286   6.261   8.330   6.707  0.7282  0.6998 -1.0628
 7120WAT    EPW30287   6.190   8.379   6.720 -0.1934 -0.7281 -0.4380
 7121WAT      O30288   4.577   0.991   2.776  1.0757 -0.8642 -0.0005
 7121WAT     H130289   4.530   1.045   2.714  5.5899  1.6883 -1.6831
 7121WAT     H230290   4.573   1.039   2.859 -1.3822 -2.1381  0.7283
 7121WAT    EPW30291   4.570   1.004   2.779  1.3468 -0.6956 -0.1261
 7122WAT      O30292   2.180   4.009   2.314 -0.4604  0.6125 -0.2184
 7122WAT     H130293   2.188   3.921   2.275  1.4540  1.0777 -1.0094
 7122WAT     H230294   2.196   3.995   2.407 -2.0369 -0.1107 -0.0365
 7122WAT    EPW30295   2.183   3.995   2.321 -0.4157  0.5783 -0.2986
 7123WAT      O30296   3.440   7.217   8.880  0.2595  0.6931 -0.0244
 7123WAT     H130297   3.517   7.264   8.912 -0.0768  1.9569 -0.9792
 7123WAT     H230298   3.375   7.228   8.950 -0.0959  2.4420 -0.5853
 7123WAT    EPW30299   3.441   7.225   8.894  0.1683  1.0905 -0.2241
 7124WAT      O30300   0.664   3.051   2.018 -0.1145 -0.0306  0.1177
 7124WAT     H130301   0.704   3.126   1.973 -2.6794  2.1395  1.2477
 7124WAT     H230302   0.657   3.078   2.109 -3.0970 -0.6607  0.1781
 7124WAT    EPW30303   0.669   3.064   2.024 -0.8461  0.1726  0.2748
 7125WAT      O30304   3.135   1.742   0.986 -0.0807  0.5160 -0.7707
 7125WAT     H130305   3.185   1.809   1.031 -3.7106  1.3532  2.5668
 7125WAT     H230306   3.146   1.663   1.039 -0.7963  0.2272 -1.0332
 7125WAT    EPW30307   3.143   1.740   0.999 -0.6539  0.5884 -0.3652
 7126WAT      O30308   4.450   4.394   2.329 -0.3040 -0.2889 -0.2403
 7126WAT     H130309   4.459   4.398   2.234  1.9620 -0.9614 -0.1170
 7126WAT     H230310   4.386   4.325   2.344 -0.4804 -0.3646 -1.2837
 7126WAT    EPW30311   4.443   4.385   2.318 -0.0286 -0.3879 -0.3618
 7127WAT      O30312  10.875   2.935   1.993  0.1189 -0.1313  0.6634
 7127WAT     H130313  10.965   2.904   2.003 -0.2353 -1.3473  0.1584
 7127WAT     H230314  10.838   2.882   1.923 -1.5751 -0.9923  2.1297
 7127WAT    EPW30315  10.882   2.924   1.985 -0.1516 -0.4052  0.7902
 7128WAT      O30316   0.902   8.196   8.259  0.6847 -0.8914 -0.3696
 7128WAT     H130317   0.939   8.279   8.290  0.0742 -0.9770  0.6314
 7128WAT     H230318   0.868   8.153   8.338  2.6052 -2.9490 -0.5732
 7128WAT    EPW30319   0.902   8.201   8.274  0.8575 -1.1740 -0.2646
 7129WAT      O30320   6.527   7.680   7.255  0.2634 -0.7180  0.0317
 7129WAT     H130321   6.596   7.613   7.262 -0.3787 -1.5762 -1.3891
 7129WAT     H230322   6.465   7.643   7.192 -0.9633  0.5083  0.4829
 7129WAT    EPW30323   6.528   7.666   7.247  0.0167 -0.6697 -0.0961
 7130WAT      O30324   3.817   3.549   1.422 -0.2479  0.1100  0.1790
 7130WAT     H130325   3.742   3.549   1.363 -1.7682  0.7174  2.0509
 7130WAT     H230326   3.840   3.456   1.431 -0.4884 -0.0507 -0.6903
 7130WAT    EPW30327   3.810   3.537   1.415 -0.4802  0.1688  0.3113
 7131WAT      O30328   9.281   2.886   1.778  0.0164 -0.3443 -0.3530
 7131WAT     H130329   9.354   2.832   1.747  1.8598  1.1675  1.1319
 7131WAT     H230330   9.316   2.933   1.854 -2.6733  0.0888  0.7310
 7131WAT    EPW30331   9.295   2.885   1.784 -0.0949 -0.0877 -0.0142
 7132WAT      O30332   0.282   1.974   0.447 -0.6236  0.0064 -1.1871
 7132WAT     H130333   0.232   1.956   0.526 -0.0540 -3.3565 -1.4662
 7132WAT     H230334   0.216   1.995   0.381 -1.2439  0.7841 -0.3472
 7132WAT    EPW30335   0.267   1.974   0.449 -0.6303 -0.3346 -1.1132
 7133WAT      O30336   0.116   4.825   2.097  0.2761 -0.5324 -0.9564
 7133WAT     H130337   0.201   4.847   2.058 -0.1704 -0.1641 -1.7401
 7133WAT     H230338   0.060   4.805   2.023 -0.9036  1.2539 -0.6056
 7133WAT    EPW30339   0.120   4.825   2.082  0.0616 -0.2482 -1.0135
 7134WAT      O30340   9.451   7.275   8.593 -0.5563 -0.5677  0.3466
 7134WAT     H130341   9.455   7.225   8.511 -1.4473 -1.2098  0.6739
 7134WAT     H230342   9.542   7.298   8.612 -0.3573 -0.2626 -0.9037
 7134WAT    EPW30343   9.464   7.271   8.585 -0.6475 -0.6120  0.2251
 7135WAT      O30344   3.127   9.118   8.576 -0.2409  0.1880  0.4151
 7135WAT     H130345   3.107   9.068   8.655  0.0491 -0.0565  0.3357
 7135WAT     H230346   3.206   9.077   8.541  0.5242  1.2708  0.8415
 7135WAT    EPW30347   3.135   9.106   8.582 -0.1017  0.2990  0.4611
 7136WAT      O30348   1.335   8.537   0.928 -0.3045  0.3177 -0.7964
 7136WAT     H130349   1.373   8.556   1.014  0.8101  0.0048 -1.2043
 7136WAT     H230350   1.240   8.543   0.942 -0.1662 -0.3434  0.5995
 7136WAT    EPW30351   1.328   8.541   0.941 -0.1393  0.1893 -0.6661
 7137WAT      O30352   8.179   1.283   8.684  0.3183 -0.3817  0.2616
 7137WAT     H130353   8.170   1.363   8.736 -0.1685 -0.5855  0.5008
 7137WAT     H230354   8.261   1.294   8.636  0.0543  0.4401 -0.0150
 7137WAT    EPW30355   8.189   1.295   8.684  0.2189 -0.3002  0.2570
 7138WAT      O30356   1.599   1.765   1.470  0.2924  0.2357 -0.8766
 7138WAT     H130357   1.533   1.696   1.477  1.3559 -0.7268 -0.0449
 7138WAT     H230358   1.665   1.730   1.410 -0.1466  1.3856 -2.0957
 7138WAT    EPW30359   1.599   1.751   1.463  0.3748  0.2604 -0.9277
 7139WAT      O30360   2.232   3.066   0.247  0.0695 -0.7743 -0.3710
 7139WAT     H130361   2.202   3.076   0.337 -2.3731 -2.0708 -0.9437
 7139WAT     H230362   2.215   2.975   0.226 -2.3183  0.1522 -3.0524
 7139WAT    EPW30363   2.226   3.056   0.256 -0.5677 -0.8231 -0.8002
 7140WAT      O30364   1.212   3.833   0.507  0.3477 -0.3228  0.0820
 7140WAT     H130365   1.282   3.898   0.506  0.0490  0.0149  0.6228
 7140WAT     H230366   1.206   3.803   0.416  0.4669  0.4318 -0.1845
 7140WAT    EPW30367   1.220   3.838   0.495  0.3241 -0.1787  0.1182
 7141WAT      O30368   0.272   1.373   3.062  0.5235 -0.0451 -0.0297
 7141WAT     H130369   0.243   1.398   2.975  1.7543  2.5947  0.2261
 7141WAT     H230370   0.233   1.438   3.121 -2.1616 -3.0270  1.8381
 7141WAT    EPW30371   0.263   1.384   3.058  0.3317 -0.0902  0.2506
 7142WAT      O30372   6.610   8.636   8.534  0.4620  0.0391 -0.9224
 7142WAT     H130373   6.635   8.655   8.625 -0.9131  2.6759 -1.0140
 7142WAT     H230374   6.684   8.668   8.482  0.6762 -0.2782 -0.8209
 7142WAT    EPW30375   6.623   8.642   8.539  0.3090  0.3452 -0.9212
 7143WAT      O30376   9.529   0.179   0.924  0.3091  0.3887  0.0264
 7143WAT     H130377   9.502   0.211   0.838 -1.8108 -1.7319 -0.2008
 7143WAT     H230378   9.561   0.257   0.970 -0.3801  1.9418 -1.9688
 7143WAT    EPW30379   9.530   0.193   0.919 -0.0615  0.3139 -0.2667
 7144WAT      O30380   2.425   3.182   0.901 -0.1830  0.1434  0.1546
 7144WAT     H130381   2.405   3.128   0.825  0.3725  1.5306 -1.0184
 7144WAT     H230382   2.500   3.236   0.874 -0.3205  1.0703  1.4832
 7144WAT    EPW30383   2.432   3.182   0.888 -0.1279  0.4486  0.1752
 7145WAT      O30384   1.521   7.688   1.300  0.9242  0.5943 -0.2271
 7145WAT     H130385   1.427   7.669   1.294  0.9642  0.5045 -0.5976
 7145WAT     H230386   1.547   7.709   1.210  1.7482 -1.6261 -0.5662
 7145WAT    EPW30387   1.512   7.689   1.287  1.0382  0.2894 -0.3207
 7146WAT      O30388   7.552   5.440   5.978 -0.7613 -0.9118 -0.7998
 7146WAT     H130389   7.644   5.425   5.998 -0.6567  1.7057  1.3447
 7146WAT     H230390   7.551   5.466   5.886  0.6143 -1.1333 -0.8969
 7146WAT    EPW30391   7.564   5.442   5.969 -0.5660 -0.5958 -0.5298
 7147WAT      O30392   4.681   7.999   6.796  0.1917 -0.9453  0.3489
 7147WAT     H130393   4.717   7.911   6.810 -0.1737 -1.1198  0.2290
 7147WAT     H230394   4.749   8.047   6.749  0.9344 -0.7511  1.5803
 7147WAT    EPW30395   4.694   7.993   6.792  0.2415 -0.9425  0.4954
 7148WAT      O30396   4.108   4.327   8.745 -0.1574 -0.4616 -0.2111
 7148WAT     H130397   4.195   4.299   8.716 -0.2786  0.1252 -1.1827
 7148WAT     H230398   4.049   4.259   8.712 -0.0836 -0.8907  0.4993
 7148WAT    EPW30399   4.112   4.314   8.737 -0.1636 -0.4406 -0.2451
 7149WAT      O30400   0.978   4.626   2.983 -0.0541 -0.2867 -0.5548
 7149WAT     H130401   0.991   4.684   2.909  0.6290 -1.9689 -1.8218
 7149WAT     H230402   1.023   4.669   3.056  3.4974 -0.7928 -2.2602
 7149WAT    EPW30403   0.985   4.639   2.983  0.5044 -0.5753 -0.9468
 7150WAT      O30404   2.366   1.142   1.800 -0.2254  0.6844 -0.0233
 7150WAT     H130405   2.316   1.066   1.830 -1.1650  0.6454 -1.5587
 7150WAT     H230406   2.375   1.128   1.705 -0.0036  2.2584 -0.2638
 7150WAT    EPW30407   2.361   1.130   1.791 -0.3201  0.8869 -0.2576
 7151WAT      O30408   1.367   3.334   2.194  0.3884 -1.1260 -0.2469
 7151WAT     H130409   1.274   3.345   2.175 -0.3766 -1.3987  2.7738
 7151WAT     H230410   1.408   3.413   2.162 -1.1412 -0.3391 -0.3658
 7151WAT    EPW30411   1.360   3.346   2.188  0.0857 -1.0583  0.1359
 7152WAT      O30412   0.706   0.393   3.618  0.5387  0.4232  0.2959
 7152WAT     H130413   0.639   0.461   3.623  0.3374  0.2142  0.4875
 7152WAT     H230414   0.656   0.312   3.605  0.7547  0.2650  0.4586
 7152WAT    EPW30415   0.690   0.391   3.617  0.5407  0.3748  0.3427
 7153WAT      O30416   0.864   3.925   2.450 -0.8521 -0.2693  0.1174
 7153WAT     H130417   0.957   3.943   2.437 -1.0695  0.4287 -0.5364
 7153WAT     H230418   0.839   3.983   2.523 -0.3509 -1.8729  1.6139
 7153WAT    EPW30419   0.873   3.935   2.458 -0.8147 -0.3886  0.2285
 7154WAT      O30420  10.048   4.710   2.196  0.0819  0.6739 -1.0807
 7154WAT     H130421  10.025   4.703   2.104  0.5166  1.2906 -1.2420
 7154WAT     H230422  10.085   4.798   2.205 -0.4229  0.8125 -0.2219
 7154WAT    EPW30423  10.050   4.721   2.185  0.0730  0.7737 -0.9887
 7155WAT      O30424   5.215   0.538   1.131 -0.7926  0.1051  0.5900
 7155WAT     H130425   5.168   0.463   1.169  1.3916 -1.8619 -0.2985
 7155WAT     H230426   5.264   0.500   1.058 -2.0488  3.0567 -2.0214
 7155WAT    EPW30427   5.215   0.523   1.126 -0.6704  0.2350  0.1284
 7156WAT      O30428   1.111   3.454   2.065  0.0481 -0.2687  0.0367
 7156WAT     H130429   1.152   3.478   1.982 -0.1147 -0.3498 -0.0678
 7156WAT     H230430   1.017   3.463   2.049  0.0399  0.8829  0.5632
 7156WAT    EPW30431   1.104   3.458   2.052  0.0255 -0.1274  0.0924
 7157WAT      O30432   4.090   7.067   8.419  0.0724 -0.0326 -0.4939
 7157WAT     H130433   4.062   7.150   8.457  1.0178 -0.5602  1.5061
 7157WAT     H230434   4.158   7.091   8.356  0.6203  0.7072  0.3538
 7157WAT    EPW30435   4.095   7.081   8.416  0.2694 -0.0045 -0.1187
 7158WAT      O30436   4.804   7.511   8.939 -0.1973  0.6119 -0.0930
 7158WAT     H130437   4.830   7.447   9.006 -0.9286  0.6319  0.2172
 7158WAT     H230438   4.725   7.474   8.900 -0.2368  0.9993 -0.3866
 7158WAT    EPW30439   4.797   7.498   8.942 -0.2992  0.6657 -0.0911
 7159WAT      O30440   3.527   0.067   1.345  0.6135 -0.2026 -0.0711
 7159WAT     H130441   3.536   0.162   1.353 -2.2785  0.2549 -1.2046
 7159WAT     H230442   3.615   0.037   1.320  1.1209  2.4732 -1.9971
 7159WAT    EPW30443   3.540   0.076   1.343  0.2990  0.2107 -0.4747
 7160WAT      O30444   7.159   0.128   6.849  0.7133  0.1387  0.0628
 7160WAT     H130445   7.241   0.079   6.856 -0.2284 -1.9884 -2.4139
 7160WAT     H230446   7.182   0.217   6.877  3.5007 -0.7038  0.7449
 7160WAT    EPW30447   7.173   0.133   6.853  0.9568 -0.2530 -0.1740
 7161WAT      O30448   5.197   9.237   8.614  1.0445  0.3610  0.1813
 7161WAT     H130449   5.207   9.143   8.598  2.8306  0.3336  1.2111
 7161WAT     H230450   5.170   9.243   8.706 -2.3603  0.7841 -0.7139
 7161WAT    EPW30451   5.195   9.225   8.624  0.8311  0.4129  0.1988
 7162WAT      O30452   1.322   1.149   0.318  0.5649  0.1034  0.3929
 7162WAT     H130453   1.378   1.140   0.396  1.3070  0.3512 -0.1045
 7162WAT     H230454   1.233   1.156   0.354  0.9332  0.6550  1.2464
 7162WAT    EPW30455   1.317   1.149   0.333  0.7113  0.2088  0.4399
 7163WAT      O30456   6.016   9.128   6.638 -0.3840  0.2793 -0.5890
 7163WAT     H130457   6.032   9.047   6.590 -1.3322  0.7935 -1.8275
 7163WAT     H230458   6.103   9.157   6.665 -0.0146 -1.0893 -0.1812
 7163WAT    EPW30459   6.030   9.121   6.635 -0.4601  0.1669 -0.6983
 7164WAT      O30460   1.791   5.741   0.571 -0.1924 -0.6842 -0.2113
 7164WAT     H130461   1.730   5.814   0.559 -1.3168 -1.6711 -0.7962
 7164WAT     H230462   1.867   5.780   0.614 -0.4278  0.9792 -1.1769
 7164WAT    EPW30463   1.793   5.756   0.575 -0.3718 -0.5951 -0.4157
 7165WAT      O30464   3.391   4.048   3.011 -0.1712  0.6019  0.7584
 7165WAT     H130465   3.310   4.090   3.041 -1.9365 -0.3068 -2.2659
 7165WAT     H230466   3.441   4.118   2.969 -0.7468  0.6604  0.1547
 7165WAT    EPW30467   3.387   4.062   3.010 -0.4799  0.4897  0.2799
 7166WAT      O30468   1.173   2.957   2.305  0.1699  0.1079  0.2828
 7166WAT     H130469   1.088   2.914   2.299  1.1309 -2.1323  1.2926
 7166WAT     H230470   1.167   3.011   2.384 -0.6049  0.6957 -0.1752
 7166WAT    EPW30471   1.161   2.958   2.315  0.1945 -0.1100  0.3555
 7167WAT      O30472   6.017   8.833   5.027 -0.1230  0.0931 -0.3083
 7167WAT     H130473   5.989   8.749   4.990  0.7769 -0.6939  0.7475
 7167WAT     H230474   6.112   8.831   5.022 -0.0085  0.2745  1.3339
 7167WAT    EPW30475   6.026   8.822   5.022  0.0107  0.0134  0.0477
 7168WAT      O30476   5.410  10.212   7.719  0.6821 -0.3613  0.3880
 7168WAT     H130477   5.490  10.264   7.708 -0.3749  1.4874  1.0173
 7168WAT     H230478   5.419  10.173   7.805  1.1828 -0.6966  0.1922
 7168WAT    EPW30479   5.422  10.214   7.729  0.6087 -0.1621  0.4449
 7169WAT      O30480   1.663   1.316   0.746 -0.3177 -0.6973  0.8581
 7169WAT     H130481   1.636   1.305   0.837  1.6723  1.4852  1.8474
 7169WAT     H230482   1.646   1.409   0.727  1.9823 -0.3618  0.0666
 7169WAT    EPW30483   1.657   1.327   0.756  0.2481 -0.3652  0.8842
 7170WAT      O30484   6.279   7.615   8.195  0.1857 -0.0099  0.4950
 7170WAT     H130485   6.269   7.531   8.151 -0.3403 -0.9103  2.2402
 7170WAT     H230486   6.373   7.633   8.190 -0.1375  1.9039 -4.2982
 7170WAT    EPW30487   6.290   7.607   8.188  0.0737  0.1237  0.0935
 7171WAT      O30488   6.674   2.051   0.939  0.0842  0.6352  0.0946
 7171WAT     H130489   6.620   2.069   0.862 -1.0000  0.3410  0.7518
 7171WAT     H230490   6.709   1.963   0.924  0.1708  0.7236 -0.2207
 7171WAT    EPW30491   6.671   2.041   0.927 -0.0472  0.6080  0.1397
 7172WAT      O30492   8.045   9.939   1.047 -0.3208 -0.3815 -0.0778
 7172WAT     H130493   8.102   9.867   1.073  1.5648  1.4413  1.1969
 7172WAT     H230494   8.002   9.966   1.128 -0.5019  0.3293 -0.3990
 7172WAT    EPW30495   8.046   9.933   1.061 -0.0958 -0.0477  0.0479
 7173WAT      O30496   1.317   4.244   1.983  0.2495  0.0022 -0.0119
 7173WAT     H130497   1.291   4.261   2.074  2.1622  1.2835  0.3726
 7173WAT     H230498   1.300   4.326   1.937 -0.1432 -0.4447 -0.6809
 7173WAT    EPW30499   1.312   4.257   1.989  0.4500  0.1123 -0.0494
 7174WAT      O30500  10.336   6.959   1.549  0.5716  0.0831 -0.1536
 7174WAT     H130501  10.333   7.028   1.616  1.5034  0.9006 -0.9186
 7174WAT     H230502  10.245   6.944   1.527  0.3684  1.7258 -0.5941
 7174WAT    EPW30503  10.324   6.966   1.555  0.6676  0.4075 -0.3126
 7175WAT      O30504   2.957   0.223   3.233 -0.4280 -0.0511 -0.4626
 7175WAT     H130505   2.925   0.136   3.206 -0.6855 -0.2375  0.4020
 7175WAT     H230506   3.052   0.218   3.222 -0.0546 -1.5437  2.4272
 7175WAT    EPW30507   2.965   0.211   3.228 -0.4127 -0.2726  0.0325
 7176WAT      O30508   0.728   3.092   0.672 -0.2353  0.6120 -0.3143
 7176WAT     H130509   0.803   3.056   0.625 -1.0843  0.1366 -1.3513
 7176WAT     H230510   0.732   3.051   0.758  0.1573 -0.1715 -0.6913
 7176WAT    EPW30511   0.738   3.081   0.677 -0.2955  0.4458 -0.5008
 7177WAT      O30512   0.577   2.289   0.230  0.3801  0.3178  0.3342
 7177WAT     H130513   0.519   2.339   0.173  0.9205 -0.5290 -1.0188
 7177WAT     H230514   0.544   2.304   0.318  1.0479  3.7870  0.1468
 7177WAT    EPW30515   0.565   2.297   0.234  0.5395  0.6636  0.1310
 7178WAT      O30516   7.220  10.116   0.823  0.5172  0.1095  0.1954
 7178WAT     H130517   7.278  10.192   0.824  1.9634 -0.9360  0.2414
 7178WAT     H230518   7.265  10.052   0.878 -2.8285  0.6897  4.0752
 7178WAT    EPW30519   7.234  10.118   0.830  0.2668  0.0482  0.7132
 7179WAT      O30520   6.418   0.905   2.524  0.2608  0.9240  0.0123
 7179WAT     H130521   6.449   0.839   2.462 -2.1858 -2.2971  1.8683
 7179WAT     H230522   6.350   0.859   2.574  0.7252  3.8938  3.7351
 7179WAT    EPW30523   6.413   0.890   2.522 -0.0007  0.8908  0.7480
 7180WAT      O30524   2.192   3.592   0.461 -0.6098  0.7982 -0.0185
 7180WAT     H130525   2.287   3.602   0.454 -0.5568  0.3931  0.1012
 7180WAT     H230526   2.179   3.550   0.545 -0.9113  1.0410  0.0546
 7180WAT    EPW30527   2.203   3.588   0.471 -0.6425  0.7768  0.0069
 7181WAT      O30528   3.030   3.397   1.968 -0.4542 -0.1627  0.1311
 7181WAT     H130529   2.942   3.392   1.931 -0.2463  0.8844 -0.5568
 7181WAT     H230530   3.067   3.310   1.954 -2.0416 -1.2553  2.2441
 7181WAT    EPW30531   3.023   3.385   1.961 -0.6361 -0.1687  0.3192
 7182WAT      O30532   4.708   1.412   2.736  0.1140  0.6581  0.1138
 7182WAT     H130533   4.677   1.385   2.650  0.1585  1.7838 -0.2817
 7182WAT     H230534   4.671   1.500   2.749 -0.6306  0.1609  1.6407
 7182WAT    EPW30535   4.699   1.420   2.727  0.0219  0.7409  0.2630
 7183WAT      O30536   5.785   8.360   6.481 -0.0213  0.0280 -0.4035
 7183WAT     H130537   5.789   8.294   6.550  2.0517  1.9403  1.4654
 7183WAT     H230538   5.835   8.323   6.409 -0.8369 -1.3367 -0.2989
 7183WAT    EPW30539   5.792   8.347   6.481  0.1447  0.1001 -0.1431
 7184WAT      O30540   6.722   8.976   1.365  0.3411  0.6009 -0.1649
 7184WAT     H130541   6.700   9.039   1.296 -0.9419  0.7437  0.3476
 7184WAT     H230542   6.648   8.916   1.366  0.2359  0.7257  1.2219
 7184WAT    EPW30543   6.710   8.977   1.356  0.1581  0.6366  0.0857
 7185WAT      O30544   7.264   0.921   8.068 -0.3090 -0.0522  0.3487
 7185WAT     H130545   7.344   0.872   8.047  0.0042 -0.3009  2.0091
 7185WAT     H230546   7.284   0.966   8.150 -1.0886  1.7620 -0.4069
 7185WAT    EPW30547   7.277   0.920   8.076 -0.3705  0.1543  0.4687
 7186WAT      O30548   7.160   8.556   8.645  0.0569 -0.1487  0.0591
 7186WAT     H130549   7.161   8.543   8.740  1.4193  0.9202  0.2313
 7186WAT     H230550   7.068   8.555   8.621 -0.3696  0.4995  1.5543
 7186WAT    EPW30551   7.148   8.554   8.654  0.1805  0.0777  0.2794
 7187WAT      O30552  10.342   2.008   1.401  0.5349  0.0149  0.4915
 7187WAT     H130553  10.330   2.090   1.449 -0.0458  0.8444 -0.9738
 7187WAT     H230554  10.255   1.968   1.400  0.4111  0.2752 -0.2799
 7187WAT    EPW30555  10.329   2.014   1.407  0.4416  0.1587  0.1966
 7188WAT      O30556   4.415  10.274   7.976  0.2575 -0.0222 -0.2217
 7188WAT     H130557   4.380  10.360   8.000  0.9173 -0.2952  1.9834
 7188WAT     H230558   4.338  10.221   7.956 -0.4467  0.2442  1.5515
 7188WAT    EPW30559   4.400  10.278   7.977  0.2515 -0.0229  0.3030
 7189WAT      O30560  10.943   3.554   1.456  0.1714  0.3298 -0.1348
 7189WAT     H130561  11.012   3.542   1.391  1.8946  0.0914  1.6385
 7189WAT     H230562  10.943   3.648   1.475  1.2582  0.1122  1.0975
 7189WAT    EPW30563  10.952   3.565   1.450  0.5422  0.2695  0.2615
 7190WAT      O30564   6.245   8.000   8.075 -0.3575 -0.6168 -0.0615
 7190WAT     H130565   6.266   8.027   8.164 -1.1306 -0.5588  0.1155
 7190WAT     H230566   6.286   8.065   8.019 -0.1969 -0.4353  0.2641
 7190WAT    EPW30567   6.253   8.012   8.079 -0.4382 -0.5846  0.0048
 7191WAT      O30568  10.248   4.301   2.998 -0.4893 -0.1581 -0.6436
 7191WAT     H130569  10.256   4.213   2.963 -0.9415 -0.3778 -0.2162
 7191WAT     H230570  10.153   4.313   3.010 -0.6135  1.0629 -2.3978
 7191WAT    EPW30571  10.236   4.291   2.995 -0.5660 -0.0257 -0.8185
 7192WAT      O30572   6.716   9.668   8.886 -0.7090  0.2521 -0.2381
 7192WAT     H130573   6.710   9.704   8.975 -2.2821 -1.8111  0.5750
 7192WAT     H230574   6.648   9.714   8.837 -2.9797 -1.6706  0.8970
 7192WAT    EPW30575   6.706   9.679   8.891 -1.2157 -0.2732  0.0191
 7193WAT      O30576   2.723   5.586   2.198 -0.4853  0.4880  0.3568
 7193WAT     H130577   2.760   5.547   2.118 -1.6602  0.0803 -0.0153
 7193WAT     H230578   2.768   5.670   2.207  1.0227 -0.2818  0.3250
 7193WAT    EPW30579   2.734   5.592   2.188 -0.4413  0.3328  0.3035
 7194WAT      O30580   4.151   3.349   0.499  0.2209 -0.1024  0.4297
 7194WAT     H130581   4.140   3.264   0.457  0.5370 -0.4748  1.0841
 7194WAT     H230582   4.245   3.354   0.517  0.6580  1.4641 -1.8410
 7194WAT    EPW30583   4.162   3.338   0.496  0.3202  0.0551  0.2165
 7195WAT      O30584   2.804   3.124   0.830  0.2411 -0.2580  0.1485
 7195WAT     H130585   2.776   3.212   0.806  1.7180  0.1819 -0.1031
 7195WAT     H230586   2.813   3.127   0.926  0.0700 -0.2003  0.1622
 7195WAT    EPW30587   2.802   3.136   0.840  0.4133 -0.1925  0.1171
 7196WAT      O30588   1.158   5.151   8.919  0.0427 -0.7497 -0.2910
 7196WAT     H130589   1.246   5.116   8.936  0.1514 -0.7452 -0.8183
 7196WAT     H230590   1.125   5.098   8.846 -0.8511 -1.5112  0.6470
 7196WAT    EPW30591   1.166   5.139   8.911 -0.0609 -0.8495 -0.2365
 7197WAT      O30592  10.970   2.046   2.169 -0.1353 -0.2241 -0.3765
 7197WAT     H130593  10.880   2.014   2.162  0.3658 -1.6748 -0.6795
 7197WAT     H230594  10.977   2.113   2.101 -0.5750 -1.1452 -1.3648
 7197WAT    EPW30595  10.959   2.050   2.159 -0.1268 -0.5369 -0.5467
 7198WAT      O30596   6.209   8.810   8.883  0.2999  0.0678  0.2808
 7198WAT     H130597   6.157   8.765   8.950  1.5013 -1.7746  0.0463
 7198WAT     H230598   6.236   8.741   8.823  1.8881  1.1715 -0.3482
 7198WAT    EPW30599   6.205   8.795   8.884  0.6678 -0.0296  0.1674
 7199WAT      O30600   9.247  10.344   0.433 -0.2003  0.3183  0.1413
 7199WAT     H130601   9.221  10.425   0.477 -2.0251  0.4715 -1.1340
 7199WAT     H230602   9.274  10.286   0.504 -2.7753  0.6398  1.5112
 7199WAT    EPW30603   9.247  10.347   0.449 -0.7801  0.3810  0.1538
 7200WAT      O30604   3.530   1.467   1.668 -0.2487 -0.4574 -0.0047
 7200WAT     H130605   3.455   1.509   1.711  1.8073  1.5904  1.8750
 7200WAT     H230606   3.526   1.499   1.578 -2.2006 -1.2856 -0.2581
 7200WAT    EPW30607   3.520   1.477   1.662 -0.2351 -0.2966  0.2098
 7201WAT      O30608   2.679   4.176   0.985 -0.4010  0.5899 -0.4577
 7201WAT     H130609   2.637   4.117   0.921  0.3329 -2.4552  1.6423
 7201WAT     H230610   2.770   4.179   0.956  0.2198 -1.8107  0.9575
 7201WAT    EPW30611   2.685   4.168   0.973 -0.2223 -0.1283  0.0059
 7202WAT      O30612   1.150   4.504   0.756 -0.6282  0.0721  0.6629
 7202WAT     H130613   1.132   4.437   0.690  0.3617 -1.1293  1.5686
 7202WAT     H230614   1.196   4.458   0.825  2.0992  2.0894  0.3667
 7202WAT    EPW30615   1.154   4.489   0.756 -0.1379  0.1798  0.7433
 7203WAT      O30616   1.904   4.552   0.400 -0.3369  0.3600  0.6637
 7203WAT     H130617   1.983   4.604   0.418 -0.0965 -0.3477  1.7292
 7203WAT     H230618   1.873   4.586   0.316  1.3853  0.3205 -0.0396
 7203WAT    EPW30619   1.911   4.564   0.391 -0.0780  0.2615  0.7115
 7204WAT      O30620   9.001   2.927   2.368 -0.1043  0.2593  0.5628
 7204WAT     H130621   9.081   2.886   2.335 -1.7895 -1.2940 -1.9162
 7204WAT     H230622   9.028   3.015   2.395  2.1567  0.3610 -1.6896
 7204WAT    EPW30623   9.015   2.933   2.367 -0.0281  0.0678 -0.0613
 7205WAT      O30624   1.178   1.673   1.352  0.8796 -0.7826  0.4276
 7205WAT     H130625   1.121   1.741   1.387 -1.1232 -2.0863 -0.1128
 7205WAT     H230626   1.174   1.603   1.418  2.0736 -0.8271  0.4813
 7205WAT    EPW30627   1.170   1.673   1.366  0.7730 -0.9603  0.3634
 7206WAT      O30628  10.578   1.044   1.055  0.2733 -0.0585 -0.1202
 7206WAT     H130629  10.626   0.975   1.009  0.5341  0.9295 -1.3813
 7206WAT     H230630  10.641   1.116   1.063  0.1570 -0.1116  1.6149
 7206WAT    EPW30631  10.593   1.044   1.050  0.2923  0.0648 -0.0577
 7207WAT      O30632  10.970   1.359   1.116  0.5530 -0.4666 -0.1292
 7207WAT     H130633  10.995   1.373   1.208 -0.1593  2.0761 -0.2464
 7207WAT     H230634  11.044   1.310   1.079  2.1090  0.7629  1.1901
 7207WAT    EPW30635  10.983   1.354   1.123  0.6642  0.0309  0.0294
 7208WAT      O30636   2.170   7.462   4.190  0.2377  0.5182  1.0207
 7208WAT     H130637   2.233   7.480   4.260 -0.7562  2.0600  1.5749
 7208WAT     H230638   2.086   7.458   4.235 -0.0836 -1.9634  0.3619
 7208WAT    EPW30639   2.167   7.463   4.205  0.0643  0.3941  1.0071
 7209WAT      O30640   5.345   7.201   7.168 -0.4558 -0.0206  0.1184
 7209WAT     H130641   5.365   7.179   7.078 -0.6021  0.3290 -0.0011
 7209WAT     H230642   5.312   7.119   7.206 -2.3282  0.2908 -0.7088
 7209WAT    EPW30643   5.343   7.187   7.161 -0.7219  0.0665 -0.0064
 7210WAT      O30644   1.031   0.250   0.047 -0.1032 -0.1255 -0.4693
 7210WAT     H130645   0.965   0.183   0.068 -1.8753  2.2843  2.4104
 7210WAT     H230646   0.982   0.321   0.007  1.6845 -0.2450 -3.1116
 7210WAT    EPW30647   1.016   0.250   0.045 -0.1011  0.1766 -0.4380
 7211WAT      O30648   5.439   5.564   8.665  0.1940 -0.0617  0.4528
 7211WAT     H130649   5.353   5.526   8.679  0.9248 -2.8622 -1.8260
 7211WAT     H230650   5.422   5.647   8.620 -1.3143 -0.0504  0.9966
 7211WAT    EPW30651   5.425   5.570   8.661  0.0916 -0.4296  0.2241
 7212WAT      O30652   2.270   0.239   1.842 -0.7513 -0.1520  0.6515
 7212WAT     H130653   2.305   0.230   1.931 -0.1806 -1.2529  0.3268
 7212WAT     H230654   2.343   0.218   1.785 -2.4125 -5.5779 -0.0848
 7212WAT    EPW30655   2.284   0.235   1.846 -0.8951 -1.0128  0.5116
 7213WAT      O30656   1.757   0.206   2.889 -0.1648  0.7672  0.7193
 7213WAT     H130657   1.755   0.115   2.920 -1.7317  0.1654 -0.9800
 7213WAT     H230658   1.715   0.256   2.959  1.3050  0.3379  1.9746
 7213WAT    EPW30659   1.751   0.201   2.902 -0.1776  0.6312  0.6608
 7214WAT      O30660   2.058   3.233   2.665 -0.2853 -0.2723 -0.1871
 7214WAT     H130661   2.051   3.160   2.727 -1.4843  0.6136  0.7828
 7214WAT     H230662   2.149   3.263   2.675 -0.6270  0.3088  1.7443
 7214WAT    EPW30663   2.069   3.227   2.675 -0.4885 -0.0788  0.1957
 7215WAT      O30664   7.125   6.829   8.536 -0.6414 -0.1530 -0.3131
 7215WAT     H130665   7.151   6.871   8.618 -0.6399  0.1318 -0.4592
 7215WAT     H230666   7.208   6.812   8.491 -0.6550 -0.1071 -0.3555
 7215WAT    EPW30667   7.140   6.832   8.541 -0.6428 -0.1092 -0.3381
 7216WAT      O30668   8.525   1.408   1.198  0.7537 -0.1191 -0.1715
 7216WAT     H130669   8.464   1.373   1.133  2.1794 -2.2941 -0.4100
 7216WAT     H230670   8.489   1.379   1.282  2.1315 -2.7396 -0.3806
 7216WAT    EPW30671   8.512   1.400   1.200  1.1234 -0.7516 -0.2305
 7217WAT      O30672   3.103   3.009   0.577  1.1896  0.0284  0.3522
 7217WAT     H130673   3.055   3.087   0.552  0.9644 -0.9193 -2.6108
 7217WAT     H230674   3.178   3.006   0.517 -1.0029 -3.9944 -2.7514
 7217WAT    EPW30675   3.107   3.019   0.566  0.8708 -0.6273 -0.4480
 7218WAT      O30676   5.419   0.897   2.637  0.5068  0.3762  0.9249
 7218WAT     H130677   5.482   0.890   2.709  2.1497  0.3982 -0.4723
 7218WAT     H230678   5.452   0.837   2.570 -1.9321 -0.9716  0.8052
 7218WAT    EPW30679   5.431   0.888   2.638  0.4015  0.2013  0.7249
 7219WAT      O30680   4.652   5.865   8.342 -0.1064  0.4912  0.2980
 7219WAT     H130681   4.601   5.940   8.374 -1.7791  0.1926 -1.4702
 7219WAT     H230682   4.629   5.793   8.401 -2.2474  0.2319 -0.7552
 7219WAT    EPW30683   4.642   5.865   8.354 -0.6096  0.4177 -0.0739
 7220WAT      O30684   0.822   1.722   1.553 -0.2417 -0.6717  0.1399
 7220WAT     H130685   0.776   1.739   1.471  3.5048  0.9953 -1.8820
 7220WAT     H230686   0.914   1.733   1.531  1.3384 -4.4091  3.6516
 7220WAT    EPW30687   0.828   1.726   1.539  0.4608 -0.9447  0.3363
 7221WAT      O30688   3.774   7.340   7.950  0.2270 -0.0937 -0.0964
 7221WAT     H130689   3.838   7.411   7.945 -0.9549  1.0973  0.7404
 7221WAT     H230690   3.796   7.293   8.030  2.1377 -1.8794 -1.5791
 7221WAT    EPW30691   3.785   7.343   7.960  0.3232 -0.1721 -0.1817
 7222WAT      O30692  10.866   1.765   1.348  0.8548  0.2232  0.6057
 7222WAT     H130693  10.785   1.785   1.302  1.9136 -0.5188 -1.7013
 7222WAT     H230694  10.858   1.813   1.431 -0.5654  2.7954 -0.8607
 7222WAT    EPW30695  10.854   1.774   1.353  0.8068  0.4646  0.1080
 7223WAT      O30696   5.407   9.931   1.688 -0.5687 -0.0872 -0.0463
 7223WAT     H130697   5.454   9.987   1.750  0.0336 -0.3018 -0.2945
 7223WAT     H230698   5.384   9.990   1.616  0.7173 -0.2807 -0.6549
 7223WAT    EPW30699   5.410   9.946   1.687 -0.3197 -0.1407 -0.1592
 7224WAT      O30700   4.232   8.385   4.551 -0.5923 -0.2823 -0.3340
 7224WAT     H130701   4.269   8.430   4.475  0.7460 -1.6879 -0.5514
 7224WAT     H230702   4.247   8.292   4.534 -2.8289 -0.8316  0.3347
 7224WAT    EPW30703   4.239   8.379   4.539 -0.7110 -0.5403 -0.2744
 7225WAT      O30704  10.457   1.972   0.303 -0.4071 -0.2473  0.4431
 7225WAT     H130705  10.417   2.052   0.268 -0.7040 -0.8408 -0.6146
 7225WAT     H230706  10.494   1.928   0.226 -1.1935 -1.6711  0.8496
 7225WAT    EPW30707  10.457   1.977   0.288 -0.5498 -0.5134  0.3572
 7226WAT      O30708   0.956   0.833   2.225  0.1021 -0.4931 -0.0382
 7226WAT     H130709   0.934   0.924   2.245  0.3573 -0.4002 -0.1706
 7226WAT     H230710   0.937   0.785   2.306  1.8321  0.0001  0.7007
 7226WAT    EPW30711   0.951   0.839   2.238  0.3639 -0.4158  0.0418
 7227WAT      O30712   2.991   2.688   5.222 -0.1039 -0.0577  0.3186
 7227WAT     H130713   2.929   2.648   5.160  3.8969 -2.5112 -2.5503
 7227WAT     H230714   3.014   2.771   5.182  1.1018 -0.8123 -0.6139
 7227WAT    EPW30715   2.986   2.693   5.209  0.5828 -0.4810 -0.1829
 7228WAT      O30716   0.938   1.762   2.343  0.1338 -0.4990  0.3894
 7228WAT     H130717   0.892   1.761   2.259  2.1981  1.6072 -0.8728
 7228WAT     H230718   0.871   1.739   2.407 -1.9484 -0.3731 -1.6173
 7228WAT    EPW30719   0.923   1.759   2.340  0.1314 -0.2046 -0.0420
 7229WAT      O30720   4.271   7.204   8.254  0.3205 -0.4918 -0.1000
 7229WAT     H130721   4.305   7.190   8.166  2.1484  1.6002  0.1800
 7229WAT     H230722   4.349   7.209   8.310 -0.6788  0.1222  1.3209
 7229WAT    EPW30723   4.286   7.203   8.250  0.4296 -0.1347  0.1240
 7230WAT      O30724   0.441   0.833   1.501 -0.4609 -0.1418  0.2207
 7230WAT     H130725   0.534   0.829   1.476 -0.6353 -1.0422 -0.3473
 7230WAT     H230726   0.436   0.785   1.583 -0.3562  0.3264  0.5074
 7230WAT    EPW30727   0.453   0.826   1.508 -0.4701 -0.1988  0.1836
 7231WAT      O30728   3.956   9.674   7.646  0.9572  0.1016  0.3358
 7231WAT     H130729   3.917   9.736   7.585  0.5292 -0.4506  0.0475
 7231WAT     H230730   3.894   9.669   7.719  1.1085  0.1917  0.4733
 7231WAT    EPW30731   3.943   9.681   7.648  0.9208  0.0405  0.3161
 7232WAT      O30732   7.286   8.714   2.379 -0.2485  0.2325 -0.1940
 7232WAT     H130733   7.311   8.806   2.371 -0.7355  0.3842  0.0182
 7232WAT     H230734   7.370   8.667   2.385  0.0111  0.6064 -0.8360
 7232WAT    EPW30735   7.300   8.720   2.379 -0.2789  0.3018 -0.2507
 7233WAT      O30736  10.795   4.690   0.826  0.0812  0.3982 -0.1625
 7233WAT     H130737  10.796   4.733   0.741  0.2267 -1.1580 -0.9986
 7233WAT     H230738  10.888   4.678   0.847  0.0427  0.0754 -0.1723
 7233WAT    EPW30739  10.807   4.694   0.817  0.0958  0.1502 -0.2741
 7234WAT      O30740   2.033   0.679   0.717  0.3544  0.1379 -0.5141
 7234WAT     H130741   2.037   0.686   0.622 -0.0025  1.0206 -0.4769
 7234WAT     H230742   2.032   0.769   0.747  0.7174 -0.1379  0.3435
 7234WAT    EPW30743   2.033   0.692   0.708  0.3551  0.2180 -0.3961
 7235WAT      O30744   3.447   0.262   7.084  0.6104 -0.3933  0.0127
 7235WAT     H130745   3.514   0.274   7.017  0.9831 -2.8917 -0.1530
 7235WAT     H230746   3.364   0.264   7.036  0.5271  2.0667  0.1355
 7235WAT    EPW30747   3.445   0.264   7.069  0.6486 -0.3984  0.0072
 7236WAT      O30748   3.074   8.474   8.873 -0.5543  0.3329  0.3004
 7236WAT     H130749   3.076   8.564   8.906  0.0061  0.9313 -1.3098
 7236WAT     H230750   3.146   8.469   8.811 -0.5199 -1.2731  0.4270
 7236WAT    EPW30751   3.084   8.485   8.869 -0.4758  0.2003  0.1054
 7237WAT      O30752   0.023   4.903   2.829  0.0389 -0.3434  0.5508
 7237WAT     H130753  -0.013   4.816   2.846 -0.5620  0.0563  1.3989
 7237WAT     H230754   0.006   4.953   2.909  0.7068  0.4498  0.2210
 7237WAT    EPW30755   0.016   4.898   2.842  0.0472 -0.1860  0.6192
 7238WAT      O30756   6.555   1.517   2.415  0.1052 -0.4567  0.8626
 7238WAT     H130757   6.540   1.503   2.322 -0.0834  0.2395  0.7844
 7238WAT     H230758   6.553   1.429   2.453 -0.5506 -0.6831  0.3205
 7238WAT    EPW30759   6.553   1.504   2.408 -0.0062 -0.3948  0.7808
 7239WAT      O30760   1.486   3.807   2.360 -0.1896  0.1406  0.9373
 7239WAT     H130761   1.481   3.876   2.426  0.3080  3.4708 -2.2520
 7239WAT     H230762   1.549   3.838   2.296 -0.4470 -3.0029 -1.0820
 7239WAT    EPW30763   1.494   3.820   2.360 -0.1579  0.1652  0.2505
 7240WAT      O30764  10.513   1.427   0.507 -0.1208 -0.0558  0.1867
 7240WAT     H130765  10.554   1.443   0.592  0.0594 -1.4386  0.3839
 7240WAT     H230766  10.586   1.420   0.446 -0.2605  1.1501 -0.1356
 7240WAT    EPW30767  10.528   1.428   0.510 -0.1159 -0.0792  0.1702
 7241WAT      O30768   4.076   3.697   2.176 -0.0985  0.0540  0.1415
 7241WAT     H130769   4.028   3.745   2.108 -0.0118 -1.5196 -1.1073
 7241WAT     H230770   4.140   3.759   2.208 -0.6060  1.0738 -0.7306
 7241WAT    EPW30771   4.078   3.711   2.171 -0.1540 -0.0191 -0.1382
 7242WAT      O30772   3.433   4.147   6.564  0.0254  0.5021 -0.2308
 7242WAT     H130773   3.485   4.225   6.584  0.9550 -0.0559 -0.3884
 7242WAT     H230774   3.422   4.149   6.469  1.0185 -0.1242 -0.3782
 7242WAT    EPW30775   3.439   4.157   6.554  0.2789  0.3459 -0.2711
 7243WAT      O30776  10.365   5.588   0.737 -0.0153  0.3686 -0.0966
 7243WAT     H130777  10.380   5.628   0.822  2.1115  2.1729 -1.2190
 7243WAT     H230778  10.426   5.515   0.733  0.1405  0.5039 -0.2022
 7243WAT    EPW30779  10.375   5.583   0.747  0.2856  0.6242 -0.2586
 7244WAT      O30780   4.488   9.716   7.138  0.1379 -0.0787  0.7744
 7244WAT     H130781   4.528   9.705   7.224  0.8443  0.2962  0.4997
 7244WAT     H230782   4.450   9.631   7.118  1.6669 -0.7598  0.6100
 7244WAT    EPW30783   4.488   9.703   7.147  0.4327 -0.1187  0.7164
 7245WAT      O30784   7.860   9.182   6.477 -0.0408 -0.2245  0.5776
 7245WAT     H130785   7.852   9.239   6.400  0.9300 -1.5020 -0.5237
 7245WAT     H230786   7.777   9.192   6.523  0.1781  2.2473  0.5781
 7245WAT    EPW30787   7.848   9.191   6.473  0.1161 -0.0668  0.4323
 7246WAT      O30788   1.191   1.138   0.051 -0.1892  0.4218  0.4712
 7246WAT     H130789   1.206   1.156  -0.042 -1.1446 -1.1050 -0.0107
 7246WAT     H230790   1.273   1.098   0.080  0.3509  1.4998  0.4604
 7246WAT    EPW30791   1.204   1.135   0.042 -0.2440  0.3626  0.4062
 7247WAT      O30792   3.298   2.590   0.167 -0.2816 -0.2495 -0.4347
 7247WAT     H130793   3.348   2.509   0.179 -1.0363 -0.6803 -0.1161
 7247WAT     H230794   3.364   2.659   0.166  0.3818 -0.8700 -0.7606
 7247WAT    EPW30795   3.313   2.589   0.169 -0.2937 -0.3883 -0.4357
 7248WAT      O30796   8.045   6.859   8.419 -0.6710  0.3253  0.1472
 7248WAT     H130797   8.006   6.791   8.474  1.1211  0.3357  1.5337
 7248WAT     H230798   7.989   6.863   8.341 -1.8406 -1.4627  0.8454
 7248WAT    EPW30799   8.032   6.850   8.416 -0.5884  0.0908  0.4225
 7249WAT      O30800   2.722   5.291   4.311 -0.6179 -0.0639 -0.1868
 7249WAT     H130801   2.780   5.367   4.309 -0.3272 -0.2114  1.2754
 7249WAT     H230802   2.778   5.217   4.288  0.1374 -0.3680  2.2704
 7249WAT    EPW30803   2.737   5.292   4.308 -0.4801 -0.1233  0.3304
 7250WAT      O30804   3.170   5.598   8.177 -0.2163 -0.4624 -0.3243
 7250WAT     H130805   3.084   5.638   8.171 -0.0309 -0.1585 -0.9965
 7250WAT     H230806   3.174   5.563   8.267 -1.4986 -1.5386 -0.6482
 7250WAT    EPW30807   3.160   5.599   8.188 -0.3611 -0.5641 -0.4549
 7251WAT      O30808   4.229   1.164   1.920  0.2020 -0.3019 -0.1847
 7251WAT     H130809   4.215   1.101   1.849  0.1622 -0.2783 -0.1978
 7251WAT     H230810   4.270   1.240   1.877  0.0109 -0.2155 -0.2130
 7251WAT    EPW30811   4.233   1.166   1.905  0.1717 -0.2874 -0.1901
 7252WAT      O30812   7.161   7.072   8.295 -0.1501  0.0474 -0.3286
 7252WAT     H130813   7.175   7.011   8.222 -0.8117 -1.5969  0.8722
 7252WAT     H230814   7.247   7.110   8.311  0.0815  0.1527 -1.7095
 7252WAT    EPW30815   7.174   7.069   8.287 -0.2069 -0.1557 -0.3524
 7253WAT      O30816   0.235   4.313   1.156  0.2220  0.4597  0.2418
 7253WAT     H130817   0.262   4.223   1.136 -0.1002  0.1478  1.1128
 7253WAT     H230818   0.284   4.368   1.095  0.0244 -0.3475 -0.6580
 7253WAT    EPW30819   0.245   4.308   1.145  0.1535  0.3121  0.2381
 7254WAT      O30820   1.367   2.092   0.477 -0.7838 -0.3516 -0.1238
 7254WAT     H130821   1.341   2.050   0.559  0.8382 -0.7155  0.2337
 7254WAT     H230822   1.462   2.082   0.473 -0.5514  1.6085 -0.9717
 7254WAT    EPW30823   1.376   2.085   0.487 -0.5392 -0.1413 -0.1885
 7255WAT      O30824   2.172   1.345   0.823 -0.5773  0.1360  0.4030
 7255WAT     H130825   2.237   1.333   0.753 -0.5562 -0.8204  0.5779
 7255WAT     H230826   2.187   1.272   0.883 -2.4686 -0.6794 -0.0538
 7255WAT    EPW30827   2.183   1.334   0.822 -0.8239 -0.0977  0.3658
 7256WAT      O30828   5.789   8.322   7.222  0.3656 -0.2879 -0.2527
 7256WAT     H130829   5.742   8.330   7.305  0.1053  1.3382 -0.5299
 7256WAT     H230830   5.829   8.408   7.209 -2.7913  0.9041 -3.7155
 7256WAT    EPW30831   5.788   8.334   7.231 -0.0851  0.0834 -0.7460
 7257WAT      O30832   5.926   2.797   2.060 -0.5617 -0.2191 -0.5507
 7257WAT     H130833   5.845   2.805   2.009 -0.3702  2.9752 -0.5598
 7257WAT     H230834   5.984   2.746   2.004 -1.6181 -0.0080 -1.8941
 7257WAT    EPW30835   5.923   2.792   2.046 -0.6759  0.2301 -0.7290
 7258WAT      O30836   0.868   8.307   0.888  0.3792  0.5507  0.0568
 7258WAT     H130837   0.853   8.318   0.981 -0.9516  1.1243 -0.2064
 7258WAT     H230838   0.939   8.242   0.882  1.1156  1.1980  1.4582
 7258WAT    EPW30839   0.875   8.300   0.899  0.3008  0.7119  0.2069
 7259WAT      O30840   5.046   7.002   6.080 -0.4122 -0.0982  0.0726
 7259WAT     H130841   5.002   6.918   6.090 -0.6696  0.0608  0.2810
 7259WAT     H230842   5.092   7.015   6.162  1.6793 -1.1959 -0.8393
 7259WAT    EPW30843   5.046   6.992   6.092 -0.1700 -0.2222 -0.0203
 7260WAT      O30844   3.271   6.462   3.965  0.3279 -0.0632 -0.0376
 7260WAT     H130845   3.280   6.557   3.953  0.7697  0.1690  1.9099
 7260WAT     H230846   3.191   6.452   4.016  0.4095 -0.7389 -0.0390
 7260WAT    EPW30847   3.262   6.473   3.970  0.3968 -0.1214  0.2190
 7261WAT      O30848   6.384   8.769   8.440 -0.3683  0.1006  0.1612
 7261WAT     H130849   6.466   8.751   8.486  0.0568  0.9718 -0.2280
 7261WAT     H230850   6.322   8.704   8.475 -0.0091  0.5961  1.8141
 7261WAT    EPW30851   6.387   8.758   8.451 -0.2649  0.2809  0.3281
 7262WAT      O30852   3.673   6.418   7.873  0.1221 -0.2522  0.0401
 7262WAT     H130853   3.663   6.507   7.906  1.3574 -0.5381  1.2570
 7262WAT     H230854   3.609   6.412   7.802  0.4909  1.8108 -0.5353
 7262WAT    EPW30855   3.663   6.429   7.868  0.3337 -0.0179  0.1247
 7263WAT      O30856   4.129   4.522   0.476 -0.1904 -0.3041  0.3854
 7263WAT     H130857   4.177   4.454   0.523  1.1602  0.2074 -0.2030
 7263WAT     H230858   4.089   4.476   0.402  2.1206 -0.2342 -0.9942
 7263WAT    EPW30859   4.130   4.507   0.472  0.2925 -0.2275  0.1259
 7264WAT      O30860   3.771   3.393   0.213 -0.3157  0.7313 -0.0438
 7264WAT     H130861   3.728   3.479   0.208  0.2032  1.0331  0.4632
 7264WAT     H230862   3.848   3.409   0.268 -0.7029 -0.2697  0.8057
 7264WAT    EPW30863   3.776   3.407   0.219 -0.2985  0.6391  0.1351
 7265WAT      O30864   2.045   9.929   8.094 -0.7665 -0.6658 -0.5652
 7265WAT     H130865   2.107   9.860   8.069  1.0336  0.5709  0.3014
 7265WAT     H230866   2.065  10.001   8.034 -1.0634 -0.0988  0.0111
 7265WAT    EPW30867   2.056   9.929   8.083 -0.5680 -0.4277 -0.3753
 7266WAT      O30868   1.206   5.173   2.739  0.2054  0.4930  0.4508
 7266WAT     H130869   1.153   5.224   2.678 -0.5028 -0.1350  0.5190
 7266WAT     H230870   1.155   5.173   2.820  0.2527 -0.2066  0.4865
 7266WAT    EPW30871   1.192   5.179   2.742  0.1183  0.3181  0.4646
 7267WAT      O30872   9.660   1.093   0.388  0.2717 -0.8457  0.0953
 7267WAT     H130873   9.664   1.073   0.482 -1.8898 -1.4352  0.1146
 7267WAT     H230874   9.718   1.168   0.378  0.3221 -0.5707  1.9695
 7267WAT    EPW30875   9.668   1.100   0.399 -0.0067 -0.8872  0.3451
 7268WAT      O30876   0.673   0.463   5.839  0.5027  0.0254  0.8650
 7268WAT     H130877   0.660   0.425   5.753  2.5691  2.0413 -0.4467
 7268WAT     H230878   0.655   0.557   5.827  0.7176  0.3361  2.6555
 7268WAT    EPW30879   0.668   0.470   5.826  0.8036  0.3322  0.9282
 7269WAT      O30880   4.476   3.760   1.597 -0.0046 -0.4034  0.2625
 7269WAT     H130881   4.555   3.738   1.646  0.2657 -0.3955 -0.1619
 7269WAT     H230882   4.495   3.846   1.558 -0.5421 -0.0085  0.8328
 7269WAT    EPW30883   4.489   3.769   1.598 -0.0396 -0.3504  0.2817
 7270WAT      O30884   2.908  10.169   6.718  0.2383  0.7067  0.1345
 7270WAT     H130885   2.929  10.260   6.741 -2.3287  1.2210  0.7751
 7270WAT     H230886   2.962  10.116   6.776  0.1651  1.8861  1.3158
 7270WAT    EPW30887   2.918  10.174   6.729 -0.1099  0.9298  0.3750
 7271WAT      O30888   0.332   6.401   0.127 -0.1985  0.3705  0.8805
 7271WAT     H130889   0.335   6.489   0.163 -2.4214  1.2854 -0.8674
 7271WAT     H230890   0.286   6.349   0.192 -3.5705  1.8318 -0.1101
 7271WAT    EPW30891   0.326   6.406   0.140 -0.9364  0.6838  0.5193
 7272WAT      O30892   4.757   2.977   1.354  1.2569  0.2473  0.0222
 7272WAT     H130893   4.765   2.979   1.259  1.1752  2.1505  0.0175
 7272WAT     H230894   4.665   2.957   1.371  0.5711  2.6951 -0.4015
 7272WAT    EPW30895   4.746   2.974   1.344  1.1554  0.8211 -0.0343
 7273WAT      O30896   5.143   9.763   8.538  0.3662  0.2568 -0.0386
 7273WAT     H130897   5.211   9.818   8.576  0.3340  0.1136  0.2270
 7273WAT     H230898   5.131   9.798   8.449 -1.4680  2.3639  0.9394
 7273WAT    EPW30899   5.150   9.775   8.531  0.1202  0.5155  0.1259
 7274WAT      O30900   1.645   1.601   1.873  0.8158  0.3231 -0.4968
 7274WAT     H130901   1.692   1.552   1.940 -0.5558  0.8280  0.9111
 7274WAT     H230902   1.682   1.689   1.877  0.0776  0.6088  0.3111
 7274WAT    EPW30903   1.656   1.606   1.882  0.5375  0.4274 -0.2045
 7275WAT      O30904   5.517   9.107   8.329  0.7151 -1.2101 -0.0553
 7275WAT     H130905   5.582   9.041   8.354  0.8782 -0.6847  0.9401
 7275WAT     H230906   5.566   9.189   8.325  0.4903 -1.1159 -1.1856
 7275WAT    EPW30907   5.532   9.109   8.332  0.7069 -1.1277 -0.0730
 7276WAT      O30908  10.209   5.842   7.763 -0.2403  0.0821  0.5745
 7276WAT     H130909  10.263   5.780   7.810  0.8562  0.1294 -0.5708
 7276WAT     H230910  10.271   5.899   7.717 -1.2280  1.2396  0.5919
 7276WAT    EPW30911  10.224   5.842   7.763 -0.2260  0.2410  0.4258
 7277WAT      O30912   3.486   0.459   1.022  0.9603  0.2206  0.4560
 7277WAT     H130913   3.411   0.475   0.963  0.6743 -0.9689  0.4773
 7277WAT     H230914   3.530   0.544   1.027  0.2132  0.6830 -0.3975
 7277WAT    EPW30915   3.482   0.473   1.015  0.8241  0.1247  0.3462
 7278WAT      O30916   4.050   9.546   6.019 -0.5538 -0.4999 -0.5010
 7278WAT     H130917   4.060   9.625   5.967  0.0532 -0.6484 -0.6222
 7278WAT     H230918   3.958   9.523   6.012 -0.3379 -0.9811 -2.1842
 7278WAT    EPW30919   4.040   9.553   6.011 -0.4451 -0.5832 -0.7391
 7279WAT      O30920   0.330   3.216   5.249  0.4445 -0.1967  0.4436
 7279WAT     H130921   0.349   3.157   5.176  0.0044 -0.4372  0.5182
 7279WAT     H230922   0.248   3.183   5.285 -0.1524  0.8433  0.0884
 7279WAT    EPW30923   0.322   3.204   5.244  0.3077 -0.0913  0.4065
 7280WAT      O30924   2.744   9.700   7.692  0.1404  0.0606 -0.4732
 7280WAT     H130925   2.713   9.735   7.608 -2.0169 -0.2128  0.1273
 7280WAT     H230926   2.839   9.702   7.686  0.0480 -0.0776 -2.9800
 7280WAT    EPW30927   2.752   9.704   7.680 -0.1564  0.0057 -0.7246
 7281WAT      O30928   0.102   4.308   0.769  0.6715  0.3718 -0.3470
 7281WAT     H130929   0.073   4.326   0.859  1.1321  1.4396 -0.3974
 7281WAT     H230930   0.125   4.215   0.770 -0.7373 -0.0113  0.2385
 7281WAT    EPW30931   0.101   4.298   0.781  0.5464  0.4621 -0.2765
 7282WAT      O30932   1.983   2.908   1.999 -0.0463 -0.0440 -0.3917
 7282WAT     H130933   1.926   2.870   1.933 -0.3512 -0.7210  0.2483
 7282WAT     H230934   2.036   2.835   2.030  1.1877  0.5715 -0.9777
 7282WAT    EPW30935   1.983   2.894   1.994  0.0763 -0.0520 -0.3846
 7283WAT      O30936   1.025   2.466   3.082 -0.0587 -0.1854 -0.4425
 7283WAT     H130937   1.108   2.493   3.043  0.0835  0.4414  0.2797
 7283WAT     H230938   1.047   2.388   3.133 -0.1085 -0.5860 -1.0187
 7283WAT    EPW30939   1.039   2.460   3.083 -0.0465 -0.1554 -0.4233
 7284WAT      O30940   3.148   3.210   0.804 -0.7032  0.6145 -0.1016
 7284WAT     H130941   3.210   3.178   0.738 -0.3720  0.0174  0.4934
 7284WAT     H230942   3.062   3.185   0.770 -0.6078  1.1991 -0.7946
 7284WAT    EPW30943   3.145   3.203   0.791 -0.6469  0.6130 -0.1145
 7285WAT      O30944   1.978   2.186   3.848  0.2239  0.1501 -0.3396
 7285WAT     H130945   2.002   2.159   3.760  0.7489 -2.2823  0.4564
 7285WAT     H230946   1.882   2.185   3.849  0.2017  0.8247 -1.0264
 7285WAT    EPW30947   1.969   2.182   3.837  0.2902 -0.0818 -0.3252
 7286WAT      O30948  10.610   1.610   0.983 -0.0601  0.0278  0.0523
 7286WAT     H130949  10.516   1.603   0.999 -0.3251  0.9545 -1.0017
 7286WAT     H230950  10.622   1.698   0.947  1.4454  0.5430  1.6586
 7286WAT    EPW30951  10.600   1.621   0.981  0.1030  0.2180  0.1252
 7287WAT      O30952   7.053   6.932   7.737  0.7395 -0.1268  0.6015
 7287WAT     H130953   7.148   6.924   7.727  1.1922  0.4710  3.4115
 7287WAT     H230954   7.037   6.912   7.829 -1.7337  0.8821  0.4764
 7287WAT    EPW30955   7.063   6.929   7.748  0.4728  0.0851  0.9556
 7288WAT      O30956   6.718   9.773   7.394  0.3473  0.3019  0.4950
 7288WAT     H130957   6.736   9.850   7.340  0.4148  0.3326  0.5613
 7288WAT     H230958   6.763   9.790   7.477  1.5235 -0.4171  0.0264
 7288WAT    EPW30959   6.726   9.785   7.398  0.5112  0.2108  0.4418
 7289WAT      O30960   8.256   7.755   7.232  0.3350 -0.2822  0.3562
 7289WAT     H130961   8.346   7.768   7.203 -0.3555 -1.6852 -2.8305
 7289WAT     H230962   8.251   7.661   7.251 -0.7039 -0.4484 -0.6421
 7289WAT    EPW30963   8.267   7.744   7.231  0.1068 -0.4892 -0.1957
 7290WAT      O30964   7.133   0.104   8.401  0.8241  0.7975 -1.0718
 7290WAT     H130965   7.152   0.016   8.368 -0.1349  0.3248 -0.4419
 7290WAT     H230966   7.164   0.103   8.491 -0.7502  0.5024 -0.5061
 7290WAT    EPW30967   7.139   0.092   8.408  0.4902  0.6963 -0.9136
 7291WAT      O30968   3.962   1.761   0.983  0.0029  0.2491 -0.0662
 7291WAT     H130969   3.901   1.708   0.933  1.7259 -2.1651  0.2497
 7291WAT     H230970   4.025   1.792   0.919 -0.9858  2.0472 -0.2496
 7291WAT    EPW30971   3.962   1.758   0.968  0.0999  0.1678 -0.0487
 7292WAT      O30972   1.539   6.134   0.248  0.4535 -0.0343  0.0359
 7292WAT     H130973   1.556   6.047   0.284  1.1199  0.3635  0.6955
 7292WAT     H230974   1.625   6.167   0.222  0.5626  1.3963  2.0285
 7292WAT    EPW30975   1.553   6.127   0.249  0.5559  0.2069  0.3857
 7293WAT      O30976   2.844   3.425   1.763  0.9620 -0.4578 -0.3120
 7293WAT     H130977   2.757   3.398   1.791  1.0157 -0.3217 -0.0103
 7293WAT     H230978   2.866   3.365   1.691 -0.2030  0.7647 -1.7679
 7293WAT    EPW30979   2.836   3.413   1.757  0.8153 -0.2786 -0.4643
 7294WAT      O30980   4.053   6.017   0.797  0.6060  0.0710  0.2138
 7294WAT     H130981   4.115   5.990   0.729  2.0181 -1.2383  1.9327
 7294WAT     H230982   4.106   6.066   0.860 -0.8644  2.1282 -0.0591
 7294WAT    EPW30983   4.068   6.020   0.796  0.5982  0.1698  0.4045
 7295WAT      O30984   0.619   3.516   4.506  0.3953  0.4068 -0.0184
 7295WAT     H130985   0.538   3.467   4.521 -0.0863  0.6590 -1.6661
 7295WAT     H230986   0.688   3.452   4.525 -0.1662  0.1515  1.2849
 7295WAT    EPW30987   0.617   3.501   4.511  0.2578  0.4063 -0.0639
 7296WAT      O30988   9.992   3.936   4.893 -0.0770  0.0893 -0.5159
 7296WAT     H130989   9.899   3.912   4.902 -0.2783  1.2410  0.9019
 7296WAT     H230990  10.039   3.853   4.898 -0.9302 -0.3561  0.7569
 7296WAT    EPW30991   9.986   3.922   4.895 -0.2160  0.1825 -0.1612
 7297WAT      O30992  10.415   3.709   0.294 -0.1647 -0.5897  0.3330
 7297WAT     H130993  10.328   3.739   0.321 -0.8835 -0.8805 -1.5266
 7297WAT     H230994  10.430   3.754   0.211  1.7404 -0.0807  0.9197
 7297WAT    EPW30995  10.405   3.719   0.286 -0.0086 -0.5610  0.1651
 7298WAT      O30996   7.436   9.991   8.300  0.3335  0.2375  0.5331
 7298WAT     H130997   7.442  10.056   8.370  1.6002 -0.3684  1.0064
 7298WAT     H230998   7.393  10.038   8.228  1.9838  1.8890  0.5530
 7298WAT    EPW30999   7.431  10.006   8.300  0.7184  0.3757  0.5980
 7299WAT      O31000   3.086   7.965   0.863 -0.2945  0.1111  0.1481
 7299WAT     H131001   3.180   7.961   0.882  0.5860 -1.4755 -3.5870
 7299WAT     H231002   3.057   7.874   0.872 -1.2785  0.4395  0.3804
 7299WAT    EPW31003   3.095   7.952   0.867 -0.3079 -0.0551 -0.3139
 7300WAT      O31004   6.741   0.318   7.922 -0.8686 -0.3211  1.0510
 7300WAT     H131005   6.677   0.247   7.922 -0.4520 -0.8536 -1.9258
 7300WAT     H231006   6.769   0.326   8.013 -2.7623 -2.2760  1.8753
 7300WAT    EPW31007   6.736   0.310   7.934 -1.0633 -0.6492  0.7672
 7301WAT      O31008   1.813   4.161   0.254 -0.1758  0.0272  0.6128
 7301WAT     H131009   1.791   4.251   0.231  1.1116  0.0309 -0.7651
 7301WAT     H231010   1.836   4.120   0.171  0.9447 -1.0836  1.4314
 7301WAT    EPW31011   1.813   4.167   0.240  0.1417 -0.1187  0.5390
 7302WAT      O31012   0.436   2.389   0.499 -0.4563  0.3614 -0.2271
 7302WAT     H131013   0.376   2.421   0.432  1.3198 -0.0269 -2.0866
 7302WAT     H231014   0.504   2.455   0.506  0.8898 -0.8835 -0.9188
 7302WAT    EPW31015   0.437   2.402   0.491 -0.0445  0.1460 -0.5636
 7303WAT      O31016   0.775   1.449   2.173  0.2449 -0.2664  0.1946
 7303WAT     H131017   0.724   1.523   2.205  3.9337  2.5139  0.2329
 7303WAT     H231018   0.833   1.426   2.246  1.5786 -0.8179 -0.9897
 7303WAT    EPW31019   0.776   1.455   2.187  0.9073  0.0275  0.0434
 7304WAT      O31020   5.789   0.339   0.843 -1.0062 -0.1586 -0.7453
 7304WAT     H131021   5.855   0.292   0.894 -1.0218 -0.5636 -1.1010
 7304WAT     H231022   5.719   0.356   0.906 -0.5044  0.4098 -0.3253
 7304WAT    EPW31023   5.789   0.335   0.858 -0.9418 -0.1371 -0.7369
 7305WAT      O31024   0.361   1.031   8.703 -0.2693 -0.9212 -0.3422
 7305WAT     H131025   0.358   0.968   8.631  0.2633 -2.5914  1.0403
 7305WAT     H231026   0.441   1.081   8.688 -0.6034 -0.6682 -1.3526
 7305WAT    EPW31027   0.371   1.030   8.692 -0.2431 -1.1081 -0.2937
 7306WAT      O31028   9.059   6.053   1.809 -0.0745  0.3725 -0.0964
 7306WAT     H131029   9.131   6.034   1.750  1.7160 -0.5272  2.2156
 7306WAT     H231030   9.044   6.147   1.799 -0.5409  0.1059 -2.6095
 7306WAT    EPW31031   9.066   6.063   1.800  0.1001  0.2186 -0.1230
 7307WAT      O31032   4.607   4.752   3.877 -0.4486 -0.4482  0.9727
 7307WAT     H131033   4.677   4.731   3.940 -1.5028  0.0861  2.3875
 7307WAT     H231034   4.528   4.758   3.931 -1.4765 -0.3574 -0.4885
 7307WAT    EPW31035   4.606   4.750   3.893 -0.7231 -0.3660  0.9667
 7308WAT      O31036   4.055  10.294   7.790  0.1972  0.5969 -0.6319
 7308WAT     H131037   4.016  10.256   7.712 -0.0651 -0.1413 -0.1489
 7308WAT     H231038   4.092  10.220   7.838  2.1457  1.2669 -1.0325
 7308WAT    EPW31039   4.055  10.280   7.786  0.4196  0.5879 -0.6213
 7309WAT      O31040   8.405   2.238   7.380 -0.1845  0.5479 -0.6781
 7309WAT     H131041   8.310   2.248   7.379 -0.1424  0.9163 -1.1843
 7309WAT     H231042   8.428   2.241   7.473 -0.5244  1.8083 -0.6176
 7309WAT    EPW31043   8.396   2.240   7.392 -0.2236  0.7626 -0.7367
 7310WAT      O31044   7.392   8.726   8.829 -0.0887 -0.0385 -0.2081
 7310WAT     H131045   7.439   8.646   8.807  0.9391  1.0229 -2.2023
 7310WAT     H231046   7.440   8.763   8.903  1.3493  0.2609 -1.2568
 7310WAT    EPW31047   7.404   8.720   8.836  0.2363  0.1407 -0.6089
 7311WAT      O31048   8.644   8.424   8.160 -0.2026  0.3025 -0.0883
 7311WAT     H131049   8.661   8.349   8.103 -0.9779 -0.2132  0.3511
 7311WAT     H231050   8.724   8.477   8.153  0.8748 -1.1726  0.5608
 7311WAT    EPW31051   8.657   8.421   8.151 -0.1626  0.0405  0.0553
 7312WAT      O31052   2.140   3.568   1.076  0.0184  0.4744 -0.1123
 7312WAT     H131053   2.139   3.602   1.165 -1.7702 -1.0780  0.5452
 7312WAT     H231054   2.047   3.559   1.053  0.3177 -2.7451 -0.5950
 7312WAT    EPW31055   2.127   3.571   1.085 -0.1780 -0.1551 -0.0893
 7313WAT      O31056   9.935   0.333   7.389 -0.3428  0.0021 -0.0664
 7313WAT     H131057   9.942   0.391   7.314 -0.8328  0.1137 -0.0262
 7313WAT     H231058   9.850   0.353   7.428 -1.6367 -2.4046 -1.4323
 7313WAT    EPW31059   9.925   0.343   7.384 -0.5784 -0.3006 -0.2413
 7314WAT      O31060   6.358   7.347   7.392  0.3291  0.5783  0.0003
 7314WAT     H131061   6.387   7.277   7.450 -2.0485  1.1039  2.0011
 7314WAT     H231062   6.299   7.400   7.445  0.6261  3.0945 -1.9673
 7314WAT    EPW31063   6.354   7.345   7.406  0.0544  0.9794  0.0048
 7315WAT      O31064   1.964   3.571   2.354  0.2957  0.6466  0.9668
 7315WAT     H131065   1.875   3.580   2.389 -1.1501  1.4152 -2.4861
 7315WAT     H231066   1.989   3.481   2.376 -0.0416  1.2599  4.4843
 7315WAT    EPW31067   1.956   3.560   2.362  0.0606  0.8289  0.9753
 7316WAT      O31068   0.990   4.940   2.209 -0.0567  0.6468  0.4035
 7316WAT     H131069   1.019   5.032   2.210 -0.0589  0.6804 -0.8493
 7316WAT     H231070   0.900   4.943   2.239  0.3002  0.9127  1.4700
 7316WAT    EPW31071   0.982   4.953   2.213 -0.0099  0.6864  0.3788
 7317WAT      O31072   1.735   5.971   1.944  0.1701 -0.1880  0.4651
 7317WAT     H131073   1.806   5.937   1.889  0.6253 -0.4022  1.1772
 7317WAT     H231074   1.704   6.049   1.898 -0.7135 -1.3763 -1.0674
 7317WAT    EPW31075   1.740   5.977   1.931  0.1136 -0.3731  0.3569
 7318WAT      O31076   4.193   2.309   0.485 -0.0461  0.6744  0.1271
 7318WAT     H131077   4.203   2.299   0.390  4.3157  1.4768  0.2781
 7318WAT     H231078   4.231   2.228   0.521  1.4691  1.7807  1.1308
 7318WAT    EPW31079   4.199   2.297   0.477  0.7291  0.9261  0.2794
 7319WAT      O31080   3.685   8.764   1.194 -0.4392  0.2403  0.2033
 7319WAT     H131081   3.596   8.733   1.177 -0.8252  0.6003  1.4431
 7319WAT     H231082   3.683   8.857   1.175  0.8377 -0.3856 -3.9435
 7319WAT    EPW31083   3.673   8.772   1.189 -0.3216  0.2050 -0.1801
 7320WAT      O31084   3.669   5.465   0.776  0.5022 -0.6233 -0.4070
 7320WAT     H131085   3.762   5.455   0.797  1.6953  4.1202 -2.0779
 7320WAT     H231086   3.636   5.526   0.842 -0.0515  1.4321 -2.4602
 7320WAT    EPW31087   3.677   5.472   0.787  0.5865  0.2735 -0.8982
 7321WAT      O31088   4.881   4.122   0.921  0.2035 -0.1134  1.0964
 7321WAT     H131089   4.807   4.061   0.918  0.6664 -0.7145  1.5888
 7321WAT     H231090   4.860   4.180   0.994 -0.1273  0.1790  0.7728
 7321WAT    EPW31091   4.868   4.121   0.931  0.2208 -0.1545  1.1186
 7322WAT      O31092   2.953   0.620   4.027 -0.1503  0.5204  0.3075
 7322WAT     H131093   2.923   0.535   4.058  0.7866  0.2887  0.6191
 7322WAT     H231094   2.874   0.664   3.996 -1.1298  0.6498  2.7447
 7322WAT    EPW31095   2.938   0.615   4.027 -0.1559  0.5069  0.6700
 7323WAT      O31096   6.393   7.637   7.881 -0.2251 -0.3431  0.6667
 7323WAT     H131097   6.328   7.704   7.901 -0.8677 -0.9025  0.5170
 7323WAT     H231098   6.368   7.563   7.936  1.5109  0.1095  2.1297
 7323WAT    EPW31099   6.381   7.636   7.891 -0.0808 -0.3572  0.8397
 7324WAT      O31100   8.284   0.066   6.327  0.0220 -0.3665  0.1713
 7324WAT     H131101   8.316   0.154   6.344  0.2902 -0.8594  2.5931
 7324WAT     H231102   8.315   0.046   6.238  1.1549  1.4432  0.1062
 7324WAT    EPW31103   8.293   0.075   6.318  0.2065 -0.1928  0.4823
 7325WAT      O31104   2.707   6.852   8.933  0.1260 -0.5391 -0.3246
 7325WAT     H131105   2.741   6.828   9.020  1.4441  0.8941 -0.4039
 7325WAT     H231106   2.784   6.883   8.886 -0.9081  0.5369 -1.3629
 7325WAT    EPW31107   2.722   6.853   8.938  0.1634 -0.2081 -0.4725
 7326WAT      O31108   1.006   5.941   2.991 -0.7774 -0.7907 -0.2922
 7326WAT     H131109   0.980   6.006   2.926 -0.3398  0.2852  0.5767
 7326WAT     H231110   0.934   5.941   3.055  0.7505  1.5539  1.6474
 7326WAT    EPW31111   0.993   5.950   2.991 -0.5182 -0.3395  0.0783
 7327WAT      O31112   6.432   8.833   8.173  0.3588  1.1547  0.0368
 7327WAT     H131113   6.514   8.876   8.195  1.4355 -0.6988 -0.1479
 7327WAT     H231114   6.410   8.782   8.251  0.5653 -0.0701 -0.6751
 7327WAT    EPW31115   6.440   8.832   8.186  0.5281  0.7496 -0.0811
 7328WAT      O31116   6.701   0.096   6.724  0.2435  0.7526 -0.3487
 7328WAT     H131117   6.747   0.073   6.643  1.2956  0.5212  0.2988
 7328WAT     H231118   6.771   0.113   6.787 -0.4343 -2.4551  1.4965
 7328WAT    EPW31119   6.716   0.095   6.722  0.2928  0.2990 -0.0198
 7329WAT      O31120   6.535   9.935   8.429  0.4632  0.0074 -0.5242
 7329WAT     H131121   6.557   9.966   8.517  0.4595 -1.9516  0.2080
 7329WAT     H231122   6.619   9.905   8.393  0.7279  2.0331 -1.7721
 7329WAT    EPW31123   6.549   9.935   8.436  0.4976  0.0157 -0.5918
 7330WAT      O31124   2.657   3.156   2.668  0.7617  0.4154 -0.2288
 7330WAT     H131125   2.611   3.174   2.586  2.3848  1.9797 -0.8558
 7330WAT     H231126   2.713   3.232   2.681  2.4665 -0.9629  0.9910
 7330WAT    EPW31127   2.658   3.168   2.659  1.2006  0.4399 -0.1506
 7331WAT      O31128   6.837   7.262   7.462  0.1225  0.0903 -0.0708
 7331WAT     H131129   6.818   7.329   7.397 -1.6004 -0.2242  0.0456
 7331WAT     H231130   6.928   7.237   7.447 -0.0259  0.5547 -1.8615
 7331WAT    EPW31131   6.846   7.267   7.452 -0.1242  0.1101 -0.2916
 7332WAT      O31132   5.182   1.348   8.008 -0.7205  0.7064 -0.2901
 7332WAT     H131133   5.204   1.401   7.932  0.3678 -0.0657 -0.5488
 7332WAT     H231134   5.229   1.389   8.081 -0.3989  0.4842 -0.3681
 7332WAT    EPW31135   5.191   1.360   8.008 -0.5345  0.5752 -0.3347
 7333WAT      O31136   9.093   5.031   8.853  0.0557 -0.2173 -0.3667
 7333WAT     H131137   9.084   4.955   8.910 -2.4907  0.8784  0.7934
 7333WAT     H231138   9.152   5.090   8.901 -1.3765  0.3245  0.7961
 7333WAT    EPW31139   9.100   5.029   8.867 -0.4687 -0.0014 -0.0606
 7334WAT      O31140   8.425   2.297   5.045  0.7481  0.7551 -0.6803
 7334WAT     H131141   8.376   2.236   4.990 -0.1449  1.6931 -0.9557
 7334WAT     H231142   8.496   2.244   5.082 -1.3085 -1.0646  0.9116
 7334WAT    EPW31143   8.428   2.282   5.043  0.3591  0.6388 -0.5066
 7335WAT      O31144   1.215   4.248   1.708  0.1474 -0.2077 -0.4446
 7335WAT     H131145   1.278   4.193   1.660 -0.6786 -1.2465 -0.3756
 7335WAT     H231146   1.180   4.190   1.776 -2.4461 -0.3700 -1.7972
 7335WAT    EPW31147   1.219   4.233   1.711 -0.3036 -0.3662 -0.6139
 7336WAT      O31148   3.443   2.033   1.449 -0.0294 -0.0530  0.0210
 7336WAT     H131149   3.512   2.000   1.391  2.1058 -0.3290  2.5315
 7336WAT     H231150   3.395   1.955   1.477  0.7215 -0.2756  0.7324
 7336WAT    EPW31151   3.446   2.019   1.445  0.3513 -0.1187  0.4460
 7337WAT      O31152   5.761   7.052   8.364 -0.7745 -0.3148 -0.7632
 7337WAT     H131153   5.686   7.091   8.408  0.9348  0.4274  1.6890
 7337WAT     H231154   5.750   6.958   8.376 -1.9393 -0.3021 -1.5981
 7337WAT    EPW31155   5.750   7.045   8.371 -0.7026 -0.2153 -0.5503
 7338WAT      O31156   6.312   9.974   5.330  0.5727  0.5228  0.2340
 7338WAT     H131157   6.317  10.060   5.289 -1.5307  0.8476  0.5325
 7338WAT     H231158   6.325   9.990   5.423 -1.3657  0.7990  0.4978
 7338WAT    EPW31159   6.314   9.987   5.337  0.0396  0.6018  0.3080
 7339WAT      O31160   8.432   2.202   7.087 -0.7019  0.2941  0.1222
 7339WAT     H131161   8.489   2.168   7.156 -1.7714 -1.1498  0.3392
 7339WAT     H231162   8.435   2.135   7.019  1.1055  2.1173 -1.7523
 7339WAT    EPW31163   8.440   2.189   7.087 -0.6046  0.3440 -0.0963
 7340WAT      O31164   2.545   5.670   4.212  0.1459  0.9543 -0.4894
 7340WAT     H131165   2.605   5.679   4.138  1.5652  0.2864  0.5394
 7340WAT     H231166   2.468   5.627   4.174  1.2382 -0.2935 -1.4085
 7340WAT    EPW31167   2.543   5.666   4.197  0.4772  0.7017 -0.4749
 7341WAT      O31168   2.292   4.910   4.876  0.5469  0.3693 -0.1901
 7341WAT     H131169   2.305   4.880   4.966  1.6653 -1.4033 -0.8901
 7341WAT     H231170   2.284   5.005   4.884  0.0458  0.2205  1.8217
 7341WAT    EPW31171   2.293   4.919   4.889  0.6284  0.1154 -0.0172
 7342WAT      O31172   4.249   9.233   7.396 -0.2163 -0.5978 -0.2736
 7342WAT     H131173   4.310   9.163   7.375 -0.4186 -0.9348  0.2446
 7342WAT     H231174   4.163   9.191   7.398 -0.6921  0.1442 -2.4663
 7342WAT    EPW31175   4.246   9.218   7.394 -0.3057 -0.5445 -0.4947
 7343WAT      O31176   0.844   1.528   0.182 -0.2020 -0.1063 -0.1080
 7343WAT     H131177   0.854   1.623   0.172  0.6977  0.1159  2.2866
 7343WAT     H231178   0.912   1.491   0.126 -0.3166  0.6551 -0.7831
 7343WAT    EPW31179   0.854   1.536   0.173 -0.0984  0.0234  0.1188
 7344WAT      O31180   0.337   3.363   0.646  0.5449 -0.0480 -0.3302
 7344WAT     H131181   0.309   3.276   0.617  2.0902 -0.6652 -0.0870
 7344WAT     H231182   0.378   3.402   0.569 -2.6687  1.7200 -1.3353
 7344WAT    EPW31183   0.339   3.357   0.632  0.3248  0.1038 -0.4307
 7345WAT      O31184   6.682   0.668   8.094  0.2666  0.5737 -0.5172
 7345WAT     H131185   6.774   0.675   8.117 -0.3952  3.0375  1.9740
 7345WAT     H231186   6.670   0.730   8.022  0.7297 -0.6516 -1.6803
 7345WAT    EPW31187   6.692   0.677   8.087  0.2406  0.7371 -0.3419
 7346WAT      O31188   3.128   5.711   2.129  0.5709 -0.4813  0.2472
 7346WAT     H131189   3.222   5.726   2.139  0.5366 -0.1640  0.0918
 7346WAT     H231190   3.098   5.781   2.071 -0.2774  1.1311  2.5205
 7346WAT    EPW31191   3.137   5.722   2.122  0.4544 -0.2267  0.5265
 7347WAT      O31192   3.232   3.947   2.043  0.0183 -0.4911 -0.0952
 7347WAT     H131193   3.172   3.926   1.971 -0.1293  0.2471 -0.1973
 7347WAT     H231194   3.199   4.030   2.078  0.5078 -0.4881  0.3672
 7347WAT    EPW31195   3.219   3.955   2.038  0.0633 -0.3933 -0.0477
 7348WAT      O31196   3.022   9.286   7.137 -0.1974  0.2197  0.5628
 7348WAT     H131197   2.938   9.241   7.129 -0.0790  0.1640 -0.6861
 7348WAT     H231198   3.074   9.232   7.196 -0.9093  0.0578  1.0511
 7348WAT    EPW31199   3.018   9.273   7.144 -0.2756  0.1917  0.4625
 7349WAT      O31200   9.600   4.716   0.017 -0.1789  0.5745 -0.3281
 7349WAT     H131201   9.618   4.804  -0.017  0.6256  1.1487  1.4890
 7349WAT     H231202   9.557   4.731   0.101  1.4140 -0.7277  0.7704
 7349WAT    EPW31203   9.597   4.729   0.023  0.1372  0.4787  0.0567
 7350WAT      O31204   8.144   2.056   8.603 -0.0560 -0.1953  0.2939
 7350WAT     H131205   8.173   2.145   8.622 -0.6225  0.0075  0.2150
 7350WAT     H231206   8.172   2.041   8.512  0.1713 -0.1529  0.3562
 7350WAT    EPW31207   8.152   2.065   8.593 -0.1006 -0.1630  0.2913
 7351WAT      O31208   0.122   3.195   1.320 -0.0279 -0.5079  0.2863
 7351WAT     H131209   0.096   3.235   1.403  0.3723 -0.0943  0.2190
 7351WAT     H231210   0.217   3.183   1.328 -0.4454 -4.1961  1.4720
 7351WAT    EPW31211   0.131   3.199   1.332 -0.0302 -0.9397  0.4339
 7352WAT      O31212  10.496   1.968   6.408  0.8418 -0.1656 -0.1492
 7352WAT     H131213  10.539   1.926   6.334  1.6659  1.7518 -0.8334
 7352WAT     H231214  10.554   2.041   6.431  0.6433 -0.7188  2.4394
 7352WAT    EPW31215  10.509   1.972   6.401  0.9246  0.0144  0.1020
 7353WAT      O31216   9.596   1.652   6.378 -0.3596  0.2415 -0.7961
 7353WAT     H131217   9.665   1.658   6.444 -1.5015  2.0865  0.3465
 7353WAT     H231218   9.591   1.559   6.356  1.0700 -0.2112  0.6344
 7353WAT    EPW31219   9.604   1.640   6.384 -0.3214  0.4252 -0.4568
 7354WAT      O31220   6.838   8.405   7.865 -0.2038 -0.2032 -0.5218
 7354WAT     H131221   6.868   8.393   7.775  0.1322  1.2996 -0.6317
 7354WAT     H231222   6.746   8.428   7.857 -0.9045 -2.6638 -0.2994
 7354WAT    EPW31223   6.830   8.406   7.852 -0.2520 -0.3295 -0.5069
 7355WAT      O31224  10.957   0.401   6.870 -0.0393 -0.3091 -0.4282
 7355WAT     H131225  10.947   0.317   6.913 -0.0220 -0.1100 -0.0347
 7355WAT     H231226  11.016   0.384   6.797 -0.2332 -0.6889 -0.4970
 7355WAT    EPW31227  10.964   0.388   6.866 -0.0620 -0.3329 -0.3855
 7356WAT      O31228   8.956   9.239   8.849  0.0051 -0.0473  0.0484
 7356WAT     H131229   8.980   9.327   8.880 -0.7224 -0.8739  3.2885
 7356WAT     H231230   8.886   9.255   8.785  1.3410  1.7804 -1.0657
 7356WAT    EPW31231   8.950   9.253   8.845  0.0854  0.0844  0.3290
 7357WAT      O31232   2.069   5.971   1.166 -0.2122 -0.6039  0.3859
 7357WAT     H131233   2.149   5.994   1.119 -0.3540  0.1230  0.4899
 7357WAT     H231234   2.052   6.047   1.222 -1.3134 -0.4912 -0.0869
 7357WAT    EPW31235   2.077   5.984   1.168 -0.3761 -0.4933  0.3373
 7358WAT      O31236   3.076   6.958   0.270 -0.1440  0.7178  0.6860
 7358WAT     H131237   3.059   6.900   0.344 -0.1453  0.6706  0.6490
 7358WAT     H231238   3.166   6.939   0.244  0.2881  1.6126  1.4555
 7358WAT    EPW31239   3.085   6.948   0.276 -0.0871  0.8295  0.7826
 7359WAT      O31240   5.053   7.939   8.587  0.5694 -0.6851  0.7570
 7359WAT     H131241   5.087   7.850   8.578 -0.0212 -0.7967 -0.7667
 7359WAT     H231242   4.967   7.936   8.546  0.9651  0.8240 -0.2761
 7359WAT    EPW31243   5.046   7.927   8.580  0.5436 -0.5009  0.4201
 7360WAT      O31244  10.519   5.425   2.377 -0.3029  0.2783 -0.0202
 7360WAT     H131245  10.574   5.495   2.341  0.2654  0.8996  1.9394
 7360WAT     H231246  10.582   5.361   2.412 -0.8048  0.4098  1.1602
 7360WAT    EPW31247  10.535   5.426   2.377 -0.2942  0.3777  0.3939
 7361WAT      O31248   6.959   2.271   8.703 -0.3233  0.3403  0.3969
 7361WAT     H131249   6.979   2.183   8.736 -2.4525  0.2340  1.5559
 7361WAT     H231250   6.943   2.323   8.782  2.9919  2.4567 -0.0864
 7361WAT    EPW31251   6.960   2.266   8.718 -0.1669  0.6053  0.4864
 7362WAT      O31252   1.479   5.162   2.978  0.2852  0.6729  0.8272
 7362WAT     H131253   1.386   5.144   2.962  0.3234  0.8142  0.4298
 7362WAT     H231254   1.503   5.223   2.908  0.6428  0.7394  1.0108
 7362WAT    EPW31255   1.470   5.168   2.967  0.3374  0.7002  0.7991
 7363WAT      O31256   1.495   3.639   2.796 -0.3581  0.0009 -0.1938
 7363WAT     H131257   1.543   3.601   2.869  1.1474 -0.2114 -1.2495
 7363WAT     H231258   1.512   3.733   2.802 -0.4777  0.0179 -0.1108
 7363WAT    EPW31259   1.503   3.647   2.806 -0.1752 -0.0250 -0.3221
 7364WAT      O31260   7.128   0.514   8.218 -0.2470 -0.3328 -0.2527
 7364WAT     H131261   7.130   0.565   8.299  0.5579 -1.4973  0.4780
 7364WAT     H231262   7.219   0.508   8.192 -0.5855  1.1075 -1.9759
 7364WAT    EPW31263   7.140   0.520   8.225 -0.1855 -0.2964 -0.3839
 7365WAT      O31264   4.091   6.186   0.067  0.4090 -0.0889  0.1714
 7365WAT     H131265   4.005   6.146   0.083 -0.8620  2.0215 -0.9116
 7365WAT     H231266   4.121   6.147  -0.014  1.5026 -2.3413  1.5732
 7365WAT    EPW31267   4.083   6.176   0.059  0.3858 -0.1075  0.2135
 7366WAT      O31268   7.217   6.142   3.587 -0.4472 -0.7219  0.2448
 7366WAT     H131269   7.190   6.197   3.661 -0.4973 -0.1649 -0.1836
 7366WAT     H231270   7.138   6.133   3.534 -0.5981 -1.7227  0.6276
 7366WAT    EPW31271   7.204   6.148   3.590 -0.4737 -0.7803  0.2388
 7367WAT      O31272   8.220   0.281   8.070  0.0351 -0.3437 -0.0991
 7367WAT     H131273   8.311   0.252   8.061 -0.2343 -0.9321 -1.1567
 7367WAT     H231274   8.175   0.239   7.996 -0.7591  1.2801 -0.5700
 7367WAT    EPW31275   8.226   0.271   8.059 -0.1059 -0.2072 -0.3009
 7368WAT      O31276   1.920   5.564   1.863 -0.0959  0.0920 -0.7531
 7368WAT     H131277   1.902   5.546   1.771 -0.1499  0.1928 -0.7625
 7368WAT     H231278   1.834   5.578   1.903 -0.2601 -2.1251 -0.2089
 7368WAT    EPW31279   1.907   5.564   1.857 -0.1246 -0.1874 -0.6826
 7369WAT      O31280  10.682   0.127   7.888 -0.5454  0.0911  0.0132
 7369WAT     H131281  10.596   0.167   7.874 -0.3514  1.1848  1.6492
 7369WAT     H231282  10.713   0.166   7.970  1.4101 -0.4705 -0.4178
 7369WAT    EPW31283  10.674   0.137   7.897 -0.2623  0.1613  0.1719
 7370WAT      O31284   0.804   4.284   6.743 -0.1698 -0.2304 -0.3629
 7370WAT     H131285   0.723   4.234   6.757 -0.5825  0.1384 -1.3216
 7370WAT     H231286   0.774   4.375   6.734  0.5678  0.2294  1.3502
 7370WAT    EPW31287   0.789   4.289   6.744 -0.1270 -0.1211 -0.2635
 7371WAT      O31288   6.253   9.042   8.135  0.1634 -0.8722 -0.4880
 7371WAT     H131289   6.257   9.124   8.184 -1.8953 -0.8057 -0.3376
 7371WAT     H231290   6.337   8.999   8.153  1.0451  0.8975 -0.0816
 7371WAT    EPW31291   6.265   9.047   8.144  0.0081 -0.6299 -0.4148
 7372WAT      O31292   6.765   5.440   6.926  0.9364 -0.0554 -0.3727
 7372WAT     H131293   6.738   5.419   7.015 -1.3662  1.0154 -0.7507
 7372WAT     H231294   6.857   5.465   6.934  0.1402  2.6313  2.2423
 7372WAT    EPW31295   6.774   5.441   6.939  0.5274  0.4401 -0.0775
 7373WAT      O31296   3.517   2.505   6.414 -0.0397 -0.0905  0.4351
 7373WAT     H131297   3.450   2.513   6.482  2.3726  1.3325  2.8885
 7373WAT     H231298   3.572   2.433   6.444  0.0029 -0.7243 -1.0996
 7373WAT    EPW31299   3.516   2.497   6.427  0.2843  0.0136  0.5562
 7374WAT      O31300   6.779   5.934   0.114  0.1562 -0.1682  0.7604
 7374WAT     H131301   6.724   6.012   0.104  0.3741  0.0649  1.3213
 7374WAT     H231302   6.726   5.863   0.079 -0.0636  0.2271  0.2787
 7374WAT    EPW31303   6.765   5.935   0.108  0.1559 -0.0854  0.7709
 7375WAT      O31304   4.036   3.494   0.237 -0.1382  0.0006  0.3396
 7375WAT     H131305   4.125   3.461   0.221 -0.3265 -0.0478 -0.6567
 7375WAT     H231306   4.040   3.529   0.326  0.5403 -1.1186  0.7800
 7375WAT    EPW31307   4.048   3.494   0.247 -0.0739 -0.1535  0.2663
 7376WAT      O31308   6.113   6.524   1.218 -0.2786 -0.0876  0.4761
 7376WAT     H131309   6.040   6.491   1.165  1.1429 -3.4376  0.3759
 7376WAT     H231310   6.116   6.618   1.198 -3.1709 -0.2234 -1.1605
 7376WAT    EPW31311   6.104   6.532   1.208 -0.4725 -0.5474  0.2471
 7377WAT      O31312  10.024   0.628   5.661 -0.3089  0.5911 -0.2731
 7377WAT     H131313  10.019   0.641   5.755  1.0795 -1.4521  0.1491
 7377WAT     H231314  10.073   0.547   5.650 -0.6804  0.6065 -2.7614
 7377WAT    EPW31315  10.030   0.619   5.672 -0.1740  0.3237 -0.5455
 7378WAT      O31316   3.067   1.409   5.801  0.3514  0.3641  0.0582
 7378WAT     H131317   3.127   1.446   5.735  1.3606  1.4197  1.5006
 7378WAT     H231318   3.015   1.484   5.831 -0.7752 -0.2961 -0.2101
 7378WAT    EPW31319   3.068   1.424   5.796  0.3358  0.4162  0.2129
 7379WAT      O31320   1.234   0.623   4.937  0.4391  0.0996  0.4161
 7379WAT     H131321   1.230   0.643   4.844  0.9817  1.1121  0.5874
 7379WAT     H231322   1.326   0.604   4.954  0.4042  0.2673  0.8073
 7379WAT    EPW31323   1.246   0.623   4.927  0.5060  0.2553  0.4904
 7380WAT      O31324   0.347   2.742   8.821 -0.9037 -0.2125 -0.4226
 7380WAT     H131325   0.394   2.683   8.880 -0.4976 -1.3758 -1.8528
 7380WAT     H231326   0.398   2.823   8.821 -0.6862 -0.3457  0.4795
 7380WAT    EPW31327   0.360   2.745   8.828 -0.8214 -0.3835 -0.4926
 7381WAT      O31328   3.501   6.705   1.098  0.3824 -0.6363  0.6878
 7381WAT     H131329   3.418   6.739   1.064  0.4649  0.0060  1.1192
 7381WAT     H231330   3.561   6.780   1.093  0.6459 -0.7998  1.3761
 7381WAT    EPW31331   3.498   6.720   1.093  0.4280 -0.5734  0.8355
 7382WAT      O31332  10.640  10.042   7.509  0.4072 -0.2510 -0.1106
 7382WAT     H131333  10.657  10.026   7.417  0.9654 -1.1604  0.1411
 7382WAT     H231334  10.726  10.042   7.551  0.1749  0.2945  0.3976
 7382WAT    EPW31335  10.653  10.040   7.503  0.4501 -0.2990 -0.0105
 7383WAT      O31336   7.885   8.630   1.318  0.1505  0.4928  0.1332
 7383WAT     H131337   7.976   8.653   1.297  0.2628 -0.6393 -0.7095
 7383WAT     H231338   7.890   8.592   1.405  0.0628  2.8642  1.2600
 7383WAT    EPW31339   7.898   8.628   1.326  0.1535  0.6561  0.1706
 7384WAT      O31340   3.216   4.954   1.134 -0.0130  0.4383 -0.5932
 7384WAT     H131341   3.279   4.972   1.203  0.9697 -1.9690 -0.7794
 7384WAT     H231342   3.141   4.917   1.179 -0.7463  1.9061 -0.5357
 7384WAT    EPW31343   3.214   4.952   1.149  0.0198  0.3145 -0.6102
 7385WAT      O31344  10.825   0.419   7.633  0.6989  0.4116  0.1530
 7385WAT     H131345  10.814   0.397   7.725 -0.1556  2.1743  0.5051
 7385WAT     H231346  10.737   0.422   7.597  0.9940  0.2000 -0.6239
 7385WAT    EPW31347  10.812   0.416   7.640  0.6251  0.6162  0.0968
 7386WAT      O31348   6.479   9.040   1.633  0.5101 -0.3327  0.3673
 7386WAT     H131349   6.481   8.972   1.565 -0.2368  0.0548 -0.0623
 7386WAT     H231350   6.548   9.015   1.694  0.2474 -1.4819  0.2226
 7386WAT    EPW31351   6.488   9.028   1.632  0.3769 -0.4334  0.2915
 7387WAT      O31352   5.923   5.791   0.431 -0.0548 -0.5415  0.4287
 7387WAT     H131353   6.003   5.771   0.382  0.3913  2.2585 -0.1757
 7387WAT     H231354   5.855   5.797   0.365 -0.2862 -0.6115  0.6572
 7387WAT    EPW31355   5.925   5.789   0.416 -0.0265 -0.1812  0.3791
 7388WAT      O31356   4.868   6.465   1.982 -0.1379 -0.5620 -0.0495
 7388WAT     H131357   4.782   6.435   1.952  0.1880 -0.1298 -1.5110
 7388WAT     H231358   4.863   6.459   2.077 -1.4985 -1.3184 -0.1311
 7388WAT    EPW31359   4.856   6.460   1.991 -0.2744 -0.6051 -0.2530
 7389WAT      O31360   1.686   4.839   7.993 -0.4467 -0.2106 -1.2006
 7389WAT     H131361   1.678   4.757   8.042  0.9877 -0.8794 -2.0350
 7389WAT     H231362   1.743   4.817   7.919  2.0172  2.0982 -0.1244
 7389WAT    EPW31363   1.693   4.825   7.990  0.0675  0.0057 -1.1685
 7390WAT      O31364   7.820   6.416   0.807  0.1971 -0.7879  0.4281
 7390WAT     H131365   7.880   6.447   0.739  0.7549  1.7956  1.9724
 7390WAT     H231366   7.743   6.473   0.798  0.6640  0.2460  2.5051
 7390WAT    EPW31367   7.818   6.428   0.797  0.3321 -0.3107  0.9057
 7391WAT      O31368   1.961   3.467   8.350 -0.2759  0.2019  0.4703
 7391WAT     H131369   2.009   3.415   8.286  1.0720  2.1095 -0.1614
 7391WAT     H231370   2.030   3.509   8.402 -1.3374 -0.4644  2.5196
 7391WAT    EPW31371   1.977   3.466   8.349 -0.2381  0.3657  0.6576
 7392WAT      O31372   6.839   7.087   1.851  0.1898 -0.1641  0.0240
 7392WAT     H131373   6.777   7.121   1.914  1.7814  1.3850  0.8477
 7392WAT     H231374   6.852   6.996   1.876 -1.0421 -0.2547  0.3811
 7392WAT    EPW31375   6.833   7.079   1.862  0.2372  0.0281  0.1797
 7393WAT      O31376   8.540   9.358   2.621  0.5274  0.3438  0.3340
 7393WAT     H131377   8.522   9.431   2.561  0.2659 -0.9704 -1.2654
 7393WAT     H231378   8.615   9.388   2.673 -0.4068  2.2628  0.6710
 7393WAT    EPW31379   8.548   9.371   2.620  0.3691  0.4234  0.1675
 7394WAT      O31380   6.519   5.065   2.141 -0.3103  0.0192 -0.4933
 7394WAT     H131381   6.493   5.045   2.231  0.2515  1.6209  0.0648
 7394WAT     H231382   6.560   4.985   2.109  2.1526  0.2561  1.7155
 7394WAT    EPW31383   6.521   5.052   2.148  0.0885  0.2618 -0.1285
 7395WAT      O31384   0.152   0.070   6.743 -0.3088 -0.2925 -0.2545
 7395WAT     H131385   0.239   0.031   6.741 -0.6954 -1.4835  2.4716
 7395WAT     H231386   0.116   0.046   6.828 -3.2083  0.4273 -1.1556
 7395WAT    EPW31387   0.159   0.062   6.754 -0.7422 -0.3546 -0.0136
 7396WAT      O31388   5.996   9.048   4.833 -0.1001  0.0422 -0.1666
 7396WAT     H131389   5.999   8.958   4.864 -5.0868  0.0828  1.3663
 7396WAT     H231390   6.029   9.100   4.906  1.1545 -0.3964 -0.3941
 7396WAT    EPW31391   6.001   9.043   4.847 -0.5925 -0.0105  0.0055
 7397WAT      O31392   3.387   2.687   8.813  0.0970  0.0790 -0.0675
 7397WAT     H131393   3.396   2.612   8.753  1.9256  2.1757 -2.6607
 7397WAT     H231394   3.451   2.670   8.882  1.2907 -0.2777 -1.2247
 7397WAT    EPW31395   3.397   2.675   8.814  0.4956  0.3085 -0.5622
 7398WAT      O31396   0.111   1.611   6.384 -0.5146 -0.2926  0.1487
 7398WAT     H131397   0.179   1.669   6.418 -0.6592  0.5552 -0.9419
 7398WAT     H231398   0.055   1.593   6.459  1.0969 -1.3074  1.1600
 7398WAT    EPW31399   0.113   1.616   6.399 -0.3211 -0.3147  0.1383
 7399WAT      O31400   8.673   7.950   8.348 -0.1048 -0.3227 -0.1116
 7399WAT     H131401   8.610   7.881   8.370  1.3525 -1.7677 -0.2281
 7399WAT     H231402   8.723   7.914   8.274  2.3117 -0.2764  1.3631
 7399WAT    EPW31403   8.672   7.936   8.341  0.4058 -0.5071  0.0682
 7400WAT      O31404   7.331   6.156   2.331  0.2727 -0.5154  0.2560
 7400WAT     H131405   7.253   6.100   2.325 -0.6460  0.7214  0.4566
 7400WAT     H231406   7.403   6.097   2.309 -0.8020 -1.4741 -0.9070
 7400WAT    EPW31407   7.330   6.140   2.327  0.0095 -0.4785  0.1291
 7401WAT      O31408   4.000   2.160   4.817  0.4133  0.7320  0.0954
 7401WAT     H131409   3.934   2.205   4.868 -1.1822 -1.3000 -0.0694
 7401WAT     H231410   4.083   2.185   4.857 -0.6221  1.2927  1.9653
 7401WAT    EPW31411   4.003   2.169   4.829  0.0663  0.5380  0.3204
 7402WAT      O31412   2.486   0.724   7.604  0.1065 -0.3972  0.6981
 7402WAT     H131413   2.429   0.684   7.670  1.1353 -0.4313  1.6102
 7402WAT     H231414   2.549   0.655   7.582  2.2194  0.7307  2.6534
 7402WAT    EPW31415   2.487   0.710   7.610  0.5207 -0.2529  1.0765
 7403WAT      O31416   1.562   2.487   7.124  0.0848  0.6607  0.2316
 7403WAT     H131417   1.650   2.524   7.121  0.0829  0.7368  0.9602
 7403WAT     H231418   1.523   2.523   7.204 -0.9941  1.4692 -0.6392
 7403WAT    EPW31419   1.569   2.496   7.134 -0.0578  0.7772  0.2127
 7404WAT      O31420   5.157   0.302   4.880  0.3294 -0.3656  1.0228
 7404WAT     H131421   5.214   0.237   4.922  0.9475 -1.9775 -1.9693
 7404WAT     H231422   5.217   0.364   4.839 -0.2353  0.9763  2.1621
 7404WAT    EPW31423   5.172   0.301   4.880  0.3362 -0.4012  0.7784
 7405WAT      O31424   1.510   8.467   8.269  0.2221 -0.0884 -0.5360
 7405WAT     H131425   1.513   8.512   8.185 -1.7149 -0.0494 -0.6259
 7405WAT     H231426   1.602   8.462   8.296  0.8679  0.2040 -2.4673
 7405WAT    EPW31427   1.523   8.472   8.261  0.0518 -0.0453 -0.8030
 7406WAT      O31428   6.329   2.648   8.915  0.1918 -0.0580  0.1230
 7406WAT     H131429   6.419   2.639   8.884  0.3940 -1.9420  1.0926
 7406WAT     H231430   6.276   2.646   8.835  0.9018 -1.0860 -0.3476
 7406WAT    EPW31431   6.334   2.646   8.900  0.3123 -0.4419  0.1888
 7407WAT      O31432   3.816   0.480   7.719  0.1567 -0.4158  0.3193
 7407WAT     H131433   3.860   0.411   7.768  0.5537  1.6309  3.0716
 7407WAT     H231434   3.884   0.517   7.662  0.4387 -1.0022  0.2751
 7407WAT    EPW31435   3.831   0.476   7.718  0.2463 -0.2232  0.6764
 7408WAT      O31436   1.476   9.278   4.448 -0.1250  0.0860  0.1950
 7408WAT     H131437   1.431   9.329   4.381  0.3237 -0.3921 -0.4750
 7408WAT     H231438   1.437   9.191   4.442  0.4639 -0.1654  0.0319
 7408WAT    EPW31439   1.465   9.273   4.438  0.0118 -0.0105  0.0849
 7409WAT      O31440   2.578   0.805   8.036  0.1003 -0.7961 -0.0379
 7409WAT     H131441   2.559   0.711   8.037  1.5220 -1.1068  0.1541
 7409WAT     H231442   2.574   0.830   7.944  0.6634 -1.2582 -0.1924
 7409WAT    EPW31443   2.575   0.796   8.024  0.3622 -0.8980 -0.0334
 7410WAT      O31444   7.070   3.688   1.556 -0.1056  0.4031  0.9050
 7410WAT     H131445   7.076   3.647   1.643  0.5897  0.4781  0.8973
 7410WAT     H231446   7.131   3.761   1.560  0.8776 -0.3377 -0.0479
 7410WAT    EPW31447   7.079   3.692   1.568  0.1156  0.3153  0.7782
 7411WAT      O31448   5.808   6.452   1.179  0.0475 -0.6528  0.0905
 7411WAT     H131449   5.863   6.394   1.230  0.4928  0.0656  0.4452
 7411WAT     H231450   5.798   6.408   1.094 -0.3113 -1.6290  0.6238
 7411WAT    EPW31451   5.814   6.439   1.174  0.0589 -0.6869  0.2076
 7412WAT      O31452   0.519   7.590   8.023  0.3334 -0.3040  0.4104
 7412WAT     H131453   0.592   7.647   8.046  1.0234 -0.2360 -1.7042
 7412WAT     H231454   0.531   7.573   7.929 -0.9816 -2.3047  0.5522
 7412WAT    EPW31455   0.531   7.595   8.013  0.2510 -0.5591  0.1502
 7413WAT      O31456   1.386   4.173   8.150 -0.1812  0.7794 -0.6106
 7413WAT     H131457   1.362   4.100   8.207  1.9342 -0.7903 -1.5775
 7413WAT     H231458   1.366   4.142   8.062  0.3619  1.5221 -1.0074
 7413WAT    EPW31459   1.380   4.159   8.146  0.1694  0.6704 -0.7901
 7414WAT      O31460   6.123   9.658   6.280  0.2703 -0.0825 -0.2789
 7414WAT     H131461   6.071   9.668   6.360  0.1521  0.9932 -0.4737
 7414WAT     H231462   6.082   9.717   6.217  0.3582 -0.9218 -1.1457
 7414WAT    EPW31463   6.111   9.667   6.282  0.2663 -0.0515 -0.4187
 7415WAT      O31464   2.678   6.460   0.041  0.5352  0.3035  0.0625
 7415WAT     H131465   2.666   6.417  -0.043  1.4649  0.4538 -0.1588
 7415WAT     H231466   2.644   6.548   0.028  1.7694  0.7208 -0.5527
 7415WAT    EPW31467   2.672   6.466   0.028  0.8208  0.3784 -0.0478
 7416WAT      O31468   2.932   4.879   1.173  0.2460  0.3431  0.0026
 7416WAT     H131469   2.915   4.973   1.167 -0.3062  0.1361 -2.3931
 7416WAT     H231470   2.870   4.848   1.240  0.0046  1.5801  0.3726
 7416WAT    EPW31471   2.922   4.887   1.181  0.1414  0.4790 -0.2646
 7417WAT      O31472   1.112   2.967   8.746  0.3461  0.0257 -1.0468
 7417WAT     H131473   1.064   3.048   8.730 -0.9141 -0.2851  0.7783
 7417WAT     H231474   1.060   2.922   8.812  2.4435 -1.0149 -0.0159
 7417WAT    EPW31475   1.099   2.972   8.753  0.4565 -0.1525 -0.6695
 7418WAT      O31476  10.701   2.495   6.217  0.0272 -0.1987 -0.4914
 7418WAT     H131477  10.698   2.507   6.122  0.6368 -1.0957 -0.6288
 7418WAT     H231478  10.717   2.402   6.229  2.0907  0.2346  0.4598
 7418WAT    EPW31479  10.702   2.484   6.206  0.3796 -0.2598 -0.3841
 7419WAT      O31480   1.662   1.100   6.470 -0.1130  0.8208 -0.1787
 7419WAT     H131481   1.755   1.113   6.451 -0.0132  3.2605  1.6113
 7419WAT     H231482   1.622   1.185   6.456 -1.5853  0.4853  1.6502
 7419WAT    EPW31483   1.669   1.113   6.466 -0.2940  1.0984  0.2983
 7420WAT      O31484   8.681   9.628   6.598  0.8591 -0.5293 -0.4056
 7420WAT     H131485   8.678   9.532   6.599 -1.9433 -0.5169  0.7566
 7420WAT     H231486   8.603   9.655   6.647  0.9164  2.3623 -1.7117
 7420WAT    EPW31487   8.670   9.619   6.605  0.4973 -0.1464 -0.4246
 7421WAT      O31488   2.588   1.358   8.449 -0.6159  0.3400  0.2690
 7421WAT     H131489   2.593   1.417   8.524  1.8070 -0.2433  0.6387
 7421WAT     H231490   2.621   1.274   8.482  1.5224  0.3254 -1.6314
 7421WAT    EPW31491   2.593   1.354   8.463 -0.0143  0.2611  0.0668
 7422WAT      O31492   5.595   1.971   8.180 -0.1723 -0.2651 -0.2000
 7422WAT     H131493   5.528   2.039   8.185  2.0967  2.3232 -2.2377
 7422WAT     H231494   5.618   1.967   8.087  1.2862 -2.3261  0.1806
 7422WAT    EPW31495   5.589   1.979   8.168  0.3195 -0.1956 -0.4177
 7423WAT      O31496   1.791   3.988   8.692  0.0519 -0.6565  0.0508
 7423WAT     H131497   1.766   4.050   8.761  1.5486 -0.6054  0.5934
 7423WAT     H231498   1.772   3.902   8.730 -1.0912 -0.5784 -0.3135
 7423WAT    EPW31499   1.785   3.985   8.706  0.0985 -0.6396  0.0744
 7424WAT      O31500  10.121   1.958   7.009 -0.3555 -0.3216  0.3111
 7424WAT     H131501  10.116   2.050   7.037 -0.0457 -0.6997  1.7289
 7424WAT     H231502  10.075   1.910   7.078  0.2717 -1.3055  0.0688
 7424WAT    EPW31503  10.115   1.964   7.022 -0.2317 -0.5012  0.4661
 7425WAT      O31504   0.425   5.883   7.212 -0.1361 -0.2647  0.3430
 7425WAT     H131505   0.441   5.973   7.244  1.8045 -0.0309 -1.1247
 7425WAT     H231506   0.511   5.841   7.217 -0.1340 -0.8038 -2.6239
 7425WAT    EPW31507   0.438   5.890   7.217  0.1201 -0.3052 -0.2420
 7426WAT      O31508   4.863   4.927   1.185 -0.5122  0.0322 -0.5268
 7426WAT     H131509   4.886   4.859   1.249  0.4602 -0.4714 -1.3825
 7426WAT     H231510   4.793   4.887   1.133 -1.4615  0.5276  0.3442
 7426WAT    EPW31511   4.857   4.912   1.187 -0.5095  0.0312 -0.5248
 7427WAT      O31512   1.550   0.447   7.342 -0.0775 -0.8790  0.2360
 7427WAT     H131513   1.533   0.503   7.417 -1.9614 -0.9170 -0.1191
 7427WAT     H231514   1.583   0.365   7.379 -2.7244 -1.5943  1.2355
 7427WAT    EPW31515   1.552   0.444   7.357 -0.6751 -0.9783  0.3211
 7428WAT      O31516   8.384   8.823   7.956  0.1767 -0.5995  0.2748
 7428WAT     H131517   8.417   8.873   7.882 -0.7612  2.1338  1.5886
 7428WAT     H231518   8.427   8.861   8.033 -2.7532  0.3446  1.6217
 7428WAT    EPW31519   8.394   8.834   7.957 -0.3338 -0.1144  0.6256
 7429WAT      O31520   6.620   4.604   3.656 -0.3720 -0.0110  0.4157
 7429WAT     H131521   6.573   4.522   3.642  1.9952 -1.1019 -2.1259
 7429WAT     H231522   6.655   4.626   3.570  3.0783  1.0590  1.9317
 7429WAT    EPW31523   6.618   4.596   3.643  0.3951 -0.0138  0.2804
 7430WAT      O31524   5.791   1.569   7.827 -0.1943 -0.7363 -0.0248
 7430WAT     H131525   5.810   1.483   7.789 -2.5152 -0.0929 -3.0372
 7430WAT     H231526   5.773   1.625   7.752 -0.2341  2.0364  1.9137
 7430WAT    EPW31527   5.791   1.565   7.812 -0.5054 -0.2857 -0.1664
 7431WAT      O31528   8.278   9.286   6.887  0.1844  0.2005  0.3709
 7431WAT     H131529   8.189   9.276   6.854  0.5624  1.4437 -1.1381
 7431WAT     H231530   8.300   9.378   6.870  1.8457 -0.1474  0.4644
 7431WAT    EPW31531   8.269   9.297   6.880  0.4535  0.3190  0.1843
 7432WAT      O31532   5.981   7.453   4.883 -0.5827  0.6782 -0.3772
 7432WAT     H131533   5.899   7.419   4.845 -0.1087 -0.6282 -0.3008
 7432WAT     H231534   6.025   7.375   4.917  1.1720  1.2038 -1.3062
 7432WAT    EPW31535   5.976   7.438   4.882 -0.2890  0.5753 -0.4897
 7433WAT      O31536   6.767   6.551   1.770  0.0096 -0.5732 -0.1972
 7433WAT     H131537   6.767   6.471   1.717 -1.5466 -0.4754 -0.3790
 7433WAT     H231538   6.704   6.533   1.840  2.0398 -0.7380  1.7433
 7433WAT    EPW31539   6.759   6.538   1.772  0.0720 -0.5822  0.0347
 7434WAT      O31540   9.497   9.379   8.246 -0.2133  0.5894 -0.0519
 7434WAT     H131541   9.449   9.417   8.319  1.9617  0.3641  1.6058
 7434WAT     H231542   9.570   9.333   8.287  1.8555  1.5166 -2.4257
 7434WAT    EPW31543   9.500   9.378   8.261  0.3462  0.6819 -0.1459
 7435WAT      O31544   2.624   0.488   8.427 -0.2592 -0.4109  0.2668
 7435WAT     H131545   2.633   0.574   8.468 -0.1684 -0.1868 -0.2193
 7435WAT     H231546   2.690   0.487   8.358 -0.8314 -0.5444 -0.2837
 7435WAT    EPW31547   2.634   0.499   8.423 -0.3227 -0.3989  0.1307
 7436WAT      O31548   3.245   0.783   6.484  0.6675 -0.1635  0.2271
 7436WAT     H131549   3.318   0.722   6.475  0.1461 -0.8338  0.4289
 7436WAT     H231550   3.280   0.867   6.455  0.6404 -1.0934 -2.7886
 7436WAT    EPW31551   3.259   0.786   6.479  0.5951 -0.3746 -0.1442
 7437WAT      O31552   3.193   0.864   5.763  0.0180  0.6901  0.0559
 7437WAT     H131553   3.261   0.831   5.704  0.6406  1.9500  0.0478
 7437WAT     H231554   3.125   0.897   5.705  0.5739  1.8118  0.0129
 7437WAT    EPW31555   3.193   0.864   5.748  0.1733  1.0042  0.0491
 7438WAT      O31556   3.842   6.401   1.354 -0.8887  0.1652  0.2555
 7438WAT     H131557   3.791   6.464   1.404 -0.0519  0.5287  0.6821
 7438WAT     H231558   3.927   6.399   1.398  0.0053  0.7488 -1.3563
 7438WAT    EPW31559   3.847   6.409   1.366 -0.6603  0.2899  0.0992
 7439WAT      O31560   6.601   7.568   0.342  0.5961  1.3203  0.0926
 7439WAT     H131561   6.543   7.621   0.287  1.0824  0.3669 -1.4061
 7439WAT     H231562   6.684   7.569   0.295  0.9475  0.2492  0.6850
 7439WAT    EPW31563   6.604   7.575   0.328  0.7067  1.0531 -0.0270
 7440WAT      O31564   1.440   9.442   7.579 -0.4313  0.1037 -0.1267
 7440WAT     H131565   1.510   9.423   7.640 -0.3982 -0.6410 -0.3854
 7440WAT     H231566   1.399   9.357   7.562 -1.7675  0.5925  0.4628
 7440WAT    EPW31567   1.444   9.428   7.585 -0.6032  0.0701 -0.0830
 7441WAT      O31568   2.427   0.738   5.796 -0.4094 -0.3526 -0.3228
 7441WAT     H131569   2.505   0.767   5.749 -1.0552  1.3084 -0.4308
 7441WAT     H231570   2.414   0.648   5.766  1.2752 -0.5663 -0.5244
 7441WAT    EPW31571   2.436   0.730   5.786 -0.2724 -0.1617 -0.3636
 7442WAT      O31572  10.415   7.122   6.398 -0.1628  0.2232 -1.0794
 7442WAT     H131573  10.369   7.041   6.378  0.7979 -1.0668  1.4321
 7442WAT     H231574  10.349   7.191   6.387 -2.2982 -1.3683  0.8088
 7442WAT    EPW31575  10.400   7.121   6.394 -0.3181 -0.1569 -0.4990
 7443WAT      O31576   7.009   5.539   0.955  0.0946 -1.0015 -0.2853
 7443WAT     H131577   6.947   5.494   0.899  0.4381 -0.5186 -1.0703
 7443WAT     H231578   7.095   5.513   0.922  0.3088  0.9163 -1.3669
 7443WAT    EPW31579   7.012   5.530   0.943  0.1681 -0.6850 -0.5315
 7444WAT      O31580   0.803   6.231   0.245 -0.2038  0.6106  0.1515
 7444WAT     H131581   0.878   6.180   0.214 -2.5609 -1.4723 -2.6031
 7444WAT     H231582   0.839   6.284   0.316  3.5404 -1.2719 -0.0757
 7444WAT    EPW31583   0.818   6.231   0.251 -0.0209  0.0875 -0.2418
 7445WAT      O31584   5.610   5.018   2.102 -0.6817 -0.1929 -0.4430
 7445WAT     H131585   5.606   4.999   2.008  0.7763  1.4289 -0.8649
 7445WAT     H231586   5.647   5.105   2.108 -0.0529 -0.5492  1.6875
 7445WAT    EPW31587   5.614   5.027   2.091 -0.4070 -0.0257 -0.2176
 7446WAT      O31588   6.319   6.644   0.511 -0.0182  0.0271 -0.1809
 7446WAT     H131589   6.363   6.721   0.546  0.4639  0.3841 -1.5092
 7446WAT     H231590   6.383   6.604   0.453 -1.3887  0.5809 -2.1900
 7446WAT    EPW31591   6.333   6.649   0.508 -0.1352  0.1473 -0.6211
 7447WAT      O31592   7.130   7.509   5.660 -0.8436  0.3310  0.3816
 7447WAT     H131593   7.159   7.599   5.673 -0.2965  0.1195  0.6803
 7447WAT     H231594   7.199   7.469   5.606 -0.4267 -0.2443  1.2987
 7447WAT    EPW31595   7.143   7.515   5.654 -0.7164  0.2270  0.5422
 7448WAT      O31596   4.216   1.238   6.349 -0.4878 -0.2535  1.0934
 7448WAT     H131597   4.235   1.216   6.440  0.9160 -0.6944  0.7133
 7448WAT     H231598   4.207   1.334   6.349  0.8607 -0.1063  1.4780
 7448WAT    EPW31599   4.217   1.248   6.361 -0.1249 -0.2922  1.0941
 7449WAT      O31600   0.456   2.573   5.347 -0.3904  0.4378 -0.3965
 7449WAT     H131601   0.540   2.600   5.386  0.3331 -1.9387 -0.1668
 7449WAT     H231602   0.409   2.655   5.334  1.5829  1.7784  0.3529
 7449WAT    EPW31603   0.461   2.588   5.350 -0.0347  0.3012 -0.2675
 7450WAT      O31604   0.279   9.921   7.975 -0.2605 -0.0194  0.7414
 7450WAT     H131605   0.256   9.842   7.927  0.7134 -0.0563  0.3251
 7450WAT     H231606   0.194   9.960   7.998 -0.7509 -0.2601 -0.5677
 7450WAT    EPW31607   0.265   9.916   7.972 -0.1967 -0.0558  0.5138
 7451WAT      O31608   3.256   4.920   4.995  0.1895  0.1924  0.6635
 7451WAT     H131609   3.324   4.856   5.016 -1.0096 -0.6855  2.1104
 7451WAT     H231610   3.261   4.929   4.900  0.4166 -2.0938  0.3816
 7451WAT    EPW31611   3.265   4.913   4.985  0.0613 -0.2251  0.8171
 7452WAT      O31612   2.028   1.749   8.597 -0.5481  0.6169 -0.7470
 7452WAT     H131613   1.998   1.671   8.643 -3.9580  0.0094 -3.5171
 7452WAT     H231614   2.015   1.820   8.659  1.0408 -0.7205  1.2628
 7452WAT    EPW31615   2.022   1.748   8.611 -0.7883  0.3604 -0.8473
 7453WAT      O31616   1.069   0.438   5.825 -0.2921  0.3459  0.7579
 7453WAT     H131617   1.129   0.465   5.894  1.2617 -2.5644  0.7173
 7453WAT     H231618   1.027   0.359   5.860  0.2659 -1.0020 -1.3951
 7453WAT    EPW31619   1.071   0.431   5.839 -0.0135 -0.2158  0.4685
 7454WAT      O31620   3.773   0.828   5.760  0.1099 -0.2058  0.2876
 7454WAT     H131621   3.773   0.905   5.703 -0.7882 -1.0724 -0.9541
 7454WAT     H231622   3.844   0.774   5.725  1.2840  0.3859  1.6738
 7454WAT    EPW31623   3.783   0.831   5.748  0.1462 -0.2421  0.3068
 7455WAT      O31624   3.780   3.010   5.823  0.2038 -0.4279 -0.3126
 7455WAT     H131625   3.824   2.926   5.808 -1.1164 -1.3557  0.7246
 7455WAT     H231626   3.721   3.020   5.748 -1.9536 -2.0696  1.0164
 7455WAT    EPW31627   3.778   3.000   5.811 -0.2549 -0.7666 -0.0002
 7456WAT      O31628   0.777   0.073   6.482 -0.0512  0.1065 -0.0117
 7456WAT     H131629   0.822   0.039   6.559 -0.3117  0.3443  0.2502
 7456WAT     H231630   0.762   0.165   6.502  1.2333  0.5471 -0.9884
 7456WAT    EPW31631   0.781   0.081   6.495  0.0840  0.1960 -0.1061
 7457WAT      O31632   0.761   2.185   7.294  0.2566 -0.2949 -0.3097
 7457WAT     H131633   0.689   2.181   7.356  0.4872 -0.0210 -0.0236
 7457WAT     H231634   0.726   2.238   7.222 -0.9317 -2.7170 -1.6580
 7457WAT    EPW31635   0.747   2.192   7.292  0.1303 -0.5783 -0.4497
 7458WAT      O31636   7.783   8.221   6.472 -0.7354 -0.2673  0.0021
 7458WAT     H131637   7.829   8.140   6.496  0.3853  0.7443  1.4657
 7458WAT     H231638   7.833   8.257   6.399 -1.2372 -0.8664 -0.6540
 7458WAT    EPW31639   7.795   8.215   6.466 -0.6537 -0.2127  0.1085
 7459WAT      O31640   5.651   7.948   0.419  1.0419  0.0158 -0.7155
 7459WAT     H131641   5.561   7.919   0.431  0.8573  0.2070 -1.6051
 7459WAT     H231642   5.668   7.938   0.326  1.3172  1.7736 -0.8812
 7459WAT    EPW31643   5.642   7.943   0.409  1.0536  0.2728 -0.8547
 7460WAT      O31644   4.470   8.094   2.459  1.1969 -0.0298 -0.3035
 7460WAT     H131645   4.479   8.177   2.507 -4.0057  0.2052  0.8599
 7460WAT     H231646   4.490   8.027   2.524  0.0516  0.3408  0.4608
 7460WAT    EPW31647   4.474   8.096   2.474  0.3598  0.0501 -0.0494
 7461WAT      O31648   7.428   9.795   7.801  0.3654  0.0336  0.6041
 7461WAT     H131649   7.407   9.887   7.787  0.5668  0.0525  0.4216
 7461WAT     H231650   7.421   9.755   7.715  2.0044  0.2326  0.3377
 7461WAT    EPW31651   7.424   9.802   7.788  0.6082  0.0620  0.5448
 7462WAT      O31652   6.127   8.553   6.205 -0.5130 -0.9528  0.6492
 7462WAT     H131653   6.121   8.649   6.202 -0.8248 -0.9742  0.4908
 7462WAT     H231654   6.137   8.533   6.298  0.7314 -0.7075  0.5815
 7462WAT    EPW31655   6.127   8.563   6.217 -0.3903 -0.9232  0.6192
 7463WAT      O31656  10.680   5.534   0.981  0.3325  0.5681 -0.3360
 7463WAT     H131657  10.643   5.447   0.971 -0.2919  0.7491  0.3401
 7463WAT     H231658  10.775   5.521   0.976  0.1990  0.1036 -2.0608
 7463WAT    EPW31659  10.688   5.521   0.979  0.2322  0.5307 -0.4743
 7464WAT      O31660   2.167   0.763   6.450 -0.6856  0.8516 -0.6403
 7464WAT     H131661   2.173   0.682   6.400 -0.3717 -1.6689  3.1189
 7464WAT     H231662   2.084   0.756   6.497  0.5794  1.2543  1.8494
 7464WAT    EPW31663   2.157   0.752   6.450 -0.4774  0.5723  0.1838
 7465WAT      O31664   9.119   8.075   2.389  0.5217  0.1277 -0.1252
 7465WAT     H131665   9.110   7.987   2.424  0.2501  0.6439  1.1907
 7465WAT     H231666   9.041   8.121   2.419  0.9259  0.9591 -0.2964
 7465WAT    EPW31667   9.108   8.070   2.397  0.5388  0.3057  0.0257
 7466WAT      O31668   5.645   5.338   0.396  0.3221  0.4280  0.5003
 7466WAT     H131669   5.659   5.330   0.490 -0.0957 -1.0895  0.4657
 7466WAT     H231670   5.727   5.307   0.357  0.3497  0.6755  0.3595
 7466WAT    EPW31671   5.658   5.333   0.403  0.2706  0.2608  0.4772
 7467WAT      O31672   7.020   3.856   0.854 -0.0522 -0.4725 -0.5428
 7467WAT     H131673   7.037   3.850   0.948 -0.9295  2.5602 -0.0907
 7467WAT     H231674   7.107   3.872   0.816  0.1681 -0.5936 -0.1060
 7467WAT    EPW31675   7.034   3.857   0.862 -0.1392 -0.0885 -0.4256
 7468WAT      O31676   9.408   8.237   6.696 -0.1395  0.0951 -0.1948
 7468WAT     H131677   9.407   8.163   6.635 -2.9136 -0.1297  0.0179
 7468WAT     H231678   9.325   8.282   6.682 -0.2801  0.8624  2.4287
 7468WAT    EPW31679   9.397   8.233   6.686 -0.5236  0.1664  0.1793
 7469WAT      O31680   3.364   4.451   8.499 -0.1815  0.1934  0.1100
 7469WAT     H131681   3.276   4.428   8.469 -0.7828  0.9370  1.2161
 7469WAT     H231682   3.394   4.518   8.437 -0.1976 -0.4102 -0.5492
 7469WAT    EPW31683   3.357   4.457   8.487 -0.2630  0.2120  0.1688
 7470WAT      O31684   5.245   3.163   7.064  0.6005 -0.4733 -0.0161
 7470WAT     H131685   5.229   3.253   7.094  1.4134 -0.5692  0.7593
 7470WAT     H231686   5.179   3.148   6.998  0.3034  0.6272  0.0042
 7470WAT    EPW31687   5.234   3.173   7.060  0.6688 -0.3408  0.0889
 7471WAT      O31688   5.392   4.899   0.303 -0.0149  0.4991  0.5986
 7471WAT     H131689   5.378   4.971   0.240  1.6278  0.1082 -0.2706
 7471WAT     H231690   5.370   4.820   0.254  0.2187  0.2646  0.8707
 7471WAT    EPW31691   5.387   4.898   0.288  0.2325  0.4170  0.5198
 7472WAT      O31692   6.986   7.763   0.572 -0.1814  0.1420  0.1821
 7472WAT     H131693   6.904   7.728   0.607 -0.1098  2.5210  3.1435
 7472WAT     H231694   6.960   7.835   0.515 -0.2150 -2.6939 -3.7496
 7472WAT    EPW31695   6.972   7.768   0.569 -0.1764  0.0818  0.0541
 7473WAT      O31696   4.560   0.271   7.176 -0.2579 -1.0548 -0.4201
 7473WAT     H131697   4.532   0.220   7.099 -0.0631 -1.5163 -0.1887
 7473WAT     H231698   4.544   0.212   7.250 -1.8173 -0.0915  0.0596
 7473WAT    EPW31699   4.554   0.256   7.176 -0.4377 -0.9886 -0.3262
 7474WAT      O31700   4.194   1.995   7.044 -0.7696  0.2509  0.5672
 7474WAT     H131701   4.182   1.927   7.111  3.7969  0.9300  2.4412
 7474WAT     H231702   4.161   2.075   7.085  2.6962  0.8236  2.6877
 7474WAT    EPW31703   4.188   1.997   7.059  0.2899  0.4160  1.0939
 7475WAT      O31704   4.856   8.014   0.391 -0.0248 -0.0655 -0.1547
 7475WAT     H131705   4.826   7.954   0.459  1.5955 -0.2920  0.4066
 7475WAT     H231706   4.936   7.973   0.357  1.2260  1.8134  0.3572
 7475WAT    EPW31707   4.863   8.001   0.396  0.3541  0.1526 -0.0132
 7476WAT      O31708   2.589   7.674   0.819 -0.2003  0.1171 -0.1059
 7476WAT     H131709   2.496   7.699   0.821 -0.5491 -1.0363 -0.6989
 7476WAT     H231710   2.609   7.650   0.909 -0.7063 -0.3407 -0.1073
 7476WAT    EPW31711   2.579   7.674   0.831 -0.3130 -0.0954 -0.1843
 7477WAT      O31712   3.625   2.414   6.143  0.3242  0.9504  0.2173
 7477WAT     H131713   3.656   2.408   6.233 -0.0710 -4.5893  0.3378
 7477WAT     H231714   3.689   2.364   6.092 -1.6617  0.1934 -1.7181
 7477WAT    EPW31715   3.637   2.406   6.148  0.0103  0.1200 -0.0222
 7478WAT      O31716   6.738   8.112   0.208  0.0236  0.8361 -0.3733
 7478WAT     H131717   6.669   8.093   0.145  0.2402 -4.7497  0.5818
 7478WAT     H231718   6.812   8.141   0.154 -0.8047 -0.4522 -2.3019
 7478WAT    EPW31719   6.739   8.113   0.192 -0.0570 -0.0701 -0.5017
 7479WAT      O31720   0.962   2.836   8.977 -0.1256  0.1719  0.3401
 7479WAT     H131721   0.876   2.807   8.944  0.3022 -1.4364  0.5542
 7479WAT     H231722   0.990   2.765   9.034  1.8777  0.1354 -0.6215
 7479WAT    EPW31723   0.954   2.823   8.980  0.1950 -0.0451  0.2413
 7480WAT      O31724   4.563   0.145   8.307 -0.0573  0.7083 -0.3313
 7480WAT     H131725   4.548   0.077   8.242  1.1934  0.1945 -0.1093
 7480WAT     H231726   4.553   0.102   8.392 -1.1035  1.2399 -0.1688
 7480WAT    EPW31727   4.560   0.131   8.310 -0.0308  0.7106 -0.2804
 7481WAT      O31728   7.078   3.799   1.141  0.5576 -0.6568 -0.0708
 7481WAT     H131729   7.096   3.875   1.197  1.4347  0.0854 -1.3082
 7481WAT     H231730   7.007   3.752   1.186 -1.5169  2.0077 -0.2753
 7481WAT    EPW31731   7.071   3.803   1.155  0.3998 -0.2075 -0.2609
 7482WAT      O31732   1.849   3.685   7.040 -0.0365 -0.1368 -0.5057
 7482WAT     H131733   1.843   3.781   7.045  2.8438  0.1258 -0.2360
 7482WAT     H231734   1.938   3.666   7.071 -0.3481 -2.8728 -1.1124
 7482WAT    EPW31735   1.860   3.695   7.045  0.3023 -0.4630 -0.5498
 7483WAT      O31736   7.120   8.883   8.958  0.1593  0.0771 -0.1324
 7483WAT     H131737   7.047   8.841   8.912 -1.6373  2.4516  0.3320
 7483WAT     H231738   7.146   8.956   8.901  0.1438  1.0286  1.0289
 7483WAT    EPW31739   7.114   8.887   8.945 -0.0801  0.5155  0.0820
 7484WAT      O31740   3.420   2.428   5.711 -0.2059 -0.4067 -0.4127
 7484WAT     H131741   3.497   2.485   5.719  1.2491 -2.3353  0.1057
 7484WAT     H231742   3.349   2.487   5.686  1.4990  1.4071 -1.2590
 7484WAT    EPW31743   3.421   2.443   5.709  0.2110 -0.4219 -0.4559
 7485WAT      O31744   8.342  10.296   8.544 -0.2706  0.0407  0.0303
 7485WAT     H131745   8.341  10.206   8.575 -1.7641  0.3146  0.9037
 7485WAT     H231746   8.303  10.346   8.616  1.9091  1.6219  0.2019
 7485WAT    EPW31747   8.337  10.291   8.558 -0.1798  0.2856  0.1688
 7486WAT      O31748   5.887   0.519   6.378  0.1588  0.0361  0.0197
 7486WAT     H131749   5.863   0.437   6.334 -1.5712 -0.7905  2.2722
 7486WAT     H231750   5.957   0.494   6.439 -1.7426 -0.3700  2.1985
 7486WAT    EPW31751   5.893   0.505   6.380 -0.3202 -0.1264  0.6042
 7487WAT      O31752   5.282   4.108   0.990 -0.5098  1.1395 -0.5947
 7487WAT     H131753   5.329   4.178   0.945 -4.2845  3.1648 -1.8862
 7487WAT     H231754   5.222   4.073   0.924 -0.5849 -1.5837  0.7601
 7487WAT    EPW31755   5.280   4.112   0.975 -1.0176  1.0478 -0.5864
 7488WAT      O31756   5.080   3.832   7.594 -0.0597 -0.6101 -0.6422
 7488WAT     H131757   5.072   3.737   7.609  1.0849 -0.5406  0.6393
 7488WAT     H231758   5.170   3.844   7.566  0.1851  0.2205  0.4209
 7488WAT    EPW31759   5.091   3.821   7.592  0.1237 -0.4914 -0.3333
 7489WAT      O31760   5.429   5.132   8.029 -0.5023  0.1425 -0.4842
 7489WAT     H131761   5.388   5.153   8.113 -0.7053 -0.5956 -0.3902
 7489WAT     H231762   5.506   5.079   8.053 -0.5181 -0.0052 -0.7570
 7489WAT    EPW31763   5.434   5.128   8.044 -0.5314  0.0260 -0.5078
 7490WAT      O31764   5.074   2.915   8.829 -0.2130  0.2185  0.2582
 7490WAT     H131765   5.163   2.881   8.843 -1.2683 -2.2835  1.4854
 7490WAT     H231766   5.044   2.871   8.750 -0.7487  0.2368  0.4509
 7490WAT    EPW31767   5.082   2.905   8.821 -0.4230 -0.1091  0.4463
 7491WAT      O31768  10.895   4.280   6.381 -0.4502  0.4135 -0.3313
 7491WAT     H131769  10.908   4.331   6.461  0.8839  0.8375 -0.7993
 7491WAT     H231770  10.962   4.212   6.385  0.0129  0.7932 -1.3632
 7491WAT    EPW31771  10.906   4.278   6.392 -0.2131  0.5195 -0.5291
 7492WAT      O31772   1.079   3.065   6.669  0.1136 -0.0344  0.3775
 7492WAT     H131773   1.156   3.118   6.646  0.5744 -1.1482 -0.7379
 7492WAT     H231774   1.091   2.983   6.621 -1.8738 -0.1764  0.0496
 7492WAT    EPW31775   1.091   3.061   6.660 -0.0877 -0.1999  0.1874
 7493WAT      O31776   1.714   3.303   5.932  0.4962  0.2966 -0.1551
 7493WAT     H131777   1.649   3.284   5.864  1.6185  4.3035 -2.6593
 7493WAT     H231778   1.759   3.382   5.901  2.6181  1.1122  4.2633
 7493WAT    EPW31779   1.711   3.311   5.919  0.9241  0.9327  0.0973
 7494WAT      O31780   4.892   3.204   8.197  0.0051 -0.1005  0.2231
 7494WAT     H131781   4.869   3.262   8.125 -0.3277 -0.6141 -0.0864
 7494WAT     H231782   4.843   3.239   8.272  2.4641  2.1529  0.9582
 7494WAT    EPW31783   4.883   3.217   8.198  0.2854  0.1289  0.2785
 7495WAT      O31784   4.493   1.055   7.745 -0.6484 -0.7126  0.4046
 7495WAT     H131785   4.527   1.144   7.741 -2.3107 -0.0866 -0.7739
 7495WAT     H231786   4.522   1.022   7.830  3.3424 -0.4991 -0.6947
 7495WAT    EPW31787   4.501   1.062   7.756 -0.3412 -0.6018  0.1044
 7496WAT      O31788   6.724   9.109   2.513  0.0726  0.5107 -0.4740
 7496WAT     H131789   6.784   9.133   2.442  0.0355 -0.6003 -0.9072
 7496WAT     H231790   6.673   9.036   2.478 -0.5127  0.4727  0.4127
 7496WAT    EPW31791   6.725   9.102   2.499 -0.0098  0.3586 -0.4141
 7497WAT      O31792   6.041   8.531   2.286  0.0330 -0.5256  0.4142
 7497WAT     H131793   6.023   8.621   2.313 -1.9319 -0.2162 -1.6294
 7497WAT     H231794   6.136   8.528   2.277  0.1087  1.5252 -0.0284
 7497WAT    EPW31795   6.051   8.543   2.289 -0.2160 -0.2146  0.0862
 7498WAT      O31796   3.405   0.701   7.295  0.6760  0.0031 -0.2230
 7498WAT     H131797   3.373   0.758   7.225  0.4611  1.0366  0.6933
 7498WAT     H231798   3.481   0.748   7.331 -0.2644  0.3609  1.3752
 7498WAT    EPW31799   3.411   0.715   7.290  0.5237  0.1866  0.1085
 7499WAT      O31800   2.318   3.033   8.609 -0.3427  0.4153  0.3721
 7499WAT     H131801   2.248   3.089   8.642  0.8291  1.6966  0.8108
 7499WAT     H231802   2.296   3.018   8.517 -2.4600 -1.3072  1.0996
 7499WAT    EPW31803   2.306   3.038   8.601 -0.4674  0.3573  0.5260
 7500WAT      O31804  10.549   9.489   7.923  1.0354 -0.7043  0.3137
 7500WAT     H131805  10.525   9.564   7.869  0.5135 -0.8659  0.3182
 7500WAT     H231806  10.641   9.471   7.901  0.9714 -0.4556 -0.1415
 7500WAT    EPW31807  10.558   9.497   7.913  0.9575 -0.6928  0.2544
 7501WAT      O31808   5.792   0.557   8.488  0.0493  0.3471 -0.0661
 7501WAT     H131809   5.779   0.650   8.507 -0.4691  0.2331  0.1632
 7501WAT     H231810   5.857   0.556   8.418  0.2520  0.8720  0.1029
 7501WAT    EPW31811   5.799   0.569   8.482  0.0076  0.4013 -0.0138
 7502WAT      O31812   1.839   3.220   6.688 -0.0530  0.2509  0.3032
 7502WAT     H131813   1.916   3.219   6.632  0.0384  2.2805  0.3160
 7502WAT     H231814   1.766   3.236   6.628 -0.3646 -0.6905  0.4100
 7502WAT    EPW31815   1.839   3.222   6.673 -0.0821  0.3945  0.3190
 7503WAT      O31816   6.873   1.962   6.325 -0.2312  0.0198 -0.4843
 7503WAT     H131817   6.943   1.916   6.278  0.7766  1.2739 -0.2594
 7503WAT     H231818   6.817   1.997   6.256  1.1136  1.6512 -0.8251
 7503WAT    EPW31819   6.875   1.960   6.310  0.0792  0.4004 -0.4995
 7504WAT      O31820   0.861   0.823   0.218  0.0082  0.2461  0.0365
 7504WAT     H131821   0.848   0.728   0.221 -0.0967  0.2526 -0.1807
 7504WAT     H231822   0.929   0.840   0.283  1.4115 -0.2147 -1.2626
 7504WAT    EPW31823   0.868   0.813   0.227  0.1795  0.1862 -0.1635
 7505WAT      O31824   5.665   3.602   6.671  0.4378  0.0313 -0.1284
 7505WAT     H131825   5.636   3.517   6.639  1.6439 -0.9125  1.1881
 7505WAT     H231826   5.638   3.604   6.762  3.0437 -0.2868  0.7490
 7505WAT    EPW31827   5.658   3.591   6.679  0.9408 -0.1351  0.1612
 7506WAT      O31828   4.526   7.076   5.911  0.1137  0.2489 -0.3675
 7506WAT     H131829   4.575   7.155   5.887 -0.3883  0.7954  0.3728
 7506WAT     H231830   4.588   7.024   5.961 -0.2553  1.2935  1.2433
 7506WAT    EPW31831   4.541   7.080   5.914 -0.0012  0.4590 -0.0572
 7507WAT      O31832   6.224   0.777   8.410 -0.0717  0.1034 -0.0997
 7507WAT     H131833   6.183   0.705   8.457  1.5192  0.7434  2.5226
 7507WAT     H231834   6.309   0.788   8.453  1.1316  1.4054 -2.6108
 7507WAT    EPW31835   6.230   0.769   8.422  0.2968  0.3595 -0.0849
 7508WAT      O31836   0.121   3.213   6.381 -0.1499 -0.1650  0.2917
 7508WAT     H131837   0.142   3.135   6.329  0.7921  0.5701 -0.4394
 7508WAT     H231838   0.037   3.243   6.346  0.0180 -0.2236 -0.1646
 7508WAT    EPW31839   0.112   3.206   6.370 -0.0035 -0.0758  0.1347
 7509WAT      O31840   8.231   7.601   1.316  0.4754  0.1195 -0.0258
 7509WAT     H131841   8.318   7.637   1.300  1.9215 -1.9680  2.3085
 7509WAT     H231842   8.225   7.596   1.412 -1.8752 -0.5603 -0.1581
 7509WAT    EPW31843   8.242   7.605   1.327  0.3562 -0.2456  0.2646
 7510WAT      O31844   4.316   1.851   5.964  0.1762  0.1827  0.2106
 7510WAT     H131845   4.275   1.923   5.916 -0.2733 -0.3859 -0.2821
 7510WAT     H231846   4.274   1.853   6.050 -1.2686 -0.6725 -0.4356
 7510WAT    EPW31847   4.305   1.861   5.969 -0.0732 -0.0051  0.0606
 7511WAT      O31848   4.629   3.573   8.273  0.1217 -0.4064 -0.1435
 7511WAT     H131849   4.609   3.569   8.179 -1.3755 -0.9300  0.1672
 7511WAT     H231850   4.620   3.666   8.296 -0.0072 -0.3522 -0.4111
 7511WAT    EPW31851   4.625   3.585   8.264 -0.0927 -0.4683 -0.1378
 7512WAT      O31852   1.701   3.728   6.315 -0.1030 -0.1930  0.2591
 7512WAT     H131853   1.661   3.804   6.273 -0.9546  1.0846  3.1522
 7512WAT     H231854   1.629   3.684   6.359  0.7385 -1.4419  0.4345
 7512WAT    EPW31855   1.686   3.732   6.315 -0.1043 -0.1893  0.6635
 7513WAT      O31856   6.112   7.770   8.827 -0.1691 -0.3554  0.3987
 7513WAT     H131857   6.084   7.679   8.826  0.3651 -0.5217 -0.0336
 7513WAT     H231858   6.046   7.815   8.879 -1.1240 -0.7560 -0.4542
 7513WAT    EPW31859   6.100   7.764   8.834 -0.2248 -0.4301  0.2294
 7514WAT      O31860   6.272   2.613   7.714  0.1607  0.0385 -0.1222
 7514WAT     H131861   6.267   2.518   7.710 -3.1684  0.1254 -0.5900
 7514WAT     H231862   6.342   2.636   7.653 -0.2747 -2.0301 -1.5023
 7514WAT    EPW31863   6.280   2.604   7.706 -0.3359 -0.2228 -0.3657
 7515WAT      O31864   8.542   9.418   5.506  0.5630  0.7129  0.1008
 7515WAT     H131865   8.454   9.415   5.542  0.0786  1.2939 -0.9973
 7515WAT     H231866   8.576   9.330   5.520 -0.4733  0.2565 -0.1461
 7515WAT    EPW31867   8.535   9.406   5.512  0.3629  0.7286 -0.0765
 7516WAT      O31868  10.573   2.656   6.527  0.0390 -0.1355 -0.2887
 7516WAT     H131869  10.655   2.695   6.558 -0.9103  2.8915 -1.2495
 7516WAT     H231870  10.513   2.662   6.602  0.2057 -0.9081 -0.0790
 7516WAT    EPW31871  10.576   2.662   6.541 -0.0648  0.1618 -0.3877
 7517WAT      O31872   6.330   5.612   2.340  0.0920  0.6834 -0.7663
 7517WAT     H131873   6.275   5.592   2.416  2.5879 -1.9088  0.5400
 7517WAT     H231874   6.359   5.702   2.355  0.2658  0.3435  1.2098
 7517WAT    EPW31875   6.327   5.621   2.352  0.4442  0.2966 -0.3334
 7518WAT      O31876   7.641   5.132   1.534 -0.6336 -0.3534 -0.0216
 7518WAT     H131877   7.656   5.162   1.624  3.7388  2.2847 -1.3196
 7518WAT     H231878   7.638   5.212   1.483 -0.7860 -1.8254 -2.4592
 7518WAT    EPW31879   7.643   5.146   1.539 -0.0768 -0.1993 -0.5143
 7519WAT      O31880   6.541   6.925   1.431 -0.7852  0.2309  0.0341
 7519WAT     H131881   6.514   6.980   1.504 -0.4089  0.6680 -0.1475
 7519WAT     H231882   6.467   6.868   1.414 -0.7862 -0.0319  0.9100
 7519WAT    EPW31883   6.528   6.925   1.438 -0.7358  0.2539  0.1256
 7520WAT      O31884   2.843   9.798   0.294 -0.2828  0.3524  0.3637
 7520WAT     H131885   2.911   9.782   0.230  1.3957 -1.2940  2.4009
 7520WAT     H231886   2.845   9.893   0.308  1.3054  0.3922  0.0423
 7520WAT    EPW31887   2.852   9.808   0.288  0.1481  0.1407  0.5900
 7521WAT      O31888   3.769   2.642   8.740 -0.0559 -0.2157 -0.3846
 7521WAT     H131889   3.745   2.714   8.798  0.5259 -0.1020 -0.2786
 7521WAT     H231890   3.813   2.579   8.797  0.0829 -0.3269 -0.6140
 7521WAT    EPW31891   3.771   2.643   8.755  0.0390 -0.2153 -0.4005
 7522WAT      O31892   5.767   7.593   0.209 -0.6848  0.2014 -0.6089
 7522WAT     H131893   5.763   7.566   0.301  1.3275  2.6698  0.3339
 7522WAT     H231894   5.804   7.517   0.164  0.7538 -0.2204  1.1252
 7522WAT    EPW31895   5.772   7.579   0.215 -0.2294  0.4711 -0.2558
 7523WAT      O31896   1.380   2.432   7.539 -0.1861 -0.5834  0.2044
 7523WAT     H131897   1.322   2.394   7.473  1.3743 -1.0026 -0.9605
 7523WAT     H231898   1.321   2.483   7.595 -1.6963 -1.0943 -0.8478
 7523WAT    EPW31899   1.364   2.433   7.538 -0.1795 -0.7060 -0.0882
 7524WAT      O31900   9.158   7.226   2.655  0.2440  0.6155  0.1663
 7524WAT     H131901   9.123   7.281   2.584  0.8788 -1.7994 -2.1854
 7524WAT     H231902   9.244   7.199   2.624  0.1083 -1.3976  1.3697
 7524WAT    EPW31903   9.165   7.230   2.641  0.3099  0.0317  0.0149
 7525WAT      O31904   2.133   4.687   6.210 -0.2611 -0.0573 -0.3459
 7525WAT     H131905   2.139   4.689   6.114 -3.3554  0.1969 -0.6178
 7525WAT     H231906   2.192   4.757   6.239  1.9346 -1.1383 -1.9009
 7525WAT    EPW31907   2.142   4.697   6.201 -0.3798 -0.1664 -0.5867
 7526WAT      O31908   3.740   2.147   8.788  0.2526 -0.6301 -1.4388
 7526WAT     H131909   3.718   2.056   8.809  0.3059 -0.4052 -0.3645
 7526WAT     H231910   3.656   2.192   8.788  0.1946 -0.7173 -2.2447
 7526WAT    EPW31911   3.726   2.141   8.791  0.2521 -0.6119 -1.4033
 7527WAT      O31912   9.221   8.162   1.566  0.3596  0.6367 -0.1851
 7527WAT     H131913   9.142   8.117   1.537  1.6998 -1.5455 -0.7057
 7527WAT     H231914   9.250   8.212   1.490  0.6655 -0.3795 -0.7612
 7527WAT    EPW31915   9.215   8.162   1.552  0.5765  0.2146 -0.3298
 7528WAT      O31916   5.340   4.334   0.552 -0.1139 -0.4979  0.7050
 7528WAT     H131917   5.247   4.353   0.542 -0.1509 -0.6265  0.8038
 7528WAT     H231918   5.365   4.292   0.470 -0.3082 -1.1195  0.9642
 7528WAT    EPW31919   5.331   4.331   0.540 -0.1445 -0.5968  0.7522
 7529WAT      O31920   1.698   2.477   7.772  0.1716 -0.2542 -0.2150
 7529WAT     H131921   1.700   2.395   7.722 -0.2853 -0.6796  0.4372
 7529WAT     H231922   1.789   2.505   7.776  0.8444 -2.3787  2.1731
 7529WAT    EPW31923   1.710   2.470   7.766  0.2000 -0.5906  0.1860
 7530WAT      O31924   0.457   2.983   7.927 -0.0731  0.3577  0.3541
 7530WAT     H131925   0.501   3.048   7.982 -0.2616 -0.4361  1.4844
 7530WAT     H231926   0.380   2.958   7.978  0.0683 -0.8403 -0.0034
 7530WAT    EPW31927   0.453   2.989   7.941 -0.0793  0.0949  0.4561
 7531WAT      O31928   5.597   0.406   8.312 -0.4495  0.4056 -0.4416
 7531WAT     H131929   5.655   0.375   8.242 -0.6902  1.3005 -1.0521
 7531WAT     H231930   5.650   0.467   8.363 -0.6395  0.7012 -0.5914
 7531WAT    EPW31931   5.611   0.410   8.310 -0.5064  0.5626 -0.5417
 7532WAT      O31932   2.177   1.356   7.780 -0.3636 -0.4045 -0.7028
 7532WAT     H131933   2.104   1.329   7.723 -1.8089  1.6007  0.0647
 7532WAT     H231934   2.247   1.381   7.720 -1.2622  0.0828 -1.5845
 7532WAT    EPW31935   2.176   1.356   7.765 -0.6727 -0.0758 -0.7174
 7533WAT      O31936   5.354   5.384   0.180  0.4247 -0.6306  0.0402
 7533WAT     H131937   5.300   5.416   0.108 -0.2957  0.8212  1.1881
 7533WAT     H231938   5.352   5.454   0.245  0.3962 -2.2264  1.8304
 7533WAT    EPW31939   5.347   5.398   0.179  0.3259 -0.6497  0.4277
 7534WAT      O31940   9.210   7.086   6.474 -0.5162  0.5186 -0.6304
 7534WAT     H131941   9.188   7.027   6.546  1.2247  0.4963 -0.0829
 7534WAT     H231942   9.189   7.173   6.509  0.9847  0.5730  0.2076
 7534WAT    EPW31943   9.204   7.090   6.488 -0.0887  0.5231 -0.4475
 7535WAT      O31944   4.500   4.063   4.223 -0.1665 -0.3488 -0.5704
 7535WAT     H131945   4.573   4.111   4.262  1.8964  0.7451 -5.0592
 7535WAT     H231946   4.513   3.973   4.251  1.7750  0.1415  0.2785
 7535WAT    EPW31947   4.512   4.058   4.232  0.3617 -0.1397 -1.0505
 7536WAT      O31948   3.870   2.608   4.610  0.0908 -0.3342 -0.0401
 7536WAT     H131949   3.941   2.613   4.674 -1.6574 -2.9402  2.3659
 7536WAT     H231950   3.790   2.611   4.663 -1.4775 -2.4382 -2.0670
 7536WAT    EPW31951   3.869   2.609   4.626 -0.3467 -0.9555  0.0100
 7537WAT      O31952   1.840   2.506   7.056 -0.8167  0.8065  0.1341
 7537WAT     H131953   1.873   2.509   6.966  0.1729  0.6999  0.4791
 7537WAT     H231954   1.853   2.416   7.084  0.2725  1.1728  0.8720
 7537WAT    EPW31955   1.846   2.495   7.048 -0.5425  0.8408  0.2770
 7538WAT      O31956   3.565   3.748   7.291  0.4787  0.4631 -0.4415
 7538WAT     H131957   3.483   3.714   7.254  0.0247  1.5357 -0.4676
 7538WAT     H231958   3.628   3.741   7.219  0.7621 -1.5117 -0.0557
 7538WAT    EPW31959   3.562   3.743   7.276  0.4562  0.3443 -0.3941
 7539WAT      O31960   3.095   0.922   6.244  0.1356 -0.1042  0.0064
 7539WAT     H131961   3.151   0.887   6.313  0.5767 -0.9843 -0.7735
 7539WAT     H231962   3.097   0.856   6.175 -2.1653 -0.3579  0.0789
 7539WAT    EPW31963   3.102   0.909   6.244 -0.1098 -0.2537 -0.0868
 7540WAT      O31964   1.997   1.385   6.905 -0.5425 -0.2472 -0.4337
 7540WAT     H131965   1.984   1.378   6.999 -0.8476  2.0095 -0.2551
 7540WAT     H231966   1.909   1.397   6.869 -0.3687 -0.4120 -0.9280
 7540WAT    EPW31967   1.983   1.386   6.913 -0.5598  0.0287 -0.4756
 7541WAT      O31968   2.003   8.747   5.683  0.1065 -0.2069  0.6505
 7541WAT     H131969   1.943   8.809   5.641 -1.1697 -1.7782  0.0584
 7541WAT     H231970   2.089   8.767   5.645 -0.1961  1.4146  0.7531
 7541WAT    EPW31971   2.006   8.758   5.673 -0.1018 -0.2003  0.5858
 7542WAT      O31972   3.879   3.363   6.755 -0.7307 -0.4913  0.8357
 7542WAT     H131973   3.957   3.367   6.700 -1.7969  0.8576 -0.6903
 7542WAT     H231974   3.877   3.273   6.788 -0.7210 -1.7899 -2.3860
 7542WAT    EPW31975   3.889   3.352   6.752 -0.8700 -0.4847  0.2096
 7543WAT      O31976   6.528   6.314   1.731  0.5699 -0.1296  0.1964
 7543WAT     H131977   6.457   6.251   1.742 -0.4746  1.1616  1.1210
 7543WAT     H231978   6.488   6.386   1.683  1.4534  0.3216  0.1234
 7543WAT    EPW31979   6.513   6.315   1.726  0.5486  0.1004  0.3088
 7544WAT      O31980   5.725   2.512   6.727  0.5599  0.2768  0.6757
 7544WAT     H131981   5.671   2.457   6.783 -0.2546 -1.7062 -1.8281
 7544WAT     H231982   5.747   2.455   6.653  2.5673  2.3440 -0.4404
 7544WAT    EPW31983   5.721   2.497   6.724  0.7174  0.2881  0.1981
 7545WAT      O31984   5.188   2.490   8.283 -0.3618  0.0044  0.0042
 7545WAT     H131985   5.156   2.579   8.293 -2.9597 -0.9528  1.0772
 7545WAT     H231986   5.162   2.465   8.194  3.4584  1.3313 -1.6927
 7545WAT    EPW31987   5.180   2.498   8.272 -0.2010  0.0532 -0.0782
 7546WAT      O31988   8.933   3.825   0.194 -0.3321 -0.2489 -0.2284
 7546WAT     H131989   8.936   3.730   0.206  0.9450 -0.5329 -2.1755
 7546WAT     H231990   9.022   3.854   0.214 -0.1038  0.1737 -1.6876
 7546WAT    EPW31991   8.945   3.816   0.198 -0.1335 -0.2304 -0.6777
 7547WAT      O31992   1.636   2.256   6.888  0.2263 -0.3285 -0.3299
 7547WAT     H131993   1.673   2.294   6.809 -1.6545 -1.4248 -1.8224
 7547WAT     H231994   1.621   2.330   6.946 -1.1347  0.9508 -2.2088
 7547WAT    EPW31995   1.639   2.271   6.886 -0.2012 -0.3043 -0.7746
 7548WAT      O31996   1.997   1.123   7.005 -0.3512 -0.5846 -0.1739
 7548WAT     H131997   2.060   1.165   6.947  0.4731  1.2048  1.8604
 7548WAT     H231998   1.915   1.126   6.957  0.4455  0.0595 -1.5687
 7548WAT    EPW31999   1.995   1.129   6.991 -0.1374 -0.2636 -0.0896
 7549WAT      O32000   9.668   8.850   7.009 -0.3519  0.2440  0.1881
 7549WAT     H132001   9.598   8.794   6.975 -1.0224  0.4559  1.1589
 7549WAT     H232002   9.722   8.871   6.933 -0.1444 -1.6259 -0.2223
 7549WAT    EPW32003   9.666   8.845   6.994 -0.4129  0.0257  0.2618
 7550WAT      O32004   4.898   1.032   8.573  0.3168 -0.3048  0.0205
 7550WAT     H132005   4.833   0.977   8.531 -1.3333  1.7202 -0.2633
 7550WAT     H232006   4.870   1.036   8.665  1.0457 -0.7701  0.2713
 7550WAT    EPW32007   4.886   1.026   8.580  0.1957 -0.0991  0.0162
 7551WAT      O32008   1.599   2.662   7.930  0.7913 -0.2944 -0.0852
 7551WAT     H132009   1.524   2.717   7.905  0.4190 -0.7184  0.0952
 7551WAT     H232010   1.622   2.616   7.849  0.2658 -0.8613  0.0844
 7551WAT    EPW32011   1.592   2.663   7.916  0.6729 -0.4250 -0.0393
 7552WAT      O32012   6.379   4.938   1.611 -0.4585  0.7423  0.0734
 7552WAT     H132013   6.332   5.020   1.598  1.2012  1.8058  0.4091
 7552WAT     H232014   6.434   4.954   1.688 -0.1801 -0.7340  0.2110
 7552WAT    EPW32015   6.380   4.950   1.620 -0.2031  0.6878  0.1357
 7553WAT      O32016   2.247   4.833   8.154 -0.2396  0.1715 -0.6189
 7553WAT     H132017   2.301   4.820   8.076 -2.1627  1.9213 -2.4011
 7553WAT     H232018   2.158   4.817   8.124 -0.8962 -1.6663  1.9644
 7553WAT    EPW32019   2.243   4.830   8.139 -0.5797  0.1597 -0.5131
 7554WAT      O32020   3.722   4.820   7.569  0.7627  0.1899  0.3202
 7554WAT     H132021   3.665   4.767   7.512  1.1464  0.0258  0.0854
 7554WAT     H232022   3.712   4.909   7.536 -2.2453  0.8620  2.5779
 7554WAT    EPW32023   3.713   4.825   7.557  0.4165  0.2570  0.5870
 7555WAT      O32024   0.868   9.833   7.611 -0.1055 -0.0631  0.3379
 7555WAT     H132025   0.899   9.767   7.672  0.6920  0.0332  0.0470
 7555WAT     H232026   0.902   9.805   7.526 -2.6130 -1.1381 -0.4148
 7555WAT    EPW32027   0.877   9.821   7.608 -0.3310 -0.1926  0.2003
 7556WAT      O32028   6.554   7.344   2.377 -0.4655  0.7420 -0.0741
 7556WAT     H132029   6.570   7.329   2.470  1.9496  0.8982 -0.4030
 7556WAT     H232030   6.554   7.256   2.339  1.7198  0.8070 -0.3255
 7556WAT    EPW32031   6.556   7.330   2.384  0.1414  0.7710 -0.1507
 7557WAT      O32032   8.326   5.223   2.346 -0.3687  0.5303  0.0260
 7557WAT     H132033   8.405   5.231   2.293  0.9010  0.8054  1.8435
 7557WAT     H232034   8.334   5.137   2.387 -1.7488 -0.0369 -0.8298
 7557WAT    EPW32035   8.337   5.213   2.345 -0.3829  0.4916  0.1529
 7558WAT      O32036   3.203   2.610   7.960 -0.4712  0.6532  0.9631
 7558WAT     H132037   3.137   2.606   7.890 -0.5947 -0.1157  1.1149
 7558WAT     H232038   3.172   2.681   8.018 -1.2795  0.1677  1.1403
 7558WAT    EPW32039   3.190   2.619   7.959 -0.5941  0.4878  1.0064
 7559WAT      O32040   6.511   6.959   1.891 -0.2921  0.2230 -0.1711
 7559WAT     H132041   6.550   6.883   1.849  1.1845 -1.0635  3.2144
 7559WAT     H232042   6.421   6.934   1.909 -0.0542 -0.4128  0.1532
 7559WAT    EPW32043   6.505   6.946   1.888 -0.0660 -0.0305  0.3182
 7560WAT      O32044   6.467   1.543   8.847 -0.0823 -0.0952  0.5604
 7560WAT     H132045   6.479   1.630   8.810 -0.2112 -0.0550  0.6118
 7560WAT     H232046   6.464   1.485   8.771 -1.0556  0.0694  0.4551
 7560WAT    EPW32047   6.468   1.547   8.832 -0.2275 -0.0682  0.5527
 7561WAT      O32048   2.052   1.500   7.989  0.4705 -0.3471  0.3869
 7561WAT     H132049   2.122   1.499   8.054 -1.1570 -1.3886  2.2436
 7561WAT     H232050   2.088   1.450   7.915  1.6978 -0.8186  1.2614
 7561WAT    EPW32051   2.066   1.493   7.988  0.4178 -0.5467  0.7470
 7562WAT      O32052   1.176   2.581   8.916 -0.0372  0.0564  0.3910
 7562WAT     H132053   1.232   2.515   8.958 -0.1720 -1.4802 -1.6792
 7562WAT     H232054   1.163   2.548   8.827 -2.1729  1.6643  0.0278
 7562WAT    EPW32055   1.182   2.568   8.910 -0.3366  0.0657  0.0696
 7563WAT      O32056   7.106   8.564   0.275  0.2625  0.9617  0.7457
 7563WAT     H132057   7.175   8.597   0.332  0.9207 -1.7461  1.6481
 7563WAT     H232058   7.048   8.639   0.261  2.6852  2.9984  0.9555
 7563WAT    EPW32059   7.108   8.578   0.281  0.6690  0.8731  0.8924
 7564WAT      O32060   7.571   6.643   0.920  0.0912 -0.0012  0.2937
 7564WAT     H132061   7.590   6.605   1.006  1.8435  0.1661  0.0114
 7564WAT     H232062   7.508   6.713   0.938  1.5329  0.9960  1.6705
 7564WAT    EPW32063   7.565   6.647   0.934  0.5124  0.1523  0.4381
 7565WAT      O32064   4.872   0.467   5.973 -0.2093 -0.3886  0.1730
 7565WAT     H132065   4.817   0.497   5.900 -0.7502 -0.9985  0.3153
 7565WAT     H232066   4.820   0.398   6.015  0.0388  0.0586  1.2317
 7565WAT    EPW32067   4.858   0.462   5.969 -0.2482 -0.4101  0.3314
 7566WAT      O32068   3.834   3.696   5.511 -0.6259  0.0374  0.2510
 7566WAT     H132069   3.817   3.760   5.579 -0.0672  2.5684 -1.8014
 7566WAT     H232070   3.921   3.720   5.477  0.4857 -3.0360  0.5938
 7566WAT    EPW32071   3.843   3.708   5.515 -0.4055 -0.0342  0.0253
 7567WAT      O32072   5.993   6.668   1.668 -0.0102 -0.3266 -0.0180
 7567WAT     H132073   6.048   6.746   1.662  2.2549 -1.3728  3.6442
 7567WAT     H232074   6.008   6.623   1.584  0.9558  1.7226 -1.0304
 7567WAT    EPW32075   6.002   6.672   1.656  0.4158 -0.1941  0.3314
 7568WAT      O32076   9.462   6.760   5.147 -0.3834 -0.7148 -0.5959
 7568WAT     H132077   9.459   6.840   5.201 -0.1320 -2.1654  1.7152
 7568WAT     H232078   9.371   6.731   5.144 -0.0948 -1.9789  1.2919
 7568WAT    EPW32079   9.449   6.767   5.154 -0.3123 -1.0729 -0.0420
 7569WAT      O32080   8.258   8.924   4.597 -0.1279  0.1318 -0.0157
 7569WAT     H132081   8.219   8.880   4.672  1.3078 -2.6250 -0.7703
 7569WAT     H232082   8.183   8.957   4.546 -1.2732 -1.2120  0.7439
 7569WAT    EPW32083   8.243   8.923   4.600 -0.0896 -0.4091 -0.0150
 7570WAT      O32084   3.992   2.824   8.527 -0.2128 -0.7645 -0.2992
 7570WAT     H132085   4.033   2.749   8.569 -0.9325 -1.6413 -1.1134
 7570WAT     H232086   3.937   2.863   8.594 -2.0585 -2.6807 -0.6231
 7570WAT    EPW32087   3.990   2.820   8.541 -0.5512 -1.1328 -0.4492
 7571WAT      O32088   7.234   7.912   0.048 -1.0212  0.0955 -0.7126
 7571WAT     H132089   7.198   7.969   0.116  1.6426  0.4609  0.5087
 7571WAT     H232090   7.261   7.833   0.095  0.1405  0.0236 -1.4521
 7571WAT    EPW32091   7.233   7.909   0.063 -0.5164  0.1345 -0.6490
 7572WAT      O32092   9.449   2.698   7.652 -0.2433  0.7774 -0.1813
 7572WAT     H132093   9.498   2.780   7.655  0.5864  0.3487 -1.2747
 7572WAT     H232094   9.364   2.720   7.688  0.2491  1.9172  0.3349
 7572WAT    EPW32095   9.445   2.712   7.657 -0.0687  0.8712 -0.2573
 7573WAT      O32096   1.845   2.552   5.363  0.1630  0.3054  0.1247
 7573WAT     H132097   1.776   2.525   5.424  0.5799 -1.5319 -0.1722
 7573WAT     H232098   1.877   2.471   5.325  1.6822  1.2221 -0.6516
 7573WAT    EPW32099   1.840   2.538   5.366  0.4184  0.1839 -0.0167
 7574WAT      O32100   3.772   1.857   7.471 -0.0327 -0.1921 -0.2594
 7574WAT     H132101   3.800   1.799   7.542  1.2044 -0.9972 -1.3686
 7574WAT     H232102   3.690   1.819   7.441 -0.8557  0.4631  1.0563
 7574WAT    EPW32103   3.765   1.844   7.476  0.0219 -0.2119 -0.2320
 7575WAT      O32104   2.815   2.926   5.686 -0.2995  0.8535  0.1365
 7575WAT     H132105   2.781   2.838   5.669  1.8188 -0.1955  0.8943
 7575WAT     H232106   2.848   2.956   5.602  0.6245  0.1122  0.2142
 7575WAT    EPW32107   2.815   2.919   5.673  0.1018  0.6173  0.2468
 7576WAT      O32108   6.558   2.664   6.646 -0.6863  0.2380  0.0839
 7576WAT     H132109   6.498   2.590   6.649 -1.5679  0.9462  0.2401
 7576WAT     H232110   6.566   2.685   6.552 -0.8065  0.2470  0.0760
 7576WAT    EPW32111   6.551   2.657   6.634 -0.8187  0.3326  0.1035
 7577WAT      O32112   4.336   5.170   7.933  0.7573 -0.6096  0.6443
 7577WAT     H132113   4.425   5.139   7.949  0.9771  0.1495  0.9535
 7577WAT     H232114   4.282   5.118   7.992  1.3342  0.7782  2.5011
 7577WAT    EPW32115   4.341   5.159   7.943  0.8626 -0.3262  0.9298
 7578WAT      O32116   6.968   8.249   0.745  0.6593  0.2458 -0.4042
 7578WAT     H132117   7.060   8.258   0.771  0.2865  1.4993  0.5679
 7578WAT     H232118   6.955   8.320   0.682 -0.0044  1.0206  0.5742
 7578WAT    EPW32119   6.978   8.260   0.740  0.5226  0.5131 -0.1470
 7579WAT      O32120   4.670   7.375   0.105  0.7336  0.5966 -0.3919
 7579WAT     H132121   4.581   7.371   0.138  0.3647 -0.0944 -1.4328
 7579WAT     H232122   4.710   7.292   0.133  1.2788  1.1899  0.6547
 7579WAT    EPW32123   4.664   7.363   0.113  0.7570  0.5834 -0.3911
 7580WAT      O32124   1.099   4.041   8.658 -0.0059  0.2590 -0.1098
 7580WAT     H132125   1.009   4.054   8.688 -0.4347  0.7441 -1.5148
 7580WAT     H232126   1.134   4.129   8.649  0.8222  0.0621  0.9646
 7580WAT    EPW32127   1.092   4.054   8.661  0.0467  0.2973 -0.1531
 7581WAT      O32128   8.088   9.544   2.998 -0.1802 -0.3830  0.2734
 7581WAT     H132129   8.180   9.522   3.016 -0.5303 -2.5621 -0.3658
 7581WAT     H232130   8.081   9.539   2.903 -1.5241 -2.8227  0.4437
 7581WAT    EPW32131   8.099   9.541   2.988 -0.4039 -0.9928  0.2116
 7582WAT      O32132   3.242   2.419   8.331  0.9855  0.0647 -0.4095
 7582WAT     H132133   3.182   2.489   8.356  1.5957  0.1190  1.0269
 7582WAT     H232134   3.312   2.463   8.283  0.3849  0.1365 -1.2385
 7582WAT    EPW32135   3.244   2.434   8.328  0.9867  0.0814 -0.3290
 7583WAT      O32136   9.995   1.120   7.400  0.0161 -0.0223  0.4310
 7583WAT     H132137  10.049   1.064   7.345 -0.0105 -1.0142  1.3695
 7583WAT     H232138  10.027   1.209   7.384  3.7116 -0.7010  2.7619
 7583WAT    EPW32139  10.006   1.125   7.391  0.4997 -0.2427  0.8619
 7584WAT      O32140   6.734   8.732   0.458 -0.2572  0.7936  0.5538
 7584WAT     H132141   6.692   8.736   0.544  0.2024 -2.1527  1.0184
 7584WAT     H232142   6.827   8.724   0.477 -0.0762  0.8691 -0.2598
 7584WAT    EPW32143   6.741   8.732   0.472 -0.1726  0.4148  0.5078
 7585WAT      O32144   2.098   2.093   6.618  0.1601 -0.4616 -0.4675
 7585WAT     H132145   2.015   2.130   6.589  0.5103  0.7902  0.0573
 7585WAT     H232146   2.081   1.999   6.626 -1.2991 -0.1874 -0.0410
 7585WAT    EPW32147   2.085   2.086   6.616  0.0138 -0.2602 -0.3421
 7586WAT      O32148   0.886   1.591   6.549 -0.8518 -0.5912 -0.3450
 7586WAT     H132149   0.808   1.609   6.498 -1.6670 -0.7689  0.8088
 7586WAT     H232150   0.913   1.676   6.584  0.7885 -0.1270 -2.4748
 7586WAT    EPW32151   0.880   1.604   6.547 -0.7430 -0.5534 -0.4740
 7587WAT      O32152   6.053   8.633   0.067 -0.2091  0.1199 -0.0813
 7587WAT     H132153   5.972   8.583   0.067 -0.2735  0.2204 -0.9752
 7587WAT     H232154   6.066   8.659  -0.024  0.1415  1.2047  0.2574
 7587WAT    EPW32155   6.044   8.630   0.055 -0.1712  0.2761 -0.1546
 7588WAT      O32156   5.296   3.349   6.726  0.4303 -0.0280  0.3931
 7588WAT     H132157   5.261   3.266   6.694  1.4473  0.0306 -0.9641
 7588WAT     H232158   5.233   3.415   6.696  1.5182  0.0585 -1.8653
 7588WAT    EPW32159   5.283   3.347   6.718  0.7081 -0.0088 -0.0837
 7589WAT      O32160   0.999   1.332   0.043  0.2868 -0.4405 -0.3725
 7589WAT     H132161   1.080   1.282   0.033  0.8000  0.2433  0.1991
 7589WAT     H232162   0.930   1.266   0.052  1.0326 -1.0538  1.0472
 7589WAT    EPW32163   1.001   1.317   0.043  0.4528 -0.4312 -0.1098
 7590WAT      O32164   4.944   2.326   5.167  0.6533  0.5292  0.4047
 7590WAT     H132165   4.926   2.400   5.224  0.4969  0.4107  0.5098
 7590WAT     H232166   4.929   2.249   5.222  0.4155  0.4138  0.1813
 7590WAT    EPW32167   4.940   2.325   5.181  0.6015  0.4983  0.3891
 7591WAT      O32168   7.999   8.318   0.389 -0.4791 -0.1207  0.0239
 7591WAT     H132169   7.943   8.395   0.396  0.8968  1.0702 -1.2206
 7591WAT     H232170   7.954   8.260   0.328 -0.6796  0.5160 -0.4412
 7591WAT    EPW32171   7.986   8.321   0.382 -0.3242  0.1211 -0.2016
 7592WAT      O32172   6.947   9.683   0.935  0.3151 -0.1333 -0.5880
 7592WAT     H132173   7.043   9.684   0.936  0.4493 -3.1822  0.6420
 7592WAT     H232174   6.924   9.600   0.977 -2.9140  1.0128  0.1414
 7592WAT    EPW32175   6.957   9.672   0.940 -0.0927 -0.3843 -0.3296
 7593WAT      O32176   3.417   2.256   6.051 -0.1104 -0.2401 -0.0792
 7593WAT     H132177   3.477   2.309   6.104 -1.6230  1.3305  0.1402
 7593WAT     H232178   3.446   2.271   5.961 -1.4804  2.4139 -0.1890
 7593WAT    EPW32179   3.429   2.265   6.046 -0.4905  0.3170 -0.0648
 7594WAT      O32180   2.401   3.454   6.981  0.1524  0.2397 -0.5909
 7594WAT     H132181   2.363   3.486   6.899 -0.6736 -2.8896 -1.6011
 7594WAT     H232182   2.375   3.362   6.985  1.0322 -0.0055  2.7349
 7594WAT    EPW32183   2.393   3.446   6.971  0.1595 -0.2054 -0.2856
 7595WAT      O32184   6.877   9.218   0.462 -0.1902  0.1942  0.3249
 7595WAT     H132185   6.792   9.173   0.460  0.6653 -1.4635 -0.4547
 7595WAT     H232186   6.938   9.153   0.496  1.2949  0.3208 -1.9076
 7595WAT    EPW32187   6.874   9.203   0.466  0.1185 -0.0072 -0.0724
 7596WAT      O32188   6.464   6.629   3.205 -0.5315 -1.0224  0.0800
 7596WAT     H132189   6.468   6.705   3.263  0.7542 -1.5993  0.8013
 7596WAT     H232190   6.486   6.664   3.119  1.5431 -0.7511  0.6471
 7596WAT    EPW32191   6.468   6.643   3.202 -0.0887 -1.0626  0.2499
 7597WAT      O32192   7.634   8.423   2.621 -0.5324  0.3772 -0.1026
 7597WAT     H132193   7.593   8.471   2.693 -0.1959  2.7931 -1.4247
 7597WAT     H232194   7.709   8.379   2.661  1.2077  3.7433  0.7317
 7597WAT    EPW32195   7.639   8.424   2.636 -0.2584  1.1396 -0.1670
 7598WAT      O32196   5.698   5.141   8.034 -0.6892 -0.1583 -0.2673
 7598WAT     H132197   5.688   5.178   7.946 -0.9815  0.9916  0.2230
 7598WAT     H232198   5.725   5.215   8.088 -2.5392 -0.3416  1.0177
 7598WAT    EPW32199   5.700   5.156   8.030 -0.9720 -0.0308 -0.0329
 7599WAT      O32200   8.854  10.126   6.622  0.5860 -0.5720 -0.3057
 7599WAT     H132201   8.864  10.031   6.614  1.5779 -0.5041 -0.0744
 7599WAT     H232202   8.919  10.151   6.687 -0.1171  0.1918  0.1206
 7599WAT    EPW32203   8.864  10.117   6.630  0.6242 -0.4621 -0.2191
 7600WAT      O32204   4.127   1.768   8.844  0.2354  0.3160  0.4692
 7600WAT     H132205   4.111   1.675   8.859 -0.4086  0.3283 -0.0920
 7600WAT     H232206   4.059   1.813   8.894 -2.1299  0.3480 -2.5142
 7600WAT    EPW32207   4.116   1.762   8.853 -0.1614  0.3219  0.0019
 7601WAT      O32208   4.948   1.715   5.275  0.1239  0.5774 -0.1883
 7601WAT     H132209   4.930   1.689   5.366  1.5285  0.0112 -0.0476
 7601WAT     H232210   4.868   1.691   5.228 -1.9197  3.7029  1.3547
 7601WAT    EPW32211   4.935   1.708   5.281  0.0393  0.9150  0.0336
 7602WAT      O32212   8.384   4.778   1.169  0.0312  0.7257 -0.5953
 7602WAT     H132213   8.410   4.702   1.117 -0.1124 -0.0062  0.3622
 7602WAT     H232214   8.323   4.826   1.114 -3.9818 -2.5583  0.5156
 7602WAT    EPW32215   8.380   4.774   1.155 -0.5174  0.1960 -0.3225
 7603WAT      O32216   4.176   2.503   6.230 -0.1231 -0.0341  0.4673
 7603WAT     H132217   4.088   2.527   6.258  0.6025  4.0061 -0.0476
 7603WAT     H232218   4.203   2.574   6.171  3.0450 -1.7216 -0.3720
 7603WAT    EPW32219   4.168   2.516   6.226  0.3903  0.2763  0.2890
 7604WAT      O32220   2.415   1.686   7.363 -0.3210 -0.5897  0.7239
 7604WAT     H132221   2.411   1.730   7.279 -0.4959  0.7200  1.4049
 7604WAT     H232222   2.345   1.724   7.415  0.1900 -0.9093  1.6849
 7604WAT    EPW32223   2.405   1.697   7.359 -0.2767 -0.4591  0.9403
 7605WAT      O32224   1.792   2.299   5.970  0.0856 -0.1488  0.3845
 7605WAT     H132225   1.765   2.320   5.880  0.0371  3.0439  1.0520
 7605WAT     H232226   1.882   2.329   5.976  0.5058 -1.4722  1.1053
 7605WAT    EPW32227   1.800   2.305   5.959  0.1346  0.0976  0.5674
 7606WAT      O32228   4.026   5.082   7.480  0.0390 -0.4719 -0.6841
 7606WAT     H132229   4.069   5.148   7.426 -1.9213 -1.3384 -3.5542
 7606WAT     H232230   3.934   5.111   7.484 -0.9676 -3.0790 -2.3566
 7606WAT    EPW32231   4.019   5.094   7.474 -0.3524 -0.9301 -1.2834
 7607WAT      O32232   1.816   3.565   7.887  0.2817  0.4082  0.3211
 7607WAT     H132233   1.734   3.571   7.935 -1.2228  1.5035 -2.2068
 7607WAT     H232234   1.848   3.655   7.883  0.7574  0.2261 -0.1384
 7607WAT    EPW32235   1.810   3.578   7.893  0.1460  0.5287 -0.0730
 7608WAT      O32236   3.408   2.979   6.707  0.5533 -0.4568  0.2803
 7608WAT     H132237   3.410   3.033   6.786 -0.7852 -0.9781  0.6912
 7608WAT     H232238   3.498   2.984   6.673  0.7621  1.0440  0.9568
 7608WAT    EPW32239   3.420   2.987   6.713  0.4044 -0.3275  0.4237
 7609WAT      O32240   1.099   2.419   1.908  0.1178  0.6478  0.1095
 7609WAT     H132241   1.091   2.454   1.997  0.0774  2.5883 -0.6077
 7609WAT     H232242   1.194   2.412   1.893  0.2836  3.4649 -0.7665
 7609WAT    EPW32243   1.111   2.423   1.918  0.1343  1.2753 -0.1006
 7610WAT      O32244   4.272   0.958   8.124 -0.0720  0.1793  0.1337
 7610WAT     H132245   4.233   0.892   8.181 -3.4842  1.9166  0.0827
 7610WAT     H232246   4.299   1.028   8.183  1.9990 -0.4763  0.0395
 7610WAT    EPW32247   4.271   0.959   8.139 -0.2489  0.3220  0.1149
 7611WAT      O32248   8.163   4.549   0.166 -0.3567  0.1579  0.3086
 7611WAT     H132249   8.085   4.555   0.220 -0.0738  0.5682  0.6758
 7611WAT     H232250   8.157   4.463   0.124 -1.0746  0.2463  0.2211
 7611WAT    EPW32251   8.152   4.539   0.167 -0.4144  0.2236  0.3455
 7612WAT      O32252   2.019   1.577   6.375 -0.1006 -0.0989  0.8448
 7612WAT     H132253   2.099   1.548   6.332 -0.2777 -1.0666  1.1328
 7612WAT     H232254   1.952   1.574   6.306  0.4492  2.6634  0.0603
 7612WAT    EPW32255   2.021   1.573   6.360 -0.0514  0.1377  0.7794
 7613WAT      O32256   5.158   6.856   0.036  0.0954 -0.3015  0.2291
 7613WAT     H132257   5.101   6.780   0.026 -1.8413  0.8156  1.9190
 7613WAT     H232258   5.170   6.889  -0.053 -0.2562 -1.7166 -0.3648
 7613WAT    EPW32259   5.152   6.850   0.023 -0.2067 -0.3407  0.3734
 7614WAT      O32260   3.586   3.068   7.248 -0.6416 -0.7341  0.7848
 7614WAT     H132261   3.550   3.140   7.299 -1.4043 -0.3063 -0.3037
 7614WAT     H232262   3.510   3.029   7.204  0.1194 -0.0310 -1.3033
 7614WAT    EPW32263   3.571   3.072   7.249 -0.6418 -0.5850  0.3657
 7615WAT      O32264   6.988   4.853   1.278 -0.2598  0.0847 -0.6915
 7615WAT     H132265   6.931   4.837   1.202 -0.3322  1.0272 -0.8525
 7615WAT     H232266   7.039   4.930   1.253  2.1382 -1.5347 -1.1322
 7615WAT    EPW32267   6.987   4.861   1.264  0.0470 -0.0048 -0.7708
 7616WAT      O32268   0.563   7.756   2.274 -0.5102  0.5789  0.8321
 7616WAT     H132269   0.564   7.789   2.184 -2.0895  2.6446  1.4968
 7616WAT     H232270   0.561   7.661   2.264 -1.0263  0.7576 -1.3309
 7616WAT    EPW32271   0.563   7.748   2.261 -0.7866  0.8745  0.6346
 7617WAT      O32272   0.124   1.428   8.321  0.1044  0.0123 -0.1642
 7617WAT     H132273   0.205   1.470   8.294  0.9301 -1.4350  0.0030
 7617WAT     H232274   0.149   1.374   8.396 -0.9435 -0.7207 -0.3253
 7617WAT    EPW32275   0.138   1.427   8.328  0.0751 -0.2753 -0.1640
 7618WAT      O32276   1.245   4.733   7.944  0.3936  0.6517  0.0097
 7618WAT     H132277   1.287   4.782   7.873 -1.1176  0.8431 -0.7912
 7618WAT     H232278   1.185   4.795   7.984  0.1557  0.1132  0.5011
 7618WAT    EPW32279   1.243   4.747   7.940  0.1629  0.6061 -0.0310
 7619WAT      O32280   1.148   0.945   6.156 -0.0045 -0.6846  0.1529
 7619WAT     H132281   1.120   0.970   6.244  0.9913  2.2625 -0.2422
 7619WAT     H232282   1.243   0.963   6.156 -0.3769  1.9617 -2.1825
 7619WAT    EPW32283   1.157   0.951   6.168  0.0777  0.0532 -0.2069
 7620WAT      O32284   0.258   0.749   8.878  0.1940 -0.1423  0.1137
 7620WAT     H132285   0.236   0.803   8.801 -1.5129  1.3823  1.5630
 7620WAT     H232286   0.248   0.659   8.847 -0.0433  0.4091 -1.5549
 7620WAT    EPW32287   0.254   0.744   8.864 -0.0624  0.1315  0.0849
 7621WAT      O32288   4.467   1.565   6.186 -0.0492 -0.2397  0.3625
 7621WAT     H132289   4.493   1.484   6.231  0.3466  0.7786  2.0293
 7621WAT     H232290   4.380   1.545   6.150  0.3508 -1.6348  0.0957
 7621WAT    EPW32291   4.459   1.551   6.187  0.0556 -0.2893  0.5472
 7622WAT      O32292   3.064   3.212   8.623 -0.7507  0.4248  0.8628
 7622WAT     H132293   3.149   3.256   8.620 -1.2953  1.4242 -0.4187
 7622WAT     H232294   3.076   3.142   8.688  0.7812  1.0858  1.3311
 7622WAT    EPW32295   3.077   3.209   8.631 -0.6204  0.6436  0.7553
 7623WAT      O32296   4.782   7.745   6.795  0.1308  0.2913  0.1785
 7623WAT     H132297   4.715   7.678   6.808 -0.7403  0.6946 -1.7783
 7623WAT     H232298   4.861   7.696   6.776 -0.4629 -0.2277 -1.0820
 7623WAT    EPW32299   4.783   7.730   6.794 -0.0625  0.2761 -0.2458
 7624WAT      O32300   1.664   6.343   5.069  0.1096 -0.0975  0.1297
 7624WAT     H132301   1.723   6.279   5.029  1.5855  1.3211 -0.0632
 7624WAT     H232302   1.591   6.350   5.008  0.6805 -0.4699 -0.6054
 7624WAT    EPW32303   1.663   6.336   5.056  0.3796  0.0405  0.0072
 7625WAT      O32304   9.304   2.920   1.145  0.1113 -0.5532  0.1677
 7625WAT     H132305   9.283   2.834   1.183  0.2651 -0.7149 -0.1099
 7625WAT     H232306   9.385   2.905   1.096 -0.5049 -0.5367 -0.8847
 7625WAT    EPW32307   9.312   2.906   1.144  0.0505 -0.5724 -0.0077
 7626WAT      O32308   5.766   9.454   2.329  0.3958  0.2852 -0.3451
 7626WAT     H132309   5.784   9.377   2.275  3.7162  1.4335 -1.1251
 7626WAT     H232310   5.808   9.434   2.413  0.5266  0.9019 -0.2597
 7626WAT    EPW32311   5.774   9.441   2.333  0.8509  0.5183 -0.4367
 7627WAT      O32312   8.848   8.155   8.456  0.1536 -0.2258 -0.5806
 7627WAT     H132313   8.783   8.100   8.412 -0.1281 -0.1486 -0.2627
 7627WAT     H232314   8.902   8.189   8.385  0.4372 -1.0453 -0.7642
 7627WAT    EPW32315   8.846   8.152   8.441  0.1540 -0.3233 -0.5627
 7628WAT      O32316   6.922   6.754   0.557  0.3151 -0.3740 -0.2241
 7628WAT     H132317   6.977   6.753   0.478  1.6898 -2.2543  0.7044
 7628WAT     H232318   6.953   6.831   0.606  0.7390 -0.2796 -0.6304
 7628WAT    EPW32319   6.933   6.764   0.553  0.5522 -0.6094 -0.1552
 7629WAT      O32320   5.098   5.260   0.430 -0.1963  0.2130 -0.2289
 7629WAT     H132321   5.106   5.351   0.460 -1.5703  0.3971 -0.3416
 7629WAT     H232322   5.009   5.235   0.454  0.0711 -1.0198 -0.4623
 7629WAT    EPW32323   5.087   5.269   0.437 -0.3424  0.0746 -0.2745
 7630WAT      O32324   5.497   2.859   3.320 -0.2249 -0.1951 -0.4170
 7630WAT     H132325   5.419   2.819   3.357  1.7547 -3.0933  1.0593
 7630WAT     H232326   5.506   2.943   3.366 -0.9758 -1.0846  1.4423
 7630WAT    EPW32327   5.488   2.865   3.331 -0.0629 -0.6948  0.0230
 7631WAT      O32328   2.317   0.723   8.266 -0.6537 -0.4817  0.0194
 7631WAT     H132329   2.324   0.659   8.195 -0.7943 -1.5384  0.9261
 7631WAT     H232330   2.252   0.685   8.325  0.2315 -0.1375  1.2374
 7631WAT    EPW32331   2.309   0.709   8.264 -0.5555 -0.5757  0.2999
 7632WAT      O32332   3.727   4.507   0.408 -0.1407 -0.1546 -0.1712
 7632WAT     H132333   3.691   4.504   0.320 -1.0258  2.6956  0.0069
 7632WAT     H232334   3.695   4.589   0.445  1.3047 -0.6029  2.3452
 7632WAT    EPW32335   3.718   4.517   0.402 -0.0668  0.1621  0.1842
 7633WAT      O32336   5.087   1.106   5.656  0.5283 -0.2015 -0.8481
 7633WAT     H132337   5.007   1.088   5.607  0.1190 -0.0555 -0.2463
 7633WAT     H232338   5.085   1.200   5.672  0.2507 -0.3611  0.1253
 7633WAT    EPW32339   5.077   1.116   5.652  0.4375 -0.2033 -0.6406
 7634WAT      O32340   3.049   2.883   7.253 -0.0349  0.5006 -0.6015
 7634WAT     H132341   3.063   2.873   7.159 -0.5960 -1.5349 -0.5216
 7634WAT     H232342   3.001   2.965   7.262 -1.7783 -0.2748 -2.3055
 7634WAT    EPW32343   3.045   2.892   7.242 -0.3388  0.1298 -0.8156
 7635WAT      O32344   1.981   1.092   8.543  0.0845 -0.5286 -0.0277
 7635WAT     H132345   1.908   1.148   8.570 -1.0232 -1.6638 -0.5564
 7635WAT     H232346   2.015   1.134   8.464  0.8158  0.6741  0.9055
 7635WAT    EPW32347   1.975   1.105   8.536  0.0348 -0.5197  0.0257
 7636WAT      O32348   5.058   4.081   3.534  0.1589  0.2850 -0.3393
 7636WAT     H132349   4.982   4.131   3.503 -0.5374 -1.4564 -1.5751
 7636WAT     H232350   5.121   4.085   3.462  1.0175  1.1448  0.4139
 7636WAT    EPW32351   5.057   4.088   3.521  0.1802  0.1686 -0.4029
 7637WAT      O32352   5.720   7.523   0.480  0.3496  0.3146 -0.1552
 7637WAT     H132353   5.658   7.455   0.510 -1.1863  2.3145  1.4919
 7637WAT     H232354   5.805   7.494   0.513 -0.4645 -0.2464  1.5647
 7637WAT    EPW32355   5.723   7.510   0.488  0.0398  0.5045  0.2889
 7638WAT      O32356   4.592   4.976   0.752 -0.1017 -0.7677  0.5334
 7638WAT     H132357   4.524   4.952   0.689 -1.9474  1.1835  1.6317
 7638WAT     H232358   4.620   5.063   0.726  2.8591 -1.9296 -0.5105
 7638WAT    EPW32359   4.586   4.984   0.740  0.0453 -0.6630  0.5406
 7639WAT      O32360   4.090   5.449   5.923  0.0457 -0.6017  0.1712
 7639WAT     H132361   4.086   5.372   5.980  1.4516  0.6761  2.1398
 7639WAT     H232362   4.004   5.452   5.880 -0.2847 -2.8346  0.5534
 7639WAT    EPW32363   4.078   5.439   5.925  0.1874 -0.7277  0.4814
 7640WAT      O32364   2.226   3.831   5.634 -0.8050 -0.1532  0.1806
 7640WAT     H132365   2.164   3.876   5.692 -1.4017 -2.1103  1.1779
 7640WAT     H232366   2.176   3.759   5.596  0.5567 -1.1410  0.1529
 7640WAT    EPW32367   2.211   3.827   5.637 -0.7041 -0.5416  0.3085
 7641WAT      O32368   7.698   3.726   0.454 -0.4124 -0.2173 -0.5284
 7641WAT     H132369   7.643   3.721   0.533  0.1615 -3.9467 -0.1583
 7641WAT     H232370   7.642   3.693   0.384  0.3147 -0.9213 -0.7953
 7641WAT    EPW32371   7.684   3.721   0.455 -0.2408 -0.8019 -0.5148
 7642WAT      O32372   2.704   0.999   5.861 -0.5987 -0.4785 -0.3062
 7642WAT     H132373   2.635   1.058   5.893 -0.7405 -1.7193  1.8700
 7642WAT     H232374   2.669   0.965   5.778 -1.3142  1.0547 -0.6798
 7642WAT    EPW32375   2.690   1.002   5.854 -0.7118 -0.4399 -0.0684
 7643WAT      O32376   9.132   8.340   0.802 -0.5833  0.1844 -0.3113
 7643WAT     H132377   9.070   8.289   0.751 -0.6719 -0.8677  0.7917
 7643WAT     H232378   9.216   8.294   0.790 -0.7109 -0.4117  0.8752
 7643WAT    EPW32379   9.135   8.327   0.794 -0.6118 -0.0329 -0.0093
 7644WAT      O32380   2.950   1.771   6.535  0.3026  0.1344  0.0241
 7644WAT     H132381   3.001   1.773   6.454  2.2476 -2.5619  1.0407
 7644WAT     H232382   3.015   1.776   6.605 -1.0540 -0.5370  1.4062
 7644WAT    EPW32383   2.965   1.772   6.534  0.3803 -0.3098  0.3402
 7645WAT      O32384   1.561   5.177   8.806 -0.3113  0.2645  0.0272
 7645WAT     H132385   1.639   5.180   8.751 -0.4687 -0.2983 -0.2376
 7645WAT     H232386   1.516   5.260   8.789  1.8529  2.1243  2.6464
 7645WAT    EPW32387   1.565   5.189   8.796 -0.0466  0.4356  0.3386
 7646WAT      O32388   4.964   0.226   5.158 -0.1679  0.0892 -0.2334
 7646WAT     H132389   4.946   0.160   5.225 -1.3606  0.4440 -0.1796
 7646WAT     H232390   5.056   0.248   5.170  0.3062 -1.6936 -0.3876
 7646WAT    EPW32391   4.973   0.220   5.168 -0.2627 -0.0991 -0.2463
 7647WAT      O32392   4.405   2.803   8.701  0.4235 -1.1612 -0.5990
 7647WAT     H132393   4.339   2.811   8.770  1.4972  0.4075  0.3159
 7647WAT     H232394   4.432   2.711   8.704  0.2890 -1.1754  0.9515
 7647WAT    EPW32395   4.400   2.792   8.710  0.5472 -0.9562 -0.2742
 7648WAT      O32396   1.789  10.239   4.764 -0.4751  0.2224 -0.3211
 7648WAT     H132397   1.749  10.224   4.850  1.5159  1.6005  0.9019
 7648WAT     H232398   1.865  10.294   4.781  0.5821 -0.3011 -2.8588
 7648WAT    EPW32399   1.794  10.244   4.778 -0.0730  0.3357 -0.4942
 7649WAT      O32400   4.143   4.255   6.965  0.1792  0.1723 -0.5066
 7649WAT     H132401   4.121   4.342   6.933 -2.0655 -0.1472 -0.0122
 7649WAT     H232402   4.120   4.196   6.893  0.3087 -0.1174 -0.3139
 7649WAT    EPW32403   4.137   4.258   6.951 -0.0999  0.0920 -0.4160
 7650WAT      O32404   0.294  10.348   5.846  0.0175  0.4847  0.0741
 7650WAT     H132405   0.293  10.335   5.751  1.7238 -2.5408  0.3432
 7650WAT     H232406   0.381  10.386   5.863  0.8954 -1.5840  0.5676
 7650WAT    EPW32407   0.306  10.352   5.836  0.3583 -0.1874  0.1745
 7651WAT      O32408   3.331   3.477   6.973 -0.5378  0.4452  0.6374
 7651WAT     H132409   3.420   3.507   6.955  1.1508 -3.5731  1.2502
 7651WAT     H232410   3.324   3.474   7.068 -1.6189  1.2693  0.6151
 7651WAT    EPW32411   3.342   3.481   6.983 -0.4578  0.0240  0.7155
 7652WAT      O32412   9.591   7.456   2.507 -0.1970 -0.0514  0.2925
 7652WAT     H132413   9.564   7.426   2.594  0.4680  1.8556  1.2036
 7652WAT     H232414   9.686   7.462   2.514 -0.0970 -0.3424 -0.7479
 7652WAT    EPW32415   9.600   7.453   2.520 -0.0958  0.1619  0.2754
 7653WAT      O32416   3.617   2.930   4.665 -0.2976 -0.1436 -0.1685
 7653WAT     H132417   3.646   2.903   4.578  2.2501  3.2492 -0.5412
 7653WAT     H232418   3.526   2.898   4.670 -0.2204 -1.3584 -3.5935
 7653WAT    EPW32419   3.609   2.922   4.654  0.0485  0.1436 -0.6695
 7654WAT      O32420   8.803   7.547   0.320 -0.0686  0.5581 -0.4010
 7654WAT     H132421   8.830   7.638   0.323 -2.3208  1.3109 -1.4491
 7654WAT     H232422   8.858   7.504   0.387  2.1775  2.3007 -1.0011
 7654WAT    EPW32423   8.814   7.553   0.329 -0.0691  0.8872 -0.6184
 7655WAT      O32424   3.996   0.487   5.080 -0.6440 -0.1986 -0.3424
 7655WAT     H132425   3.995   0.550   5.152 -0.2690 -0.3295 -0.2202
 7655WAT     H232426   3.971   0.537   5.003  3.3125  1.0400 -1.0339
 7655WAT    EPW32427   3.993   0.502   5.079 -0.0727 -0.0525 -0.4175
 7656WAT      O32428   0.537   9.349   6.819 -0.2690  0.0194 -0.1295
 7656WAT     H132429   0.542   9.298   6.738 -0.3286  2.6739 -1.9508
 7656WAT     H232430   0.575   9.434   6.796 -2.0866  1.5464  2.0686
 7656WAT    EPW32431   0.543   9.353   6.805 -0.5166  0.5708 -0.0799
 7657WAT      O32432   7.632   7.483   3.834 -0.2057  0.2351  0.7249
 7657WAT     H132433   7.665   7.395   3.814 -0.9247  0.1876 -0.3648
 7657WAT     H232434   7.541   7.469   3.859 -1.1271  0.8445 -1.9399
 7657WAT    EPW32435   7.624   7.469   3.835 -0.4218  0.3095  0.2298
 7658WAT      O32436   9.782   5.700   0.166 -0.0132  0.8724  0.4514
 7658WAT     H132437   9.782   5.794   0.150 -4.1308  0.5797 -3.4256
 7658WAT     H232438   9.695   5.682   0.203  1.3077 -1.3228  2.7899
 7658WAT    EPW32439   9.770   5.710   0.169 -0.3819  0.5441  0.2485
 7659WAT      O32440   3.248   5.172   6.866  1.0154  0.1504 -0.0885
 7659WAT     H132441   3.270   5.117   6.941  1.7981 -1.3986 -1.3718
 7659WAT     H232442   3.270   5.261   6.894  0.4991 -0.2581  1.7755
 7659WAT    EPW32443   3.254   5.177   6.879  1.0506 -0.1078 -0.0119
 7660WAT      O32444   0.036   1.064   8.482 -0.7728  0.4490  0.2916
 7660WAT     H132445   0.064   1.001   8.548  2.6278 -0.2884 -1.6186
 7660WAT     H232446   0.097   1.137   8.491 -1.6897  1.3609 -0.5695
 7660WAT    EPW32447   0.048   1.065   8.492 -0.4452  0.4721 -0.0749
 7661WAT      O32448   4.716   3.080   8.492  0.6071  0.2428  0.2825
 7661WAT     H132449   4.720   3.169   8.457  1.9017  0.4587  0.9131
 7661WAT     H232450   4.773   3.082   8.569  1.8295 -1.4896 -0.5184
 7661WAT    EPW32451   4.724   3.092   8.498  0.9389  0.0428  0.2594
 7662WAT      O32452   9.133   9.633   0.007  0.6644  0.4785 -0.2758
 7662WAT     H132453   9.137   9.711  -0.048 -0.8686  0.1632 -0.8710
 7662WAT     H232454   9.153   9.560  -0.051  1.7487  0.3678  0.2048
 7662WAT    EPW32455   9.136   9.634  -0.008  0.6051  0.4225 -0.2909
 7663WAT      O32456   5.049   4.915   0.541 -0.1992 -0.4110 -0.6904
 7663WAT     H132457   5.141   4.893   0.552  0.4592  2.5230  0.4372
 7663WAT     H232458   5.034   4.909   0.446  0.6975 -2.2818 -0.7639
 7663WAT    EPW32459   5.059   4.911   0.530  0.0057 -0.2708 -0.5514
 7664WAT      O32460   7.551   6.009   0.557 -0.4409  0.1564  0.2767
 7664WAT     H132461   7.508   6.093   0.540 -0.9842  0.0855  1.2189
 7664WAT     H232462   7.514   5.949   0.492 -0.3722  0.5373 -0.1183
 7664WAT    EPW32463   7.540   6.012   0.546 -0.5035  0.1972  0.3489
 7665WAT      O32464   3.821   8.568   1.927  0.3399  0.1441 -0.2604
 7665WAT     H132465   3.786   8.538   1.844  2.4925  0.2101 -1.2766
 7665WAT     H232466   3.912   8.592   1.907  1.2965 -0.9197  2.3285
 7665WAT    EPW32467   3.829   8.567   1.913  0.7501  0.0119 -0.0529
 7666WAT      O32468   6.484   3.639   8.080 -0.1889  0.0203  0.6440
 7666WAT     H132469   6.437   3.707   8.128  1.2069  0.8972  0.8334
 7666WAT     H232470   6.449   3.556   8.113 -0.7059  0.6338  1.6618
 7666WAT    EPW32471   6.473   3.637   8.090 -0.0730  0.2167  0.8030
 7667WAT      O32472   8.415  10.001   8.070 -0.7859  0.0160  0.1462
 7667WAT     H132473   8.427  10.071   8.135  0.0392  0.1954 -0.1868
 7667WAT     H232474   8.424   9.920   8.120  1.6852  0.1189  0.0147
 7667WAT    EPW32475   8.418  10.000   8.085 -0.3514  0.0534  0.0844
 7668WAT      O32476   0.090   1.469   7.080  0.6610  0.3182 -0.7033
 7668WAT     H132477   0.088   1.562   7.099 -0.8711 -0.0429  1.1582
 7668WAT     H232478   0.171   1.437   7.119  1.7238  1.0005 -2.2653
 7668WAT    EPW32479   0.100   1.477   7.088  0.5991  0.3605 -0.6638
 7669WAT      O32480   6.270   7.147   0.003 -0.0121  0.8640 -0.7024
 7669WAT     H132481   6.227   7.190   0.076  1.5312  0.7496  0.3319
 7669WAT     H232482   6.283   7.217  -0.061  1.0555  1.6317  0.2986
 7669WAT    EPW32483   6.266   7.162   0.004  0.3324  0.9503 -0.4334
 7670WAT      O32484   2.186   9.963   8.613  0.3501  0.3021 -0.0233
 7670WAT     H132485   2.249   9.892   8.604  0.7547  0.4300  1.4700
 7670WAT     H232486   2.145   9.971   8.527 -1.2589 -3.1908  0.2435
 7670WAT    EPW32487   2.189   9.955   8.600  0.1912 -0.1421  0.2093
 7671WAT      O32488   2.843   3.215   4.268 -0.0728 -0.9196 -0.0174
 7671WAT     H132489   2.868   3.235   4.177 -0.7626  0.6472  0.1134
 7671WAT     H232490   2.766   3.159   4.260  0.8285 -2.1505 -0.3881
 7671WAT    EPW32491   2.836   3.210   4.255 -0.0449 -0.8754 -0.0491
 7672WAT      O32492   0.403   3.728   7.626 -0.3938  0.3177  0.3377
 7672WAT     H132493   0.496   3.729   7.602 -0.3527 -0.9024  0.3801
 7672WAT     H232494   0.359   3.772   7.554  0.2921  1.6874  0.7189
 7672WAT    EPW32495   0.409   3.734   7.613 -0.2979  0.3374  0.3936
 7673WAT      O32496   2.493   2.434   8.369 -0.1639  0.3593  0.6708
 7673WAT     H132497   2.500   2.449   8.275  0.7855  1.7799  0.9333
 7673WAT     H232498   2.496   2.339   8.378  0.1954  0.2169 -0.7108
 7673WAT    EPW32499   2.495   2.424   8.358  0.0088  0.5279  0.5231
 7674WAT      O32500  10.171   7.860   2.533 -0.2173 -0.7643 -0.4095
 7674WAT     H132501  10.221   7.829   2.457 -0.1743 -2.0703  0.1300
 7674WAT     H232502  10.202   7.950   2.547  1.7792 -1.4248 -0.2891
 7674WAT    EPW32503  10.182   7.868   2.525  0.0515 -1.0240 -0.3226
 7675WAT      O32504   6.751   7.475   2.256  0.0688 -0.3485 -0.0121
 7675WAT     H132505   6.690   7.438   2.319  1.0406 -0.9290  0.6168
 7675WAT     H232506   6.817   7.406   2.243  1.5895  0.9079  0.7186
 7675WAT    EPW32507   6.752   7.461   2.262  0.3974 -0.2592  0.1673
 7676WAT      O32508  10.360   5.372   0.147  0.2983 -0.8053  0.1876
 7676WAT     H132509  10.273   5.403   0.123  1.2700  0.7823 -1.5481
 7676WAT     H232510  10.400   5.445   0.193  2.2329  0.3693 -3.0145
 7676WAT    EPW32511  10.354   5.385   0.150  0.6814 -0.4411 -0.4637
 7677WAT      O32512   3.117   4.096   7.876 -0.1865  0.0584  0.1573
 7677WAT     H132513   3.201   4.074   7.836 -0.6325  0.8479 -1.3204
 7677WAT     H232514   3.135   4.173   7.930 -0.1640  1.0372 -1.1873
 7677WAT    EPW32515   3.130   4.103   7.878 -0.2424  0.2918 -0.2148
 7678WAT      O32516   2.715   5.234   6.049  0.0909  0.1949 -0.5317
 7678WAT     H132517   2.789   5.279   6.009 -0.6372  1.6671 -0.3063
 7678WAT     H232518   2.699   5.158   5.992  0.0438  1.3809 -2.1793
 7678WAT    EPW32519   2.723   5.230   6.036 -0.0114  0.5455 -0.7193
 7679WAT      O32520   6.195   8.563   0.320 -0.1420 -0.3052  0.0973
 7679WAT     H132521   6.117   8.514   0.345  0.2508  0.5924  3.5935
 7679WAT     H232522   6.186   8.577   0.225 -4.3684  0.0882  0.4006
 7679WAT    EPW32523   6.184   8.559   0.310 -0.6478 -0.1345  0.5984
 7680WAT      O32524   2.923   2.037   4.781  0.0873  0.6645 -0.3129
 7680WAT     H132525   2.988   2.049   4.851 -0.8894  2.4200  0.3563
 7680WAT     H232526   2.855   1.983   4.821  0.7423 -0.5587 -0.7862
 7680WAT    EPW32527   2.922   2.032   4.796  0.0451  0.7348 -0.2871
 7681WAT      O32528   1.596   3.067   8.380 -0.0115 -0.3758  0.0276
 7681WAT     H132529   1.527   3.124   8.346  0.4850  0.4306  0.3552
 7681WAT     H232530   1.627   3.019   8.304 -1.4498 -1.3277 -0.0068
 7681WAT    EPW32531   1.591   3.068   8.366 -0.1357 -0.3951  0.0653
 7682WAT      O32532   3.417   4.424   5.663 -0.0806  0.6067  0.6169
 7682WAT     H132533   3.469   4.474   5.602  0.4168  2.0376  2.1394
 7682WAT     H232534   3.345   4.482   5.688 -0.6372 -0.1760  0.9080
 7682WAT    EPW32535   3.414   4.438   5.658 -0.0885  0.6921  0.8562
 7683WAT      O32536   1.777   4.464   3.757 -0.4382  0.0292 -0.3576
 7683WAT     H132537   1.774   4.538   3.817 -2.0430 -0.0309 -0.3164
 7683WAT     H232538   1.870   4.453   3.737  0.1627  0.0853  2.0695
 7683WAT    EPW32539   1.789   4.472   3.763 -0.5706  0.0288 -0.0321
 7684WAT      O32540   0.625   7.782   7.331 -0.0304 -0.5069  0.7221
 7684WAT     H132541   0.636   7.731   7.251 -3.8041 -1.0619  0.3807
 7684WAT     H232542   0.691   7.747   7.391  2.3615 -0.6254 -1.7839
 7684WAT    EPW32543   0.635   7.771   7.328 -0.2126 -0.5960  0.3467
 7685WAT      O32544   0.691   2.397   5.581 -0.4526  0.0362  0.2451
 7685WAT     H132545   0.602   2.381   5.614  0.2165 -0.0929  2.1663
 7685WAT     H232546   0.738   2.317   5.603  0.2048  0.2050 -0.5276
 7685WAT    EPW32547   0.685   2.384   5.589 -0.2777  0.0415  0.3965
 7686WAT      O32548   1.815   0.145   7.874 -0.0251 -0.5765 -0.1534
 7686WAT     H132549   1.768   0.082   7.928 -0.5380  0.8483  1.1467
 7686WAT     H232550   1.750   0.213   7.855  0.4194 -0.5643 -1.7910
 7686WAT    EPW32551   1.800   0.146   7.879 -0.0340 -0.3870 -0.1981
 7687WAT      O32552   7.677   7.282   2.647  0.2685 -0.0310  0.3531
 7687WAT     H132553   7.643   7.282   2.557  0.1945 -2.4934  0.3035
 7687WAT     H232554   7.605   7.317   2.700  0.8300  2.8379 -0.6432
 7687WAT    EPW32555   7.663   7.287   2.642  0.3328  0.0224  0.2152
 7688WAT      O32556   2.059   5.589   8.926 -0.1772  0.0530 -0.7311
 7688WAT     H132557   2.034   5.674   8.962 -0.4985 -1.0514  1.8710
 7688WAT     H232558   1.992   5.570   8.861 -2.1954  0.2896  1.1417
 7688WAT    EPW32559   2.047   5.597   8.922 -0.4854 -0.0614 -0.1409
 7689WAT      O32560   3.249   1.482   8.135  0.4748 -0.0576 -0.1021
 7689WAT     H132561   3.187   1.458   8.203  0.5578 -1.1184 -0.3737
 7689WAT     H232562   3.198   1.532   8.072  0.4379  1.0874  0.8073
 7689WAT    EPW32563   3.234   1.485   8.136  0.4808 -0.0466 -0.0181
 7690WAT      O32564   4.111   5.109   0.403  0.7382  0.3480 -0.3283
 7690WAT     H132565   4.015   5.111   0.404  0.6869 -0.5545 -1.3092
 7690WAT     H232566   4.134   5.033   0.457  0.7974 -0.6335 -1.6720
 7690WAT    EPW32567   4.101   5.099   0.410  0.7393  0.0994 -0.6349
 7691WAT      O32568   4.033   1.926   6.817 -0.3420 -0.1582  0.9276
 7691WAT     H132569   3.970   1.997   6.826  1.0340  1.3054 -0.3676
 7691WAT     H232570   4.105   1.950   6.875  0.8389  0.3924 -0.6897
 7691WAT    EPW32571   4.034   1.938   6.826 -0.0045  0.1075  0.5434
 7692WAT      O32572   3.212   5.799   5.947 -0.8555 -0.2223 -0.0255
 7692WAT     H132573   3.265   5.764   6.019 -0.2449  0.9193  0.1078
 7692WAT     H232574   3.242   5.889   5.938 -1.7665 -0.0009 -0.9342
 7692WAT    EPW32575   3.223   5.806   5.956 -0.8950 -0.0424 -0.1276
 7693WAT      O32576   2.916   3.079   6.875  0.3602  0.3519  0.2807
 7693WAT     H132577   2.870   3.161   6.894 -0.2669  0.4689 -1.5880
 7693WAT     H232578   2.853   3.010   6.895 -0.0770  0.4505 -0.7092
 7693WAT    EPW32579   2.902   3.081   6.880  0.2198  0.3804 -0.0961
 7694WAT      O32580   8.105   9.565   3.488 -0.2698 -0.3716 -0.2711
 7694WAT     H132581   8.074   9.651   3.460 -1.1952 -0.2074  1.1944
 7694WAT     H232582   8.150   9.582   3.571 -0.4648 -1.3067  0.0298
 7694WAT    EPW32583   8.107   9.579   3.495 -0.4177 -0.4730 -0.0381
 7695WAT      O32584   2.049   2.058   8.201  0.0136  0.3877 -0.3794
 7695WAT     H132585   2.079   1.973   8.167  1.9230  0.2974  1.4047
 7695WAT     H232586   1.988   2.035   8.272  1.9431  0.4066  1.3577
 7695WAT    EPW32587   2.045   2.043   8.206  0.5199  0.3783  0.0858
 7696WAT      O32588   8.216   9.595   5.896  0.1038 -0.4013 -0.0877
 7696WAT     H132589   8.310   9.596   5.883  0.2549 -1.5633  0.7063
 7696WAT     H232590   8.202   9.649   5.975  0.2161 -1.0004  0.3470
 7696WAT    EPW32591   8.226   9.602   5.905  0.1378 -0.6332  0.0744
 7697WAT      O32592   0.447  10.343   5.208 -0.1476 -0.3456  0.0004
 7697WAT     H132593   0.408  10.427   5.232  0.2353 -0.0440 -0.4187
 7697WAT     H232594   0.539  10.352   5.233  0.0080 -0.4454 -0.5322
 7697WAT    EPW32595   0.454  10.356   5.215 -0.0765 -0.3190 -0.1249
 7698WAT      O32596   3.632   2.949   6.502  0.4851  0.4001 -1.0559
 7698WAT     H132597   3.636   2.868   6.450  0.8836 -0.8020  0.7677
 7698WAT     H232598   3.721   2.983   6.500  0.4280  0.5321 -1.4140
 7698WAT    EPW32599   3.644   2.943   6.495  0.5301  0.2589 -0.8626
 7699WAT      O32600   4.568   2.285   6.696 -0.9050  0.6277 -0.1070
 7699WAT     H132601   4.519   2.220   6.745  0.3271 -1.3861 -1.4311
 7699WAT     H232602   4.512   2.307   6.621 -0.7600  0.0619 -0.3836
 7699WAT    EPW32603   4.554   2.280   6.693 -0.7234  0.2874 -0.3181
 7700WAT      O32604   7.605   5.376   0.995 -0.5298  0.1819 -0.6101
 7700WAT     H132605   7.585   5.301   0.938 -1.4597 -0.0369 -0.0176
 7700WAT     H232606   7.520   5.413   1.016 -0.4328 -0.9766  2.2695
 7700WAT    EPW32607   7.591   5.371   0.990 -0.6394  0.0002 -0.1522
 7701WAT      O32608   6.376   8.756   1.064 -0.0045  0.4637 -0.8348
 7701WAT     H132609   6.367   8.661   1.054  2.4117 -0.1563  1.6123
 7701WAT     H232610   6.463   8.776   1.029  0.4029  1.3522  0.5695
 7701WAT    EPW32611   6.386   8.746   1.058  0.3681  0.4992 -0.3268
 7702WAT      O32612   6.555   4.628   8.853 -0.1650  0.2597  0.4970
 7702WAT     H132613   6.557   4.633   8.757  1.2158 -0.9694  0.4245
 7702WAT     H232614   6.511   4.709   8.880 -2.8097 -0.4816 -1.2332
 7702WAT    EPW32615   6.550   4.640   8.844 -0.3319 -0.0002  0.2589
 7703WAT      O32616   7.289   8.970   1.056  0.1075  0.8535  0.3363
 7703WAT     H132617   7.195   8.974   1.043  0.2076 -0.5076 -1.1062
 7703WAT     H232618   7.304   9.017   1.138 -1.8403  0.8100  0.7593
 7703WAT    EPW32619   7.279   8.977   1.065 -0.1359  0.6685  0.2019
 7704WAT      O32620   6.152   3.857   8.424  0.2917 -0.1998 -0.0560
 7704WAT     H132621   6.128   3.949   8.434 -2.2963 -0.8845  0.9780
 7704WAT     H232622   6.172   3.828   8.513  1.6706 -0.5206 -0.4545
 7704WAT    EPW32623   6.151   3.865   8.437  0.1323 -0.3324  0.0281
 7705WAT      O32624   4.476   6.337   8.637 -0.0735  0.0869 -0.4791
 7705WAT     H132625   4.429   6.387   8.570 -0.2116  1.6613  0.7369
 7705WAT     H232626   4.406   6.302   8.693  0.1008  0.2994 -0.1269
 7705WAT    EPW32627   4.460   6.339   8.635 -0.0691  0.3228 -0.2723
 7706WAT      O32628   7.608   2.136   8.100  0.5862  0.0498 -0.0935
 7706WAT     H132629   7.539   2.070   8.098  0.8819 -0.3174  0.9101
 7706WAT     H232630   7.635   2.139   8.192  1.1861  0.9359 -0.2868
 7706WAT    EPW32631   7.602   2.128   8.112  0.7041  0.1183  0.0138
 7707WAT      O32632   3.637   0.367   8.438  0.9569 -0.0754 -0.4752
 7707WAT     H132633   3.576   0.384   8.367  0.1981  0.9039  0.3806
 7707WAT     H232634   3.619   0.435   8.503  2.3706 -0.2838  0.1897
 7707WAT    EPW32635   3.627   0.378   8.437  1.0433  0.0263 -0.2747
 7708WAT      O32636   9.734   9.140   0.212  0.1283  0.6733 -0.1701
 7708WAT     H132637   9.805   9.134   0.148 -0.2192  0.6242 -0.5560
 7708WAT     H232638   9.689   9.222   0.190  0.4216  1.0087  0.4501
 7708WAT    EPW32639   9.737   9.150   0.201  0.1206  0.7114 -0.1392
 7709WAT      O32640   2.343   1.254   0.346  0.1881  0.4530  0.4258
 7709WAT     H132641   2.250   1.252   0.368 -0.0487 -2.4498 -0.5044
 7709WAT     H232642   2.348   1.309   0.267 -0.8954 -0.2536 -0.1516
 7709WAT    EPW32643   2.331   1.261   0.339  0.0139 -0.0231  0.2270
 7710WAT      O32644   3.235   1.522   0.789 -0.0462 -0.2118  0.3393
 7710WAT     H132645   3.230   1.601   0.843  1.5684 -0.2591  0.6219
 7710WAT     H232646   3.201   1.549   0.704  0.3577  0.7520  0.4725
 7710WAT    EPW32647   3.230   1.536   0.785  0.2201 -0.0910  0.3942
 7711WAT      O32648  10.167   7.465   0.433 -0.1744  0.4174 -0.0717
 7711WAT     H132649  10.169   7.540   0.373  1.1481  0.0504 -0.5340
 7711WAT     H232650  10.222   7.400   0.390 -2.3679 -1.3681 -0.3422
 7711WAT    EPW32651  10.175   7.466   0.419 -0.2890  0.1335 -0.1684
 7712WAT      O32652   0.571   1.599   8.333  0.5102 -0.4534  0.6495
 7712WAT     H132653   0.658   1.566   8.356  0.5115 -0.1033  1.1773
 7712WAT     H232654   0.582   1.694   8.329  0.0590 -0.3709  1.1825
 7712WAT    EPW32655   0.584   1.607   8.336  0.4509 -0.3964  0.7896
 7713WAT      O32656   7.950   8.254   1.600  0.0877 -0.2744  0.1689
 7713WAT     H132657   8.003   8.216   1.530  0.6099 -1.9002  1.3665
 7713WAT     H232658   7.884   8.187   1.619 -0.3581  0.3465  0.8845
 7713WAT    EPW32659   7.949   8.240   1.593  0.0978 -0.4067  0.4213
 7714WAT      O32660   7.671   3.633   8.155  0.4070 -0.3180 -0.5464
 7714WAT     H132661   7.670   3.607   8.248  0.3618 -0.8045 -0.6799
 7714WAT     H232662   7.753   3.681   8.145  1.0832 -1.4324 -0.5571
 7714WAT    EPW32663   7.681   3.636   8.166  0.4902 -0.5291 -0.5655
 7715WAT      O32664   3.977   2.044   7.599 -0.4823 -0.4423 -0.6099
 7715WAT     H132665   3.961   1.994   7.520 -0.8473  0.2930 -1.0167
 7715WAT     H232666   3.917   2.119   7.592  0.2130  0.1726 -0.1455
 7715WAT    EPW32667   3.967   2.048   7.588 -0.4387 -0.2643 -0.6025
 7716WAT      O32668   9.703   8.697   2.840 -0.0327  0.1746 -1.0512
 7716WAT     H132669   9.693   8.722   2.748  0.3388  0.1076 -1.1112
 7716WAT     H232670   9.704   8.779   2.888 -2.1900  0.1791 -0.8866
 7716WAT    EPW32671   9.702   8.711   2.834 -0.2680  0.1659 -1.0375
 7717WAT      O32672  10.297   6.423   1.068  0.5582  0.5573 -0.2037
 7717WAT     H132673  10.391   6.403   1.074  0.7294  1.3717 -0.0987
 7717WAT     H232674  10.290   6.481   0.992  0.4781  2.3932  1.1462
 7717WAT    EPW32675  10.309   6.428   1.058  0.5698  0.9072 -0.0118
 7718WAT      O32676   3.755   9.143   5.416 -0.4080  0.2945 -0.3648
 7718WAT     H132677   3.752   9.060   5.369  0.8385 -0.7950  1.3573
 7718WAT     H232678   3.800   9.203   5.357 -2.5335  0.2085 -2.2002
 7718WAT    EPW32679   3.760   9.140   5.402 -0.5239  0.1392 -0.3800
 7719WAT      O32680   8.996   8.898   2.940  0.7369  0.3628  0.0650
 7719WAT     H132681   8.912   8.853   2.939  0.2610  1.0644  2.1754
 7719WAT     H232682   8.984   8.973   2.882 -0.8456  1.5896  1.8593
 7719WAT    EPW32683   8.984   8.902   2.932  0.4654  0.6175  0.5800
 7720WAT      O32684   3.264   2.436   4.323 -0.3189  0.4269 -0.7073
 7720WAT     H132685   3.248   2.343   4.304  1.0820  0.4012 -1.9814
 7720WAT     H232686   3.178   2.477   4.319 -1.2529 -1.0825  1.7399
 7720WAT    EPW32687   3.250   2.429   4.320 -0.2573  0.2244 -0.5527
 7721WAT      O32688   8.439   6.173   0.893  0.5736  0.4210 -0.3192
 7721WAT     H132689   8.451   6.245   0.955  1.2166  0.5254 -0.5615
 7721WAT     H232690   8.512   6.114   0.910 -0.3688 -0.5695  0.3954
 7721WAT    EPW32691   8.450   6.175   0.904  0.5341  0.3042 -0.2569
 7722WAT      O32692   4.918   5.528   8.744  0.1020 -0.1093 -0.5585
 7722WAT     H132693   4.905   5.535   8.839  1.3689 -1.6303 -0.2130
 7722WAT     H232694   4.873   5.446   8.720  0.1202  0.0638 -1.2004
 7722WAT    EPW32695   4.910   5.518   8.753  0.2713 -0.2871 -0.5980
 7723WAT      O32696  10.044   8.001   0.894  0.5497  0.2386  0.1340
 7723WAT     H132697   9.966   8.057   0.885  0.4708 -0.0059 -0.7775
 7723WAT     H232698  10.049   7.954   0.811  0.6722 -1.0465  0.8511
 7723WAT    EPW32699  10.034   8.002   0.882  0.5550  0.0372  0.1083
 7724WAT      O32700   1.069   4.955   7.484 -0.2343 -0.1275  0.6999
 7724WAT     H132701   1.125   5.006   7.425 -2.8886  0.3004 -1.6809
 7724WAT     H232702   1.009   5.019   7.522 -0.5159 -0.8392  1.4994
 7724WAT    EPW32703   1.068   4.970   7.481 -0.6215 -0.1647  0.4911
 7725WAT      O32704   4.362   1.422   5.540 -0.3286 -0.4090 -0.4661
 7725WAT     H132705   4.303   1.454   5.472 -1.1840 -1.5815 -0.3158
 7725WAT     H232706   4.348   1.327   5.540  1.3808 -0.6899 -0.2502
 7725WAT    EPW32707   4.352   1.414   5.531 -0.2162 -0.6007 -0.4179
 7726WAT      O32708   3.005   2.998   4.432 -0.6168  0.3037 -1.4766
 7726WAT     H132709   3.010   3.089   4.401  1.9125  0.3394 -1.1348
 7726WAT     H232710   3.089   2.983   4.475 -1.1017 -2.1405 -1.2695
 7726WAT    EPW32711   3.017   3.008   4.434 -0.3473 -0.0139 -1.4040
 7727WAT      O32712   1.469   2.920   7.355 -0.2642  0.9146 -0.0323
 7727WAT     H132713   1.498   2.979   7.425 -0.9324  2.0818 -0.7076
 7727WAT     H232714   1.550   2.897   7.308  0.1083  0.5956  0.7516
 7727WAT    EPW32715   1.484   2.925   7.358 -0.3033  1.0266 -0.0181
 7728WAT      O32716   4.564   5.692   8.121  0.0367 -0.7348 -0.4935
 7728WAT     H132717   4.582   5.726   8.033 -1.1292  0.7637 -0.1985
 7728WAT     H232718   4.610   5.752   8.180 -0.8434 -0.5109 -0.0122
 7728WAT    EPW32719   4.572   5.704   8.117 -0.2332 -0.5076 -0.3905
 7729WAT      O32720   4.249   4.284   7.614  0.9417 -0.6345  0.5479
 7729WAT     H132721   4.254   4.331   7.531 -0.4571  0.2756  0.9467
 7729WAT     H232722   4.196   4.206   7.595  1.7939 -1.1606  0.2855
 7729WAT    EPW32723   4.243   4.280   7.601  0.8698 -0.5839  0.5660
 7730WAT      O32724   3.118   6.025   1.417  0.4437 -0.1528 -0.4091
 7730WAT     H132725   3.115   5.930   1.406 -2.7052 -0.0485 -1.4024
 7730WAT     H232726   3.052   6.043   1.484  1.3817  1.3039  0.1576
 7730WAT    EPW32727   3.109   6.015   1.424  0.1521  0.0529 -0.4654
 7731WAT      O32728   1.897   4.559   8.317  0.0562 -0.0381  0.6601
 7731WAT     H132729   1.910   4.585   8.408 -3.2493  0.6678  1.0503
 7731WAT     H232730   1.923   4.466   8.315  1.0624  0.1825  2.0660
 7731WAT    EPW32731   1.902   4.550   8.329 -0.2471  0.0844  0.8969
 7732WAT      O32732   4.608   2.708   7.999  0.4951 -0.1833 -0.0389
 7732WAT     H132733   4.519   2.724   8.029  1.3922  3.0353  1.3096
 7732WAT     H232734   4.648   2.655   8.068  1.7170  4.8439  3.6779
 7732WAT    EPW32735   4.602   2.703   8.012  0.7746  0.9042  0.6294
 7733WAT      O32736   6.163   4.371   8.010 -0.7541  0.2648 -0.0679
 7733WAT     H132737   6.258   4.384   8.003 -0.9302  1.5921 -0.3203
 7733WAT     H232738   6.152   4.276   8.010  0.5818  0.0859  0.0954
 7733WAT    EPW32739   6.174   4.360   8.009 -0.6011  0.4160 -0.0796
 7734WAT      O32740   3.527   5.443   5.417 -0.2146 -0.0593 -0.5020
 7734WAT     H132741   3.457   5.402   5.366 -0.2946  0.5409 -0.8925
 7734WAT     H232742   3.490   5.454   5.504  0.5737 -2.8422  0.2758
 7734WAT    EPW32743   3.513   5.439   5.422 -0.1210 -0.3474 -0.4511
 7735WAT      O32744   8.853   7.694   1.872 -0.4072 -0.1216 -0.7930
 7735WAT     H132745   8.796   7.729   1.803 -1.8638  0.5854  0.6970
 7735WAT     H232746   8.850   7.760   1.941 -0.3239 -1.5708  0.6449
 7735WAT    EPW32747   8.845   7.708   1.872 -0.5884 -0.2193 -0.4068
 7736WAT      O32748   4.312   9.814   0.025 -0.4528 -0.1507  0.5951
 7736WAT     H132749   4.276   9.890   0.071  1.5644 -0.4936  2.8990
 7736WAT     H232750   4.249   9.744   0.042 -2.3571  0.8826 -1.5910
 7736WAT    EPW32751   4.299   9.815   0.033 -0.4377 -0.0596  0.6107
 7737WAT      O32752   2.085   2.154   7.842 -0.0305  0.0021  0.1675
 7737WAT     H132753   2.174   2.187   7.857  0.4112 -1.4463  0.9708
 7737WAT     H232754   2.090   2.114   7.755 -0.0956  0.5559 -0.0918
 7737WAT    EPW32755   2.098   2.153   7.832  0.0192 -0.1160  0.2391
 7738WAT      O32756   3.541   1.243   7.930 -0.1343  0.5654 -0.0112
 7738WAT     H132757   3.499   1.326   7.904  1.1309  1.6616  1.2720
 7738WAT     H232758   3.608   1.269   7.993 -0.6387 -1.6106  1.5141
 7738WAT    EPW32759   3.544   1.258   7.935 -0.0340  0.4230  0.3593
 7739WAT      O32760  10.163   9.358   0.513  0.3059 -0.2354  0.2128
 7739WAT     H132761  10.104   9.292   0.550  0.7402 -1.1053 -0.6072
 7739WAT     H232762  10.124   9.379   0.428  1.7829 -1.7621 -0.9274
 7739WAT    EPW32763  10.150   9.352   0.506  0.5584 -0.5512 -0.0457
 7740WAT      O32764   4.589   3.015   6.335  0.7776  0.0021  0.1412
 7740WAT     H132765   4.613   3.086   6.276  0.3735  0.0218  0.0007
 7740WAT     H232766   4.557   3.059   6.414  0.1516 -0.0171 -0.0955
 7740WAT    EPW32767   4.588   3.030   6.338  0.6418  0.0021  0.0916
 7741WAT      O32768   7.395   2.186   6.699 -0.4294 -0.3258  0.5070
 7741WAT     H132769   7.426   2.258   6.754 -1.3258  0.4103  0.0805
 7741WAT     H232770   7.451   2.188   6.622 -2.6557  2.3399 -1.2526
 7741WAT    EPW32771   7.406   2.196   6.696 -0.8411  0.1228  0.2186
 7742WAT      O32772   9.748   6.610   8.962 -0.1866  0.4071 -0.4007
 7742WAT     H132773   9.811   6.588   9.030 -1.2504 -0.5913  0.2855
 7742WAT     H232774   9.669   6.562   8.985 -1.1588  1.4817 -1.3487
 7742WAT    EPW32775   9.746   6.600   8.974 -0.4549  0.4168 -0.4354
 7743WAT      O32776   6.223   4.094   7.415 -0.3317  0.1351 -0.1670
 7743WAT     H132777   6.148   4.039   7.439 -0.7915  1.9571  3.0396
 7743WAT     H232778   6.183   4.173   7.379  0.2392 -0.1151 -1.4295
 7743WAT    EPW32779   6.208   4.097   7.413 -0.3169  0.3421  0.0892
 7744WAT      O32780   4.711   5.092   8.890  0.4824  0.0281  0.3858
 7744WAT     H132781   4.787   5.075   8.946  0.2523  2.3058  1.5301
 7744WAT     H232782   4.636   5.083   8.949 -0.0438 -0.7526 -0.3780
 7744WAT    EPW32783   4.711   5.089   8.905  0.3829  0.2255  0.4354
 7745WAT      O32784   6.938   8.272   1.054 -0.4885 -0.3132 -0.4227
 7745WAT     H132785   6.926   8.189   1.100 -2.4405  1.0129  1.6827
 7745WAT     H232786   6.950   8.336   1.124 -3.1216  1.7609 -1.6956
 7745WAT    EPW32787   6.938   8.269   1.070 -1.0934  0.1345 -0.3129
 7746WAT      O32788   0.708   5.500   8.771  0.0425 -0.0099 -0.0657
 7746WAT     H132789   0.684   5.547   8.851 -1.1497  0.0049 -0.4005
 7746WAT     H232790   0.641   5.526   8.707  0.1474 -1.0999 -0.6560
 7746WAT    EPW32791   0.696   5.509   8.773 -0.1009 -0.1519 -0.1879
 7747WAT      O32792   6.834   4.727   8.277 -0.0110  0.0780  0.2109
 7747WAT     H132793   6.833   4.791   8.205  0.9650 -0.9009 -0.7200
 7747WAT     H232794   6.831   4.642   8.233  3.3068 -0.6585  1.0958
 7747WAT    EPW32795   6.833   4.724   8.262  0.5550 -0.1485  0.2050
 7748WAT      O32796   5.011   2.821   6.994  0.2292  0.3894 -0.5483
 7748WAT     H132797   4.968   2.745   7.034  0.1950  1.9984  2.8947
 7748WAT     H232798   5.096   2.826   7.039  0.4416  2.0611 -1.0733
 7748WAT    EPW32799   5.017   2.812   7.005  0.2525  0.8221 -0.1633
 7749WAT      O32800   4.458   4.752   7.875  0.6717  0.2131  0.1888
 7749WAT     H132801   4.539   4.707   7.898  0.6015  0.2536  0.5245
 7749WAT     H232802   4.390   4.684   7.878  0.8276 -0.0056 -0.9562
 7749WAT    EPW32803   4.459   4.737   7.878  0.6828  0.1893  0.0820
 7750WAT      O32804   8.032   9.209   1.033 -0.3442  0.3042  0.1367
 7750WAT     H132805   8.017   9.129   0.983  1.7046 -0.0225 -0.0543
 7750WAT     H232806   8.055   9.275   0.968  0.7167  0.3010  0.4878
 7750WAT    EPW32807   8.033   9.207   1.018  0.0658  0.2608  0.1578
 7751WAT      O32808   1.420   0.757   7.443 -0.0533  0.4385  0.4851
 7751WAT     H132809   1.360   0.700   7.396  0.8912  0.5092 -0.8568
 7751WAT     H232810   1.433   0.713   7.528  0.7328 -1.4453 -0.5389
 7751WAT    EPW32811   1.414   0.743   7.448  0.1750  0.1993  0.1731
 7752WAT      O32812   5.980   7.739   1.135  0.3337  0.7336  0.2888
 7752WAT     H132813   5.906   7.710   1.188  0.3340 -1.5637 -0.8378
 7752WAT     H232814   6.014   7.815   1.181 -0.0985 -0.6969  3.1929
 7752WAT    EPW32815   5.975   7.745   1.148  0.2768  0.2420  0.5233
 7753WAT      O32816   7.168   7.482   1.551 -0.3127 -0.3772 -0.0721
 7753WAT     H132817   7.157   7.406   1.607  0.9671 -0.6967 -0.2233
 7753WAT     H232818   7.097   7.475   1.487  0.5849 -2.2488 -0.9461
 7753WAT    EPW32819   7.157   7.471   1.550 -0.0255 -0.6664 -0.2074
 7754WAT      O32820  10.752   5.808   8.627 -0.4585 -0.1493 -1.2757
 7754WAT     H132821  10.826   5.800   8.688  0.2520  0.8132 -1.9857
 7754WAT     H232822  10.711   5.891   8.650 -0.7729 -0.2442 -1.4890
 7754WAT    EPW32823  10.757   5.818   8.638 -0.4063 -0.0350 -1.3971
 7755WAT      O32824   6.349   0.879   7.007 -0.3672  0.0007 -0.4782
 7755WAT     H132825   6.318   0.792   6.981 -1.0185 -0.1685  0.7602
 7755WAT     H232826   6.411   0.861   7.078  0.1803  0.5046 -0.8234
 7755WAT    EPW32827   6.353   0.865   7.013 -0.3810  0.0449 -0.3603
 7756WAT      O32828   7.660   9.880   0.492  0.2677  0.1178  0.4814
 7756WAT     H132829   7.745   9.836   0.493  0.0102 -0.3915  1.4906
 7756WAT     H232830   7.598   9.811   0.468 -0.0692  0.0620  1.4898
 7756WAT    EPW32831   7.663   9.865   0.489  0.1895  0.0429  0.7475
 7757WAT      O32832   5.951   3.311   8.405 -0.3873 -0.1085  0.2508
 7757WAT     H132833   5.858   3.335   8.411 -0.4565 -0.5239  0.9267
 7757WAT     H232834   5.996   3.395   8.390 -1.1239 -0.2126 -3.8338
 7757WAT    EPW32835   5.945   3.325   8.404 -0.4938 -0.1770 -0.1988
 7758WAT      O32836   7.169   8.121   0.238 -0.4902  0.3025 -0.9931
 7758WAT     H132837   7.226   8.163   0.302 -1.1116 -1.5884  0.9335
 7758WAT     H232838   7.153   8.188   0.172  1.3962  1.8684  0.0292
 7758WAT    EPW32839   7.175   8.135   0.238 -0.3235  0.2604 -0.6042
 7759WAT      O32840   1.183  10.221   0.457 -0.1749 -0.3101  0.4920
 7759WAT     H132841   1.161  10.224   0.550 -0.4798 -0.4122  0.4219
 7759WAT     H232842   1.102  10.246   0.412  0.0613  0.0650  0.2655
 7759WAT    EPW32843   1.170  10.225   0.464 -0.1839 -0.2737  0.4528
 7760WAT      O32844   0.056   1.329   6.573  0.7818  1.0513  0.2580
 7760WAT     H132845  -0.030   1.294   6.596  2.3120 -2.0594  1.9292
 7760WAT     H232846   0.068   1.404   6.632  0.3447 -0.3231  2.1695
 7760WAT    EPW32847   0.047   1.334   6.584  0.9260  0.4598  0.7305
 7761WAT      O32848   1.124   1.160   7.098 -0.4475 -0.1972 -0.7210
 7761WAT     H132849   1.101   1.067   7.107 -0.3951 -0.1292  0.1938
 7761WAT     H232850   1.167   1.182   7.180 -2.4732  1.2111  0.0529
 7761WAT    EPW32851   1.126   1.151   7.110 -0.7077 -0.0025 -0.4983
 7762WAT      O32852   6.890   9.157   0.033  0.5574 -0.4515 -0.4118
 7762WAT     H132853   6.847   9.071   0.032 -0.5903  0.1020 -0.4599
 7762WAT     H232854   6.981   9.138   0.057  0.7419 -1.8559 -2.0657
 7762WAT    EPW32855   6.896   9.143   0.036  0.4306 -0.5636 -0.6363
 7763WAT      O32856  10.947   9.647   0.496 -0.1071 -0.0285  0.1090
 7763WAT     H132857  10.864   9.672   0.536 -0.8759 -2.2482  0.0378
 7763WAT     H232858  11.012   9.702   0.538 -1.2212 -0.4775  2.5651
 7763WAT    EPW32859  10.945   9.657   0.506 -0.3552 -0.3805  0.4236
 7764WAT      O32860   2.703   7.658   1.100 -1.1251 -0.6195  0.4319
 7764WAT     H132861   2.794   7.627   1.095  0.0018  2.1346  1.6727
 7764WAT     H232862   2.700   7.709   1.181 -2.1627  3.8629 -2.0827
 7764WAT    EPW32863   2.715   7.661   1.110 -1.1134  0.3347  0.2639
 7765WAT      O32864   0.772   1.222   2.625  0.2018  1.0278 -0.4341
 7765WAT     H132865   0.802   1.285   2.689 -1.2898  1.2703  0.0776
 7765WAT     H232866   0.700   1.266   2.580 -0.5899 -0.1353 -0.3637
 7765WAT    EPW32867   0.766   1.236   2.627 -0.0994  0.9064 -0.3573
 7766WAT      O32868   4.644   1.969   8.615  0.1120 -0.0790 -0.5283
 7766WAT     H132869   4.724   1.917   8.624  1.9198  2.4373 -0.8719
 7766WAT     H232870   4.629   1.974   8.520 -1.1231 -1.3806 -0.4412
 7766WAT    EPW32871   4.653   1.963   8.604  0.1874  0.0812 -0.5622
 7767WAT      O32872   7.446   8.444   0.445  0.6557 -0.0964 -0.4722
 7767WAT     H132873   7.483   8.526   0.477 -0.9571  0.4201  0.1773
 7767WAT     H232874   7.424   8.463   0.353  0.0657  0.2962 -0.2575
 7767WAT    EPW32875   7.448   8.458   0.437  0.3653  0.0238 -0.3582
 7768WAT      O32876   2.640   2.039   7.279  0.1365  0.0987  0.1531
 7768WAT     H132877   2.652   2.118   7.226  0.3427  0.5654  0.8843
 7768WAT     H232878   2.589   1.980   7.223 -1.4416  1.3612  0.2092
 7768WAT    EPW32879   2.635   2.042   7.264 -0.0445  0.3268  0.2570
 7769WAT      O32880  10.374   8.664   6.637 -0.0870 -0.0583  0.0689
 7769WAT     H132881  10.452   8.623   6.675  0.6440 -0.3989 -1.6706
 7769WAT     H232882  10.314   8.674   6.710  2.1846  1.7659  1.8504
 7769WAT    EPW32883  10.376   8.660   6.652  0.3095  0.1373  0.0744
 7770WAT      O32884   5.496   0.850   8.619 -1.0373 -0.1964 -0.5508
 7770WAT     H132885   5.455   0.824   8.537 -0.3264  1.3840 -1.4532
 7770WAT     H232886   5.490   0.772   8.674 -2.4766 -0.9641 -1.7073
 7770WAT    EPW32887   5.490   0.836   8.615 -1.1334 -0.0893 -0.8221
 7771WAT      O32888   0.856   8.778   1.034  0.6932 -0.3170 -0.0262
 7771WAT     H132889   0.822   8.740   1.115  0.6758 -0.0630  0.0873
 7771WAT     H232890   0.934   8.826   1.062  0.0504  0.7191  0.0255
 7771WAT    EPW32891   0.862   8.779   1.048  0.6061 -0.1469 -0.0044
 7772WAT      O32892   2.503   6.631   8.238  0.1553 -0.4647  0.2150
 7772WAT     H132893   2.526   6.718   8.269  1.9728 -1.0421  0.6054
 7772WAT     H232894   2.408   6.627   8.248 -0.1984  2.0371 -1.3952
 7772WAT    EPW32895   2.493   6.642   8.244  0.3483 -0.2108  0.0539
 7773WAT      O32896  10.873   9.008   1.289 -0.3310  0.1226  0.4306
 7773WAT     H132897  10.898   9.019   1.381 -1.5600 -0.0040  0.8007
 7773WAT     H232898  10.817   9.083   1.271  1.1626  1.0031 -0.7032
 7773WAT    EPW32899  10.868   9.019   1.299 -0.2961  0.2217  0.3299
 7774WAT      O32900   1.529   1.883   5.074  0.2145  0.5266  0.0357
 7774WAT     H132901   1.537   1.841   5.159  0.1774  0.3716 -0.0351
 7774WAT     H232902   1.561   1.972   5.087 -1.1379  0.9638  0.5686
 7774WAT    EPW32903   1.534   1.889   5.087  0.0312  0.5637  0.0966
 7775WAT      O32904   6.336   0.520   7.367  0.3758  0.5608 -0.3016
 7775WAT     H132905   6.400   0.584   7.398  1.6836 -1.6381  1.8641
 7775WAT     H232906   6.256   0.543   7.413  0.9623  0.3752  0.8436
 7775WAT    EPW32907   6.334   0.532   7.377  0.6254  0.2463  0.1349
 7776WAT      O32908   1.785   0.551   0.641  0.3447 -1.0156 -0.4050
 7776WAT     H132909   1.773   0.622   0.578 -0.7399 -0.0981  0.7830
 7776WAT     H232910   1.862   0.577   0.693 -1.2279  0.4110  1.3696
 7776WAT    EPW32911   1.794   0.564   0.640 -0.0058 -0.7064 -0.0142
 7777WAT      O32912   5.134   9.217   0.121 -0.2125 -0.4341 -0.5566
 7777WAT     H132913   5.062   9.279   0.106 -0.0960  0.5490  2.4047
 7777WAT     H232914   5.113   9.143   0.064 -2.2174  0.8492 -1.6364
 7777WAT    EPW32915   5.122   9.215   0.111 -0.4613 -0.1349 -0.3085
 7778WAT      O32916  10.852   1.817   0.247 -0.8768 -0.2787 -0.0717
 7778WAT     H132917  10.845   1.784   0.158 -0.3933  1.4617 -0.7908
 7778WAT     H232918  10.856   1.738   0.302 -1.4087 -1.3702 -1.5434
 7778WAT    EPW32919  10.851   1.802   0.243 -0.8836 -0.1931 -0.3606
 7779WAT      O32920   2.468   3.771   7.621  0.7216 -0.5544 -0.3946
 7779WAT     H132921   2.484   3.853   7.573 -0.8388 -0.8380 -1.4629
 7779WAT     H232922   2.378   3.777   7.651  1.0782 -1.2308  0.8741
 7779WAT    EPW32923   2.459   3.783   7.618  0.5628 -0.6810 -0.3681
 7780WAT      O32924   2.849   4.688   8.444  0.7804 -0.6805  0.0608
 7780WAT     H132925   2.816   4.771   8.410  0.0946 -1.4802 -1.3205
 7780WAT     H232926   2.787   4.664   8.513  0.4545 -0.4810 -0.1585
 7780WAT    EPW32927   2.836   4.696   8.449  0.6469 -0.7596 -0.1507
 7781WAT      O32928   9.977   9.110   1.021 -0.5988  0.3760  0.0648
 7781WAT     H132929   9.906   9.054   0.993  0.9308 -2.2617  1.1029
 7781WAT     H232930   9.963   9.123   1.114  0.9364 -1.3761  0.6041
 7781WAT    EPW32931   9.966   9.104   1.029 -0.1945 -0.2027  0.2729
 7782WAT      O32932   7.455   4.450   8.654 -0.4281 -0.4811 -0.4790
 7782WAT     H132933   7.432   4.542   8.667  1.6026 -0.0970  0.7220
 7782WAT     H232934   7.379   4.413   8.610 -2.2974  1.2019  1.1457
 7782WAT    EPW32935   7.442   4.457   8.650 -0.4067 -0.2084 -0.1063
 7783WAT      O32936   7.168   5.518   8.867 -0.1024  0.5821 -0.2551
 7783WAT     H132937   7.215   5.438   8.891  0.1321  1.5082  2.7349
 7783WAT     H232938   7.081   5.488   8.842 -0.2786 -0.5826  1.6251
 7783WAT    EPW32939   7.163   5.504   8.867 -0.0949  0.5505  0.3872
 7784WAT      O32940   1.573   3.166   7.007 -0.0525  0.0358 -0.7388
 7784WAT     H132941   1.602   3.083   6.968  1.8496  0.6880 -0.8069
 7784WAT     H232942   1.479   3.153   7.023  0.3215 -2.4131 -0.0543
 7784WAT    EPW32943   1.564   3.153   7.004  0.2477 -0.2013 -0.6573
 7785WAT      O32944   3.817   6.040   6.157  0.2128  0.2111  0.0770
 7785WAT     H132945   3.867   5.959   6.155 -2.8644 -1.8806 -0.5137
 7785WAT     H232946   3.826   6.075   6.069 -0.2560 -0.7862 -0.3906
 7785WAT    EPW32947   3.825   6.034   6.145 -0.2548 -0.1962 -0.0627
 7786WAT      O32948   9.347   9.920   0.791 -0.9879  0.1610 -0.1989
 7786WAT     H132949   9.370   9.904   0.882  0.0687  2.0936 -0.0737
 7786WAT     H232950   9.266   9.871   0.778  0.7483 -3.2448  0.6421
 7786WAT    EPW32951   9.339   9.911   0.801 -0.6199 -0.0339 -0.0715
 7787WAT      O32952   5.219   4.358   7.723  0.2208 -0.2453  0.4344
 7787WAT     H132953   5.267   4.420   7.668  0.6040  0.3572  1.4328
 7787WAT     H232954   5.272   4.278   7.719  0.1582 -0.2613 -0.1962
 7787WAT    EPW32955   5.232   4.356   7.715  0.2632 -0.1678  0.4828
 7788WAT      O32956   7.764   7.694   3.361  0.4437  0.6518 -0.0279
 7788WAT     H132957   7.734   7.711   3.450 -3.3624 -1.0593 -0.7873
 7788WAT     H232958   7.762   7.599   3.352  0.1857  0.8089 -2.0974
 7788WAT    EPW32959   7.760   7.684   3.371 -0.0920  0.4468 -0.4009
 7789WAT      O32960   1.216   0.103   4.766 -0.6429 -0.3405 -0.7293
 7789WAT     H132961   1.237   0.081   4.675 -0.1857 -1.2519 -0.4166
 7789WAT     H232962   1.237   0.024   4.815 -0.3417  0.3356  0.2589
 7789WAT    EPW32963   1.221   0.090   4.760 -0.5430 -0.3716 -0.5579
 7790WAT      O32964   2.075   2.574   4.289  0.1967  0.5215  0.0360
 7790WAT     H132965   2.124   2.493   4.274 -0.3163  0.5590 -2.2512
 7790WAT     H232966   1.994   2.545   4.331  1.8601  0.4314  3.5739
 7790WAT    EPW32967   2.071   2.559   4.292  0.3484  0.5145  0.2012
 7791WAT      O32968   0.991   1.642   1.926 -0.2153 -0.2299 -0.6593
 7791WAT     H132969   0.920   1.591   1.887  0.7528  0.2780 -3.2883
 7791WAT     H232970   1.064   1.580   1.933  0.8338  0.5457 -3.4744
 7791WAT    EPW32971   0.991   1.627   1.922  0.0508 -0.0606 -1.3774
 7792WAT      O32972   5.592   4.839   8.119 -0.4886  0.0438  0.0123
 7792WAT     H132973   5.634   4.849   8.034  4.8178  1.7246  2.4157
 7792WAT     H232974   5.601   4.746   8.140 -0.7384 -0.1521 -0.7386
 7792WAT    EPW32975   5.598   4.828   8.111  0.1781  0.2398  0.2303
 7793WAT      O32976  10.471   0.883   3.137  0.7543  0.2006 -0.0692
 7793WAT     H132977  10.424   0.818   3.190  2.7046  0.1988  1.7782
 7793WAT     H232978  10.471   0.962   3.191  1.9277  0.5108 -0.5031
 7793WAT    EPW32979  10.465   0.885   3.151  1.1663  0.2413  0.1172
 7794WAT      O32980   8.503   9.042   0.061 -0.4523  0.5167  0.1897
 7794WAT     H132981   8.425   9.042   0.116  0.0616  0.5524  0.9284
 7794WAT     H232982   8.473   9.078  -0.023 -1.6949 -1.3112 -0.2165
 7794WAT    EPW32983   8.489   9.046   0.057 -0.5488  0.2804  0.2336
 7795WAT      O32984   8.371   3.746   8.143 -0.0222  0.0880  0.5200
 7795WAT     H132985   8.448   3.803   8.142 -0.6822  0.9905 -0.6513
 7795WAT     H232986   8.331   3.761   8.228 -0.7586  2.1992 -0.1445
 7795WAT    EPW32987   8.376   3.755   8.154 -0.2055  0.4854  0.2785
 7796WAT      O32988   2.966   0.463   4.926 -0.0724 -0.4852 -0.1387
 7796WAT     H132989   2.887   0.409   4.918  0.9894 -1.9727 -1.0199
 7796WAT     H232990   3.019   0.440   4.850  1.6846 -0.3122  0.9743
 7796WAT    EPW32991   2.962   0.453   4.915  0.2993 -0.6586 -0.1080
 7797WAT      O32992   1.051   2.822   1.972  0.3029 -0.5380 -0.3821
 7797WAT     H132993   0.958   2.811   1.992  0.7041  0.4669  2.5586
 7797WAT     H232994   1.055   2.821   1.877 -2.5780 -1.5486 -0.6105
 7797WAT    EPW32995   1.039   2.820   1.962 -0.0241 -0.5386 -0.0244
 7798WAT      O32996   3.921   4.119   8.155  0.0728  0.0921 -0.6730
 7798WAT     H132997   3.833   4.158   8.151  1.0688  2.4184 -1.5725
 7798WAT     H232998   3.961   4.159   8.232  0.5022 -0.6370 -0.5082
 7798WAT    EPW32999   3.915   4.130   8.165  0.2608  0.3028 -0.7701
 7799WAT      O33000   1.030   9.972   1.963  0.3893 -0.2109  0.0394
 7799WAT     H133001   0.976   9.892   1.960 -1.7502  1.1490 -2.7983
 7799WAT     H233002   1.077   9.971   1.879  2.2241  0.3929  1.0080
 7799WAT    EPW33003   1.029   9.961   1.951  0.3492  0.0482 -0.2071
 7800WAT      O33004   2.223   2.906   6.276 -0.0329 -0.1241 -0.1961
 7800WAT     H133005   2.181   2.840   6.331  0.6925 -1.4279 -1.1617
 7800WAT     H233006   2.268   2.964   6.339 -0.0408 -0.9951  0.6324
 7800WAT    EPW33007   2.224   2.905   6.292  0.0616 -0.4108 -0.2143
 7801WAT      O33008   6.800   3.196   7.790  0.6283  0.2037 -0.0483
 7801WAT     H133009   6.724   3.252   7.806  1.1070  1.1573 -0.9993
 7801WAT     H233010   6.812   3.198   7.695  1.3793 -0.5633  0.0215
 7801WAT    EPW33011   6.792   3.203   7.780  0.7904  0.2283 -0.1643
 7802WAT      O33012   2.448   6.462   6.900  0.1064 -0.1520 -0.0417
 7802WAT     H133013   2.527   6.450   6.848  0.1811 -0.1347  0.0666
 7802WAT     H233014   2.476   6.514   6.975 -0.0625  0.0787 -0.1370
 7802WAT    EPW33015   2.462   6.467   6.903  0.0941 -0.1192 -0.0401
 7803WAT      O33016   4.224   5.657   8.441  0.7156  0.0557 -0.1815
 7803WAT     H133017   4.281   5.658   8.364  0.5327 -0.2335 -0.3224
 7803WAT     H233018   4.154   5.717   8.420  1.0410  0.5244  0.0511
 7803WAT    EPW33019   4.223   5.665   8.428  0.7346  0.0794 -0.1698
 7804WAT      O33020   0.778  10.220   0.315  0.1611  0.2801  0.1088
 7804WAT     H133021   0.738  10.240   0.231  0.5247 -2.0082 -0.6990
 7804WAT     H233022   0.712  10.168   0.362  0.7760 -0.3665  0.2869
 7804WAT    EPW33023   0.764  10.216   0.310  0.2902 -0.1073  0.0258
 7805WAT      O33024   7.925   2.773   8.853  0.4391  0.5322  0.0927
 7805WAT     H133025   7.985   2.845   8.833  0.1199  0.3406 -1.7216
 7805WAT     H233026   7.982   2.703   8.886  1.4866 -0.0612 -2.6499
 7805WAT    EPW33027   7.941   2.773   8.854  0.5355  0.4288 -0.5083
 7806WAT      O33028   9.883   7.613   8.070  0.4110 -0.1944  0.0749
 7806WAT     H133029   9.943   7.558   8.020  0.4600  0.0587 -0.1465
 7806WAT     H233030   9.829   7.656   8.003  1.8785  1.7880  0.1048
 7806WAT    EPW33031   9.884   7.611   8.054  0.6113  0.1009  0.0501
 7807WAT      O33032   5.066   8.997   1.484  0.1179  0.3638  0.0124
 7807WAT     H133033   5.093   9.003   1.576 -0.5203 -0.6671  0.2893
 7807WAT     H233034   5.031   9.084   1.464  0.5811  0.7060  0.6410
 7807WAT    EPW33035   5.065   9.009   1.494  0.0949  0.2728  0.1318
 7808WAT      O33036   7.670   7.317   3.048 -0.1420 -0.1285 -0.2480
 7808WAT     H133037   7.616   7.349   3.120  2.0692  2.1391  0.5219
 7808WAT     H233038   7.708   7.236   3.081 -0.6360 -0.1136  0.3728
 7808WAT    EPW33039   7.668   7.310   3.062  0.0844  0.1726 -0.0646
 7809WAT      O33040   6.139   4.140   8.443  0.1348 -0.4518  0.1692
 7809WAT     H133041   6.131   4.198   8.519 -2.6908 -3.6598  2.6156
 7809WAT     H233042   6.121   4.197   8.368 -1.1918  2.0916  2.2354
 7809WAT    EPW33043   6.136   4.155   8.443 -0.4129 -0.5395  0.7639
 7810WAT      O33044   4.289   5.641   7.573 -0.9005  0.5440  0.0857
 7810WAT     H133045   4.322   5.706   7.511 -0.7099 -0.8512 -1.3388
 7810WAT     H233046   4.195   5.638   7.557 -1.5957  3.1966  2.8718
 7810WAT    EPW33047   4.281   5.649   7.563 -0.9670  0.7095  0.2651
 7811WAT      O33048   5.038   2.238   8.701 -0.1328  0.2087 -0.0521
 7811WAT     H133049   5.039   2.212   8.609 -4.2202  0.1504 -0.2335
 7811WAT     H233050   5.101   2.179   8.743  1.2476 -0.3071 -2.6085
 7811WAT    EPW33051   5.047   2.227   8.694 -0.4895  0.1332 -0.4134
 7812WAT      O33052   4.065   5.210   8.705  0.4114  0.0467  0.5995
 7812WAT     H133053   4.003   5.192   8.776  2.1841  1.1158  2.5377
 7812WAT     H233054   4.057   5.304   8.689  0.2303 -0.1335 -0.4776
 7812WAT    EPW33055   4.055   5.220   8.712  0.6213  0.1638  0.7133
 7813WAT      O33056   4.547   4.529   8.672 -0.5560  1.1203 -0.3820
 7813WAT     H133057   4.641   4.524   8.683 -0.5128 -2.8143 -1.0652
 7813WAT     H233058   4.534   4.545   8.578 -0.5959  1.2371 -0.3580
 7813WAT    EPW33059   4.557   4.531   8.661 -0.5555  0.6168 -0.4692
 7814WAT      O33060   4.745   3.454   6.166 -0.3622  0.5765 -0.3319
 7814WAT     H133061   4.737   3.362   6.193 -0.5214  0.1107 -1.8127
 7814WAT     H233062   4.830   3.459   6.123 -0.7460  0.8681 -1.0922
 7814WAT    EPW33063   4.755   3.442   6.164 -0.4339  0.5536 -0.6275
 7815WAT      O33064   7.935   6.377   8.655 -0.3824  0.2450 -0.4802
 7815WAT     H133065   7.925   6.403   8.564 -0.1614 -0.0307 -0.5845
 7815WAT     H233066   8.028   6.394   8.674 -0.7053  1.4965  0.0647
 7815WAT    EPW33067   7.946   6.383   8.646 -0.3960  0.3738 -0.4215
 7816WAT      O33068   6.816   7.879   1.014  0.0124 -0.1382  0.1177
 7816WAT     H133069   6.848   7.883   0.924  0.5944 -0.3349  0.3115
 7816WAT     H233070   6.745   7.943   1.017 -1.3346 -1.4991 -0.9973
 7816WAT    EPW33071   6.811   7.888   1.003 -0.0887 -0.3436 -0.0038
 7817WAT      O33072   7.505   2.577   7.254 -0.0816 -0.1673 -0.1185
 7817WAT     H133073   7.498   2.482   7.245  0.4345 -0.3277  1.0811
 7817WAT     H233074   7.464   2.597   7.338 -0.9424  0.7841 -0.7319
 7817WAT    EPW33075   7.498   2.568   7.264 -0.1273 -0.0629 -0.0412
 7818WAT      O33076   4.093   3.054   6.077 -0.4891  0.1215 -0.0655
 7818WAT     H133077   4.026   3.058   6.146 -0.8100 -1.2759 -0.2687
 7818WAT     H233078   4.117   2.962   6.073  1.0598  0.5108 -0.3907
 7818WAT    EPW33079   4.087   3.042   6.086 -0.3271 -0.0116 -0.1354
 7819WAT      O33080   6.806   8.889   0.094  0.3826 -0.3546  0.5620
 7819WAT     H133081   6.732   8.915   0.149  0.0021  2.8700 -1.2078
 7819WAT     H233082   6.765   8.863   0.011  1.0850 -2.7558  0.8896
 7819WAT    EPW33083   6.791   8.889   0.090  0.4249 -0.2460  0.3718
 7820WAT      O33084   6.343   6.510   7.167 -0.5433  0.1685 -0.1398
 7820WAT     H133085   6.320   6.595   7.203 -0.6701  0.5518 -1.0929
 7820WAT     H233086   6.407   6.474   7.228 -0.7592  0.7891  0.4577
 7820WAT    EPW33087   6.348   6.516   7.179 -0.5887  0.3011 -0.1869
 7821WAT      O33088   6.438   7.908   0.717 -0.2664  0.3759  0.4096
 7821WAT     H133089   6.511   7.963   0.688 -1.5202  1.1428 -1.4548
 7821WAT     H233090   6.480   7.836   0.765  1.6741  0.9821 -0.2795
 7821WAT    EPW33091   6.454   7.906   0.720 -0.1760  0.5572  0.0728
 7822WAT      O33092   8.638   7.950   0.095  0.2720  0.7199 -0.1589
 7822WAT     H133093   8.570   7.889   0.065  1.2330  0.5123 -2.0459
 7822WAT     H233094   8.682   7.979   0.015  4.0016 -0.9813  1.0732
 7822WAT    EPW33095   8.635   7.946   0.081  0.8903  0.4680 -0.2453
 7823WAT      O33096  10.079   9.828   1.244  0.3274  0.0278 -0.1820
 7823WAT     H133097  10.091   9.740   1.209 -1.2755 -0.8948  1.4406
 7823WAT     H233098  10.167   9.858   1.267  0.8793 -1.1698 -0.6660
 7823WAT    EPW33099  10.092   9.820   1.242  0.1888 -0.2518 -0.0319
 7824WAT      O33100   5.763   2.026   4.701 -0.1994  0.2257 -0.2735
 7824WAT     H133101   5.724   2.081   4.632  2.5575 -0.1489 -2.2941
 7824WAT     H233102   5.854   2.053   4.704  0.8976 -3.0277 -0.1702
 7824WAT    EPW33103   5.770   2.037   4.692  0.3090 -0.2527 -0.5264
 7825WAT      O33104   2.843   5.228   7.270 -0.4606 -0.2658 -0.3692
 7825WAT     H133105   2.788   5.247   7.347  0.7451 -1.8047  0.9497
 7825WAT     H233106   2.882   5.312   7.247  0.2007  0.0162  1.5841
 7825WAT    EPW33107   2.841   5.241   7.277 -0.2143 -0.4315  0.0622
 7826WAT      O33108   9.367   3.658   0.222 -0.0508  0.0472 -0.6486
 7826WAT     H133109   9.298   3.722   0.238 -1.6898 -2.0088  0.9655
 7826WAT     H233110   9.401   3.636   0.308 -0.4227 -2.1722 -1.0121
 7826WAT    EPW33111   9.362   3.664   0.235 -0.3166 -0.5168 -0.4836
 7827WAT      O33112   7.232   7.239   1.305 -0.7611 -0.9733  0.2323
 7827WAT     H133113   7.267   7.210   1.220 -2.5696  2.6754 -1.9975
 7827WAT     H233114   7.291   7.308   1.333 -2.0678  0.2410  0.1075
 7827WAT    EPW33115   7.244   7.244   1.297 -1.1721 -0.3319 -0.0783
 7828WAT      O33116   6.024   9.314   0.511 -0.5261  0.1038 -0.5024
 7828WAT     H133117   5.980   9.249   0.566  0.7270 -2.2437 -2.1286
 7828WAT     H233118   6.022   9.277   0.423  0.9988  1.8667 -1.3458
 7828WAT    EPW33119   6.018   9.300   0.507 -0.1597  0.0267 -0.8282
 7829WAT      O33120   1.679   0.738   0.429  0.3317  0.3703 -0.1653
 7829WAT     H133121   1.589   0.755   0.400  1.2160  2.8160 -1.8534
 7829WAT     H233122   1.717   0.826   0.439  2.3080 -0.5818  1.3411
 7829WAT    EPW33123   1.672   0.752   0.426  0.7090  0.5673 -0.1893
 7830WAT      O33124   9.547   7.952   2.120 -0.8717  0.2166 -0.0259
 7830WAT     H133125   9.608   7.879   2.125  1.5119  2.0588 -0.7173
 7830WAT     H233126   9.462   7.913   2.140  0.3441 -2.6414  0.0242
 7830WAT    EPW33127   9.544   7.937   2.123 -0.3972  0.0825 -0.1104
 7831WAT      O33128   9.093   7.885   1.618  0.4375  0.2799  0.4565
 7831WAT     H133129   9.052   7.808   1.657  1.2785 -0.7988 -0.6964
 7831WAT     H233130   9.031   7.912   1.549  1.5103 -1.2947 -1.2245
 7831WAT    EPW33131   9.079   7.879   1.614  0.6900 -0.0701  0.0827
 7832WAT      O33132   2.818   1.287   6.969  0.0641  0.1634 -0.7504
 7832WAT     H133133   2.776   1.220   7.023  0.7066  0.0300 -0.4102
 7832WAT     H233134   2.831   1.244   6.884  1.0448 -0.3688 -0.3468
 7832WAT    EPW33135   2.814   1.272   6.965  0.2782  0.0756 -0.6521
 7833WAT      O33136   3.545   0.705   8.368 -0.6286  0.0709  0.3348
 7833WAT     H133137   3.487   0.771   8.405  0.0341 -0.5321  2.5660
 7833WAT     H233138   3.492   0.624   8.369 -0.5267  0.0011  0.1659
 7833WAT    EPW33139   3.530   0.703   8.373 -0.5279 -0.0179  0.6070
 7834WAT      O33140   2.890   2.449   7.164 -0.5208 -0.5698  0.1148
 7834WAT     H133141   2.833   2.524   7.182  0.1204 -0.3020  1.0574
 7834WAT     H233142   2.832   2.385   7.122 -1.6264 -0.4373  1.3586
 7834WAT    EPW33143   2.874   2.450   7.161 -0.5821 -0.5168  0.4034
 7835WAT      O33144   6.468   3.833   6.219  0.5035  0.1890 -0.0287
 7835WAT     H133145   6.483   3.744   6.250 -0.0571  0.1748  0.2263
 7835WAT     H233146   6.491   3.831   6.126 -0.2614 -0.4290 -0.2164
 7835WAT    EPW33147   6.473   3.821   6.211  0.3285  0.1057 -0.0200
 7836WAT      O33148   6.334   8.019   0.369 -0.4159  0.6265  0.6401
 7836WAT     H133149   6.342   8.052   0.279  0.0076 -1.0614  0.0132
 7836WAT     H233150   6.274   8.079   0.412 -0.2096  1.7753 -0.6233
 7836WAT    EPW33151   6.327   8.031   0.363 -0.3328  0.5555  0.3908
 7837WAT      O33152   2.639   2.182   8.250 -0.4955  0.0766 -0.1840
 7837WAT     H133153   2.577   2.165   8.179 -0.3040 -0.2462 -0.2787
 7837WAT     H233154   2.589   2.165   8.330 -0.4714 -0.3915 -0.2664
 7837WAT    EPW33155   2.624   2.177   8.251 -0.4671 -0.0277 -0.2079
 7838WAT      O33156   3.965   7.145   4.542  0.5218 -0.2346  0.7295
 7838WAT     H133157   3.913   7.109   4.614 -0.5853  1.1527  0.6584
 7838WAT     H233158   4.038   7.189   4.585  1.4850 -1.8699  0.8453
 7838WAT    EPW33159   3.968   7.146   4.557  0.5029 -0.2675  0.7353
 7839WAT      O33160   5.271   4.517   8.384 -0.4917  0.5435  0.0021
 7839WAT     H133161   5.244   4.604   8.357  1.3448  0.6303 -1.8175
 7839WAT     H233162   5.325   4.531   8.462  1.2512  1.2978 -1.2743
 7839WAT    EPW33163   5.275   4.530   8.391 -0.0198  0.6542 -0.4063
 7840WAT      O33164   1.762   5.144   6.852 -0.0342  0.0605 -0.1425
 7840WAT     H133165   1.809   5.119   6.932 -0.3790 -0.7522 -0.1811
 7840WAT     H233166   1.714   5.065   6.828  1.9218 -0.5231 -2.4977
 7840WAT    EPW33167   1.762   5.130   6.860  0.1783 -0.1237 -0.4582
 7841WAT      O33168   6.131   4.903   8.661 -0.1058  0.1416  0.2114
 7841WAT     H133169   6.131   4.833   8.595 -2.7026  1.0632 -0.8660
 7841WAT     H233170   6.213   4.889   8.709 -0.0799 -3.0856 -0.5185
 7841WAT    EPW33171   6.142   4.892   8.658 -0.4449 -0.1626 -0.0267
 7842WAT      O33172   1.289   4.665   5.652 -0.7742  0.0189 -0.6326
 7842WAT     H133173   1.294   4.569   5.659 -0.5927 -0.0480 -1.5676
 7842WAT     H233174   1.200   4.686   5.678 -1.8699 -0.7203 -3.4207
 7842WAT    EPW33175   1.278   4.655   5.657 -0.8948 -0.0875 -1.1237
 7843WAT      O33176   5.577   4.150   7.068 -0.1087 -0.1551 -0.0639
 7843WAT     H133177   5.528   4.071   7.092 -0.8304 -0.0009 -0.9649
 7843WAT     H233178   5.510   4.219   7.063  0.4094  0.3583  0.0426
 7843WAT    EPW33179   5.561   4.149   7.070 -0.1354 -0.0670 -0.1686
 7844WAT      O33180   5.409   3.670   7.459  0.4115 -0.0174  0.0213
 7844WAT     H133181   5.481   3.608   7.470  1.5982  1.1743 -0.8176
 7844WAT     H233182   5.330   3.615   7.464  1.3936 -1.4889  0.0078
 7844WAT    EPW33183   5.408   3.654   7.461  0.6974 -0.0542 -0.0908
 7845WAT      O33184   1.288   3.296   6.311 -0.2426 -0.2061 -0.0751
 7845WAT     H133185   1.229   3.230   6.274  0.4006  0.3010 -2.1219
 7845WAT     H233186   1.233   3.375   6.320 -0.4145 -0.3488  0.1655
 7845WAT    EPW33187   1.273   3.298   6.308 -0.1804 -0.1581 -0.3133
 7846WAT      O33188   3.690   3.623   6.665 -0.0407 -0.2952 -0.5763
 7846WAT     H133189   3.623   3.691   6.664 -0.7267 -0.9540 -0.4667
 7846WAT     H233190   3.686   3.587   6.754  0.2214 -0.5736 -0.6757
 7846WAT    EPW33191   3.681   3.627   6.677 -0.0966 -0.4189 -0.5746
 7847WAT      O33192   3.470   2.323   6.741 -0.0111 -0.0806  0.1873
 7847WAT     H133193   3.456   2.339   6.834  0.7939 -2.2522  0.7481
 7847WAT     H233194   3.480   2.228   6.735  1.7054  0.1585 -1.8500
 7847WAT    EPW33195   3.470   2.312   6.753  0.3213 -0.3353 -0.0074
 7848WAT      O33196   6.464   6.751   0.123 -0.5056 -0.8431 -0.4298
 7848WAT     H133197   6.399   6.749   0.193 -1.1059  0.4850 -0.9280
 7848WAT     H233198   6.415   6.731   0.043 -0.1088 -0.8640 -0.6741
 7848WAT    EPW33199   6.449   6.748   0.122 -0.5326 -0.6704 -0.5277
 7849WAT      O33200   9.778   6.774   3.566  0.3369  0.4732 -0.3828
 7849WAT     H133201   9.687   6.806   3.565  0.2062  0.3063  1.6776
 7849WAT     H233202   9.784   6.718   3.488 -0.8583  1.6663 -1.3849
 7849WAT    EPW33203   9.766   6.771   3.556  0.1616  0.6087 -0.2432
 7850WAT      O33204   1.285   0.915   1.007  0.1541  0.6941  0.9180
 7850WAT     H133205   1.349   0.892   0.939 -0.4885 -0.5610  0.7113
 7850WAT     H233206   1.335   0.911   1.089 -0.1489 -3.1676  1.1255
 7850WAT    EPW33207   1.300   0.911   1.009  0.0293  0.0192  0.9181
 7851WAT      O33208   2.171   0.687   0.053 -0.7533 -0.3814 -0.3867
 7851WAT     H133209   2.078   0.709   0.043 -0.8993 -1.5298 -1.9016
 7851WAT     H233210   2.217   0.768   0.029 -1.2863  1.1866  3.1863
 7851WAT    EPW33211   2.165   0.701   0.048 -0.8429 -0.3260 -0.1152
 7852WAT      O33212   4.468   3.885   6.090  0.6617  0.5935  0.0619
 7852WAT     H133213   4.560   3.861   6.077  0.5944 -0.1429  0.8379
 7852WAT     H233214   4.419   3.816   6.045  0.4747 -0.1466  1.3731
 7852WAT    EPW33215   4.474   3.872   6.082  0.6282  0.3989  0.3371
 7853WAT      O33216  10.472   9.198   1.376 -0.2692  0.0966  0.0390
 7853WAT     H133217  10.475   9.198   1.471  0.4818 -0.0324  0.0241
 7853WAT     H233218  10.419   9.121   1.353  3.1674 -2.5990  0.3062
 7853WAT    EPW33219  10.465   9.188   1.385  0.2832 -0.2761  0.0723
 7854WAT      O33220   5.049   4.675   8.234 -0.5820 -0.3485 -0.2882
 7854WAT     H133221   5.111   4.742   8.204 -0.2967 -0.3706  0.2441
 7854WAT     H233222   4.963   4.718   8.229 -0.7586 -0.8084 -2.5335
 7854WAT    EPW33223   5.045   4.690   8.229 -0.5674 -0.4120 -0.5145
 7855WAT      O33224   2.895   3.314   7.476 -0.1393  0.7267 -0.5631
 7855WAT     H133225   2.881   3.303   7.570  1.1265 -0.5886 -0.4993
 7855WAT     H233226   2.851   3.396   7.455 -1.4595  0.4475  0.9426
 7855WAT    EPW33227   2.887   3.324   7.486 -0.1465  0.5163 -0.3560
 7856WAT      O33228   6.656   5.540   8.853 -0.3255 -0.2062  0.2684
 7856WAT     H133229   6.569   5.563   8.821 -1.4657 -0.0191  3.2544
 7856WAT     H233230   6.647   5.450   8.885  0.5912 -0.2048  0.5614
 7856WAT    EPW33231   6.644   5.531   8.853 -0.3548 -0.1814  0.7010
 7857WAT      O33232  10.087   9.287   0.847 -0.1470  0.7716 -0.0104
 7857WAT     H133233  10.047   9.241   0.920  0.7995 -0.2540 -0.1117
 7857WAT     H233234  10.075   9.228   0.772  1.1638  0.6069 -0.1245
 7857WAT    EPW33235  10.080   9.273   0.846  0.1502  0.6142 -0.0388
 7858WAT      O33236   4.722   3.356   8.420  0.4446 -0.3633 -0.3467
 7858WAT     H133237   4.634   3.357   8.457  0.3540 -1.3777 -0.5079
 7858WAT     H233238   4.721   3.425   8.354 -0.1784 -0.2494 -0.2259
 7858WAT    EPW33239   4.710   3.365   8.416  0.3505 -0.4821 -0.3524
 7859WAT      O33240   7.745   9.893   1.721 -0.1109 -0.0527  0.4499
 7859WAT     H133241   7.662   9.922   1.759 -0.1780 -1.3830  1.3805
 7859WAT     H233242   7.797   9.862   1.795  2.6688  3.8551  0.4317
 7859WAT    EPW33243   7.741   9.892   1.736  0.2468  0.2871  0.5702
 7860WAT      O33244   3.384   4.334   8.899  0.3522  0.4761 -0.9620
 7860WAT     H133245   3.430   4.418   8.904 -2.4881  2.1098  0.2329
 7860WAT     H233246   3.367   4.311   8.990  0.6659 -1.2290 -1.2968
 7860WAT    EPW33247   3.388   4.342   8.912  0.0191  0.4668 -0.8488
 7861WAT      O33248   0.143   1.045   1.669 -0.0922 -0.0366 -1.0084
 7861WAT     H133249   0.209   1.098   1.623  1.3566 -1.1952 -0.3669
 7861WAT     H233250   0.190   1.011   1.746 -1.8989  0.3188  0.3111
 7861WAT    EPW33251   0.158   1.047   1.673 -0.1394 -0.1426 -0.7498
 7862WAT      O33252  10.012   4.049   8.579 -0.6658 -0.0135 -0.0970
 7862WAT     H133253   9.947   4.083   8.641 -1.0160 -2.2786  0.8755
 7862WAT     H233254   9.960   4.011   8.509 -0.2692  1.9811 -1.5647
 7862WAT    EPW33255   9.996   4.049   8.578 -0.6595 -0.0494 -0.1621
 7863WAT      O33256  10.328   8.974   1.237 -0.2111 -0.8289 -0.7301
 7863WAT     H133257  10.284   8.916   1.299  0.1412 -0.4894 -0.1518
 7863WAT     H233258  10.376   8.915   1.179 -0.1253 -1.1324 -0.3572
 7863WAT    EPW33259  10.329   8.958   1.238 -0.1535 -0.8240 -0.6047
 7864WAT      O33260   7.422   4.719   1.857  0.3410  0.8138  0.0604
 7864WAT     H133261   7.489   4.743   1.792  0.7765 -1.0987 -0.2771
 7864WAT     H233262   7.341   4.755   1.822  0.6673  0.3328 -1.2998
 7864WAT    EPW33263   7.420   4.727   1.844  0.4416  0.4983 -0.1634
 7865WAT      O33264   1.130   0.529   0.804 -0.1543 -0.0763  0.3276
 7865WAT     H133265   1.050   0.580   0.789  0.1065  0.6584  1.3476
 7865WAT     H233266   1.100   0.449   0.846 -0.3758  0.0884  0.4860
 7865WAT    EPW33267   1.116   0.525   0.807 -0.1491  0.0423  0.4830
 7866WAT      O33268  10.336   8.560   0.518  0.1766  0.3104  0.0253
 7866WAT     H133269  10.414   8.570   0.573 -0.3754 -2.3477  1.5185
 7866WAT     H233270  10.361   8.494   0.453 -0.2618  0.8435 -0.6939
 7866WAT    EPW33271  10.350   8.553   0.517  0.0463  0.0305  0.1274
 7867WAT      O33272   6.921   8.055   0.472 -0.4765  0.2185 -0.8852
 7867WAT     H133273   6.955   8.130   0.521 -3.2073  0.7632  0.3734
 7867WAT     H233274   6.894   8.091   0.388 -1.3883  0.5891 -0.4455
 7867WAT    EPW33275   6.922   8.070   0.468 -0.9568  0.3395 -0.6612
 7868WAT      O33276   0.664   4.996   0.042 -0.1736  0.2894 -0.2322
 7868WAT     H133277   0.671   5.028   0.132  0.0342  0.0987 -0.1797
 7868WAT     H233278   0.740   4.939   0.031 -0.4044  0.0142 -0.4056
 7868WAT    EPW33279   0.675   4.993   0.052 -0.1767  0.2277 -0.2482
 7869WAT      O33280   4.447   2.672   6.650 -0.1483 -0.7990  0.0401
 7869WAT     H133281   4.405   2.607   6.594 -1.3400  0.2834 -0.3749
 7869WAT     H233282   4.399   2.667   6.733  0.2561 -0.9659  0.2680
 7869WAT    EPW33283   4.435   2.663   6.654 -0.2522 -0.6782  0.0155
 7870WAT      O33284   8.924  10.188   0.076  0.0722 -0.0043  0.0119
 7870WAT     H133285   8.967  10.102   0.078  1.1508  0.5361  1.1951
 7870WAT     H233286   8.937  10.223   0.164 -0.3861  1.3713 -0.4518
 7870WAT    EPW33287   8.932  10.181   0.088  0.1545  0.2484  0.1068
 7871WAT      O33288   9.756   7.927   1.116 -0.4048  0.1386  0.2344
 7871WAT     H133289   9.796   7.932   1.202 -0.1358 -1.1808  0.1972
 7871WAT     H233290   9.785   8.007   1.071 -0.9462  1.0831  1.5112
 7871WAT    EPW33291   9.765   7.938   1.121 -0.4401  0.0892  0.3979
 7872WAT      O33292  10.402   8.587   1.021 -0.0873  0.1881  0.6250
 7872WAT     H133293  10.312   8.608   1.045 -0.1451  0.6824  0.0190
 7872WAT     H233294  10.403   8.492   1.012 -0.5635  0.1818  0.5951
 7872WAT    EPW33295  10.390   8.577   1.023 -0.1578  0.2522  0.5411
 7873WAT      O33296   7.517   7.972   0.613  0.0514  0.9523 -0.0130
 7873WAT     H133297   7.518   7.890   0.563  1.6786  2.0678 -1.9621
 7873WAT     H233298   7.601   8.014   0.592 -1.1537  3.6014  0.0719
 7873WAT    EPW33299   7.528   7.967   0.604  0.1068  1.4491 -0.2589
 7874WAT      O33300   0.548   0.471   0.529  0.4479 -0.1896 -0.7889
 7874WAT     H133301   0.546   0.396   0.588  1.0008  1.2900  1.2184
 7874WAT     H233302   0.483   0.450   0.461 -0.3627 -1.8725  0.4292
 7874WAT    EPW33303   0.539   0.458   0.527  0.4139 -0.2164 -0.3635
 7875WAT      O33304   4.713   4.213   6.748  0.6928  0.6532  0.9555
 7875WAT     H133305   4.787   4.205   6.809 -0.7448  0.3223  2.7560
 7875WAT     H233306   4.635   4.199   6.803 -0.8104  2.6837 -0.5202
 7875WAT    EPW33307   4.712   4.210   6.764  0.3049  0.8774  0.9983
 7876WAT      O33308   7.608   2.350   7.698 -0.3011 -0.1002 -0.2076
 7876WAT     H133309   7.657   2.427   7.671  0.7996 -0.8937 -0.5360
 7876WAT     H233310   7.516   2.378   7.696  0.1527  2.1744  2.8318
 7876WAT    EPW33311   7.602   2.364   7.694 -0.0958  0.0952  0.1502
 7877WAT      O33312   6.036   7.747   0.409  0.3613  0.0643 -0.8955
 7877WAT     H133313   5.983   7.799   0.471  0.2082 -0.7715 -0.3135
 7877WAT     H233314   6.121   7.738   0.452  0.1863 -0.7045 -0.6908
 7877WAT    EPW33315   6.040   7.753   0.423  0.3183 -0.1471 -0.7917
 7878WAT      O33316  10.138   9.727   3.015  0.0206  0.3498 -0.3624
 7878WAT     H133317  10.172   9.650   3.060  2.6365  1.4876 -0.1738
 7878WAT     H233318  10.141   9.704   2.922  0.6431  0.1445 -0.2973
 7878WAT    EPW33319  10.143   9.714   3.008  0.4482  0.4721 -0.3289
 7879WAT      O33320   3.839   1.638   1.342 -0.2222 -0.4471 -1.0261
 7879WAT     H133321   3.754   1.640   1.384 -0.7539  2.2661 -2.0407
 7879WAT     H233322   3.844   1.551   1.302 -3.4283 -0.0428 -2.6331
 7879WAT    EPW33323   3.829   1.627   1.342 -0.7153 -0.0359 -1.3719
 7880WAT      O33324   1.018   2.589   2.305  0.0910 -0.4972 -0.7039
 7880WAT     H133325   0.940   2.585   2.249  0.8309 -2.7951 -1.7098
 7880WAT     H233326   1.086   2.624   2.248 -0.4654  3.3993  0.7054
 7880WAT    EPW33327   1.016   2.593   2.290  0.1152 -0.2863 -0.6509
 7881WAT      O33328   3.711   3.748   8.981  0.0012 -0.1512 -0.0031
 7881WAT     H133329   3.692   3.714   8.893 -3.0140  1.1427  0.0389
 7881WAT     H233330   3.728   3.670   9.034 -1.7798 -1.2669 -0.9753
 7881WAT    EPW33331   3.711   3.734   8.976 -0.6313 -0.1283 -0.1258
 7882WAT      O33332  10.846   9.538   0.094 -0.0385 -0.3499  0.0608
 7882WAT     H133333  10.930   9.548   0.138 -0.1355  0.8607 -0.0046
 7882WAT     H233334  10.841   9.444   0.073  1.2254 -0.4553  0.1755
 7882WAT    EPW33335  10.856   9.527   0.097  0.1149 -0.2041  0.0673
 7883WAT      O33336   3.590   5.804   8.531 -0.3747 -0.4271  0.2047
 7883WAT     H133337   3.661   5.783   8.470  1.9698  0.8345  2.3104
 7883WAT     H233338   3.563   5.892   8.507 -0.0078 -0.2416  0.4593
 7883WAT    EPW33339   3.596   5.813   8.520 -0.0170 -0.2363  0.5159
 7884WAT      O33340   8.250   5.853   1.280  0.1830 -0.1931  0.3560
 7884WAT     H133341   8.299   5.931   1.257 -0.3954 -0.1852 -0.9541
 7884WAT     H233342   8.206   5.827   1.199 -2.7743  0.3677  1.6265
 7884WAT    EPW33343   8.251   5.860   1.267 -0.2837 -0.1178  0.3507
 7885WAT      O33344   8.628   8.211   2.598 -0.3178  0.1846 -0.8542
 7885WAT     H133345   8.719   8.181   2.593 -0.6992 -1.1315 -0.0756
 7885WAT     H233346   8.608   8.240   2.508  0.4711 -0.6841 -1.3245
 7885WAT    EPW33347   8.638   8.211   2.585 -0.2646 -0.1035 -0.8135
 7886WAT      O33348   9.122   7.103   0.117 -0.9925  0.5848  0.4481
 7886WAT     H133349   9.159   7.110   0.029  1.4098 -2.6247  1.0238
 7886WAT     H233350   9.033   7.069   0.103  0.0111 -1.7402 -0.7671
 7886WAT    EPW33351   9.115   7.099   0.104 -0.5441 -0.1452  0.3637
 7887WAT      O33352   4.194   4.173   6.260  0.0204 -0.1045 -0.1664
 7887WAT     H133353   4.276   4.214   6.287  0.2897 -0.0080 -1.1218
 7887WAT     H233354   4.218   4.119   6.185 -0.5610 -1.0447  0.3050
 7887WAT    EPW33355   4.208   4.171   6.254 -0.0210 -0.2158 -0.2303
 7888WAT      O33356   5.507   7.012   0.646 -0.0383 -0.9966  0.4251
 7888WAT     H133357   5.471   7.057   0.723 -0.7728 -2.0102  0.7053
 7888WAT     H233358   5.453   7.043   0.573  0.9429  0.3056  0.2163
 7888WAT    EPW33359   5.495   7.022   0.647 -0.0057 -0.9584  0.4345
 7889WAT      O33360   5.524   1.360   7.754 -0.0463  0.0185 -0.4326
 7889WAT     H133361   5.618   1.373   7.742  0.6069 -1.3453  2.3434
 7889WAT     H233362   5.504   1.403   7.837 -1.5736 -0.7992 -0.3349
 7889WAT    EPW33363   5.533   1.367   7.763 -0.1616 -0.2693 -0.0539
 7890WAT      O33364   5.284   5.849   8.457 -0.0984  0.3140 -0.1153
 7890WAT     H133365   5.332   5.924   8.423 -0.2064  0.4815  0.0991
 7890WAT     H233366   5.239   5.813   8.381 -2.7067  2.4223  0.2987
 7890WAT    EPW33367   5.285   5.854   8.442 -0.4568  0.6142 -0.0324
 7891WAT      O33368   5.415   1.094   4.908 -0.0329 -0.6410  0.6677
 7891WAT     H133369   5.456   1.172   4.871 -2.7411  0.3663 -0.5051
 7891WAT     H233370   5.397   1.116   4.999  0.5361 -0.4965  0.7495
 7891WAT    EPW33371   5.418   1.107   4.915 -0.3150 -0.4891  0.5236
 7892WAT      O33372   7.225   9.354   0.666 -0.1898  0.2384  0.0043
 7892WAT     H133373   7.281   9.361   0.743 -0.3580  1.4118  0.0352
 7892WAT     H233374   7.277   9.302   0.604  0.5254  0.4498  0.4075
 7892WAT    EPW33375   7.239   9.348   0.668 -0.1178  0.4210  0.0616
 7893WAT      O33376   1.779   4.114   8.045 -0.1068 -0.5466  0.8182
 7893WAT     H133377   1.718   4.126   7.971  0.8435  3.1592  0.4028
 7893WAT     H233378   1.722   4.110   8.122 -1.0055  0.6400  0.2579
 7893WAT    EPW33379   1.763   4.115   8.045 -0.1001  0.0985  0.6895
 7894WAT      O33380   4.778   3.329   6.681 -0.0132  0.5815 -1.0100
 7894WAT     H133381   4.823   3.349   6.764 -0.5354 -0.6000 -0.4197
 7894WAT     H233382   4.848   3.322   6.617  0.6246 -0.6776 -0.2166
 7894WAT    EPW33383   4.793   3.331   6.684  0.0021  0.2595 -0.8273
 7895WAT      O33384   2.727   4.031   8.817  0.2702 -0.4856  0.4541
 7895WAT     H133385   2.809   4.041   8.768  0.0493  0.4624  0.2625
 7895WAT     H233386   2.658   4.043   8.752 -0.0201 -0.1193  0.8202
 7895WAT    EPW33387   2.729   4.034   8.802  0.2028 -0.3121  0.4768
 7896WAT      O33388   0.922   8.461   7.977 -0.3591 -0.6174 -0.2735
 7896WAT     H133389   0.977   8.492   8.050 -0.4191 -0.0896 -0.4493
 7896WAT     H233390   0.941   8.368   7.971 -0.2237 -0.6342  0.3125
 7896WAT    EPW33391   0.931   8.453   7.986 -0.3492 -0.5503 -0.2193
 7897WAT      O33392   4.766   2.372   4.657 -0.2564  0.1801 -1.2728
 7897WAT     H133393   4.811   2.441   4.705  1.7452 -1.9721  0.1560
 7897WAT     H233394   4.695   2.344   4.715 -0.2069  0.1270 -1.2371
 7897WAT    EPW33395   4.762   2.377   4.671  0.0141 -0.1109 -1.0793
 7898WAT      O33396   3.016   9.765   0.499 -0.8759 -0.5773  0.2743
 7898WAT     H133397   3.008   9.853   0.536  1.4456 -0.5686  0.9311
 7898WAT     H233398   2.946   9.760   0.434 -1.5009  1.4878  0.7041
 7898WAT    EPW33399   3.006   9.776   0.496 -0.6521 -0.3037  0.4176
 7899WAT      O33400   3.176   0.014   1.899  0.3358 -0.4206  0.4146
 7899WAT     H133401   3.241   0.071   1.858  0.3347  0.9009  2.1544
 7899WAT     H233402   3.095   0.034   1.853  0.7243 -0.5047 -0.3261
 7899WAT    EPW33403   3.174   0.024   1.888  0.3870 -0.2574  0.5463
 7900WAT      O33404   3.064   3.370   3.810  0.4267  0.2229  0.2802
 7900WAT     H133405   2.969   3.383   3.817  0.4914  0.6113  0.5071
 7900WAT     H233406   3.084   3.388   3.718  0.3313  0.5100  0.3132
 7900WAT    EPW33407   3.054   3.374   3.799  0.4228  0.3121  0.3145
 7901WAT      O33408   9.262   3.289   8.226  0.1984 -0.7564  0.5716
 7901WAT     H133409   9.230   3.327   8.145  0.0427 -0.4374  0.7818
 7901WAT     H233410   9.302   3.362   8.273  0.0195 -0.8736  0.9134
 7901WAT    EPW33411   9.263   3.303   8.222  0.1540 -0.7298  0.6452
 7902WAT      O33412   3.728   3.797   7.071 -0.5552  0.4042 -0.2163
 7902WAT     H133413   3.820   3.822   7.077  0.2721 -2.4365  0.6344
 7902WAT     H233414   3.688   3.866   7.019  2.5442  0.5892 -2.6669
 7902WAT    EPW33415   3.735   3.809   7.065 -0.0374  0.0539 -0.4270
 7903WAT      O33416   2.240   2.606   8.749 -0.2906  0.1794 -0.0700
 7903WAT     H133417   2.145   2.600   8.756 -0.3001  0.6297  0.2117
 7903WAT     H233418   2.266   2.662   8.822  0.4364 -1.8437  1.2896
 7903WAT    EPW33419   2.231   2.613   8.759 -0.1960 -0.0280  0.1464
 7904WAT      O33420   3.711   4.680   8.277  0.2168 -0.8157  0.0588
 7904WAT     H133421   3.709   4.766   8.320  0.8301 -0.5955 -0.3482
 7904WAT     H233422   3.685   4.697   8.187 -0.1282 -1.1331  0.0971
 7904WAT    EPW33423   3.708   4.694   8.271  0.2520 -0.8285  0.0100
 7905WAT      O33424   6.726   9.757   0.727  0.1594 -0.3289  0.4418
 7905WAT     H133425   6.648   9.796   0.765 -0.3268 -1.2182  0.3883
 7905WAT     H233426   6.769   9.713   0.800  1.4241  1.3923  0.7836
 7905WAT    EPW33427   6.721   9.756   0.741  0.2620 -0.2193  0.4798
 7906WAT      O33428   2.923   1.825   2.114 -0.3383 -0.5321 -0.1032
 7906WAT     H133429   2.980   1.769   2.062 -0.4317 -1.5320  0.8290
 7906WAT     H233430   2.983   1.871   2.174 -0.3969 -0.6789  0.0681
 7906WAT    EPW33431   2.938   1.824   2.115 -0.3583 -0.6834  0.0422
 7907WAT      O33432   6.369   3.830   8.253 -0.4425 -0.2443  0.3801
 7907WAT     H133433   6.398   3.907   8.301 -2.0398  0.5891  0.0321
 7907WAT     H233434   6.291   3.800   8.299  1.0415 -2.7235  1.5513
 7907WAT    EPW33435   6.363   3.836   8.265 -0.4575 -0.4613  0.4888
 7908WAT      O33436   5.612   2.280   5.526  0.4734  0.2422 -0.5204
 7908WAT     H133437   5.527   2.242   5.504 -0.4437  0.1625  2.6820
 7908WAT     H233438   5.622   2.354   5.465 -1.6577 -0.0139 -1.2568
 7908WAT    EPW33439   5.602   2.285   5.515  0.0713  0.1980 -0.1950
 7909WAT      O33440   7.531   6.045   1.378  0.1160 -0.5354 -0.1672
 7909WAT     H133441   7.617   6.061   1.415 -0.1411  0.1104  0.1555
 7909WAT     H233442   7.548   5.985   1.305  0.5816 -2.1950  1.2221
 7909WAT    EPW33443   7.545   6.039   1.373  0.1435 -0.6690  0.0587
 7910WAT      O33444   8.084   5.554   7.717  0.4485 -0.2705 -0.2346
 7910WAT     H133445   8.087   5.481   7.779  1.1235 -0.9868 -1.0934
 7910WAT     H233446   8.170   5.595   7.724  0.4655 -0.2481 -0.5703
 7910WAT    EPW33447   8.096   5.550   7.726  0.5393 -0.3619 -0.3922
 7911WAT      O33448   3.965   5.524   7.259  0.4418 -0.1706  0.2301
 7911WAT     H133449   4.015   5.595   7.219 -0.8921  1.3230  1.0870
 7911WAT     H233450   3.877   5.559   7.270 -0.2134 -1.8854  0.9156
 7911WAT    EPW33451   3.960   5.538   7.255  0.1794 -0.1996  0.4334
 7912WAT      O33452   7.244   5.965   0.157  0.3284 -0.5360  0.6164
 7912WAT     H133453   7.297   5.890   0.130 -0.3434 -0.6740 -0.3572
 7912WAT     H233454   7.180   5.976   0.087 -0.9440 -0.3772  1.7427
 7912WAT    EPW33455   7.243   5.956   0.145  0.0720 -0.5333  0.6365
 7913WAT      O33456   4.882   5.182   8.538  0.2431  0.4364  0.2663
 7913WAT     H133457   4.811   5.230   8.581 -1.1078 -0.0398 -1.3521
 7913WAT     H233458   4.860   5.090   8.549  0.1427  0.2932 -0.9461
 7913WAT    EPW33459   4.870   5.176   8.545  0.0517  0.3545 -0.1068
 7914WAT      O33460   1.636   1.269   0.085 -0.2410  0.3668 -0.4834
 7914WAT     H133461   1.696   1.342   0.070 -0.5891  1.0222  1.0645
 7914WAT     H233462   1.566   1.306   0.139  0.6732 -1.5184  2.2534
 7914WAT    EPW33463   1.635   1.284   0.090 -0.1664  0.2046  0.0818
 7915WAT      O33464   4.571   1.807   2.293 -0.3372 -0.3488 -0.3105
 7915WAT     H133465   4.570   1.711   2.294  3.2118 -0.5156  1.0009
 7915WAT     H233466   4.630   1.831   2.364 -0.2297  2.7707 -1.3097
 7915WAT    EPW33467   4.579   1.798   2.302  0.1447  0.0407 -0.2692
 7916WAT      O33468   5.416   7.419   7.471 -0.1672  0.3883  0.3319
 7916WAT     H133469   5.441   7.441   7.381 -2.6550 -0.0317 -0.5383
 7916WAT     H233470   5.498   7.394   7.513  1.1347  1.0125 -1.6849
 7916WAT    EPW33471   5.430   7.419   7.465 -0.3238  0.4153 -0.0489
 7917WAT      O33472   3.475   9.207   2.746  0.4791 -0.5475 -0.0005
 7917WAT     H133473   3.542   9.271   2.722 -0.1487  0.2731  0.3722
 7917WAT     H233474   3.439   9.241   2.828 -1.8270  0.1664 -1.2258
 7917WAT    EPW33475   3.479   9.220   2.754  0.0923 -0.3452 -0.1129
 7918WAT      O33476   4.429   4.141   6.501 -0.1783 -0.1513  0.3244
 7918WAT     H133477   4.450   4.227   6.463  1.3177 -0.6752 -0.1261
 7918WAT     H233478   4.473   4.079   6.443 -1.5672 -1.2702  0.4160
 7918WAT    EPW33479   4.438   4.144   6.488 -0.1643 -0.3679  0.2770
 7919WAT      O33480   5.367   4.146   8.873 -0.7272  0.2716 -0.0776
 7919WAT     H133481   5.295   4.206   8.854 -0.0160  0.5852 -1.9941
 7919WAT     H233482   5.326   4.060   8.879 -1.4065  0.5963  0.0027
 7919WAT    EPW33483   5.352   4.143   8.871 -0.7229  0.3555 -0.3200
 7920WAT      O33484   3.493   5.732   8.965  0.1533  0.4307 -0.0245
 7920WAT     H133485   3.543   5.694   8.892  1.2684  1.4045  0.2061
 7920WAT     H233486   3.498   5.827   8.951 -0.7551  0.5886  0.5978
 7920WAT    EPW33487   3.500   5.740   8.953  0.1806  0.5798  0.0882
 7921WAT      O33488   6.774   6.497   6.265 -0.4477  0.1869 -0.3968
 7921WAT     H133489   6.845   6.485   6.202  0.9190  2.0414  0.6874
 7921WAT     H233490   6.758   6.410   6.300 -1.0802 -0.8542 -3.0749
 7921WAT    EPW33491   6.781   6.484   6.261 -0.3510  0.2942 -0.6070
 7922WAT      O33492   2.793   4.953   8.366  0.3965  0.2261 -0.8151
 7922WAT     H133493   2.699   4.951   8.346  0.2122  1.0284 -0.0745
 7922WAT     H233494   2.833   4.993   8.288  0.0550  0.4521 -0.8763
 7922WAT    EPW33495   2.786   4.958   8.353  0.3271  0.3614 -0.7257
 7923WAT      O33496   3.117   0.897   1.323 -0.1022 -0.0273 -0.1971
 7923WAT     H133497   3.086   0.987   1.320 -1.6437 -0.4928  0.8233
 7923WAT     H233498   3.053   0.848   1.271  0.2267 -0.6630 -0.0127
 7923WAT    EPW33499   3.105   0.902   1.315 -0.2621 -0.1725 -0.0382
 7924WAT      O33500   2.646   0.939   7.770  0.3862  0.1915  0.0671
 7924WAT     H133501   2.737   0.938   7.801  0.2540  3.0950  0.8335
 7924WAT     H233502   2.653   0.920   7.676  1.6670 -0.5404  0.2826
 7924WAT    EPW33503   2.659   0.937   7.761  0.5376  0.4779  0.1965
 7925WAT      O33504   6.502   2.847   7.686  0.2080  0.3609  0.1747
 7925WAT     H133505   6.584   2.849   7.735 -0.7393 -1.4260  1.9788
 7925WAT     H233506   6.529   2.833   7.596  1.9111  0.3227  0.6413
 7925WAT    EPW33507   6.517   2.846   7.681  0.3076  0.1202  0.4740
 7926WAT      O33508   2.310   2.263   7.554  0.6191 -0.4593 -0.6011
 7926WAT     H133509   2.382   2.299   7.501  0.6497  0.0494 -0.2117
 7926WAT     H233510   2.354   2.206   7.618  0.8265  1.0252  0.6258
 7926WAT    EPW33511   2.325   2.260   7.555  0.6506 -0.1965 -0.3879
 7927WAT      O33512   5.330   8.881   0.565  0.0065  0.0582  0.6999
 7927WAT     H133513   5.400   8.941   0.590 -0.6332  1.6108 -1.0138
 7927WAT     H233514   5.272   8.879   0.641  1.1914 -0.1946  1.6290
 7927WAT    EPW33515   5.332   8.889   0.578  0.0784  0.2294  0.5964
 7928WAT      O33516   7.559   5.586   6.419  0.0649 -0.5833 -1.2077
 7928WAT     H133517   7.617   5.606   6.493 -0.6051  0.3791 -0.9271
 7928WAT     H233518   7.618   5.581   6.344  0.4472  1.1928 -1.0643
 7928WAT    EPW33519   7.575   5.588   6.419  0.0269 -0.2222 -1.1518
 7929WAT      O33520   8.736   4.921   7.322  0.0324 -0.3210  0.0620
 7929WAT     H133521   8.643   4.945   7.329 -0.0955 -0.3065 -1.3069
 7929WAT     H233522   8.736   4.839   7.273  0.6800 -1.1236  1.3728
 7929WAT    EPW33523   8.724   4.913   7.316  0.1006 -0.4251  0.0541
 7930WAT      O33524  10.786   7.136   0.227  0.1593  0.7382  0.1805
 7930WAT     H133525  10.844   7.195   0.274 -2.3677  2.2691  1.6306
 7930WAT     H233526  10.793   7.163   0.136  2.6777 -0.0650  0.0700
 7930WAT    EPW33527  10.794   7.147   0.221  0.1583  0.8342  0.3572
 7931WAT      O33528   5.365   3.351   7.616  0.4132 -0.5986 -0.0553
 7931WAT     H133529   5.425   3.405   7.668 -1.0994  1.1818 -0.0551
 7931WAT     H233530   5.290   3.337   7.674 -0.5418 -0.0468 -1.1138
 7931WAT    EPW33531   5.363   3.356   7.631  0.0877 -0.2911 -0.1945
 7932WAT      O33532   8.003   4.147   6.323  0.0010  0.0247 -0.2455
 7932WAT     H133533   8.077   4.177   6.270 -0.4058 -1.5096 -1.7682
 7932WAT     H233534   8.013   4.052   6.327 -0.4268  0.0322  1.8059
 7932WAT    EPW33535   8.014   4.139   6.316 -0.1097 -0.1767 -0.1760
 7933WAT      O33536   7.181   6.168   8.377 -0.1604  0.2389 -0.1252
 7933WAT     H133537   7.145   6.235   8.319 -0.9069 -2.4610 -3.0615
 7933WAT     H233538   7.106   6.137   8.428 -0.4130 -0.2272 -0.7731
 7933WAT    EPW33539   7.167   6.173   8.376 -0.2923 -0.1786 -0.5980
 7934WAT      O33540   6.266   4.044   8.762  0.7145 -0.0702  0.2882
 7934WAT     H133541   6.245   4.134   8.740  1.0269 -0.0456  0.0897
 7934WAT     H233542   6.362   4.040   8.760  0.8553  0.2419  2.8095
 7934WAT    EPW33543   6.276   4.055   8.759  0.7744 -0.0260  0.5951
 7935WAT      O33544   3.269   5.905   8.695 -0.0737 -0.5793 -0.0946
 7935WAT     H133545   3.285   5.971   8.628 -1.9752  0.3285  0.2932
 7935WAT     H233546   3.339   5.919   8.759  0.9274 -0.5404 -1.1583
 7935WAT    EPW33547   3.281   5.915   8.695 -0.1925 -0.4542 -0.1841
 7936WAT      O33548  10.843   1.612   0.438  0.3002  0.3256  0.3348
 7936WAT     H133549  10.766   1.648   0.481  1.0790 -0.5508  2.6271
 7936WAT     H233550  10.813   1.529   0.402  0.1094  0.0565  1.0880
 7936WAT    EPW33551  10.829   1.606   0.439  0.3772  0.1745  0.7365
 7937WAT      O33552   5.876   4.856   6.747  0.1220  0.4150 -0.0069
 7937WAT     H133553   5.931   4.934   6.750 -1.1315  1.3466 -0.1950
 7937WAT     H233554   5.922   4.796   6.688  0.8278  1.2304 -0.3141
 7937WAT    EPW33555   5.889   4.859   6.740  0.0496  0.6454 -0.0722
 7938WAT      O33556   5.694   8.092   7.731  0.4043  0.1978 -0.3514
 7938WAT     H133557   5.755   8.079   7.804  1.5171  1.6456 -0.9720
 7938WAT     H233558   5.658   8.180   7.746 -1.2080 -0.4424 -0.2632
 7938WAT    EPW33559   5.697   8.102   7.743  0.3386  0.3042 -0.4215
 7939WAT      O33560   4.020   6.504   8.228  0.8543 -0.8355  0.6429
 7939WAT     H133561   3.951   6.439   8.212 -0.8945  0.7683  1.2236
 7939WAT     H233562   4.033   6.502   8.323  0.3007  0.0928  0.7492
 7939WAT    EPW33563   4.012   6.495   8.238  0.5507 -0.5016  0.7339
 7940WAT      O33564   3.273   1.950   1.120  0.3495 -0.3420  0.3605
 7940WAT     H133565   3.248   1.941   1.212 -0.3184  1.3082  0.3776
 7940WAT     H233566   3.243   2.037   1.095  4.1787  1.0339 -0.2160
 7940WAT    EPW33567   3.266   1.960   1.129  0.7664  0.0572  0.2867
 7941WAT      O33568   4.278   5.609   8.121 -0.1292 -0.0636 -0.2320
 7941WAT     H133569   4.250   5.696   8.093 -0.4558 -0.2375 -0.4534
 7941WAT     H233570   4.373   5.616   8.130 -0.1559  0.3180 -0.2380
 7941WAT    EPW33571   4.287   5.621   8.118 -0.1757 -0.0362 -0.2623
 7942WAT      O33572   7.824   5.242   8.180  0.0373  0.6313 -0.4499
 7942WAT     H133573   7.827   5.334   8.205  0.8708  0.4986 -0.0336
 7942WAT     H233574   7.775   5.200   8.251  1.1068  0.4977  0.2336
 7942WAT    EPW33575   7.818   5.249   8.193  0.2882  0.5960 -0.3047
 7943WAT      O33576   3.130   4.917   7.502 -0.2201  0.3646 -0.0321
 7943WAT     H133577   3.116   5.010   7.521 -0.6980  0.2542  0.1799
 7943WAT     H233578   3.042   4.880   7.501 -0.1414  0.1423 -1.3366
 7943WAT    EPW33579   3.116   4.925   7.504 -0.2729  0.3207 -0.1762
 7944WAT      O33580   3.596   6.149   1.172  0.2029  0.3467 -0.0847
 7944WAT     H133581   3.672   6.192   1.212  0.2556 -0.3336  0.5789
 7944WAT     H233582   3.618   6.143   1.079  0.1041  1.9102 -0.2293
 7944WAT    EPW33583   3.609   6.154   1.165  0.1968  0.4632 -0.0162
 7945WAT      O33584   6.551   8.874   2.017  0.0210  0.1180 -0.3829
 7945WAT     H133585   6.630   8.861   2.069 -0.3047 -0.9544 -0.1370
 7945WAT     H233586   6.521   8.961   2.041 -0.3893 -0.5316  1.6006
 7945WAT    EPW33587   6.558   8.884   2.027 -0.0761 -0.1082 -0.0889
 7946WAT      O33588   2.801   0.978   1.114 -0.0868 -0.3945  0.1752
 7946WAT     H133589   2.722   1.002   1.066  0.5833  0.9396 -0.3091
 7946WAT     H233590   2.836   0.903   1.066 -0.5118 -0.3509 -0.2112
 7946WAT    EPW33591   2.795   0.971   1.101 -0.0545 -0.2128  0.0603
 7947WAT      O33592   5.401   0.541   2.629 -0.1367  0.5659 -0.1059
 7947WAT     H133593   5.312   0.514   2.653  0.5147 -2.4723 -0.7209
 7947WAT     H233594   5.445   0.555   2.713 -0.7311  0.4648  0.2310
 7947WAT    EPW33595   5.395   0.539   2.643 -0.1290  0.1518 -0.1425
 7948WAT      O33596   4.173   2.577   7.627 -0.6564 -0.0530  0.2776
 7948WAT     H133597   4.168   2.607   7.718 -1.5565 -2.6466  1.1705
 7948WAT     H233598   4.224   2.496   7.632 -3.2105 -1.8575 -1.0200
 7948WAT    EPW33599   4.179   2.570   7.640 -1.1120 -0.6331  0.2241
 7949WAT      O33600   1.361   1.840   0.356 -0.3337  0.0435  0.3333
 7949WAT     H133601   1.387   1.932   0.355 -1.3470  0.3511 -1.5754
 7949WAT     H233602   1.412   1.802   0.428 -1.9567  2.6181  3.0633
 7949WAT    EPW33603   1.371   1.847   0.365 -0.6815  0.4237  0.4416
 7950WAT      O33604   3.189   0.536   1.361  0.7500 -0.6098 -0.1132
 7950WAT     H133605   3.122   0.566   1.300 -0.1111  1.3113  1.6431
 7950WAT     H233606   3.272   0.553   1.316  0.1570  1.0471 -0.6592
 7950WAT    EPW33607   3.191   0.542   1.347  0.5581 -0.1379  0.0465
 7951WAT      O33608   6.616   4.657   7.778  0.3071 -0.5958  0.4309
 7951WAT     H133609   6.590   4.691   7.863 -4.7186  0.0929 -1.0924
 7951WAT     H233610   6.641   4.734   7.728 -0.0198 -0.5786  0.2948
 7951WAT    EPW33611   6.616   4.672   7.783 -0.3989 -0.5023  0.2120
 7952WAT      O33612   7.758   9.363   0.026 -0.5587 -0.6377 -0.2149
 7952WAT     H133613   7.674   9.401   0.053  0.1432 -0.3658  1.7196
 7952WAT     H233614   7.781   9.411  -0.054 -1.7732 -0.0337 -0.2250
 7952WAT    EPW33615   7.750   9.375   0.019 -0.6263 -0.5226  0.0389
 7953WAT      O33616  10.978  10.181   4.517  0.0138  0.3673  0.5049
 7953WAT     H133617  10.957  10.175   4.610 -1.4217 -0.3119  0.1781
 7953WAT     H233618  10.907  10.234   4.480  1.6232  2.3235  0.0787
 7953WAT    EPW33619  10.966  10.187   4.524  0.0367  0.5355  0.4055
 7954WAT      O33620   7.387   3.480   4.865 -0.0740 -0.8007  0.5206
 7954WAT     H133621   7.303   3.485   4.820  0.4776  3.1803 -0.4287
 7954WAT     H233622   7.364   3.467   4.957 -1.6457 -1.0057  0.1287
 7954WAT    EPW33623   7.373   3.479   4.871 -0.2084 -0.3027  0.3436
 7955WAT      O33624   6.203   5.216   8.686  1.0823  0.5529 -0.2399
 7955WAT     H133625   6.181   5.126   8.661  3.1538 -0.1765  0.3281
 7955WAT     H233626   6.196   5.216   8.782 -1.7636  1.8832 -0.3459
 7955WAT    EPW33627   6.199   5.204   8.695  0.9801  0.6323 -0.1793
 7956WAT      O33628   4.442   2.937   6.603  0.3415  0.0736 -0.3439
 7956WAT     H133629   4.441   2.844   6.624 -0.9881  0.9192  4.6925
 7956WAT     H233630   4.357   2.954   6.562  0.8316 -0.9125 -1.8445
 7956WAT    EPW33631   4.431   2.927   6.600  0.2306  0.0551  0.1223
 7957WAT      O33632   8.412   3.501   7.067 -0.1140 -0.0131  0.7216
 7957WAT     H133633   8.467   3.433   7.105 -0.4648 -0.1565  0.9841
 7957WAT     H233634   8.455   3.525   6.985  0.0989 -0.4335  0.7108
 7957WAT    EPW33635   8.425   3.495   7.061 -0.1326 -0.0876  0.7551
 7958WAT      O33636   8.574   3.360   0.056 -0.4307 -0.6067  0.5508
 7958WAT     H133637   8.657   3.385   0.017 -0.4951 -0.1745  0.6893
 7958WAT     H233638   8.560   3.270   0.027  0.8155 -1.2149  1.7298
 7958WAT    EPW33639   8.583   3.351   0.047 -0.2747 -0.6299  0.7246
 7959WAT      O33640   3.016   5.157   8.926 -0.1549 -0.1156 -0.3164
 7959WAT     H133641   2.990   5.224   8.863  0.3362 -1.3113 -1.8657
 7959WAT     H233642   2.954   5.085   8.912 -0.3160 -0.2388  0.9041
 7959WAT    EPW33643   3.004   5.156   8.916 -0.1113 -0.2897 -0.3591
 7960WAT      O33644   5.701   5.298   5.918  0.6594 -0.3112 -0.3991
 7960WAT     H133645   5.752   5.352   5.858 -1.1893  2.8439  0.6150
 7960WAT     H233646   5.729   5.326   6.005  0.5738 -2.0024  0.2034
 7960WAT    EPW33647   5.711   5.309   5.922  0.4044 -0.1183 -0.1860
 7961WAT      O33648   5.005   3.623   7.182 -0.7032 -0.7344  0.1300
 7961WAT     H133649   5.051   3.592   7.260 -0.0821 -1.0053 -0.3343
 7961WAT     H233650   5.046   3.576   7.109  0.3605  1.2703 -0.6240
 7961WAT    EPW33651   5.016   3.613   7.183 -0.4809 -0.5058 -0.0308
 7962WAT      O33652   6.669   5.957   7.968 -0.4762 -0.3292 -0.3135
 7962WAT     H133653   6.616   5.880   7.987 -0.0015 -0.8345 -0.9750
 7962WAT     H233654   6.606   6.025   7.946 -0.8359 -1.2449 -2.2653
 7962WAT    EPW33655   6.654   5.956   7.968 -0.4609 -0.5167 -0.6583
 7963WAT      O33656   4.085   0.912   1.791  0.3029  1.2900 -0.1169
 7963WAT     H133657   4.093   0.960   1.708  1.1865  0.0970 -0.7432
 7963WAT     H233658   4.171   0.875   1.805  0.0223  1.0858  1.1122
 7963WAT    EPW33659   4.097   0.914   1.782  0.3827  1.1057 -0.0374
 7964WAT      O33660  10.824   0.601   0.592 -0.5538 -0.0159  0.5658
 7964WAT     H133661  10.771   0.567   0.665 -1.2296  0.2471  0.2070
 7964WAT     H233662  10.783   0.564   0.514 -0.1528  0.1273  0.2899
 7964WAT    EPW33663  10.811   0.592   0.592 -0.5898  0.0377  0.4821
 7965WAT      O33664   5.694   5.151   7.237 -0.3438 -0.0759 -0.5370
 7965WAT     H133665   5.727   5.188   7.156  0.5950 -0.5615 -0.3951
 7965WAT     H233666   5.733   5.205   7.306  0.8599 -1.1494 -0.3366
 7965WAT    EPW33667   5.703   5.163   7.236 -0.0610 -0.2818 -0.4919
 7966WAT      O33668   5.435   9.985   2.594  0.1434 -0.2483  0.3006
 7966WAT     H133669   5.363   9.987   2.658 -0.4351 -0.4846 -0.3254
 7966WAT     H233670   5.514   9.977   2.647 -0.3946 -1.5755  0.9577
 7966WAT    EPW33671   5.436   9.984   2.610 -0.0036 -0.4544  0.3047
 7967WAT      O33672   4.201   3.468   8.738  0.3182  0.0842  0.1757
 7967WAT     H133673   4.204   3.564   8.739  2.0466  0.1454 -2.0980
 7967WAT     H233674   4.160   3.444   8.821  3.1211  2.7066  2.5834
 7967WAT    EPW33675   4.196   3.477   8.749  0.9158  0.4381  0.1931
 7968WAT      O33676   8.271   3.886   8.367  0.6103 -0.5713 -0.2140
 7968WAT     H133677   8.356   3.921   8.393 -0.1570 -0.4813  2.4750
 7968WAT     H233678   8.234   3.952   8.308  0.6321  1.5612  2.0331
 7968WAT    EPW33679   8.277   3.899   8.362  0.5121 -0.2782  0.4373
 7969WAT      O33680   1.566   8.567   0.376  0.3821 -0.2423 -0.4054
 7969WAT     H133681   1.606   8.549   0.462  1.5399 -0.9907 -1.0749
 7969WAT     H233682   1.623   8.633   0.336 -0.2420  0.2188 -0.5558
 7969WAT    EPW33683   1.579   8.573   0.382  0.4525 -0.2804 -0.5136
 7970WAT      O33684   1.029   6.767   1.920  0.5044  0.0364 -0.5402
 7970WAT     H133685   0.967   6.694   1.908  0.3742 -0.1703  1.0834
 7970WAT     H233686   0.987   6.841   1.878 -0.6623 -0.2160  0.1249
 7970WAT    EPW33687   1.015   6.767   1.913  0.3334 -0.0238 -0.2384
 7971WAT      O33688   2.404   1.417   3.351 -0.0453  0.2268 -0.5049
 7971WAT     H133689   2.499   1.418   3.338 -0.0674  2.1073 -0.7459
 7971WAT     H233690   2.372   1.492   3.301 -1.3776  1.0325  1.4377
 7971WAT    EPW33691   2.412   1.427   3.343 -0.2239  0.5810 -0.2806
 7972WAT      O33692   0.776  10.091   0.922 -0.0045 -0.6364 -0.3105
 7972WAT     H133693   0.822  10.049   0.850  0.7189 -1.2095  0.4643
 7972WAT     H233694   0.805  10.044   1.000 -1.5155 -0.6643  0.2625
 7972WAT    EPW33695   0.786  10.079   0.923 -0.1084 -0.7157 -0.1327
 7973WAT      O33696   3.707   0.286   0.189  0.7530 -0.2667 -1.4035
 7973WAT     H133697   3.641   0.343   0.228 -2.4870 -3.2702 -2.0076
 7973WAT     H233698   3.777   0.282   0.255 -0.3420  1.8258 -0.0053
 7973WAT    EPW33699   3.708   0.293   0.203  0.1812 -0.3869 -1.2988
 7974WAT      O33700   4.404   3.470   7.659  0.1376 -0.0290  0.2904
 7974WAT     H133701   4.348   3.468   7.737 -0.0467 -1.7841  0.1691
 7974WAT     H233702   4.383   3.552   7.616 -1.3067 -0.0039  0.9938
 7974WAT    EPW33703   4.394   3.480   7.664 -0.0772 -0.2571  0.3672
 7975WAT      O33704   8.896   9.168   1.863  0.1872 -0.0731 -0.1341
 7975WAT     H133705   8.943   9.118   1.930 -0.0256  1.2868  1.0777
 7975WAT     H233706   8.848   9.235   1.912 -0.9963  0.1805 -1.5533
 7975WAT    EPW33707   8.896   9.170   1.878  0.0029  0.1392 -0.1615
 7976WAT      O33708   4.054   5.910   8.967  0.5919 -0.5704  0.1221
 7976WAT     H133709   4.118   5.930   9.035  0.2988  0.2545  0.1654
 7976WAT     H233710   4.105   5.911   8.886  0.3076  2.5018 -0.1664
 7976WAT    EPW33711   4.069   5.913   8.965  0.5157 -0.0563  0.0898
 7977WAT      O33712   9.728   4.976   1.560  0.4303 -0.0207  0.5770
 7977WAT     H133713   9.782   5.024   1.497 -0.9706  0.2630 -0.4654
 7977WAT     H233714   9.665   4.928   1.506  0.0935 -0.9127  1.7177
 7977WAT    EPW33715   9.726   4.976   1.544  0.2012 -0.1011  0.5899
 7978WAT      O33716   3.418   4.664   5.995 -0.9223  0.0711 -0.6209
 7978WAT     H133717   3.499   4.697   5.957  1.4809 -2.6453  1.6266
 7978WAT     H233718   3.402   4.720   6.070  1.7029 -1.9695  1.6837
 7978WAT    EPW33719   3.427   4.675   6.000 -0.2592 -0.5562 -0.0205
 7979WAT      O33720   4.387  10.285   6.104 -0.2710  1.3944 -0.0473
 7979WAT     H133721   4.300  10.260   6.072 -0.7273  1.4968  1.0824
 7979WAT     H233722   4.376  10.295   6.198  0.7933  2.1891  0.0037
 7979WAT    EPW33723   4.374  10.283   6.112 -0.1907  1.5130  0.1082
 7980WAT      O33724   9.327   6.036   8.026  0.2374  0.0203 -0.8282
 7980WAT     H133725   9.356   6.057   7.938  2.1314 -1.9971 -0.7743
 7980WAT     H233726   9.233   6.023   8.018  0.2709  0.5351 -2.3942
 7980WAT    EPW33727   9.319   6.037   8.014  0.4916 -0.1779 -1.0276
 7981WAT      O33728   3.461   4.287   7.712  0.1859 -0.2140  0.2627
 7981WAT     H133729   3.490   4.267   7.623 -3.5350  0.0976 -1.1970
 7981WAT     H233730   3.405   4.213   7.736 -0.6828  0.7746  1.4007
 7981WAT    EPW33731   3.457   4.275   7.704 -0.4194 -0.0424  0.2205
 7982WAT      O33732   5.146   6.215   8.967 -0.4976 -0.1970  0.5064
 7982WAT     H133733   5.146   6.158   9.045 -0.9138 -0.3592  0.3923
 7982WAT     H233734   5.218   6.276   8.982 -0.9986  0.2059  1.3351
 7982WAT    EPW33735   5.155   6.215   8.979 -0.6185 -0.1650  0.6008
 7983WAT      O33736   2.202   7.237   8.920 -0.5926  0.0160 -0.5395
 7983WAT     H133737   2.179   7.146   8.903  1.9127 -0.5476 -1.3331
 7983WAT     H233738   2.220   7.273   8.833  1.6145  0.2772 -0.0453
 7983WAT    EPW33739   2.201   7.230   8.906  0.0291 -0.0238 -0.5789
 7984WAT      O33740   7.462   6.247   8.576  1.2645 -0.3488  0.1541
 7984WAT     H133741   7.541   6.204   8.544  0.6325 -1.2399 -0.2335
 7984WAT     H233742   7.392   6.183   8.563  0.4544  0.4623  0.3912
 7984WAT    EPW33743   7.463   6.233   8.570  1.0743 -0.3593  0.1349
 7985WAT      O33744   8.802   9.601   0.432 -0.0893  0.6574 -0.7374
 7985WAT     H133745   8.845   9.576   0.350  1.0704 -1.4885  0.4286
 7985WAT     H233746   8.851   9.678   0.462  0.4218  0.5743 -1.3416
 7985WAT    EPW33747   8.814   9.608   0.425  0.1316  0.3629 -0.6633
 7986WAT      O33748   0.404   1.256   2.040  0.0895  0.6735 -0.1281
 7986WAT     H133749   0.333   1.287   2.095 -0.7245  0.6591 -1.1339
 7986WAT     H233750   0.396   1.308   1.960  1.5044  0.9896 -0.0879
 7986WAT    EPW33751   0.393   1.267   2.037  0.1688  0.7133 -0.2555
 7987WAT      O33752   0.778   1.266   0.687 -0.5094  0.6258  0.2638
 7987WAT     H133753   0.710   1.199   0.688  0.7056 -0.7176 -1.1033
 7987WAT     H233754   0.837   1.242   0.759  0.8391 -0.8893 -1.2362
 7987WAT    EPW33755   0.777   1.254   0.697 -0.1713  0.2487 -0.1144
 7988WAT      O33756   8.874   8.488   0.843 -0.1650 -0.2574 -0.1357
 7988WAT     H133757   8.967   8.495   0.867 -0.2424 -0.6644  0.2936
 7988WAT     H233758   8.843   8.412   0.891 -1.3439  1.3223  1.7592
 7988WAT    EPW33759   8.882   8.479   0.852 -0.3300 -0.1025  0.1708
 7989WAT      O33760   4.186   1.387   0.360  0.1452  0.0893  0.2882
 7989WAT     H133761   4.231   1.326   0.417  0.8749  0.8071  0.5088
 7989WAT     H233762   4.250   1.408   0.292  0.1733  1.1146  0.6015
 7989WAT    EPW33763   4.200   1.382   0.359  0.2453  0.3192  0.3586
 7990WAT      O33764   2.954   0.991   0.712  0.5201  0.1198  0.7265
 7990WAT     H133765   2.877   1.016   0.660  1.4471  0.7797 -0.4009
 7990WAT     H233766   2.976   1.071   0.761  1.3238  0.4021 -0.0702
 7990WAT    EPW33767   2.946   1.005   0.711  0.7483  0.2441  0.4727
 7991WAT      O33768   4.318   6.086   8.537 -0.4094  0.2983  0.0184
 7991WAT     H133769   4.404   6.127   8.551  1.2860 -2.8178 -0.2795
 7991WAT     H233770   4.309   6.083   8.442  0.4267 -1.5751 -0.0530
 7991WAT    EPW33771   4.328   6.091   8.527 -0.0758 -0.3598 -0.0310
 7992WAT      O33772   4.985   5.887   8.207  0.3695  0.1844  0.2662
 7992WAT     H133773   4.972   5.973   8.246  3.2891  0.9754 -0.2586
 7992WAT     H233774   4.974   5.901   8.113  0.5465 -0.0787  0.2047
 7992WAT    EPW33775   4.982   5.900   8.200  0.7777  0.2539  0.1888
 7993WAT      O33776   3.823   5.941   8.148 -0.1694 -0.8160 -0.0546
 7993WAT     H133777   3.754   5.995   8.186 -1.1152 -1.1949 -1.1783
 7993WAT     H233778   3.805   5.941   8.054  2.4350  0.5813 -0.6554
 7993WAT    EPW33779   3.811   5.948   8.141  0.0491 -0.6816 -0.2818
 7994WAT      O33780   4.143   2.979   6.894  0.2442  0.5637 -0.4573
 7994WAT     H133781   4.223   3.033   6.889  0.3936  0.8015  2.5268
 7994WAT     H233782   4.072   3.043   6.896  0.1263  0.4460 -0.8014
 7994WAT    EPW33783   4.144   2.995   6.894  0.2482  0.5795 -0.1090
 7995WAT      O33784  10.807   9.960   0.462  0.2644 -0.4663 -0.5874
 7995WAT     H133785  10.821   9.949   0.368  1.0232 -1.4664 -0.3725
 7995WAT     H233786  10.726  10.011   0.469 -0.7196 -1.8257 -1.7435
 7995WAT    EPW33787  10.798   9.965   0.451  0.2351 -0.7772 -0.7116
 7996WAT      O33788   4.582   9.368   1.516 -0.4547  0.1993  0.7307
 7996WAT     H133789   4.565   9.441   1.576 -2.1095  1.3258 -0.9937
 7996WAT     H233790   4.495   9.335   1.493 -0.0302  0.9967 -2.4183
 7996WAT    EPW33791   4.568   9.373   1.521 -0.6168  0.4525  0.0879
 7997WAT      O33792   3.501   1.965   0.142  0.0187  0.7108 -0.0339
 7997WAT     H133793   3.569   1.960   0.209  2.5651 -1.0236 -2.5124
 7997WAT     H233794   3.452   1.884   0.151  2.3741 -1.1156 -2.0068
 7997WAT    EPW33795   3.504   1.954   0.152  0.6652  0.2411 -0.6210
 7998WAT      O33796   3.154   2.591   4.629  0.1523  0.5234  0.4374
 7998WAT     H133797   3.059   2.589   4.620  0.1546  1.2433  0.1946
 7998WAT     H233798   3.178   2.501   4.650 -0.6282  0.4375  0.9900
 7998WAT    EPW33799   3.144   2.579   4.631  0.0496  0.6070  0.4783
 7999WAT      O33800   4.904   1.721   7.018 -0.4731  0.7226  0.8234
 7999WAT     H133801   4.978   1.702   7.076  0.1867  5.4062  1.9636
 7999WAT     H233802   4.942   1.773   6.948 -1.9888 -1.3390 -1.6911
 7999WAT    EPW33803   4.919   1.725   7.017 -0.5860  1.0684  0.6423
 8000WAT      O33804   3.644   3.119   0.185 -1.1132  0.1579 -0.0428
 8000WAT     H133805   3.658   3.213   0.198 -1.0269  0.1280  0.0947
 8000WAT     H233806   3.664   3.080   0.271 -1.8315  0.0851  0.1004
 8000WAT    EPW33807   3.649   3.126   0.198 -1.1966  0.1442 -0.0058
 8001WAT      O33808   5.530   5.552   8.381  0.6406 -0.2981 -0.2849
 8001WAT     H133809   5.507   5.610   8.308  0.8479  1.4191  0.9499
 8001WAT     H233810   5.447   5.529   8.421  0.5417 -1.0584 -0.9172
 8001WAT    EPW33811   5.516   5.557   8.377  0.6552 -0.1717 -0.2050
 8002WAT      O33812   8.533   6.581   7.717 -0.3105 -0.3880 -0.0381
 8002WAT     H133813   8.476   6.642   7.764 -0.1133 -0.3024  0.0915
 8002WAT     H233814   8.475   6.536   7.656 -0.8588 -1.5249  1.2738
 8002WAT    EPW33815   8.518   6.583   7.715 -0.3572 -0.5267  0.1519
 8003WAT      O33816   6.099   7.207   7.989 -0.6930  0.0198  0.3091
 8003WAT     H133817   6.037   7.275   7.961 -0.0932  2.3268  3.9211
 8003WAT     H233818   6.052   7.125   7.977 -3.1067  1.3949 -0.3162
 8003WAT    EPW33819   6.085   7.205   7.984 -0.9322  0.5054  0.7029
 8004WAT      O33820   2.644   3.697   7.825  0.4040 -0.2656 -0.7093
 8004WAT     H133821   2.734   3.722   7.801  0.7738 -0.9317 -0.0414
 8004WAT     H233822   2.594   3.711   7.744  1.4830 -1.7580 -1.6916
 8004WAT    EPW33823   2.649   3.703   7.811  0.5950 -0.5504 -0.7508
 8005WAT      O33824   7.306   3.622   8.913 -0.5856  0.2035 -0.5257
 8005WAT     H133825   7.219   3.663   8.912 -0.7366  0.1020  2.2694
 8005WAT     H233826   7.355   3.671   8.978  0.8681 -0.9481 -0.7060
 8005WAT    EPW33827   7.301   3.634   8.921 -0.4139  0.0380 -0.1812
 8006WAT      O33828  10.218   5.538   8.162 -0.4814 -0.6336 -0.9039
 8006WAT     H133829  10.174   5.601   8.104 -1.0172 -1.3794 -1.3251
 8006WAT     H233830  10.237   5.588   8.241  1.9897  0.9882 -2.3591
 8006WAT    EPW33831  10.215   5.553   8.165 -0.2255 -0.5181 -1.1506
 8007WAT      O33832   4.277   6.189   8.267 -0.3035  0.0030 -0.6587
 8007WAT     H133833   4.276   6.270   8.216  1.4754  0.9597  0.7527
 8007WAT     H233834   4.191   6.187   8.310 -0.7312  0.6174 -1.4536
 8007WAT    EPW33835   4.265   6.199   8.266 -0.1254  0.2105 -0.5770
 8008WAT      O33836   5.700   4.990   8.917  0.5537 -0.9325 -0.4908
 8008WAT     H133837   5.677   5.015   8.827  1.1687  0.7565 -0.2105
 8008WAT     H233838   5.656   5.056   8.972  2.0372 -0.5658  0.3015
 8008WAT    EPW33839   5.691   5.002   8.912  0.8304 -0.6611 -0.3500
 8009WAT      O33840   4.042   0.208   1.565 -0.6126  0.8012  0.4758
 8009WAT     H133841   3.980   0.281   1.562  0.6270  1.9451  1.3260
 8009WAT     H233842   4.127   0.249   1.552  0.1106 -0.5134  0.9291
 8009WAT    EPW33843   4.045   0.223   1.563 -0.3538  0.7786  0.6477
 8010WAT      O33844   4.756   3.978   8.806  0.4586  0.4435 -0.3334
 8010WAT     H133845   4.667   4.009   8.823  0.1029 -1.1586  0.9911
 8010WAT     H233846   4.744   3.902   8.748  0.9676  0.3068 -0.2671
 8010WAT    EPW33847   4.743   3.972   8.800  0.4787  0.2142 -0.1502
 8011WAT      O33848   6.077   4.383   8.272  0.2718  0.2831  0.8939
 8011WAT     H133849   6.086   4.384   8.177  0.8100  1.3009  0.9455
 8011WAT     H233850   6.160   4.416   8.305  1.2223 -2.7503  1.8543
 8011WAT    EPW33851   6.089   4.388   8.264  0.4683  0.0174  1.0271
 8012WAT      O33852   3.792   1.781   5.374 -0.0002 -0.3443  0.4882
 8012WAT     H133853   3.756   1.771   5.462  2.0436 -1.5647  1.2597
 8012WAT     H233854   3.877   1.737   5.378  0.0590 -0.6251 -2.1710
 8012WAT    EPW33855   3.799   1.774   5.386  0.2772 -0.5423  0.2394
 8013WAT      O33856   4.427   7.632   8.208 -0.0924  0.2407  0.1279
 8013WAT     H133857   4.364   7.567   8.175  1.1929 -1.5938  1.1050
 8013WAT     H233858   4.377   7.682   8.273 -1.5276  1.3089 -1.6955
 8013WAT    EPW33859   4.412   7.630   8.212 -0.1123  0.1397  0.0162
 8014WAT      O33860   4.846   5.836   7.247  0.8355 -0.0122 -0.0438
 8014WAT     H133861   4.770   5.814   7.193 -0.1749 -0.1061  1.3669
 8014WAT     H233862   4.881   5.752   7.275 -0.7490 -0.0098  2.2348
 8014WAT    EPW33863   4.841   5.822   7.244  0.4930 -0.0243  0.4430
 8015WAT      O33864   6.804   1.334   6.752 -0.3442  0.1272 -0.2918
 8015WAT     H133865   6.840   1.261   6.802  1.0243  0.3546 -0.8916
 8015WAT     H233866   6.717   1.304   6.725  0.4402 -1.5770 -1.0878
 8015WAT    EPW33867   6.797   1.321   6.755 -0.0603 -0.0675 -0.4759
 8016WAT      O33868   3.929   5.300   7.875 -0.3899  0.1485 -0.2545
 8016WAT     H133869   3.935   5.263   7.963  0.8572  1.3109  0.1838
 8016WAT     H233870   4.009   5.273   7.831  0.4329  2.0000 -0.0079
 8016WAT    EPW33871   3.940   5.292   7.881 -0.1169  0.5460 -0.1640
 8017WAT      O33872   4.060   1.396   2.144  1.1251 -0.6851  0.2021
 8017WAT     H133873   4.011   1.318   2.171 -1.6083  0.6816 -0.4320
 8017WAT     H233874   4.127   1.407   2.211 -2.6591  0.1865  4.3041
 8017WAT    EPW33875   4.063   1.387   2.157  0.2656 -0.3899  0.6596
 8018WAT      O33876   6.501   7.715   8.950 -0.0781 -0.2447 -0.2677
 8018WAT     H133877   6.485   7.785   8.886  2.3839  2.3500  1.7244
 8018WAT     H233878   6.437   7.731   9.019  0.5088  0.0923  0.2045
 8018WAT    EPW33879   6.490   7.727   8.950  0.3240  0.1419  0.0577
 8019WAT      O33880  10.941   0.132   5.287  0.3716  0.0433  0.2517
 8019WAT     H133881  10.849   0.146   5.310  0.3191 -1.1482  0.8725
 8019WAT     H233882  10.987   0.206   5.325 -0.0871 -0.4386  1.8108
 8019WAT    EPW33883  10.935   0.144   5.295  0.3047 -0.1774  0.5391
 8020WAT      O33884   7.724  10.146   0.394 -0.0332  0.3533 -0.6802
 8020WAT     H133885   7.698  10.062   0.431  1.2086 -0.6118 -1.8992
 8020WAT     H233886   7.798  10.126   0.337  0.5888  2.3511 -0.6680
 8020WAT    EPW33887   7.730  10.132   0.391  0.2127  0.4892 -0.8394
 8021WAT      O33888   4.603   0.483   1.837  0.3223 -0.1997 -0.1060
 8021WAT     H133889   4.590   0.407   1.893 -2.6515  0.9532  0.9932
 8021WAT     H233890   4.515   0.516   1.820  1.3280  1.5377 -2.6792
 8021WAT    EPW33891   4.590   0.478   1.842  0.0627  0.1815 -0.3003
 8022WAT      O33892   8.568   5.134   8.067  0.7354  0.1986 -0.4497
 8022WAT     H133893   8.570   5.040   8.085  1.2167  0.1627 -0.6716
 8022WAT     H233894   8.510   5.170   8.135 -1.2979 -0.5288 -1.6963
 8022WAT    EPW33895   8.560   5.127   8.078  0.5307  0.0980 -0.6433
 8023WAT      O33896   0.746   1.474   0.914 -0.3910  0.2911 -0.3915
 8023WAT     H133897   0.715   1.561   0.941  0.9148  1.1573 -1.5737
 8023WAT     H233898   0.672   1.436   0.866 -0.7431  0.9923 -0.4132
 8023WAT    EPW33899   0.732   1.480   0.912 -0.2652  0.4979 -0.5502
 8024WAT      O33900  10.267   7.307   0.936 -1.2143  0.5815  0.1134
 8024WAT     H133901  10.219   7.256   0.870 -0.6573 -0.0284  0.1621
 8024WAT     H233902  10.353   7.322   0.896 -0.8110  0.0562  0.7588
 8024WAT    EPW33903  10.272   7.302   0.922 -1.0877  0.4320  0.2050
 8025WAT      O33904   1.641   0.161   0.533 -0.1842 -0.0786  0.0949
 8025WAT     H133905   1.667   0.200   0.616  2.1954 -1.9042  0.3238
 8025WAT     H233906   1.563   0.109   0.554  0.8568 -1.1833  1.4518
 8025WAT    EPW33907   1.634   0.159   0.547  0.2670 -0.4651  0.3040
 8026WAT      O33908  10.161   1.417   0.696 -0.1417 -0.0431 -0.0376
 8026WAT     H133909  10.178   1.511   0.705 -4.1591  1.0499 -1.5989
 8026WAT     H233910  10.193   1.395   0.609  1.7378 -0.4478  0.7204
 8026WAT    EPW33911  10.167   1.427   0.686 -0.4234  0.0477 -0.1435
 8027WAT      O33912   9.570   9.589   1.583  0.1633 -0.0040  0.8218
 8027WAT     H133913   9.512   9.613   1.655 -2.4107 -1.3672 -0.6475
 8027WAT     H233914   9.527   9.623   1.505  0.8289 -1.8590 -0.4225
 8027WAT    EPW33915   9.557   9.597   1.583 -0.0887 -0.4277  0.4639
 8028WAT      O33916   1.462   1.610   0.491  0.8513  0.5343 -0.5301
 8028WAT     H133917   1.547   1.644   0.520  0.0444  2.2076  0.0108
 8028WAT     H233918   1.476   1.585   0.399  2.4825 -1.3595  0.1596
 8028WAT    EPW33919   1.475   1.612   0.483  0.9601  0.5051 -0.3677
 8029WAT      O33920   8.369   9.012   6.916 -0.9460 -0.2870 -0.5910
 8029WAT     H133921   8.364   9.108   6.922 -0.5340 -0.2740 -0.4347
 8029WAT     H233922   8.280   8.982   6.938 -0.8483  0.0144  0.2691
 8029WAT    EPW33923   8.356   9.021   6.920 -0.8793 -0.2456 -0.4570
 8030WAT      O33924  10.464   5.870   6.152 -0.7695 -0.2612 -0.2185
 8030WAT     H133925  10.385   5.841   6.106  0.5042 -1.0914 -2.0047
 8030WAT     H233926  10.461   5.966   6.146 -1.1853 -0.3159 -1.1153
 8030WAT    EPW33927  10.453   5.879   6.145 -0.6566 -0.3779 -0.5722
 8031WAT      O33928   4.437   5.407   8.756  0.0943  0.1441 -0.3517
 8031WAT     H133929   4.345   5.434   8.757 -0.7145 -2.4166  0.1801
 8031WAT     H233930   4.476   5.450   8.832 -0.7191  0.9979 -0.4022
 8031WAT    EPW33931   4.430   5.417   8.766 -0.1194 -0.0811 -0.2880
 8032WAT      O33932  10.407   5.378   1.056 -0.4194  0.1454 -0.3838
 8032WAT     H133933  10.319   5.393   1.089 -0.3483 -0.4159  0.0881
 8032WAT     H233934  10.423   5.285   1.073 -0.0208  0.0677 -1.1536
 8032WAT    EPW33935  10.398   5.368   1.063 -0.3576  0.0610 -0.4231
 8033WAT      O33936   3.993   2.483   8.356 -0.1941 -0.6329 -0.4732
 8033WAT     H133937   3.900   2.495   8.377 -0.4548 -0.7608 -1.5429
 8033WAT     H233938   4.039   2.510   8.436 -1.1108  0.2030 -0.2185
 8033WAT    EPW33939   3.987   2.488   8.370 -0.3493 -0.5395 -0.5808
 8034WAT      O33940   6.530   5.262   7.817  0.2447  0.5624 -0.4471
 8034WAT     H133941   6.506   5.185   7.868  1.9829  0.5114  0.3791
 8034WAT     H233942   6.626   5.261   7.816  0.3548  0.0943 -4.4816
 8034WAT    EPW33943   6.539   5.252   7.824  0.4885  0.4938 -0.8705
 8035WAT      O33944   6.907   9.971   7.818 -0.2581  0.2721 -0.1752
 8035WAT     H133945   6.987   9.955   7.868  0.0062  2.9672  0.4134
 8035WAT     H233946   6.852  10.022   7.877 -1.0766  1.1837 -1.6732
 8035WAT    EPW33947   6.910   9.976   7.833 -0.3312  0.7477 -0.2952
 8036WAT      O33948   3.015   2.847   6.605 -0.7619 -0.2504 -0.1814
 8036WAT     H133949   3.008   2.935   6.569 -0.7511 -0.3218 -0.3564
 8036WAT     H233950   3.081   2.855   6.675  0.3391 -0.4260 -1.1735
 8036WAT    EPW33951   3.023   2.859   6.610 -0.6152 -0.2830 -0.3355
 8037WAT      O33952   5.370   6.085   7.767 -0.2802 -0.4392  0.2695
 8037WAT     H133953   5.304   6.069   7.699 -0.4810 -0.0014  0.3607
 8037WAT     H233954   5.355   6.015   7.831  1.8671 -2.7879 -1.5460
 8037WAT    EPW33955   5.359   6.073   7.766 -0.0236 -0.6914  0.0420
 8038WAT      O33956   5.082   4.318   8.398 -0.0285 -0.0896  0.2007
 8038WAT     H133957   5.098   4.277   8.483  0.8117  0.9376  0.5631
 8038WAT     H233958   5.151   4.384   8.390 -0.7661  0.5936 -0.7798
 8038WAT    EPW33959   5.094   4.321   8.408 -0.0150  0.1359  0.1192
 8039WAT      O33960   3.523   3.944   6.946  0.5380  0.5439 -0.0083
 8039WAT     H133961   3.531   3.971   6.854 -0.3379  2.2724  0.3858
 8039WAT     H233962   3.449   3.883   6.946  2.6133 -2.1816 -0.9278
 8039WAT    EPW33963   3.514   3.940   6.934  0.6963  0.4123 -0.0775
 8040WAT      O33964   7.630   2.821   8.743 -0.2447  0.1669  0.4121
 8040WAT     H133965   7.671   2.907   8.727 -0.0460 -0.0879 -0.5359
 8040WAT     H233966   7.703   2.764   8.766 -0.3287  0.1618  0.6661
 8040WAT    EPW33967   7.645   2.825   8.744 -0.2298  0.1327  0.3200
 8041WAT      O33968   2.268   0.933   1.402 -0.6176  0.5889  0.2457
 8041WAT     H133969   2.175   0.954   1.396 -0.3571  1.9761  0.5871
 8041WAT     H233970   2.272   0.864   1.468 -1.3876  0.7062  0.4314
 8041WAT    EPW33971   2.256   0.927   1.410 -0.6847  0.7873  0.3153
 8042WAT      O33972   6.571   3.930   8.667 -0.6356  0.2803  0.3468
 8042WAT     H133973   6.526   3.852   8.634  0.5317 -0.7428  1.0793
 8042WAT     H233974   6.662   3.902   8.677 -0.3492  1.5079  1.3776
 8042WAT    EPW33975   6.577   3.916   8.664 -0.4437  0.3072  0.5794
 8043WAT      O33976   9.732   9.797   2.541 -0.3043 -0.1610 -0.7048
 8043WAT     H133977   9.752   9.725   2.481  0.5307  0.6927 -1.4757
 8043WAT     H233978   9.787   9.779   2.618 -0.6925 -0.7611 -0.5576
 8043WAT    EPW33979   9.742   9.785   2.543 -0.2456 -0.1278 -0.7870
 8044WAT      O33980   9.343   0.823   0.544  0.1104  0.5330 -0.1868
 8044WAT     H133981   9.280   0.884   0.506 -1.5199 -0.1848  1.2331
 8044WAT     H233982   9.289   0.758   0.590  1.8944  0.4945  2.0120
 8044WAT    EPW33983   9.328   0.822   0.545  0.1311  0.4333  0.2905
 8045WAT      O33984   9.762   9.719   0.151  0.2024  0.2082 -0.4292
 8045WAT     H133985   9.668   9.738   0.148  0.5222  1.8478 -1.5047
 8045WAT     H233986   9.768   9.636   0.199 -1.7848  0.0340 -0.3809
 8045WAT    EPW33987   9.750   9.710   0.157 -0.0172  0.4010 -0.5646
 8046WAT      O33988   4.785   4.338   0.247 -0.2008 -0.3684 -0.1276
 8046WAT     H133989   4.874   4.303   0.250  0.4065  1.1486  0.2240
 8046WAT     H233990   4.747   4.302   0.166  1.7609  1.3699 -1.9132
 8046WAT    EPW33991   4.791   4.328   0.237  0.1383  0.0608 -0.3168
 8047WAT      O33992  10.541   0.450   0.222 -0.3820  0.2788  0.4851
 8047WAT     H133993  10.611   0.402   0.265 -0.4948 -3.6500 -3.0539
 8047WAT     H233994  10.464   0.436   0.278  1.0302  3.1393  3.4554
 8047WAT    EPW33995  10.540   0.442   0.235 -0.2108  0.1379  0.4101
 8048WAT      O33996   2.005   1.070   1.339 -0.3586  0.0782  0.0344
 8048WAT     H133997   1.946   1.003   1.306 -0.9137  1.4779 -2.0018
 8048WAT     H233998   1.977   1.084   1.430 -0.8602 -1.6869  0.1868
 8048WAT    EPW33999   1.994   1.063   1.347 -0.4979  0.0300 -0.2140
 8049WAT      O34000   5.407   2.666   6.484 -0.4036  0.1855 -0.0403
 8049WAT     H134001   5.406   2.575   6.454 -0.8594  0.1881 -0.0481
 8049WAT     H234002   5.327   2.673   6.538 -0.7594  0.7755 -0.6395
 8049WAT    EPW34003   5.396   2.655   6.488 -0.5105  0.2637 -0.1202
 8050WAT      O34004  10.826   4.992   6.063  0.0246 -0.7022 -0.0867
 8050WAT     H134005  10.880   4.914   6.077  0.7635  0.1115  2.1325
 8050WAT     H234006  10.750   4.979   6.118  0.6871  0.5751  1.2026
 8050WAT    EPW34007  10.823   4.980   6.072  0.2093 -0.4263  0.3757
 8051WAT      O34008   6.806   5.122   8.802 -0.0686  0.2257  0.1021
 8051WAT     H134009   6.872   5.052   8.797  0.3435  0.5454  0.8605
 8051WAT     H234010   6.736   5.092   8.745  0.4169 -0.4706 -0.1535
 8051WAT    EPW34011   6.806   5.109   8.794  0.0498  0.1757  0.1683
 8052WAT      O34012   6.822   2.312   7.954 -0.3087  0.3359  0.3812
 8052WAT     H134013   6.892   2.314   8.019 -0.6045  0.8561  0.6980
 8052WAT     H234014   6.762   2.244   7.986 -0.1168  0.1238  0.2899
 8052WAT    EPW34015   6.823   2.304   7.967 -0.3226  0.3767  0.4108
 8053WAT      O34016   2.709   2.867   7.445  0.1547  0.4204 -0.6475
 8053WAT     H134017   2.720   2.933   7.513 -0.3667  0.7758 -0.8975
 8053WAT     H234018   2.706   2.784   7.493  0.8943  0.5650 -0.3415
 8053WAT    EPW34019   2.710   2.865   7.460  0.1835  0.4863 -0.6397
 8054WAT      O34020   4.698   4.137   8.127 -0.3269 -0.0636  0.7601
 8054WAT     H134021   4.728   4.152   8.217 -0.3706 -0.2398  0.8034
 8054WAT     H234022   4.776   4.153   8.073  0.0119 -1.1482  0.9173
 8054WAT    EPW34023   4.712   4.141   8.132 -0.2882 -0.2298  0.7868
 8055WAT      O34024   0.832   7.323   0.030 -0.0786  0.4516  0.7809
 8055WAT     H134025   0.886   7.351  -0.044 -0.5500  0.3643  0.3992
 8055WAT     H234026   0.761   7.273  -0.010  0.1227 -0.3116  1.3590
 8055WAT    EPW34027   0.830   7.320   0.015 -0.1149  0.3394  0.8073
 8056WAT      O34028   2.263   2.453   2.160  0.3804  0.7919  0.3624
 8056WAT     H134029   2.210   2.390   2.110 -1.4097  1.4611  1.3297
 8056WAT     H234030   2.343   2.462   2.108  0.4768 -1.8155 -0.1066
 8056WAT    EPW34031   2.266   2.446   2.146  0.1569  0.5363  0.4281
 8057WAT      O34032   4.633   0.101   1.641 -0.3067  0.0029 -0.6727
 8057WAT     H134033   4.690   0.061   1.575 -0.7517 -1.1264 -0.4022
 8057WAT     H234034   4.556   0.043   1.644 -1.5559  1.5725 -1.1425
 8057WAT    EPW34035   4.630   0.088   1.633 -0.5300  0.0610 -0.6990
 8058WAT      O34036   7.568   2.237   6.440  0.1792 -0.8760  0.1616
 8058WAT     H134037   7.530   2.238   6.352  2.7547 -0.6327 -1.0343
 8058WAT     H234038   7.659   2.212   6.427  0.4780 -1.5324  2.8743
 8058WAT    EPW34039   7.575   2.234   6.427  0.5584 -0.9304  0.3614
 8059WAT      O34040   9.317   7.076   8.072  0.8316 -0.0483 -0.4781
 8059WAT     H134041   9.242   7.031   8.112  0.4988  0.4724 -0.4975
 8059WAT     H234042   9.387   7.067   8.137  0.4083  0.4472  0.0675
 8059WAT    EPW34043   9.316   7.069   8.086  0.7319  0.0858 -0.4091
 8060WAT      O34044   6.853   4.236   8.879  0.1393 -0.3153 -0.2767
 8060WAT     H134045   6.759   4.221   8.889  0.4632 -1.5184  1.3402
 8060WAT     H234046   6.867   4.326   8.908 -0.3825 -0.4629  0.4383
 8060WAT    EPW34047   6.843   4.246   8.884  0.1132 -0.4933  0.0310
 8061WAT      O34048   8.212   5.317   8.085  0.4837 -0.1395 -0.0998
 8061WAT     H134049   8.179   5.370   8.157 -1.1059  1.9366 -2.2019
 8061WAT     H234050   8.282   5.370   8.046 -1.5109  0.8632 -2.5857
 8061WAT    EPW34051   8.217   5.331   8.089  0.0114  0.2666 -0.7057
 8062WAT      O34052   1.386   2.990   1.514 -0.7662 -0.2742  0.6726
 8062WAT     H134053   1.386   2.968   1.607  1.0558  3.3572  1.7212
 8062WAT     H234054   1.475   2.973   1.485  0.1582  3.2789  1.0527
 8062WAT    EPW34055   1.397   2.985   1.523 -0.4039  0.6733  0.8610
 8063WAT      O34056  10.079   4.529   5.696 -0.2643 -0.0004 -0.3977
 8063WAT     H134057  10.033   4.469   5.755 -2.2379  1.5799 -0.2227
 8063WAT     H234058  10.015   4.550   5.628  0.0961  2.4152 -0.0711
 8063WAT    EPW34059  10.064   4.524   5.695 -0.4773  0.5267 -0.3314
 8064WAT      O34060  10.392   5.569   2.018  0.4966  0.9826  0.3148
 8064WAT     H134061  10.466   5.561   1.958  1.3190  0.7221  1.3335
 8064WAT     H234062  10.317   5.539   1.967  1.3240 -0.1700 -0.2796
 8064WAT    EPW34063  10.392   5.564   2.003  0.7143  0.7961  0.3707
 8065WAT      O34064   5.631   2.655   7.395 -0.3825  1.2103  0.0742
 8065WAT     H134065   5.618   2.712   7.319  0.1619  0.3606 -0.6793
 8065WAT     H234066   5.712   2.608   7.375 -0.2276  0.9775  1.1953
 8065WAT    EPW34067   5.640   2.657   7.383 -0.2902  1.0675  0.1225
 8066WAT      O34068   1.505   9.788   8.753  0.6968 -0.0004  0.8179
 8066WAT     H134069   1.551   9.799   8.836  1.0922 -0.1374  0.6188
 8066WAT     H234070   1.470   9.699   8.756  0.9061 -0.0857  0.7418
 8066WAT    EPW34071   1.506   9.778   8.765  0.7765 -0.0291  0.7815
 8067WAT      O34072   9.973   8.887   0.331 -0.5290 -0.1436  0.1339
 8067WAT     H134073  10.008   8.819   0.274 -1.2051 -0.3963  0.0052
 8067WAT     H234074   9.920   8.942   0.272  0.7384  1.0428  0.0500
 8067WAT    EPW34075   9.970   8.885   0.316 -0.4511 -0.0205  0.1058
 8068WAT      O34076   6.319   1.402   0.147 -0.3244 -0.6251 -0.0942
 8068WAT     H134077   6.292   1.493   0.160 -1.5533 -0.9627 -0.1087
 8068WAT     H234078   6.293   1.359   0.229 -1.3707 -1.2974 -0.7554
 8068WAT    EPW34079   6.312   1.409   0.160 -0.6247 -0.7583 -0.1833
 8069WAT      O34080   6.632   8.935   0.882  0.0038 -0.1146  0.3054
 8069WAT     H134081   6.600   9.007   0.827  0.7723  0.2573  0.3342
 8069WAT     H234082   6.635   8.860   0.823  1.0303  0.3351 -0.2267
 8069WAT    EPW34083   6.628   8.934   0.867  0.2403 -0.0067  0.2390
 8070WAT      O34084   6.407   8.491   8.775  0.3312  0.0539  0.7196
 8070WAT     H134085   6.378   8.458   8.860  1.4466 -0.5561  0.8819
 8070WAT     H234086   6.493   8.530   8.792  0.7655 -0.4716 -0.2060
 8070WAT    EPW34087   6.414   8.492   8.789  0.5352 -0.0963  0.6189
 8071WAT      O34088   1.720   0.020   1.135 -0.2334  0.0334 -0.4534
 8071WAT     H134089   1.661  -0.055   1.128 -0.5655  0.3385 -1.0127
 8071WAT     H234090   1.760   0.011   1.221 -1.0416 -0.2204 -0.0916
 8071WAT    EPW34091   1.717   0.009   1.146 -0.3839  0.0401 -0.4793
 8072WAT      O34092   0.995   7.579   8.439 -0.0834 -0.2263  0.0034
 8072WAT     H134093   1.079   7.556   8.479 -0.7924 -2.5163  0.2910
 8072WAT     H234094   0.997   7.675   8.434  2.1214 -0.1641  0.9037
 8072WAT    EPW34095   1.006   7.589   8.444  0.1139 -0.5202  0.1597
 8073WAT      O34096   1.747   0.642   0.946  0.8857  0.3030  0.2822
 8073WAT     H134097   1.680   0.577   0.926  3.1682 -1.8627 -0.9185
 8073WAT     H234098   1.717   0.721   0.902 -1.1356 -0.4046  0.2773
 8073WAT    EPW34099   1.735   0.644   0.937  0.9201 -0.0760  0.1232
 8074WAT      O34100   8.737   8.532   1.497  0.0683 -0.6205  0.1795
 8074WAT     H134101   8.785   8.608   1.529 -0.6733  1.1961 -2.6508
 8074WAT     H234102   8.645   8.559   1.500 -0.4765 -2.4382  1.5349
 8074WAT    EPW34103   8.731   8.546   1.502 -0.1011 -0.6208 -0.0151
 8075WAT      O34104   0.979   4.405   2.578  0.3483  0.5052  0.5732
 8075WAT     H134105   0.939   4.465   2.642  0.1110  0.9303  0.0353
 8075WAT     H234106   0.906   4.378   2.522  1.1123  3.5157 -2.2291
 8075WAT    EPW34107   0.964   4.410   2.579  0.4177  0.9582  0.1327
 8076WAT      O34108   3.488   6.008   8.863  0.3816  0.1496 -0.3503
 8076WAT     H134109   3.473   6.103   8.864 -0.0799  0.0774 -0.2107
 8076WAT     H234110   3.558   5.995   8.799 -1.3410  0.3098 -2.3672
 8076WAT    EPW34111   3.495   6.019   8.855  0.0936  0.1609 -0.5984
 8077WAT      O34112   5.009   5.649   6.877 -0.0323  0.0003  0.4192
 8077WAT     H134113   5.032   5.696   6.797  2.0073  1.1716  1.6018
 8077WAT     H234114   4.990   5.719   6.941  0.9017 -0.8038  1.6246
 8077WAT    EPW34115   5.010   5.665   6.875  0.3598  0.0486  0.7341
 8078WAT      O34116   5.576   5.412   8.896  0.2768 -1.1803 -0.3890
 8078WAT     H134117   5.566   5.427   8.802  0.2687 -0.9029 -0.3458
 8078WAT     H234118   5.519   5.338   8.916  0.7106 -1.6113 -0.7069
 8078WAT    EPW34119   5.567   5.404   8.886  0.3328 -1.2004 -0.4253
 8079WAT      O34120   8.599   9.587   2.274  0.1915  0.3415 -0.0133
 8079WAT     H134121   8.575   9.678   2.257 -3.4403 -0.7406 -1.6001
 8079WAT     H234122   8.539   9.536   2.221  2.6526 -3.0582  0.1320
 8079WAT    EPW34123   8.588   9.593   2.265  0.0372 -0.2499 -0.2035
 8080WAT      O34124   9.191   9.590   8.870 -0.2113 -0.2917  0.2330
 8080WAT     H134125   9.285   9.607   8.864 -0.0010 -0.5535  2.0881
 8080WAT     H234126   9.174   9.524   8.803  0.9277 -0.2705 -0.0967
 8080WAT    EPW34127   9.201   9.584   8.860 -0.0334 -0.3238  0.4344
 8081WAT      O34128   4.504   5.753   8.576  0.5009  0.5142 -0.6442
 8081WAT     H134129   4.422   5.726   8.534  0.3472  0.3814 -0.2679
 8081WAT     H234130   4.562   5.678   8.567  1.0462  1.0685 -2.0692
 8081WAT    EPW34131   4.500   5.740   8.570  0.5524  0.5696 -0.7825
 8082WAT      O34132   5.387   6.073   8.375  0.1144 -0.0015 -0.0261
 8082WAT     H134133   5.471   6.081   8.329 -0.2914 -1.5758 -1.1301
 8082WAT     H234134   5.325   6.119   8.319  0.0230  0.1387  0.1886
 8082WAT    EPW34135   5.390   6.080   8.361  0.0491 -0.1907 -0.1435
 8083WAT      O34136   9.593   0.627   3.345  0.6782 -0.0306 -0.5947
 8083WAT     H134137   9.646   0.666   3.276  3.0379  1.7264  1.9561
 8083WAT     H234138   9.515   0.681   3.350  1.1691  0.7327 -0.9918
 8083WAT    EPW34139   9.590   0.639   3.337  1.0543  0.3018 -0.3107
 8084WAT      O34140   9.980  10.147   0.876 -0.3325  0.4466  0.7767
 8084WAT     H134141   9.931  10.229   0.888 -3.0590 -0.8581 -0.4506
 8084WAT     H234142   9.934  10.102   0.805  3.1509 -0.6774 -1.0058
 8084WAT    EPW34143   9.967  10.152   0.868 -0.2322  0.1264  0.3798
 8085WAT      O34144   3.307   5.232   8.355  0.4135 -0.4213  0.0144
 8085WAT     H134145   3.342   5.201   8.272  1.0382  0.3759 -0.0351
 8085WAT     H234146   3.260   5.157   8.391 -3.3295  0.2428 -2.8651
 8085WAT    EPW34147   3.306   5.218   8.349  0.0023 -0.2284 -0.3715
 8086WAT      O34148   0.634   1.102   2.061 -0.6595  0.3361 -0.1938
 8086WAT     H134149   0.692   1.160   2.110  1.2577 -1.3018 -0.3866
 8086WAT     H234150   0.550   1.147   2.061  0.1978  2.0949  1.4452
 8086WAT    EPW34151   0.631   1.116   2.068 -0.2936  0.3520 -0.0032
 8087WAT      O34152   7.779   6.570   7.927  0.2613 -0.0876 -0.1956
 8087WAT     H134153   7.812   6.526   8.006  0.5661  1.6191  0.6855
 8087WAT     H234154   7.684   6.570   7.938  0.2405 -0.7648 -0.3452
 8087WAT    EPW34155   7.771   6.564   7.939  0.2987  0.0479 -0.0992
 8088WAT      O34156   6.134   6.194   7.907  0.2186  0.3332  0.2659
 8088WAT     H134157   6.079   6.271   7.923  0.4179  0.8527 -1.3759
 8088WAT     H234158   6.073   6.121   7.903  0.1488  0.1085  3.2600
 8088WAT    EPW34159   6.119   6.194   7.908  0.2356  0.3724  0.4442
 8089WAT      O34160   6.343   7.339   1.707  0.3127 -0.6743 -0.9823
 8089WAT     H134161   6.249   7.325   1.711  0.4145 -1.4411 -1.1062
 8089WAT     H234162   6.363   7.386   1.788  0.1423 -2.5707  0.2222
 8089WAT    EPW34163   6.333   7.343   1.718  0.3037 -1.0254 -0.8397
 8090WAT      O34164   9.575   9.606   1.043 -0.2790  0.7658 -0.1544
 8090WAT     H134165   9.647   9.562   1.087 -1.5587 -1.1515  0.1105
 8090WAT     H234166   9.595   9.597   0.950  0.2483  1.0305 -0.0746
 8090WAT    EPW34167   9.587   9.599   1.036 -0.3777  0.5474 -0.1090
 8091WAT      O34168   0.526   2.164   0.635 -0.0146 -0.0029 -0.1349
 8091WAT     H134169   0.475   2.201   0.563  0.7936 -0.6830 -1.0891
 8091WAT     H234170   0.573   2.239   0.672 -0.7662  0.4210 -0.0391
 8091WAT    EPW34171   0.526   2.179   0.631 -0.0071 -0.0367 -0.2482
 8092WAT      O34172   2.970   0.815   0.921  0.0755 -0.1345  0.3003
 8092WAT     H134173   2.956   0.734   0.872 -1.7002  0.1770  0.1916
 8092WAT     H234174   2.979   0.882   0.853  1.3563 -0.1941  0.3918
 8092WAT    EPW34175   2.969   0.814   0.905  0.0103 -0.1013  0.2981
 8093WAT      O34176   0.132   3.796   0.192 -1.1676 -0.3374  0.5289
 8093WAT     H134177   0.040   3.812   0.170 -0.9381  1.1182  0.4979
 8093WAT     H234178   0.147   3.850   0.270 -0.1372  0.0799  0.0593
 8093WAT    EPW34179   0.122   3.806   0.199 -1.0014 -0.0904  0.4629
 8094WAT      O34180   7.188   7.520   0.047  1.1363 -0.1106  0.1458
 8094WAT     H134181   7.168   7.442   0.098 -0.1998  1.4439  2.1388
 8094WAT     H234182   7.137   7.510  -0.033  1.2037 -1.3751  0.2386
 8094WAT    EPW34183   7.179   7.509   0.043  0.9687 -0.0725  0.4209
 8095WAT      O34184   9.101   8.492   1.117 -0.3342  0.1264 -0.7919
 8095WAT     H134185   9.143   8.562   1.167 -0.2224  1.2491 -2.3680
 8095WAT     H234186   9.007   8.508   1.128 -0.4559 -1.7132  1.8066
 8095WAT    EPW34187   9.094   8.503   1.125 -0.3352  0.0324 -0.6570
 8096WAT      O34188   2.607   9.193   0.542  0.0806  0.0973  0.3711
 8096WAT     H134189   2.658   9.196   0.623  2.2844  3.2032 -0.9407
 8096WAT     H234190   2.664   9.147   0.480  1.7606  3.9128 -1.2090
 8096WAT    EPW34191   2.621   9.187   0.544  0.5929  1.0099 -0.0103
 8097WAT      O34192   4.385   1.109   0.185 -0.0814  0.0986  0.0676
 8097WAT     H134193   4.363   1.025   0.145  0.8920  0.0066 -0.2884
 8097WAT     H234194   4.327   1.172   0.142 -1.5051 -0.5123  1.0184
 8097WAT    EPW34195   4.374   1.106   0.174 -0.1409  0.0060  0.1460
 8098WAT      O34196   3.638   1.937   0.377  0.6818  0.7941  0.2794
 8098WAT     H134197   3.722   1.981   0.389  1.6932 -0.8368 -0.4118
 8098WAT     H234198   3.658   1.844   0.388 -0.8848  0.2981 -0.6848
 8098WAT    EPW34199   3.651   1.930   0.380  0.6087  0.5136  0.0611
 8099WAT      O34200   4.453   0.695   0.793  0.4514 -0.0224  0.1184
 8099WAT     H134201   4.474   0.769   0.737  1.8030  1.1277  2.0091
 8099WAT     H234202   4.365   0.714   0.826 -0.0309 -0.3202 -0.9573
 8099WAT    EPW34203   4.444   0.707   0.790  0.5660  0.0900  0.2259
 8100WAT      O34204   1.705   0.263   0.260  0.4139 -0.2432  0.0806
 8100WAT     H134205   1.799   0.245   0.263  0.1363 -1.7462  2.6614
 8100WAT     H234206   1.676   0.257   0.351 -2.3531 -0.8313 -0.7335
 8100WAT    EPW34207   1.713   0.260   0.272  0.0124 -0.5190  0.3136
 8101WAT      O34208   2.828   1.185   2.105 -0.0839  0.0598  0.0249
 8101WAT     H134209   2.853   1.241   2.179 -0.2918 -0.1617  0.2657
 8101WAT     H234210   2.768   1.240   2.054 -0.4310 -0.0024  0.3589
 8101WAT    EPW34211   2.823   1.200   2.108 -0.1571  0.0224  0.1007
 8102WAT      O34212  10.085   0.880   2.641  0.2780  0.0624  0.3763
 8102WAT     H134213  10.170   0.923   2.644  0.1217  0.3423  1.0570
 8102WAT     H234214  10.022   0.949   2.661  0.1879 -0.8466  3.9076
 8102WAT    EPW34215  10.088   0.895   2.644  0.2460 -0.0206  0.9317
 8103WAT      O34216   6.799   9.054   7.913  0.3922 -0.0447  0.2337
 8103WAT     H134217   6.846   9.011   7.984  0.6316 -0.3847 -0.1262
 8103WAT     H234218   6.819   9.001   7.836 -1.4911 -0.8888  0.2503
 8103WAT    EPW34219   6.808   9.041   7.912  0.1752 -0.2003  0.1886
 8104WAT      O34220  10.185   9.918   0.951 -0.4973  0.6955 -0.0687
 8104WAT     H134221  10.247   9.844   0.952 -0.6721  0.5361  1.0141
 8104WAT     H234222  10.147   9.917   1.039  0.2628  2.7276  0.3182
 8104WAT    EPW34223  10.188   9.908   0.963 -0.4201  0.9422  0.1251
 8105WAT      O34224   4.940   4.290   7.021 -0.5543 -0.5322 -0.2469
 8105WAT     H134225   4.877   4.360   7.002  0.8193  1.2749  1.5444
 8105WAT     H234226   5.017   4.312   6.969 -0.6818 -1.6906 -0.9644
 8105WAT    EPW34227   4.942   4.302   7.011 -0.3898 -0.4468 -0.1051
 8106WAT      O34228   6.893   6.747   8.248 -0.7415 -0.2878  0.0348
 8106WAT     H134229   6.893   6.802   8.326 -1.8814  0.3143 -0.3686
 8106WAT     H234230   6.803   6.714   8.242 -1.5775  2.0753 -2.6537
 8106WAT    EPW34231   6.881   6.750   8.258 -1.0021  0.1035 -0.3734
 8107WAT      O34232   7.173   6.580   6.470  0.7470  0.0090 -0.1953
 8107WAT     H134233   7.211   6.518   6.408  0.5440 -0.0459 -0.2659
 8107WAT     H234234   7.104   6.530   6.514 -1.2847  0.9441 -2.1629
 8107WAT    EPW34235   7.169   6.565   6.468  0.4520  0.1252 -0.4640
 8108WAT      O34236   5.847   7.977   8.663 -0.4398  0.4114  0.0203
 8108WAT     H134237   5.868   7.964   8.755  0.4823 -2.3641 -0.4788
 8108WAT     H234238   5.876   8.066   8.644  4.9914 -0.7669  1.0536
 8108WAT    EPW34239   5.853   7.987   8.673  0.3982 -0.1104  0.0911
 8109WAT      O34240   4.266   5.002   8.689 -0.0963 -0.2613 -0.5846
 8109WAT     H134241   4.197   5.069   8.687 -0.5254 -0.7078 -1.5481
 8109WAT     H234242   4.235   4.938   8.752 -1.0308 -0.9076 -1.6463
 8109WAT    EPW34243   4.253   5.003   8.697 -0.2761 -0.4055 -0.8516
 8110WAT      O34244   0.230   0.674   1.333 -0.3535 -0.5227 -0.1234
 8110WAT     H134245   0.270   0.705   1.414  2.0090  2.3791 -2.1873
 8110WAT     H234246   0.159   0.736   1.316 -3.3498 -3.2381  1.3769
 8110WAT    EPW34247   0.226   0.686   1.342 -0.4371 -0.4981 -0.1978
 8111WAT      O34248   4.413   5.828   2.286  0.5927 -0.0952  0.3943
 8111WAT     H134249   4.372   5.758   2.234 -1.1422  0.7858  0.4991
 8111WAT     H234250   4.490   5.787   2.325  0.7636 -1.3626 -1.1790
 8111WAT    EPW34251   4.418   5.813   2.284  0.3867 -0.1459  0.2007
 8112WAT      O34252   7.109   0.481   2.778 -0.2478 -0.0130 -0.3103
 8112WAT     H134253   7.093   0.432   2.697  2.9703 -1.8061 -0.0326
 8112WAT     H234254   7.086   0.421   2.848  1.8793 -0.5508  0.0221
 8112WAT    EPW34255   7.104   0.467   2.776  0.4570 -0.3204 -0.2297
 8113WAT      O34256   9.863   6.094   6.212 -0.8403 -0.0952 -0.0872
 8113WAT     H134257   9.888   6.012   6.254 -0.1765 -0.7364 -1.6769
 8113WAT     H234258   9.942   6.123   6.166 -1.2266  1.1563 -0.0156
 8113WAT    EPW34259   9.877   6.087   6.212 -0.8035 -0.0150 -0.2873
 8114WAT      O34260   4.349   0.570   1.792  0.8410 -0.2668 -0.3079
 8114WAT     H134261   4.342   0.650   1.844 -1.0985 -0.3204 -0.4063
 8114WAT     H234262   4.335   0.598   1.702  3.0906 -0.3376 -0.7269
 8114WAT    EPW34263   4.346   0.584   1.787  0.8817 -0.2832 -0.3760
 8115WAT      O34264   7.614   6.974   8.456 -0.8966 -0.1426 -0.1163
 8115WAT     H134265   7.699   7.005   8.488 -1.2053 -0.6638  1.2566
 8115WAT     H234266   7.613   7.000   8.364  0.7186 -0.0635 -0.1420
 8115WAT    EPW34267   7.625   6.982   8.448 -0.7241 -0.2010  0.0610
 8116WAT      O34268   3.763   6.033   0.674  0.4514  0.1319 -0.1491
 8116WAT     H134269   3.746   6.017   0.581 -1.9210 -3.7337  0.7514
 8116WAT     H234270   3.854   6.009   0.686  0.5867 -0.0098 -1.3176
 8116WAT    EPW34271   3.772   6.028   0.663  0.1563 -0.3965 -0.1844
 8117WAT      O34272   6.650   8.850   8.933 -0.4081 -0.1469  0.7246
 8117WAT     H134273   6.632   8.938   8.899  0.3956 -0.5189 -0.7288
 8117WAT     H234274   6.736   8.828   8.899 -1.3255 -2.2211 -0.4646
 8117WAT    EPW34275   6.659   8.859   8.924 -0.4230 -0.4692  0.3762
 8118WAT      O34276   6.012   4.059   0.544  0.1963  0.1585  0.6106
 8118WAT     H134277   5.998   4.084   0.635  1.0749 -0.0434  0.8113
 8118WAT     H234278   5.930   4.080   0.500 -0.1573  0.4594  1.4058
 8118WAT    EPW34279   5.999   4.065   0.550  0.2658  0.1717  0.7420
 8119WAT      O34280   5.292   1.702   0.817 -0.2957 -0.3107 -0.6898
 8119WAT     H134281   5.376   1.722   0.774  0.8048 -2.6991  0.1628
 8119WAT     H234282   5.259   1.625   0.770 -3.7071  2.2850 -3.0825
 8119WAT    EPW34283   5.299   1.694   0.805 -0.6006 -0.2834 -0.8929
 8120WAT      O34284   3.912   4.756   0.055  0.9186 -0.3315  0.0215
 8120WAT     H134285   3.924   4.804  -0.027 -1.1933 -1.5754 -1.1041
 8120WAT     H234286   3.843   4.805   0.101  1.6072 -0.0321  0.7515
 8120WAT    EPW34287   3.904   4.769   0.051  0.7310 -0.4559 -0.0305
 8121WAT      O34288  10.899   0.840   1.516 -0.1338 -0.2965 -0.0837
 8121WAT     H134289  10.871   0.921   1.558 -0.3333 -0.6236  0.4259
 8121WAT     H234290  10.839   0.829   1.442  1.5238  1.3916 -1.7945
 8121WAT    EPW34291  10.887   0.849   1.512  0.0587 -0.1170 -0.2421
 8122WAT      O34292   5.794   4.532   8.671  0.0916  0.2288  0.2940
 8122WAT     H134293   5.817   4.476   8.597 -0.8440  0.1153  0.0845
 8122WAT     H234294   5.827   4.618   8.647  0.0311  0.1352 -0.1389
 8122WAT    EPW34295   5.802   4.536   8.658 -0.0398  0.2015  0.2093
 8123WAT      O34296   5.303   2.315   0.717 -0.2653 -0.2752 -0.6818
 8123WAT     H134297   5.271   2.304   0.627  0.4986 -1.4279 -0.8370
 8123WAT     H234298   5.379   2.258   0.722 -0.1015  0.0337  0.6107
 8123WAT    EPW34299   5.309   2.306   0.705 -0.1431 -0.3866 -0.5317
 8124WAT      O34300   2.812   3.232   1.076  0.0223  0.4396 -0.0408
 8124WAT     H134301   2.826   3.190   1.162  0.3173  1.1837  0.2778
 8124WAT     H234302   2.721   3.262   1.080 -0.5075 -0.9773 -0.6356
 8124WAT    EPW34303   2.802   3.230   1.088 -0.0086  0.3508 -0.0772
 8125WAT      O34304   0.582   3.084   0.345 -0.3005 -1.0404  0.6624
 8125WAT     H134305   0.514   3.047   0.402 -1.3308 -0.4475 -0.1552
 8125WAT     H234306   0.568   3.040   0.261 -1.5377  1.1304 -0.3280
 8125WAT    EPW34307   0.571   3.073   0.342 -0.5996 -0.6759  0.4239
 8126WAT      O34308   8.418   6.576   7.417 -0.2407 -0.0164  0.4311
 8126WAT     H134309   8.430   6.509   7.350  4.4352  0.2154  0.7041
 8126WAT     H234310   8.323   6.591   7.419 -1.1021 -3.4928 -2.5940
 8126WAT    EPW34311   8.407   6.569   7.409  0.2627 -0.4442  0.0682
 8127WAT      O34312   4.736   9.511   5.130 -0.7881  0.3379 -0.2316
 8127WAT     H134313   4.648   9.473   5.127 -0.4430 -0.4500 -0.6956
 8127WAT     H234314   4.776   9.486   5.046 -0.0106  0.4004  0.1113
 8127WAT    EPW34315   4.730   9.503   5.118 -0.6399  0.2422 -0.2472
 8128WAT      O34316   8.741   0.575   4.914  0.3000  0.6762  0.2570
 8128WAT     H134317   8.762   0.481   4.914  2.1125  1.0249 -1.1223
 8128WAT     H234318   8.648   0.579   4.892  0.6089 -0.7764 -1.5615
 8128WAT    EPW34319   8.731   0.563   4.911  0.5798  0.5306 -0.1647
 8129WAT      O34320   7.690   9.747   8.060 -0.4016  1.0213 -0.0776
 8129WAT     H134321   7.595   9.754   8.059 -0.3580  1.6094 -0.9945
 8129WAT     H234322   7.720   9.809   7.993  0.5977  0.4538 -0.1844
 8129WAT    EPW34323   7.682   9.756   8.051 -0.2637  1.0238 -0.2122
 8130WAT      O34324   8.643   4.354   8.675 -0.4971  0.1624 -0.2430
 8130WAT     H134325   8.652   4.265   8.641 -1.0378 -0.1052  0.3006
 8130WAT     H234326   8.662   4.410   8.600 -0.2159 -0.4068 -0.6077
 8130WAT    EPW34327   8.647   4.350   8.661 -0.5317  0.0522 -0.2193
 8131WAT      O34328   6.785   7.854   8.595 -0.5299  0.7990 -0.1546
 8131WAT     H134329   6.780   7.933   8.648  1.3472  2.0544 -1.7282
 8131WAT     H234330   6.877   7.828   8.597 -0.8442 -0.4866 -0.8704
 8131WAT    EPW34331   6.796   7.861   8.602 -0.3240  0.7951 -0.4568
 8132WAT      O34332   0.163  10.115   0.618  0.2056 -0.5565 -0.3558
 8132WAT     H134333   0.236  10.150   0.567 -1.6660 -0.4808 -3.2001
 8132WAT     H234334   0.113  10.192   0.644  0.7307 -0.6552  1.0368
 8132WAT    EPW34335   0.166  10.130   0.615  0.0280 -0.5598 -0.5472
 8133WAT      O34336   2.316   5.440   7.424 -0.1585  0.6462 -0.2373
 8133WAT     H134337   2.354   5.375   7.483 -0.2881 -0.1111 -0.9739
 8133WAT     H234338   2.276   5.504   7.483  0.8908  0.6409  0.5201
 8133WAT    EPW34339   2.316   5.440   7.440 -0.0372  0.5457 -0.2346
 8134WAT      O34340   3.184   1.694   0.574  0.0989 -0.0492  0.6288
 8134WAT     H134341   3.221   1.779   0.551 -2.8491  1.3670  0.5914
 8134WAT     H234342   3.089   1.709   0.576 -0.6183 -3.5116 -0.0675
 8134WAT    EPW34343   3.176   1.707   0.571 -0.3844 -0.3191  0.5321
 8135WAT      O34344   6.245   2.890   0.879  0.3768 -0.1456 -0.1301
 8135WAT     H134345   6.181   2.839   0.929  0.5932 -0.9635 -0.6660
 8135WAT     H234346   6.280   2.828   0.815  0.9542  0.5723 -0.5230
 8135WAT    EPW34347   6.241   2.876   0.877  0.4818 -0.1588 -0.2526
 8136WAT      O34348   9.524   6.809   7.996  0.0103 -0.0566  0.2380
 8136WAT     H134349   9.462   6.772   7.933 -1.2089  2.5268 -0.2301
 8136WAT     H234350   9.546   6.895   7.960 -0.1159  1.1956  2.9115
 8136WAT    EPW34351   9.519   6.816   7.983 -0.1669  0.4494  0.5288
 8137WAT      O34352   0.084   6.506   7.532 -0.0151  0.4470 -0.3416
 8137WAT     H134353   0.131   6.567   7.474 -0.8457 -0.2941 -1.8302
 8137WAT     H234354   0.102   6.420   7.496  0.7452 -0.2028  1.4678
 8137WAT    EPW34355   0.093   6.503   7.520 -0.0244  0.2635 -0.2995
 8138WAT      O34356   5.906   7.072   4.797 -0.1194 -0.3110 -0.6914
 8138WAT     H134357   5.846   7.060   4.871  0.8155 -2.3731 -0.1876
 8138WAT     H234358   5.861   7.032   4.723 -0.3417  0.2568 -0.8704
 8138WAT    EPW34359   5.892   7.065   4.797 -0.0253 -0.5081 -0.6483
 8139WAT      O34360   4.116   1.947   1.976  0.1827 -0.5199 -0.9831
 8139WAT     H134361   4.094   1.934   1.884 -1.2693  1.2514 -0.9520
 8139WAT     H234362   4.051   2.011   2.007  0.8888 -0.7627  1.1631
 8139WAT    EPW34363   4.104   1.954   1.968  0.0844 -0.3182 -0.6959
 8140WAT      O34364   9.381   8.104   6.021  0.4350 -0.0317  0.0346
 8140WAT     H134365   9.334   8.058   5.951  2.6158  0.6221 -2.0001
 8140WAT     H234366   9.328   8.181   6.039 -1.1995 -1.2261  0.6239
 8140WAT    EPW34367   9.368   8.108   6.014  0.5074 -0.1030 -0.1559
 8141WAT      O34368   2.340  10.016   1.236  0.3413  0.4808  0.0870
 8141WAT     H134369   2.331   9.924   1.262 -0.8894 -0.2087 -2.4244
 8141WAT     H234370   2.295  10.065   1.304  0.8738 -0.7533  1.3989
 8141WAT    EPW34371   2.333  10.010   1.248  0.2491  0.2270 -0.0712
 8142WAT      O34372   5.743   7.731   7.720 -0.4488 -0.3952  0.1348
 8142WAT     H134373   5.743   7.822   7.750 -2.8785 -0.9762  2.2735
 8142WAT     H234374   5.773   7.681   7.797  2.2806 -1.3899 -1.4428
 8142WAT    EPW34375   5.747   7.736   7.734 -0.4094 -0.6032  0.2086
 8143WAT      O34376   3.615   7.120   7.807  0.4467 -0.6777 -0.1939
 8143WAT     H134377   3.692   7.163   7.770  2.7834 -1.7598  2.9279
 8143WAT     H234378   3.576   7.073   7.734  1.8245  1.1318 -2.2232
 8143WAT    EPW34379   3.620   7.119   7.793  0.9367 -0.5815 -0.0498
 8144WAT      O34380   3.494   5.179   7.798  0.1354 -0.1558  0.3110
 8144WAT     H134381   3.459   5.267   7.812 -1.1557 -0.8104  1.3863
 8144WAT     H234382   3.565   5.192   7.735 -1.2447  1.3902 -1.0255
 8144WAT    EPW34383   3.499   5.192   7.792 -0.2170 -0.0384  0.2763
 8145WAT      O34384   2.788   0.792   3.903 -0.3280 -0.4456  0.1032
 8145WAT     H134385   2.833   0.872   3.877 -1.3815 -0.3065 -1.3351
 8145WAT     H234386   2.759   0.752   3.821 -2.6745 -0.6235  0.9419
 8145WAT    EPW34387   2.790   0.797   3.889 -0.7764 -0.4507  0.0242
 8146WAT      O34388   6.380   6.259   8.271  0.2291  0.9129  0.7102
 8146WAT     H134389   6.362   6.170   8.242 -1.2739  0.8709  1.6787
 8146WAT     H234390   6.351   6.314   8.198 -2.0781  0.7359  1.4187
 8146WAT    EPW34391   6.374   6.254   8.258 -0.2737  0.8838  0.9317
 8147WAT      O34392   1.422   1.553   2.054  0.4028  0.4315 -0.5226
 8147WAT     H134393   1.472   1.567   2.135  0.0338 -0.0687 -0.2016
 8147WAT     H234394   1.479   1.586   1.985  0.8827  0.5209 -0.0902
 8147WAT    EPW34395   1.436   1.559   2.056  0.4174  0.3774 -0.4232
 8148WAT      O34396   8.632   7.752   5.901 -0.4209  0.8367  0.1940
 8148WAT     H134397   8.537   7.749   5.895 -0.3108 -0.0052 -3.1285
 8148WAT     H234398   8.659   7.661   5.908  0.1651  0.9984  0.1341
 8148WAT    EPW34399   8.623   7.740   5.901 -0.3290  0.7467 -0.2520
 8149WAT      O34400   0.771   0.080   0.835  0.6893 -0.5654 -0.1513
 8149WAT     H134401   0.827   0.079   0.913  1.0283  0.7497 -0.3621
 8149WAT     H234402   0.787   0.165   0.794 -2.9160  0.7989  0.8532
 8149WAT    EPW34403   0.780   0.091   0.840  0.2584 -0.2120 -0.0466
 8150WAT      O34404  10.444   9.984   3.706 -0.2695  0.0476  0.3214
 8150WAT     H134405  10.430   9.981   3.611  2.2423 -0.4144 -0.1200
 8150WAT     H234406  10.538   9.970   3.716 -0.3054  1.0821  2.8446
 8150WAT    EPW34407  10.455   9.982   3.694  0.0572  0.1230  0.5959
 8151WAT      O34408  10.519   7.470   7.718  0.0068  0.0223 -0.0817
 8151WAT     H134409  10.469   7.468   7.637 -2.2517  0.3681  1.2288
 8151WAT     H234410  10.605   7.434   7.694 -0.3095  0.8196 -2.7489
 8151WAT    EPW34411  10.524   7.465   7.704 -0.3324  0.1731 -0.2606
 8152WAT      O34412   8.455   4.661   8.889  0.6838  0.2125  0.5813
 8152WAT     H134413   8.538   4.707   8.897  1.8972 -2.0713  2.5039
 8152WAT     H234414   8.465   4.583   8.944 -3.2624  0.5830  2.2234
 8152WAT    EPW34415   8.467   4.657   8.897  0.3223 -0.0396  1.0519
 8153WAT      O34416   7.656   5.790   6.135  0.1186  0.1995 -0.0075
 8153WAT     H134417   7.575   5.740   6.138  0.4701 -0.3514  1.7857
 8153WAT     H234418   7.643   5.861   6.197  0.0808  1.6801 -1.6330
 8153WAT    EPW34419   7.644   5.792   6.144  0.1602  0.3219  0.0145
 8154WAT      O34420   5.726   4.398   6.738 -0.3025  0.7073  1.1114
 8154WAT     H134421   5.746   4.335   6.669  2.4832  1.2294  1.3172
 8154WAT     H234422   5.787   4.471   6.723 -1.3462  1.9714  2.6568
 8154WAT    EPW34423   5.737   4.399   6.727 -0.0727  0.9427  1.3423
 8155WAT      O34424   2.208   2.154   0.166  0.5515  0.1586  0.7730
 8155WAT     H134425   2.167   2.097   0.231  1.3660  1.1037  2.1580
 8155WAT     H234426   2.135   2.192   0.117 -0.1042 -0.0275  1.5971
 8155WAT    EPW34427   2.193   2.151   0.168  0.5726  0.2588  1.0644
 8156WAT      O34428   3.723   3.460   0.722 -0.7524  0.0380 -0.0884
 8156WAT     H134429   3.652   3.438   0.663 -0.5090  0.4103 -0.5233
 8156WAT     H234430   3.684   3.454   0.810 -0.6702 -2.2151 -0.1630
 8156WAT    EPW34431   3.708   3.456   0.726 -0.7094 -0.2100 -0.1556
 8157WAT      O34432   0.416   9.830   0.706  0.0767 -0.2194 -0.2549
 8157WAT     H134433   0.392   9.885   0.781  0.1941 -1.2519  0.5782
 8157WAT     H234434   0.510   9.813   0.718  0.3875  0.6324 -1.3469
 8157WAT    EPW34435   0.425   9.835   0.718  0.1332 -0.2432 -0.2891
 8158WAT      O34436   4.775   5.984   6.676 -0.5194 -0.0266  0.0976
 8158WAT     H134437   4.772   6.055   6.611  0.4671 -0.7371 -0.7432
 8158WAT     H234438   4.863   5.948   6.669  0.0635  0.6641  2.7274
 8158WAT    EPW34439   4.786   5.989   6.667 -0.3126 -0.0293  0.3333
 8159WAT      O34440   1.395   4.057   0.473  0.3100 -0.2831  0.8149
 8159WAT     H134441   1.384   4.107   0.392  0.2825  0.3367  1.1939
 8159WAT     H234442   1.477   4.089   0.509  0.1981 -0.3791  1.1557
 8159WAT    EPW34443   1.404   4.068   0.467  0.2916 -0.2139  0.9099
 8160WAT      O34444   5.038   2.734   4.037  0.2584 -0.4530 -0.1397
 8160WAT     H134445   5.044   2.753   4.131  0.5535  0.0602 -0.2572
 8160WAT     H234446   4.945   2.741   4.017  0.3752  1.2671 -0.2446
 8160WAT    EPW34447   5.027   2.737   4.047  0.3128 -0.1583 -0.1688
 8161WAT      O34448   1.422   0.612   0.735  0.1750  0.5508 -0.8216
 8161WAT     H134449   1.488   0.586   0.671  0.2924 -0.8815 -0.1611
 8161WAT     H234450   1.366   0.534   0.745  0.2227  0.6917  0.8706
 8161WAT    EPW34451   1.423   0.598   0.728  0.1968  0.3805 -0.5113
 8162WAT      O34452   4.142   2.311   1.101 -0.4802 -0.3839  0.3274
 8162WAT     H134453   4.079   2.379   1.079  0.5637  0.1056 -1.3401
 8162WAT     H234454   4.164   2.327   1.193 -1.3368  0.6118  0.3786
 8162WAT    EPW34455   4.137   2.322   1.110 -0.4554 -0.1879  0.1142
 8163WAT      O34456   3.754   7.171   7.362  0.6614 -0.1543  0.0247
 8163WAT     H134457   3.754   7.262   7.394 -0.6333 -0.2399  0.2911
 8163WAT     H234458   3.840   7.162   7.320  1.0045  1.0442  0.3993
 8163WAT    EPW34459   3.766   7.182   7.361  0.5358 -0.0074  0.1090
 8164WAT      O34460   4.317   0.484   0.593  0.2530 -0.0761 -0.5226
 8164WAT     H134461   4.316   0.548   0.522 -1.0606  2.1909  1.4119
 8164WAT     H234462   4.269   0.526   0.664 -1.5255 -3.5973  0.5760
 8164WAT    EPW34463   4.310   0.498   0.593 -0.1552 -0.2415 -0.1225
 8165WAT      O34464   4.553   7.319   8.956  0.9612 -0.1833 -0.1367
 8165WAT     H134465   4.551   7.251   8.888  2.0471 -0.7214  0.3463
 8165WAT     H234466   4.499   7.283   9.027 -2.7760  1.6549 -1.7733
 8165WAT    EPW34467   4.546   7.305   8.956  0.6118 -0.0117 -0.2890
 8166WAT      O34468   6.402   5.667   6.597 -0.1696 -0.4038 -0.1195
 8166WAT     H134469   6.342   5.640   6.666  0.9095  0.3422  1.1561
 8166WAT     H234470   6.359   5.741   6.554 -0.6172 -0.5419  0.0936
 8166WAT    EPW34471   6.389   5.673   6.600 -0.0861 -0.3235  0.0770
 8167WAT      O34472   7.148   7.912   6.193 -0.1222  0.1915  0.2480
 8167WAT     H134473   7.172   7.852   6.264 -0.5496 -1.4440 -0.9228
 8167WAT     H234474   7.229   7.928   6.146 -0.1204  0.0239  0.1943
 8167WAT    EPW34475   7.162   7.906   6.196 -0.1783 -0.0460  0.0863
 8168WAT      O34476   6.077   5.086   6.796  0.9326  0.3512 -0.0655
 8168WAT     H134477   6.014   5.125   6.856  1.7771  2.1450 -0.2843
 8168WAT     H234478   6.090   5.153   6.729 -0.0938 -1.6374 -2.3884
 8168WAT    EPW34479   6.070   5.100   6.795  0.9086  0.3252 -0.4008
 8169WAT      O34480   1.864   0.663   2.665 -0.0552  0.3667 -0.5330
 8169WAT     H134481   1.796   0.650   2.730 -1.5094  1.4290 -1.7899
 8169WAT     H234482   1.872   0.758   2.656  2.5412  0.3239  0.5108
 8169WAT    EPW34483   1.856   0.674   2.672  0.0955  0.5012 -0.5611
 8170WAT      O34484   9.060   7.625   8.148 -0.6504  0.9612  0.4202
 8170WAT     H134485   9.115   7.607   8.072 -0.1477  2.5568  0.3851
 8170WAT     H234486   8.985   7.566   8.137  0.8850 -1.1174  0.3632
 8170WAT    EPW34487   9.057   7.615   8.136 -0.3819  0.8974  0.4082
 8171WAT      O34488   5.196   3.215   1.042  0.5254 -0.2263  0.1335
 8171WAT     H134489   5.281   3.174   1.024  0.0153 -1.0196 -0.5134
 8171WAT     H234490   5.211   3.263   1.123  0.7382 -3.0593  1.9373
 8171WAT    EPW34491   5.209   3.216   1.050  0.4859 -0.7045  0.2861
 8172WAT      O34492   5.868   7.836   6.986 -0.0729  0.1839  0.3813
 8172WAT     H134493   5.790   7.790   6.953  1.0501 -0.9323 -0.8168
 8172WAT     H234494   5.941   7.793   6.943  1.0274  4.4232 -2.5638
 8172WAT    EPW34495   5.867   7.824   6.976  0.2201  0.5960 -0.1652
 8173WAT      O34496  10.525   2.465   2.001  0.1857 -0.9299 -0.3476
 8173WAT     H134497  10.484   2.452   1.916 -0.4167 -2.2845  0.1221
 8173WAT     H234498  10.614   2.430   1.990  0.3223 -0.5127 -0.5928
 8173WAT    EPW34499  10.531   2.459   1.988  0.1240 -1.0536 -0.3180
 8174WAT      O34500   3.334   3.791   1.329  0.0296 -0.2199  0.1179
 8174WAT     H134501   3.272   3.755   1.265 -0.9417 -3.4420  2.6285
 8174WAT     H234502   3.288   3.866   1.367 -0.2083  0.4774 -1.4755
 8174WAT    EPW34503   3.320   3.796   1.326 -0.1299 -0.5530  0.2390
 8175WAT      O34504   8.421   4.455   6.063  0.1579 -0.2476 -0.1986
 8175WAT     H134505   8.430   4.424   6.154 -2.3928  1.1216  0.6202
 8175WAT     H234506   8.378   4.383   6.018  0.3664 -0.4836 -0.0281
 8175WAT    EPW34507   8.417   4.441   6.069 -0.1507 -0.0982 -0.0682
 8176WAT      O34508   0.013   9.305   0.884 -0.1637  0.1049  0.1962
 8176WAT     H134509  -0.049   9.242   0.921 -1.9758  2.0657  0.6480
 8176WAT     H234510  -0.029   9.336   0.804  0.5786  0.9438  0.1201
 8176WAT    EPW34511  -0.001   9.301   0.878 -0.3048  0.4740  0.2457
 8177WAT      O34512   8.285   5.310   6.847 -0.2410  0.5011  0.4991
 8177WAT     H134513   8.235   5.372   6.793 -2.8686 -0.6611  1.4483
 8177WAT     H234514   8.340   5.263   6.784 -1.9181  0.4039 -0.9741
 8177WAT    EPW34515   8.285   5.312   6.831 -0.8082  0.3350  0.4301
 8178WAT      O34516   6.455  10.173   8.157  0.3182 -0.5424  0.2339
 8178WAT     H134517   6.467  10.112   8.085 -2.0305 -2.2439  1.1493
 8178WAT     H234518   6.507  10.137   8.228  0.2426 -0.5497  0.2855
 8178WAT    EPW34519   6.463  10.160   8.157 -0.0017 -0.7677  0.3610
 8179WAT      O34520   1.943   3.758   0.756  0.3951  0.0593 -0.1415
 8179WAT     H134521   1.889   3.695   0.709  0.3325  0.1079 -0.1355
 8179WAT     H234522   1.926   3.741   0.848  1.3388 -0.7542 -0.1006
 8179WAT    EPW34523   1.934   3.747   0.762  0.5113 -0.0415 -0.1353
 8180WAT      O34524   2.131   9.717   1.666 -0.0002  0.1852  0.3615
 8180WAT     H134525   2.095   9.644   1.615 -2.0098  0.0296  1.8918
 8180WAT     H234526   2.158   9.781   1.600 -1.0499 -0.6536 -0.9342
 8180WAT    EPW34527   2.130   9.716   1.651 -0.4036  0.0539  0.3924
 8181WAT      O34528   0.303   0.968   1.876 -0.0332 -0.2802 -0.5998
 8181WAT     H134529   0.394   0.993   1.892 -0.0814 -0.9727  0.9602
 8181WAT     H234530   0.303   0.873   1.877 -1.0389 -0.3239  1.4588
 8181WAT    EPW34531   0.315   0.959   1.879 -0.1722 -0.3773 -0.1225
 8182WAT      O34532   4.884   8.885   7.489  0.7384 -0.4258  0.1673
 8182WAT     H134533   4.951   8.818   7.472  1.8481  0.6648  0.0962
 8182WAT     H234534   4.918   8.935   7.563  0.5683  0.8570 -0.5905
 8182WAT    EPW34535   4.897   8.883   7.496  0.8621 -0.1125  0.0579
 8183WAT      O34536   9.783   8.113   8.681 -0.0643 -0.4415  0.7598
 8183WAT     H134537   9.809   8.199   8.648  0.8224 -1.0310 -0.1188
 8183WAT     H234538   9.737   8.132   8.763  1.1007  0.7829  1.1545
 8183WAT    EPW34539   9.780   8.127   8.687  0.2065 -0.3576  0.6957
 8184WAT      O34540  10.661   1.730   1.555 -0.3146 -0.1296 -0.5591
 8184WAT     H134541  10.571   1.753   1.578  0.0283  0.9143 -0.1781
 8184WAT     H234542  10.654   1.688   1.469 -1.3306 -1.6060  0.1952
 8184WAT    EPW34543  10.648   1.728   1.547 -0.4034 -0.1866 -0.4093
 8185WAT      O34544   8.010   7.157   7.994  0.4456  0.7618  0.1333
 8185WAT     H134545   7.942   7.193   7.937 -1.0148  0.9299  1.9271
 8185WAT     H234546   8.077   7.125   7.933 -0.3363  2.3130 -1.6241
 8185WAT    EPW34547   8.010   7.157   7.978  0.1497  0.9885  0.1380
 8186WAT      O34548   6.787   8.939   7.666 -0.0514  0.1862 -0.1431
 8186WAT     H134549   6.700   8.935   7.707 -0.0768 -1.6374 -0.2991
 8186WAT     H234550   6.783   9.014   7.607 -1.7701 -0.2764 -0.6617
 8186WAT    EPW34551   6.775   8.948   7.664 -0.2816 -0.1149 -0.2322
 8187WAT      O34552   8.561  10.196   8.897  0.2020  1.2499 -0.0477
 8187WAT     H134553   8.622  10.144   8.844  0.1000  1.6522 -0.5637
 8187WAT     H234554   8.533  10.267   8.839 -1.9991  0.1912 -0.3892
 8187WAT    EPW34555   8.566  10.199   8.882 -0.1016  1.1635 -0.1612
 8188WAT      O34556   9.011   4.997   7.410 -0.3138  0.3164 -0.2989
 8188WAT     H134557   8.953   5.034   7.344  0.4439 -0.3536 -1.3748
 8188WAT     H234558   9.023   4.906   7.383  1.9574  0.6535 -0.6675
 8188WAT    EPW34559   9.005   4.990   7.398  0.0858  0.2725 -0.4897
 8189WAT      O34560  10.396   9.214   1.650  0.7154 -0.5268 -0.1685
 8189WAT     H134561  10.434   9.299   1.673 -0.3802  0.2171 -1.0232
 8189WAT     H234562  10.302   9.226   1.661  0.6348 -2.5661  2.7040
 8189WAT    EPW34563  10.389   9.227   1.655  0.5598 -0.6976  0.0977
 8190WAT      O34564   3.299   0.760   1.020  0.0914 -0.4893  0.5452
 8190WAT     H134565   3.309   0.822   1.092 -1.0715  1.3304 -0.7818
 8190WAT     H234566   3.291   0.815   0.942  2.9113 -2.4019 -1.2511
 8190WAT    EPW34567   3.299   0.775   1.019  0.3101 -0.5016  0.1332
 8191WAT      O34568   3.612   1.514   0.039 -0.8700 -0.1830  0.6381
 8191WAT     H134569   3.643   1.566   0.112 -1.0782  2.8936 -1.2750
 8191WAT     H234570   3.677   1.444   0.029 -0.0516  0.2143  2.7574
 8191WAT    EPW34571   3.624   1.511   0.047 -0.7895  0.2751  0.6653
 8192WAT      O34572   4.293   7.661   7.323  0.4123  0.2944  0.0724
 8192WAT     H134573   4.301   7.747   7.365  1.5023 -0.1677  0.8675
 8192WAT     H234574   4.379   7.622   7.333  0.6631  0.0730 -2.4998
 8192WAT    EPW34575   4.305   7.667   7.330  0.5891  0.2043 -0.1621
 8193WAT      O34576   9.004   4.671   8.737  0.9643 -0.4340  0.6828
 8193WAT     H134577   9.029   4.722   8.660  1.4286 -1.0874  0.3905
 8193WAT     H234578   8.913   4.696   8.753  0.3987 -1.2887 -0.9099
 8193WAT    EPW34579   8.995   4.681   8.729  0.9508 -0.6328  0.4344
 8194WAT      O34580   1.901   1.962   0.203  0.3135  0.0909  0.6844
 8194WAT     H134581   1.893   1.890   0.141  1.4876 -1.4573  2.2415
 8194WAT     H234582   1.822   2.014   0.190  0.7087  0.1276 -2.3981
 8194WAT    EPW34583   1.890   1.960   0.193  0.5205 -0.1084  0.4832
 8195WAT      O34584   5.392   1.393   1.811  0.1062  0.5866 -0.2197
 8195WAT     H134585   5.335   1.328   1.853 -1.4491  1.4467 -0.9148
 8195WAT     H234586   5.441   1.432   1.883 -0.0481 -0.2898  0.3808
 8195WAT    EPW34587   5.391   1.389   1.826 -0.1194  0.5845 -0.2322
 8196WAT      O34588   6.160   3.847   0.095  0.3823 -0.3494 -0.3630
 8196WAT     H134589   6.146   3.839   0.001 -0.2409 -0.7940 -0.2375
 8196WAT     H234590   6.250   3.816   0.109  1.4167  2.0366 -1.1059
 8196WAT    EPW34591   6.170   3.842   0.085  0.4365 -0.0935 -0.4444
 8197WAT      O34592   4.818   2.385   6.744 -0.1312 -1.0509  0.0631
 8197WAT     H134593   4.883   2.358   6.808 -0.6755 -0.8798  0.7044
 8197WAT     H234594   4.742   2.329   6.762 -0.9661  0.2640  0.8523
 8197WAT    EPW34595   4.816   2.374   6.755 -0.3130 -0.8548  0.2513
 8198WAT      O34596   6.358   1.976   7.327  0.3157 -0.2560 -0.7420
 8198WAT     H134597   6.290   1.913   7.301  0.3592 -1.2561  1.3776
 8198WAT     H234598   6.345   1.988   7.421  1.3053  1.7453 -0.8058
 8198WAT    EPW34599   6.347   1.969   7.336  0.4518 -0.1239 -0.4709
 8199WAT      O34600   1.387   1.827   4.221  0.5385 -0.5531  0.3395
 8199WAT     H134601   1.433   1.743   4.216 -0.3264 -0.9612 -1.9386
 8199WAT     H234602   1.301   1.805   4.256 -0.0111 -0.8148 -1.1061
 8199WAT    EPW34603   1.382   1.813   4.225  0.3519 -0.6415 -0.1514
 8200WAT      O34604   4.282   0.347   1.495 -0.2783 -0.5396  0.4806
 8200WAT     H134605   4.341   0.346   1.420 -0.7153 -1.7285  0.1267
 8200WAT     H234606   4.326   0.293   1.560  0.5863  1.3076  1.5170
 8200WAT    EPW34607   4.296   0.340   1.494 -0.2222 -0.4528  0.5707
 8201WAT      O34608   4.192   7.621   8.802  0.6555  0.5685  0.5375
 8201WAT     H134609   4.130   7.668   8.745 -1.1101 -1.8647  0.2904
 8201WAT     H234610   4.141   7.600   8.880  0.0979 -3.8156 -0.7339
 8201WAT    EPW34611   4.177   7.625   8.804  0.3490 -0.3304  0.3366
 8202WAT      O34612   2.047   4.831   2.300 -0.1523 -0.8317 -0.3071
 8202WAT     H134613   2.066   4.740   2.277  1.3921 -0.3940 -0.9139
 8202WAT     H234614   1.952   4.834   2.311 -0.5182 -1.9909 -2.6105
 8202WAT    EPW34615   2.037   4.819   2.299  0.0031 -0.9267 -0.6911
 8203WAT      O34616  10.884   0.174   0.583 -0.2424  0.2602  0.2847
 8203WAT     H134617  10.842   0.090   0.563  1.8921 -1.2163  1.5686
 8203WAT     H234618  10.848   0.200   0.667  1.2108 -0.9993  1.3788
 8203WAT    EPW34619  10.874   0.166   0.591  0.2308 -0.1007  0.5983
 8204WAT      O34620   1.983   0.847   1.607 -0.3266  0.2940  0.0191
 8204WAT     H134621   1.907   0.793   1.630 -1.0524 -1.3035 -4.9039
 8204WAT     H234622   2.055   0.808   1.654 -1.0882 -4.4322 -2.1639
 8204WAT    EPW34623   1.982   0.835   1.616 -0.5228 -0.5400 -0.9181
 8205WAT      O34624  10.413   6.488   6.777 -0.8009 -0.7609  0.3790
 8205WAT     H134625  10.334   6.540   6.789  1.0876  2.5969 -0.5320
 8205WAT     H234626  10.465   6.504   6.856  0.7073  0.5719 -0.8148
 8205WAT    EPW34627  10.410   6.497   6.789 -0.3524 -0.1421  0.1016
 8206WAT      O34628   6.256   7.331   6.206  0.2397  0.9917  0.4304
 8206WAT     H134629   6.226   7.240   6.201  1.9094  0.4222 -0.1986
 8206WAT     H234630   6.218   7.365   6.286  0.4307 -0.6205  1.2419
 8206WAT    EPW34631   6.247   7.323   6.216  0.4849  0.7041  0.4547
 8207WAT      O34632   4.552   1.585   0.874  0.5918  0.1825  0.0926
 8207WAT     H134633   4.585   1.504   0.835  0.2997  0.2215 -0.2449
 8207WAT     H234634   4.607   1.654   0.838  0.4634  0.1949 -0.0816
 8207WAT    EPW34635   4.563   1.583   0.865  0.5364  0.1892  0.0251
 8208WAT      O34636   8.008   8.963   8.928 -0.2122 -0.0701 -0.3034
 8208WAT     H134637   7.973   9.021   8.995  0.2318  1.9001 -1.6797
 8208WAT     H234638   8.076   8.912   8.973 -2.3740 -1.5240  1.5629
 8208WAT    EPW34639   8.013   8.964   8.943 -0.4387 -0.0021 -0.2387
 8209WAT      O34640   4.718   4.830   8.135 -0.1577  0.0291 -0.0334
 8209WAT     H134641   4.711   4.742   8.098  0.4314  0.7970 -2.1066
 8209WAT     H234642   4.680   4.887   8.068  0.8155  1.4883  0.6032
 8209WAT    EPW34643   4.712   4.826   8.121  0.0484  0.3228 -0.2227
 8210WAT      O34644   2.258   4.283   2.553 -0.2695  0.0527 -0.2818
 8210WAT     H134645   2.172   4.310   2.586 -0.0982 -0.6254  0.7625
 8210WAT     H234646   2.249   4.286   2.458 -2.0172 -1.7414 -0.2371
 8210WAT    EPW34647   2.245   4.287   2.545 -0.4773 -0.2737 -0.1380
 8211WAT      O34648   5.290   5.857   6.762  0.6708 -0.2662  0.2549
 8211WAT     H134649   5.238   5.843   6.841 -0.6366 -0.4300 -0.6152
 8211WAT     H234650   5.320   5.769   6.737  0.9896 -0.2283  0.5019
 8211WAT    EPW34651   5.287   5.843   6.769  0.5403 -0.2830  0.1726
 8212WAT      O34652   2.555   2.271   0.822 -0.0725 -0.0870 -0.9478
 8212WAT     H134653   2.561   2.232   0.735  0.2151  1.0651 -1.4499
 8212WAT     H234654   2.646   2.273   0.854  0.1970  1.8732 -1.7036
 8212WAT    EPW34655   2.568   2.266   0.815  0.0011  0.3235 -1.1137
 8213WAT      O34656   9.990   5.719   7.200 -0.2660  0.0636 -0.6122
 8213WAT     H134657   9.896   5.707   7.188 -0.6270 -1.4265  2.4435
 8213WAT     H234658   9.997   5.781   7.272  0.7913 -2.6200  1.8347
 8213WAT    EPW34659   9.978   5.725   7.208 -0.1740 -0.4869  0.1137
 8214WAT      O34660   9.442   7.716   8.397  0.4339  0.0266  0.2653
 8214WAT     H134661   9.533   7.693   8.412  1.2708  3.2818  0.8911
 8214WAT     H234662   9.443   7.768   8.316 -1.2320 -1.4821 -0.8129
 8214WAT    EPW34663   9.454   7.720   8.388  0.3242  0.2570  0.2055
 8215WAT      O34664   2.620   0.527   0.097 -0.6869 -0.1571  0.0383
 8215WAT     H134665   2.598   0.572   0.178 -1.6552  0.2506 -0.4409
 8215WAT     H234666   2.545   0.470   0.080  0.0206 -1.1125  0.0298
 8215WAT    EPW34667   2.607   0.525   0.106 -0.7212 -0.2294 -0.0260
 8216WAT      O34668   6.852   6.771   8.607  0.0635 -0.7364  0.2942
 8216WAT     H134669   6.937   6.771   8.563  0.0074 -3.0163  0.0400
 8216WAT     H234670   6.857   6.844   8.669  2.0800 -0.6187  0.0645
 8216WAT    EPW34671   6.864   6.780   8.610  0.3221 -1.0216  0.2298
 8217WAT      O34672   1.956  10.148   0.311 -0.4520  0.0922  0.0931
 8217WAT     H134673   1.995  10.151   0.224  0.5818  0.7006  0.5615
 8217WAT     H234674   1.973  10.235   0.348  0.9069 -0.7923  1.6645
 8217WAT    EPW34675   1.963  10.160   0.305 -0.1364  0.0553  0.3621
 8218WAT      O34676   2.196   4.870   0.155  0.1682  0.4968  0.3565
 8218WAT     H134677   2.267   4.806   0.159  0.5944  0.9770  0.5685
 8218WAT     H234678   2.135   4.842   0.224  0.6059  0.6160  0.7965
 8218WAT    EPW34679   2.197   4.858   0.165  0.2820  0.5753  0.4425
 8219WAT      O34680   7.911   6.302   7.884  0.2391 -0.9708 -0.3812
 8219WAT     H134681   7.855   6.313   7.961  0.0110 -3.6638 -0.0812
 8219WAT     H234682   7.998   6.284   7.920  1.0369  1.4976 -0.8483
 8219WAT    EPW34683   7.915   6.301   7.899  0.3142 -1.0004 -0.4034
 8220WAT      O34684   7.853   4.226   7.281  0.2148  0.1305  0.0477
 8220WAT     H134685   7.926   4.187   7.234  0.0089  0.0840 -0.2381
 8220WAT     H234686   7.854   4.183   7.367 -1.7563 -2.7435 -1.1734
 8220WAT    EPW34687   7.863   4.215   7.286 -0.0725 -0.2546 -0.1509
 8221WAT      O34688   3.241   3.474   0.801 -0.2523  0.1822  0.0126
 8221WAT     H134689   3.242   3.536   0.874 -0.4399 -0.0986  0.2561
 8221WAT     H234690   3.242   3.388   0.842 -0.9384  0.0138 -0.2981
 8221WAT    EPW34691   3.241   3.471   0.816 -0.3676  0.1231  0.0038
 8222WAT      O34692  10.233   8.761   1.823  0.2908  0.3422  0.1710
 8222WAT     H134693  10.280   8.844   1.831  1.3988 -0.4371  3.0598
 8222WAT     H234694  10.182   8.755   1.903  0.2530 -1.7672  0.0426
 8222WAT    EPW34695  10.233   8.771   1.834  0.4315 -0.0391  0.5351
 8223WAT      O34696  10.804   0.232   5.848  0.4024  0.5168  0.3997
 8223WAT     H134697  10.719   0.213   5.887  0.4528  0.4322  0.4698
 8223WAT     H234698  10.794   0.209   5.755 -0.1686  2.0747  0.0424
 8223WAT    EPW34699  10.792   0.227   5.841  0.3333  0.7112  0.3619
 8224WAT      O34700   3.139   2.742   1.558 -0.2864 -0.3635 -0.1725
 8224WAT     H134701   3.188   2.661   1.547 -0.3818 -0.6240  1.1290
 8224WAT     H234702   3.202   2.811   1.538  0.3840 -0.7169  0.6308
 8224WAT    EPW34703   3.153   2.741   1.554 -0.2105 -0.4445  0.1051
 8225WAT      O34704   4.926   7.510   7.541 -0.3598 -0.0856  0.0231
 8225WAT     H134705   4.934   7.528   7.635  0.9197 -1.5776  0.2392
 8225WAT     H234706   4.878   7.427   7.537 -1.8989  0.7904 -0.7468
 8225WAT    EPW34707   4.920   7.502   7.553 -0.3941 -0.1671 -0.0498
 8226WAT      O34708   6.298   0.385   0.112 -0.3595 -0.0835  0.2754
 8226WAT     H134709   6.367   0.319   0.118 -0.4828 -0.1030  2.0658
 8226WAT     H234710   6.219   0.335   0.089 -0.6047 -0.7390  2.3042
 8226WAT    EPW34711   6.297   0.370   0.110 -0.4082 -0.1726  0.7791
 8227WAT      O34712   3.861   2.496   1.800  0.8058 -0.3844 -0.3900
 8227WAT     H134713   3.780   2.466   1.842  0.7030 -1.2000 -1.1587
 8227WAT     H234714   3.915   2.418   1.794  0.8002 -0.2893 -1.8212
 8227WAT    EPW34715   3.857   2.482   1.805  0.7915 -0.4795 -0.6801
 8228WAT      O34716   2.586   4.686   8.187 -0.4385 -0.2258  0.2900
 8228WAT     H134717   2.631   4.741   8.123  1.1473  0.8769  2.2541
 8228WAT     H234718   2.537   4.624   8.134  0.5107  0.8536 -1.9908
 8228WAT    EPW34719   2.586   4.685   8.171 -0.1042  0.0618  0.2480
 8229WAT      O34720   5.969   7.275   8.844  0.0572 -0.0981 -0.0325
 8229WAT     H134721   5.919   7.293   8.923  1.0859  2.4209  0.1406
 8229WAT     H234722   5.913   7.305   8.772 -0.6129 -1.7944 -0.2623
 8229WAT    EPW34723   5.955   7.281   8.845  0.1044  0.0105 -0.0405
 8230WAT      O34724   5.253   7.074   7.988  0.8884 -0.0727 -0.1659
 8230WAT     H134725   5.318   7.114   8.045  0.8549 -0.3884  0.0955
 8230WAT     H234726   5.201   7.018   8.046 -1.0699  1.8654  0.1022
 8230WAT    EPW34727   5.255   7.072   8.003  0.6258  0.1409 -0.0963
 8231WAT      O34728   5.983   3.391   0.394  0.1951 -0.1051  0.0446
 8231WAT     H134729   5.894   3.396   0.359  0.9480 -2.4578 -2.6142
 8231WAT     H234730   5.980   3.443   0.474 -4.1314 -1.7070  1.2611
 8231WAT    EPW34731   5.970   3.398   0.400 -0.2761 -0.6268 -0.1456
 8232WAT      O34732   8.160   5.269   7.669  0.1270  0.1601  1.0684
 8232WAT     H134733   8.130   5.266   7.578  0.9906 -0.6941  0.7917
 8232WAT     H234734   8.222   5.196   7.676 -0.4916 -0.2579  2.5548
 8232WAT    EPW34735   8.165   5.259   7.658  0.1593 -0.0076  1.2276
 8233WAT      O34736   5.995   3.162   6.671  0.0431  0.1676 -0.3172
 8233WAT     H134737   6.076   3.175   6.622 -1.1603  1.6551 -2.0270
 8233WAT     H234738   5.947   3.244   6.662 -2.4976 -1.2788 -1.0026
 8233WAT    EPW34739   5.999   3.174   6.663 -0.4506  0.1731 -0.6332
 8234WAT      O34740   3.784   1.513   4.727 -0.6597  0.4757  0.2362
 8234WAT     H134741   3.718   1.558   4.673 -2.4573 -0.3006  1.6711
 8234WAT     H234742   3.798   1.571   4.801  0.4396  0.7100 -0.1430
 8234WAT    EPW34743   3.777   1.527   4.729 -0.7519  0.4042  0.3755
 8235WAT      O34744   4.969   1.346   1.855 -0.2433 -0.9634  0.2203
 8235WAT     H134745   5.035   1.401   1.897 -0.3724  0.3055 -1.1433
 8235WAT     H234746   4.906   1.326   1.924  0.2667 -0.1035  0.9546
 8235WAT    EPW34747   4.969   1.351   1.870 -0.1929 -0.6826  0.1374
 8236WAT      O34748   5.331   0.440   0.662 -0.0062 -0.2185 -0.1377
 8236WAT     H134749   5.314   0.523   0.617 -2.3630 -0.8074 -0.5001
 8236WAT     H234750   5.355   0.380   0.592  5.4502  0.8165  0.4503
 8236WAT    EPW34751   5.332   0.443   0.647  0.4027 -0.1597 -0.1080
 8237WAT      O34752   7.382   8.149   8.605 -0.3563  0.5901 -0.3373
 8237WAT     H134753   7.423   8.157   8.691 -1.5297  0.9060  0.2058
 8237WAT     H234754   7.434   8.082   8.561 -0.3418 -0.3192  0.9865
 8237WAT    EPW34755   7.394   8.141   8.611 -0.5090  0.5121 -0.0906
 8238WAT      O34756   3.366   4.227   1.025  0.2350  0.5279  0.7349
 8238WAT     H134757   3.361   4.322   1.038 -1.6657  0.6598 -0.6274
 8238WAT     H234758   3.411   4.217   0.941 -2.3423  0.4264 -0.7342
 8238WAT    EPW34759   3.372   4.238   1.016 -0.3557  0.5319  0.3614
 8239WAT      O34760   7.851   7.673   7.149  0.6724  0.1618 -0.1640
 8239WAT     H134761   7.920   7.658   7.214  0.5089  1.1175  0.2539
 8239WAT     H234762   7.896   7.673   7.065  1.6539  3.2534  0.2520
 8239WAT    EPW34763   7.866   7.671   7.147  0.7803  0.6952 -0.0541
 8240WAT      O34764  10.715   9.112   2.677  0.6559 -0.4249  0.4289
 8240WAT     H134765  10.700   9.027   2.719 -0.8244 -0.5011 -0.1694
 8240WAT     H234766  10.638   9.124   2.621  1.4413  0.7532 -0.4381
 8240WAT    EPW34767  10.703   9.102   2.675  0.5646 -0.2799  0.2357
 8241WAT      O34768   2.847   8.462   1.971  0.2379 -0.2254  0.4871
 8241WAT     H134769   2.808   8.375   1.968 -0.6197  0.0370  2.4332
 8241WAT     H234770   2.937   8.447   2.000  0.8722 -0.6218 -1.5555
 8241WAT    EPW34771   2.854   8.449   1.975  0.2084 -0.2432  0.4743
 8242WAT      O34772   5.005   0.150   0.653 -0.3066  1.1796 -0.2165
 8242WAT     H134773   4.922   0.114   0.686  1.3935  0.3267  3.7022
 8242WAT     H234774   4.998   0.244   0.672 -0.9071  1.4012 -1.3899
 8242WAT    EPW34775   4.993   0.158   0.660 -0.1616  1.0964  0.1456
 8243WAT      O34776   6.286   6.137   5.434  0.3421 -0.6406  0.2407
 8243WAT     H134777   6.349   6.093   5.492  0.7009  0.0360  0.3729
 8243WAT     H234778   6.270   6.222   5.476 -0.0106 -0.4654 -0.2383
 8243WAT    EPW34779   6.292   6.143   5.447  0.3428 -0.5281  0.1950
 8244WAT      O34780   7.793   4.578   8.775 -0.4894  0.0824  0.2395
 8244WAT     H134781   7.741   4.564   8.854 -2.1435  1.7217 -0.4758
 8244WAT     H234782   7.730   4.572   8.703  0.2697  2.0419 -0.6794
 8244WAT    EPW34783   7.778   4.575   8.776 -0.6075  0.5572  0.0243
 8245WAT      O34784   1.833   3.776   0.035  0.4763 -0.5968 -0.8381
 8245WAT     H134785   1.895   3.735  -0.025  2.0743  0.9435 -0.3441
 8245WAT     H234786   1.865   3.752   0.122  0.4261  0.2445 -0.5799
 8245WAT    EPW34787   1.846   3.767   0.039  0.6804 -0.2828 -0.7389
 8246WAT      O34788   5.362   3.135   7.961  0.0109  0.6948 -0.1086
 8246WAT     H134789   5.357   3.040   7.967 -1.4704  0.7923  0.7093
 8246WAT     H234790   5.455   3.154   7.956  0.2943 -0.9206 -2.9888
 8246WAT    EPW34791   5.373   3.125   7.961 -0.1471  0.4946 -0.3810
 8247WAT      O34792   6.960   5.779   5.800 -0.0639 -0.1615  1.3224
 8247WAT     H134793   6.906   5.751   5.726  0.6069 -2.9857  1.7773
 8247WAT     H234794   7.049   5.780   5.766 -0.1029  3.0401  0.9726
 8247WAT    EPW34795   6.965   5.776   5.786  0.0196 -0.1118  1.3363
 8248WAT      O34796   4.965   7.585   7.155 -0.1245  0.3900  0.1625
 8248WAT     H134797   4.976   7.660   7.213  0.1943 -0.3889  1.1502
 8248WAT     H234798   5.054   7.550   7.145 -0.1137  0.7383 -1.1383
 8248WAT    EPW34799   4.978   7.590   7.161 -0.0808  0.3331  0.1211
 8249WAT      O34800   9.033   5.972   8.027  0.5065  0.6783 -0.2961
 8249WAT     H134801   9.003   5.909   7.961  1.1730 -2.2744  2.0196
 8249WAT     H234802   8.966   5.970   8.095  1.1213  1.6287  0.3621
 8249WAT    EPW34803   9.020   5.963   8.027  0.6757  0.4144  0.0958
 8250WAT      O34804  10.057   9.746   6.231  0.7126  0.3872  0.7025
 8250WAT     H134805  10.110   9.747   6.311  2.3408 -0.5176 -0.3109
 8250WAT     H234806  10.001   9.669   6.240 -1.0487  1.7387  2.0987
 8250WAT    EPW34807  10.057   9.736   6.243  0.6952  0.4463  0.7529
 8251WAT      O34808   7.483   5.501   8.313  0.5506  0.1255 -0.1837
 8251WAT     H134809   7.556   5.440   8.301 -0.0069 -0.5747 -0.0364
 8251WAT     H234810   7.427   5.458   8.377 -0.3462  0.3415 -0.8174
 8251WAT    EPW34811   7.486   5.487   8.320  0.3588  0.0613 -0.2484
 8252WAT      O34812   4.468   2.471   0.341 -0.4688 -0.2746 -0.3279
 8252WAT     H134813   4.441   2.449   0.251  0.6201  0.4862 -0.8616
 8252WAT     H234814   4.543   2.529   0.330  0.3578 -1.0215  1.1078
 8252WAT    EPW34815   4.474   2.476   0.328 -0.2165 -0.2729 -0.2090
 8253WAT      O34816   1.781   0.986   0.437  0.6456 -0.2927 -0.5647
 8253WAT     H134817   1.836   1.043   0.385 -0.7051  0.6102 -1.0721
 8253WAT     H234818   1.777   1.027   0.524  1.5026 -0.8624 -0.2474
 8253WAT    EPW34819   1.788   0.999   0.442  0.5805 -0.2488 -0.5898
 8254WAT      O34820   5.474   2.429   0.991 -0.0624  0.5183  0.7330
 8254WAT     H134821   5.498   2.490   0.921 -1.0325 -1.3973 -1.3984
 8254WAT     H234822   5.414   2.479   1.047 -0.3636  1.7038 -0.6021
 8254WAT    EPW34823   5.469   2.443   0.989 -0.2301  0.4219  0.2759
 8255WAT      O34824   3.566   0.931   3.349  0.2440  0.3155  0.1610
 8255WAT     H134825   3.561   0.878   3.429  1.6939 -2.7754 -1.6312
 8255WAT     H234826   3.476   0.942   3.321 -0.1265 -0.9699  0.7817
 8255WAT    EPW34827   3.554   0.925   3.356  0.3862 -0.2618  0.0063
 8256WAT      O34828   5.065   0.893   0.388  0.0516  0.0482 -0.0485
 8256WAT     H134829   5.017   0.812   0.404 -1.4376  0.6161 -1.3488
 8256WAT     H234830   5.002   0.950   0.344  1.2684  1.6746  0.2085
 8256WAT    EPW34831   5.050   0.890   0.384  0.0160  0.3376 -0.1861
 8257WAT      O34832   8.258   3.897   5.542 -0.2510 -0.2204  0.1230
 8257WAT     H134833   8.172   3.932   5.567 -1.4893 -2.5182 -0.5899
 8257WAT     H234834   8.286   3.953   5.470 -1.3460  0.3066  0.0742
 8257WAT    EPW34835   8.250   3.909   5.536 -0.5589 -0.4539  0.0226
 8258WAT      O34836   9.492   9.179   8.957  0.1998 -1.0494  0.3752
 8258WAT     H134837   9.570   9.173   8.902 -1.1615 -1.5230 -1.5701
 8258WAT     H234838   9.480   9.273   8.971  1.1230 -0.9731  0.7644
 8258WAT    EPW34839   9.501   9.191   8.952  0.1421 -1.1020  0.1698
 8259WAT      O34840   3.536   6.913   8.960  0.3145  0.5693 -0.1643
 8259WAT     H134841   3.564   6.960   8.882  0.9735 -1.8111 -1.4526
 8259WAT     H234842   3.498   6.832   8.927 -2.4852  0.9212  1.8650
 8259WAT    EPW34843   3.535   6.908   8.945  0.0324  0.3017 -0.0666
 8260WAT      O34844   6.574   6.984   8.297 -0.1399  0.1257  0.2100
 8260WAT     H134845   6.558   7.072   8.333  4.3841  0.1799  2.7870
 8260WAT     H234846   6.652   6.995   8.242  1.1693 -2.3608  1.4071
 8260WAT    EPW34847   6.582   6.997   8.295  0.6297 -0.1953  0.7081
 8261WAT      O34848   5.355   0.103   0.212  0.6212  0.3085  0.1318
 8261WAT     H134849   5.294   0.031   0.199  0.2852  0.1254  2.3066
 8261WAT     H234850   5.419   0.094   0.141 -0.6283 -0.7970 -0.9026
 8261WAT    EPW34851   5.356   0.092   0.201  0.4120  0.1385  0.2822
 8262WAT      O34852   5.041   1.074   0.608  0.1959  0.3442 -0.1972
 8262WAT     H134853   5.079   1.022   0.538 -1.8872  1.1289 -2.0314
 8262WAT     H234854   5.045   1.165   0.577  2.2039  1.1957  2.1879
 8262WAT    EPW34855   5.046   1.079   0.595  0.1860  0.5599 -0.1245
 8263WAT      O34856   8.742   5.874   7.393  0.0798 -0.4640  0.6537
 8263WAT     H134857   8.797   5.802   7.362 -0.8821 -0.7105 -0.5715
 8263WAT     H234858   8.670   5.830   7.439 -2.5290 -0.6946 -3.1745
 8263WAT    EPW34859   8.739   5.858   7.395 -0.3910 -0.5269 -0.0126
 8264WAT      O34860   6.434   5.986   8.927  0.6450 -0.0746 -0.2085
 8264WAT     H134861   6.481   5.914   8.969 -0.2312 -0.6564 -0.2085
 8264WAT     H234862   6.486   6.007   8.849  1.4285 -0.0424  0.3125
 8264WAT    EPW34863   6.447   5.980   8.922  0.6330 -0.1471 -0.1397
 8265WAT      O34864   2.437   8.918   0.534 -0.3582  0.5592 -0.0874
 8265WAT     H134865   2.516   8.908   0.481  0.7211  0.4666  1.4753
 8265WAT     H234866   2.468   8.955   0.617 -2.0714  1.2838  0.2738
 8265WAT    EPW34867   2.451   8.922   0.538 -0.4419  0.6423  0.1664
 8266WAT      O34868   3.134   0.628   0.625  0.4590  0.1477  0.3819
 8266WAT     H134869   3.202   0.571   0.662  1.1750 -0.8656 -2.3114
 8266WAT     H234870   3.095   0.577   0.555 -1.7714  1.4925  0.5673
 8266WAT    EPW34871   3.138   0.614   0.621  0.2592  0.1914  0.0511
 8267WAT      O34872   8.237   4.545   2.139 -0.3529 -0.2826  0.0542
 8267WAT     H134873   8.209   4.617   2.196 -2.0399 -0.6198 -0.2793
 8267WAT     H234874   8.260   4.588   2.057  0.9770  0.0858  0.5865
 8267WAT    EPW34875   8.236   4.560   2.136 -0.4001 -0.2782  0.0805
 8268WAT      O34876   9.437   4.044   7.380 -0.0846  0.2383  0.4404
 8268WAT     H134877   9.523   4.067   7.413  0.4113  0.5265 -0.9895
 8268WAT     H234878   9.381   4.118   7.406  0.2643  0.4149  0.6985
 8268WAT    EPW34879   9.441   4.057   7.388  0.0267  0.2997  0.2856
 8269WAT      O34880   4.740   3.667   1.011  0.5556  0.6009 -0.2773
 8269WAT     H134881   4.668   3.604   1.005  0.8406 -0.1528  2.6860
 8269WAT     H234882   4.807   3.633   0.951  0.0601 -1.0335  0.0442
 8269WAT    EPW34883   4.739   3.654   1.003  0.5276  0.2859  0.1561
 8270WAT      O34884   5.082   3.125   1.527  0.0050 -0.5893 -0.1546
 8270WAT     H134885   5.129   3.137   1.609 -0.6305 -1.2474  0.3090
 8270WAT     H234886   4.997   3.165   1.541  0.5422  1.0359 -1.1619
 8270WAT    EPW34887   5.077   3.132   1.539 -0.0079 -0.4617 -0.2263
 8271WAT      O34888   5.681   8.371   7.483  0.6664  0.0738  0.1044
 8271WAT     H134889   5.767   8.350   7.518 -0.1575 -1.7365  1.1451
 8271WAT     H234890   5.672   8.466   7.498  2.6282  0.3923 -0.4699
 8271WAT    EPW34891   5.691   8.381   7.490  0.8163 -0.1230  0.1657
 8272WAT      O34892   8.477   6.291   7.922 -0.0338  0.3467  0.1704
 8272WAT     H134893   8.504   6.316   8.011  1.8121  1.3356 -0.6224
 8272WAT     H234894   8.540   6.225   7.895 -0.8781 -0.3014 -0.2638
 8272WAT    EPW34895   8.489   6.286   7.930  0.0987  0.3917  0.0086
 8273WAT      O34896  10.889  10.118   4.778  0.6175 -0.1051 -0.3999
 8273WAT     H134897  10.950  10.178   4.823  1.1432 -1.7729  1.2269
 8273WAT     H234898  10.865  10.054   4.845 -1.9426 -0.2733 -1.3765
 8273WAT    EPW34899  10.894  10.118   4.793  0.3490 -0.3471 -0.3140
 8274WAT      O34900   4.847   8.335   8.448  0.1798 -0.7340 -0.1083
 8274WAT     H134901   4.936   8.363   8.424 -0.1977 -0.0948 -0.8153
 8274WAT     H234902   4.839   8.247   8.414  0.7568 -1.0426  0.5225
 8274WAT    EPW34903   4.858   8.327   8.441  0.2060 -0.6909 -0.1183
 8275WAT      O34904   9.575   0.324   6.871  0.7125 -0.0637 -0.1997
 8275WAT     H134905   9.498   0.381   6.878 -0.0391 -1.0250 -0.3192
 8275WAT     H234906   9.649   0.380   6.895  0.1825  1.3327 -1.6389
 8275WAT    EPW34907   9.574   0.339   6.875  0.5441 -0.0063 -0.4053
 8276WAT      O34908   7.626   6.343   7.711 -0.7174  0.0315 -0.0106
 8276WAT     H134909   7.703   6.394   7.737 -0.1825  0.6945 -2.5770
 8276WAT     H234910   7.566   6.407   7.673 -1.9185 -0.6890  0.6190
 8276WAT    EPW34911   7.629   6.358   7.709 -0.8051  0.0236 -0.2661
 8277WAT      O34912   9.285   5.321   7.261 -0.0997 -0.1458  0.2499
 8277WAT     H134913   9.266   5.275   7.180 -0.5008  0.8999 -0.2670
 8277WAT     H234914   9.232   5.276   7.327 -0.2537 -0.6015 -0.1751
 8277WAT    EPW34915   9.276   5.309   7.259 -0.1726 -0.0677  0.1256
 8278WAT      O34916   6.256   4.731   8.230 -0.1039  0.7185  0.2237
 8278WAT     H134917   6.272   4.638   8.248  0.0040  0.6116 -0.4017
 8278WAT     H234918   6.229   4.733   8.138 -1.2214  1.1790  0.5397
 8278WAT    EPW34919   6.254   4.719   8.221 -0.2372  0.7653  0.1831
 8279WAT      O34920   1.663   4.090   0.572 -0.2247 -0.1389 -0.0198
 8279WAT     H134921   1.711   4.059   0.649  0.9685  2.8409  0.5455
 8279WAT     H234922   1.715   4.060   0.498 -0.3822 -1.4107  0.3447
 8279WAT    EPW34923   1.676   4.082   0.573 -0.0880  0.0865  0.1028
 8280WAT      O34924   0.910   4.785   1.399 -0.0482 -0.7428 -0.8149
 8280WAT     H134925   0.930   4.759   1.489  0.5873  2.3864  0.0662
 8280WAT     H234926   0.818   4.812   1.401 -0.3451 -1.6654 -1.3989
 8280WAT    EPW34927   0.901   4.785   1.411 -0.0036 -0.4518 -0.7756
 8281WAT      O34928  10.872   5.701   6.143  0.4528 -0.5559 -0.4941
 8281WAT     H134929  10.933   5.675   6.074 -1.2687  0.2079 -2.4193
 8281WAT     H234930  10.799   5.741   6.096  0.4252  2.6205  1.8928
 8281WAT    EPW34931  10.871   5.703   6.128  0.2222 -0.0362 -0.4334
 8282WAT      O34932   3.289   3.494   0.114 -0.3930  0.0323 -0.0247
 8282WAT     H134933   3.297   3.483   0.019 -1.4715  0.6034 -0.1910
 8282WAT     H234934   3.338   3.574   0.133 -3.6386  2.4000 -0.7623
 8282WAT    EPW34935   3.297   3.503   0.104 -0.9633  0.4200 -0.1439
 8283WAT      O34936   6.989   6.607   7.561 -0.4467  0.1505  0.0206
 8283WAT     H134937   6.979   6.533   7.621 -2.7802  0.1521 -0.2750
 8283WAT     H234938   7.030   6.675   7.614 -0.4223 -0.5690  0.9611
 8283WAT    EPW34939   6.994   6.606   7.576 -0.7513  0.0560  0.1056
 8284WAT      O34940   9.467   8.379   8.654  0.7993 -0.0232 -0.4018
 8284WAT     H134941   9.422   8.459   8.681  1.2346  0.2619 -0.5029
 8284WAT     H234942   9.403   8.309   8.667  1.0900  0.0391  1.6976
 8284WAT    EPW34943   9.452   8.380   8.660  0.8955  0.0224 -0.1378
 8285WAT      O34944   6.549   9.033   5.932  0.0116  0.1718  0.0321
 8285WAT     H134945   6.506   9.109   5.893 -0.9178 -1.3704 -2.1630
 8285WAT     H234946   6.637   9.063   5.955 -0.9357  2.3689  0.9907
 8285WAT    EPW34947   6.555   9.047   5.930 -0.2358  0.2580 -0.1309
 8286WAT      O34948   9.635   0.592   8.016  0.1819 -0.1540 -0.9117
 8286WAT     H134949   9.543   0.567   8.020  0.3850 -1.0350 -1.5272
 8286WAT     H234950   9.661   0.574   7.926  0.8505  0.4897 -0.8600
 8286WAT    EPW34951   9.627   0.587   8.004  0.2971 -0.1853 -0.9861
 8287WAT      O34952   8.745   0.390   8.226  0.4920  0.5867  0.0218
 8287WAT     H134953   8.672   0.452   8.231 -0.2801 -0.3624  0.8356
 8287WAT     H234954   8.742   0.357   8.136  0.2909  0.9884 -0.1243
 8287WAT    EPW34955   8.735   0.394   8.215  0.3638  0.5145  0.1097
 8288WAT      O34956   6.708   4.276   1.384  0.3502 -0.0126 -0.5955
 8288WAT     H134957   6.684   4.241   1.470 -0.4109 -1.2436 -1.2794
 8288WAT     H234958   6.688   4.369   1.389 -2.9843 -0.6061 -0.4894
 8288WAT    EPW34959   6.703   4.284   1.396 -0.1900 -0.2534 -0.6717
 8289WAT      O34960   2.918   4.291   1.387  0.5568  0.2715  0.3977
 8289WAT     H134961   2.945   4.371   1.431  0.5797  0.5963 -0.1924
 8289WAT     H234962   2.958   4.297   1.300  1.3459 -0.8266  0.6647
 8289WAT    EPW34963   2.927   4.302   1.381  0.6639  0.1695  0.3551
 8290WAT      O34964  10.148   7.453   5.811  0.7797  0.2328  0.0735
 8290WAT     H134965  10.096   7.527   5.842  0.9095  0.4464 -0.2203
 8290WAT     H234966  10.169   7.404   5.891 -0.6916 -0.4012  0.1133
 8290WAT    EPW34967  10.144   7.456   5.826  0.6032  0.1774  0.0401
 8291WAT      O34968   5.100   6.619   7.375 -0.0826 -0.2350 -0.2614
 8291WAT     H134969   5.168   6.596   7.438 -1.0738 -0.7389  0.6582
 8291WAT     H234970   5.128   6.578   7.293  1.5593  0.9769 -0.3604
 8291WAT    EPW34971   5.113   6.611   7.372  0.0031 -0.1419 -0.1531
 8292WAT      O34972   3.129   2.469   0.516  0.0402 -0.5506 -0.1162
 8292WAT     H134973   3.097   2.408   0.582  0.9093 -0.2264  0.6295
 8292WAT     H234974   3.222   2.449   0.507  0.0643 -0.1703 -0.7849
 8292WAT    EPW34975   3.137   2.459   0.523  0.1581 -0.4578 -0.1060
 8293WAT      O34976   7.193   1.152   2.307 -0.0460  0.3874 -0.0726
 8293WAT     H134977   7.170   1.114   2.392  0.1641  1.8453  0.6759
 8293WAT     H234978   7.118   1.208   2.285  1.2258  2.5728  0.7870
 8293WAT    EPW34979   7.180   1.154   2.316  0.1495  0.8680  0.1394
 8294WAT      O34980   2.446   1.336   0.109  0.7199  0.4796 -0.1287
 8294WAT     H134981   2.376   1.339   0.044  1.9551  1.3022 -1.4891
 8294WAT     H234982   2.497   1.258   0.085  0.1377 -0.2889  1.0345
 8294WAT    EPW34983   2.444   1.326   0.097  0.8061  0.4867 -0.1547
 8295WAT      O34984   0.386   0.028   8.295 -0.0602 -0.3468 -0.1292
 8295WAT     H134985   0.437   0.106   8.276  0.0917 -0.1928  0.8256
 8295WAT     H234986   0.439  -0.045   8.263  0.5956 -0.1600  0.5082
 8295WAT    EPW34987   0.399   0.028   8.288  0.0464 -0.3019  0.0801
 8296WAT      O34988   7.204   9.544   5.575 -0.0462 -0.3561 -0.7416
 8296WAT     H134989   7.289   9.589   5.573 -0.9124  1.5660  1.3227
 8296WAT     H234990   7.183   9.537   5.668 -2.9933  1.0715 -1.1861
 8296WAT    EPW34991   7.213   9.549   5.587 -0.5488  0.0858 -0.5283
 8297WAT      O34992   5.486   8.462   6.234  0.0936  0.4485  0.2040
 8297WAT     H134993   5.447   8.392   6.180  3.2081 -0.4749 -1.0543
 8297WAT     H234994   5.468   8.435   6.324  1.3288 -2.1770 -0.2338
 8297WAT    EPW34995   5.478   8.449   6.239  0.6673 -0.0191 -0.0196
 8298WAT      O34996   2.117   4.061   0.205  0.0985  0.1813 -0.1496
 8298WAT     H134997   2.184   4.046   0.272 -0.0518  3.4997  0.9209
 8298WAT     H234998   2.146   4.141   0.160 -2.0778  0.5171 -1.0593
 8298WAT    EPW34999   2.130   4.070   0.208 -0.2084  0.6630 -0.1284
 8299WAT      O35000   3.309   3.793   0.287  0.1932  0.8147  0.0986
 8299WAT     H135001   3.380   3.845   0.325  1.5550 -0.0791 -1.1040
 8299WAT     H235002   3.288   3.838   0.205  0.0012  0.5849  0.0211
 8299WAT    EPW35003   3.316   3.806   0.281  0.3475  0.6665 -0.0703
 8300WAT      O35004   4.662   7.393   7.690 -0.2861 -0.7706 -1.0585
 8300WAT     H135005   4.703   7.323   7.639 -0.8064 -0.3505 -2.0842
 8300WAT     H235006   4.569   7.388   7.668 -0.3868 -0.0257 -0.8249
 8300WAT    EPW35007   4.655   7.383   7.681 -0.3681 -0.6170 -1.1628
 8301WAT      O35008   0.660   1.150   5.766 -0.0495  0.2939  0.0038
 8301WAT     H135009   0.576   1.193   5.778 -0.3491 -0.2058 -0.2882
 8301WAT     H235010   0.707   1.205   5.704 -0.4129  0.2312 -0.3335
 8301WAT    EPW35011   0.655   1.163   5.760 -0.1369  0.2198 -0.0792
 8302WAT      O35012   1.090   9.372   0.016 -0.2944  1.2256  0.3191
 8302WAT     H135013   1.032   9.302  -0.012  1.4150 -0.0646 -0.1769
 8302WAT     H235014   1.068   9.386   0.108 -1.9072  1.3490 -0.0656
 8302WAT    EPW35015   1.080   9.365   0.025 -0.2816  1.0715  0.2029
 8303WAT      O35016   8.972   9.820   7.023 -0.0855 -0.0762  0.8151
 8303WAT     H135017   9.005   9.743   7.070 -1.6366 -2.0286 -1.0550
 8303WAT     H235018   8.884   9.834   7.058 -1.5285 -1.9582 -1.6604
 8303WAT    EPW35019   8.965   9.811   7.034 -0.4807 -0.5827  0.2418
 8304WAT      O35020   1.862   4.030   0.778  0.4727 -0.6796 -0.3305
 8304WAT     H135021   1.921   4.101   0.750  0.1719 -1.2103 -2.5262
 8304WAT     H235022   1.918   3.953   0.785  0.6544 -0.4386  1.2716
 8304WAT    EPW35023   1.877   4.030   0.775  0.4570 -0.7179 -0.4088
 8305WAT      O35024   2.075   3.054   1.731 -0.2957  0.9622  0.4241
 8305WAT     H135025   2.116   2.998   1.797 -0.5793  1.8631  1.4058
 8305WAT     H235026   2.035   3.124   1.782 -1.9951  0.7790 -0.5791
 8305WAT    EPW35027   2.075   3.056   1.746 -0.5572  1.0568  0.4213
 8306WAT      O35028   2.819   1.553   0.511 -0.3638  0.1168  0.0085
 8306WAT     H135029   2.804   1.509   0.427  0.9803 -2.6241  1.0523
 8306WAT     H235030   2.732   1.566   0.547 -0.9146 -3.3657  0.3135
 8306WAT    EPW35031   2.806   1.549   0.504 -0.2592 -0.7040  0.1864
 8307WAT      O35032   7.373   8.899   8.055 -0.1198  0.2130  0.0848
 8307WAT     H135033   7.442   8.916   8.119 -1.0109  4.3354  0.2925
 8307WAT     H235034   7.312   8.841   8.100  0.3102  1.3211  2.2345
 8307WAT    EPW35035   7.374   8.894   8.069 -0.1805  0.9027  0.3953
 8308WAT      O35036   4.373   9.731   6.621  0.3945  0.6534 -0.3935
 8308WAT     H135037   4.433   9.787   6.572  1.0491 -1.3544 -2.0103
 8308WAT     H235038   4.391   9.642   6.590 -0.1487 -0.6075  2.5136
 8308WAT    EPW35039   4.383   9.727   6.611  0.4091  0.2222 -0.2232
 8309WAT      O35040   1.651   7.830   8.484  0.6754  0.6326  1.0379
 8309WAT     H135041   1.663   7.736   8.495 -3.6060  0.0047  2.0194
 8309WAT     H235042   1.665   7.867   8.571  0.5105  0.6443  1.0585
 8309WAT    EPW35043   1.655   7.823   8.497  0.0889  0.5512  1.1692
 8310WAT      O35044   4.289   8.682   6.271  0.1937  0.4789  0.1141
 8310WAT     H135045   4.331   8.648   6.192  1.2064  0.2305  0.7404
 8310WAT     H235046   4.358   8.681   6.337 -0.4871  1.2133  0.8599
 8310WAT    EPW35047   4.303   8.677   6.269  0.2377  0.5431  0.2952
 8311WAT      O35048   9.012   1.948   3.014  1.0478 -0.1986 -0.0086
 8311WAT     H135049   8.928   1.905   3.030  0.5126  0.7324 -0.2448
 8311WAT     H235050   8.989   2.030   2.970  2.0988 -0.0518 -0.3114
 8311WAT    EPW35051   8.998   1.953   3.010  1.1163 -0.0565 -0.0796
 8312WAT      O35052   1.851   2.938   1.398 -0.4809 -0.6830  0.6168
 8312WAT     H135053   1.823   2.902   1.482  3.9575 -2.6481  1.5153
 8312WAT     H235054   1.913   3.007   1.420  1.2336 -1.6324 -0.9639
 8312WAT    EPW35055   1.855   2.942   1.412  0.3306 -1.0674  0.5268
 8313WAT      O35056  10.864   4.132   1.673  0.1537 -0.1307 -0.1213
 8313WAT     H135057  10.873   4.217   1.716 -0.1282  0.4205 -1.1222
 8313WAT     H235058  10.774   4.131   1.641  0.9115  0.3724 -2.4823
 8313WAT    EPW35059  10.853   4.143   1.675  0.2170  0.0083 -0.5647
 8314WAT      O35060   8.116   9.515   8.543  0.1586  0.0544 -0.4625
 8314WAT     H135061   8.160   9.600   8.548 -0.9069  0.5717  0.4941
 8314WAT     H235062   8.149   9.476   8.462  2.1827  0.5033  0.0888
 8314WAT    EPW35063   8.126   9.521   8.533  0.2847  0.1822 -0.2637
 8315WAT      O35064   9.724   7.757   6.569  0.0029  0.7349 -0.6503
 8315WAT     H135065   9.640   7.789   6.534 -0.8432  0.3187  0.9269
 8315WAT     H235066   9.780   7.834   6.571 -0.8602  1.3625 -0.2392
 8315WAT    EPW35067   9.720   7.771   6.564 -0.2227  0.7627 -0.3881
 8316WAT      O35068   0.298   0.411   0.378  0.1821 -0.3267 -0.2640
 8316WAT     H135069   0.277   0.421   0.285 -3.4205  1.6666  0.5687
 8316WAT     H235070   0.247   0.335   0.406 -0.0436  0.0639  0.3991
 8316WAT    EPW35071   0.288   0.402   0.370 -0.3228 -0.0123 -0.0667
 8317WAT      O35072   9.367   8.642   6.191 -0.0491 -0.0402  0.4247
 8317WAT     H135073   9.387   8.654   6.284  0.4964 -0.2758  0.3390
 8317WAT     H235074   9.277   8.611   6.190 -0.1079  0.1102  0.8681
 8317WAT    EPW35075   9.358   8.640   6.203  0.0153 -0.0515  0.4721
 8318WAT      O35076   8.465   6.035   6.904  0.0814 -0.7964  0.3234
 8318WAT     H135077   8.533   5.994   6.851 -1.8214 -1.1462 -2.0222
 8318WAT     H235078   8.403   5.964   6.922 -1.9128  0.3811 -1.4888
 8318WAT    EPW35079   8.466   6.020   6.900 -0.4325 -0.6871 -0.2253
 8319WAT      O35080   1.872   2.166   2.075  0.8979 -0.2007  0.0610
 8319WAT     H135081   1.809   2.143   2.143  0.9414  3.2394  1.4849
 8319WAT     H235082   1.819   2.181   1.997  0.2865 -0.0702  0.4953
 8319WAT    EPW35083   1.857   2.165   2.074  0.8230  0.2702  0.3061
 8320WAT      O35084   5.120   4.429   1.687  0.5241 -0.8462  1.1683
 8320WAT     H135085   5.209   4.395   1.682  0.1310 -1.8247  0.4856
 8320WAT     H235086   5.087   4.424   1.598 -0.3220 -0.7831  1.4642
 8320WAT    EPW35087   5.128   4.424   1.675  0.3605 -0.9670  1.1172
 8321WAT      O35088   2.865   4.343   0.268 -0.2093 -0.7331  0.4888
 8321WAT     H135089   2.826   4.278   0.327  1.0894  0.3821  2.7196
 8321WAT     H235090   2.946   4.302   0.238  1.3577  0.2764  3.0512
 8321WAT    EPW35091   2.871   4.329   0.272  0.1686 -0.4530  1.1210
 8322WAT      O35092   7.197   6.318   6.360 -0.2436  0.3838 -0.4538
 8322WAT     H135093   7.212   6.297   6.452 -0.5909  0.4416 -0.3805
 8322WAT     H235094   7.276   6.363   6.332 -1.3552  3.3409  0.7222
 8322WAT    EPW35095   7.209   6.321   6.369 -0.4361  0.7815 -0.2890
 8323WAT      O35096   1.804   7.724   5.034 -0.0895 -0.1806 -0.3887
 8323WAT     H135097   1.802   7.796   5.097 -0.6304 -1.4604  1.1063
 8323WAT     H235098   1.870   7.664   5.066 -0.3118 -0.8262 -1.0845
 8323WAT    EPW35099   1.812   7.726   5.046 -0.1901 -0.4346 -0.2832
 8324WAT      O35100   4.143   8.668   1.344 -0.2425 -0.3294 -0.1069
 8324WAT     H135101   4.097   8.603   1.290 -1.1542  0.0598  0.1839
 8324WAT     H235102   4.132   8.636   1.433 -0.9963  0.3894  0.0715
 8324WAT    EPW35103   4.135   8.655   1.348 -0.4623 -0.1831 -0.0450
 8325WAT      O35104   4.754   8.454   8.930 -0.7559  0.0842  0.1485
 8325WAT     H135105   4.671   8.462   8.977 -0.7918  0.8529 -0.0330
 8325WAT     H235106   4.733   8.400   8.853 -0.3060 -2.7543  1.8867
 8325WAT    EPW35107   4.740   8.448   8.926 -0.7012 -0.1888  0.3538
 8326WAT      O35108   7.310   0.431   1.997 -0.1819  0.3135 -0.2778
 8326WAT     H135109   7.310   0.441   1.902  0.2280 -0.1309 -0.3244
 8326WAT     H235110   7.378   0.366   2.015 -0.9838 -0.4117  0.2327
 8326WAT    EPW35111   7.319   0.424   1.987 -0.2337  0.1592 -0.2166
 8327WAT      O35112   7.427   7.892   7.485  0.2190 -0.5078  0.0627
 8327WAT     H135113   7.451   7.873   7.575 -2.6646 -1.7239  0.6946
 8327WAT     H235114   7.502   7.865   7.433  2.0875  0.5457  2.0716
 8327WAT    EPW35115   7.440   7.886   7.490  0.0851 -0.5291  0.4110
 8328WAT      O35116   7.107   6.306   8.753  0.5448  0.4620  0.6543
 8328WAT     H135117   7.091   6.392   8.714 -2.5806  0.1072  0.9554
 8328WAT     H235118   7.020   6.272   8.773  1.5295 -3.6421 -1.1695
 8328WAT    EPW35119   7.094   6.313   8.751  0.2625 -0.1264  0.4535
 8329WAT      O35120   8.501   8.190   8.313  0.3306  0.3616  0.2194
 8329WAT     H135121   8.409   8.173   8.291  0.2827 -0.3232  0.8981
 8329WAT     H235122   8.545   8.106   8.296  0.8326  0.6789 -0.0735
 8329WAT    EPW35123   8.495   8.176   8.308  0.3905  0.3138  0.2704
 8330WAT      O35124   7.795   4.605   6.081  0.3339 -0.1233  0.6859
 8330WAT     H135125   7.752   4.522   6.058  0.9004 -0.6964  1.6201
 8330WAT     H235126   7.821   4.593   6.173  0.2362  1.1765  0.8957
 8330WAT    EPW35127   7.793   4.592   6.090  0.3958 -0.0274  0.8368
 8331WAT      O35128   3.038   6.387   1.155 -0.6274  0.7613 -0.1080
 8331WAT     H135129   3.033   6.422   1.066  2.4649  1.9914  0.0786
 8331WAT     H235130   3.027   6.293   1.144 -0.1004  0.8657 -1.8609
 8331WAT    EPW35131   3.036   6.379   1.142 -0.1501  0.9372 -0.3147
 8332WAT      O35132   7.155  10.345   8.485 -1.0508  0.0235  0.3619
 8332WAT     H135133   7.084  10.300   8.438 -2.9091  1.2363  1.8810
 8332WAT     H235134   7.114  10.424   8.521  1.0197  0.6304  1.5399
 8332WAT    EPW35135   7.140  10.349   8.483 -1.0228  0.2632  0.7176
 8333WAT      O35136   3.221   0.690   1.766  0.6411 -0.2136 -0.4409
 8333WAT     H135137   3.136   0.704   1.724 -0.9854 -3.8584  1.1999
 8333WAT     H235138   3.201   0.685   1.860  3.0366  0.7148  0.1955
 8333WAT    EPW35139   3.207   0.691   1.773  0.7427 -0.5719 -0.1405
 8334WAT      O35140   1.758   5.770   4.246 -0.0220 -0.3612  0.2732
 8334WAT     H135141   1.708   5.833   4.195 -1.6048 -1.6984  0.0940
 8334WAT     H235142   1.692   5.722   4.296  1.1683 -1.5457  0.7682
 8334WAT    EPW35143   1.743   5.772   4.246 -0.0738 -0.6936  0.3150
 8335WAT      O35144   0.805   3.310   0.061  0.1767 -0.0327 -0.1260
 8335WAT     H135145   0.840   3.344   0.143 -2.6274 -1.7647  1.9821
 8335WAT     H235146   0.721   3.271   0.085 -0.2801 -1.6360 -3.6493
 8335WAT    EPW35147   0.799   3.309   0.075 -0.2534 -0.4725 -0.3127
 8336WAT      O35148   3.519   1.862   0.923  0.2653  0.3124 -0.3854
 8336WAT     H135149   3.428   1.854   0.950  0.2954  2.1595  0.4391
 8336WAT     H235150   3.516   1.908   0.839  0.4269  0.0977 -0.5104
 8336WAT    EPW35151   3.507   1.867   0.916  0.2908  0.5277 -0.2931
 8337WAT      O35152   5.838   9.119   8.914 -0.3202 -0.1629  0.1973
 8337WAT     H135153   5.841   9.163   8.829 -0.1055 -2.2088 -0.9118
 8337WAT     H235154   5.790   9.179   8.971 -0.1602  1.4090 -1.2570
 8337WAT    EPW35155   5.832   9.133   8.911 -0.2708 -0.2255 -0.1411
 8338WAT      O35156  10.939   7.673   7.251  0.4344  0.3103  0.1415
 8338WAT     H135157  11.001   7.615   7.207  0.5848 -0.4127  1.2805
 8338WAT     H235158  10.979   7.690   7.336 -0.0471  1.3677  0.1679
 8338WAT    EPW35159  10.953   7.668   7.256  0.3905  0.3545  0.2952
 8339WAT      O35160   6.078   6.781   6.862 -0.1093 -0.3301 -0.0166
 8339WAT     H135161   6.094   6.687   6.850 -2.9752 -0.9029 -0.0789
 8339WAT     H235162   6.102   6.821   6.779 -1.4357 -1.4385 -0.9691
 8339WAT    EPW35163   6.083   6.773   6.850 -0.6623 -0.5517 -0.1507
 8340WAT      O35164   2.636   3.083   0.273 -0.3613 -0.2325 -0.1353
 8340WAT     H135165   2.607   3.092   0.364 -1.5508  0.2310 -0.5377
 8340WAT     H235166   2.691   3.004   0.273  0.7298  0.4828  1.2255
 8340WAT    EPW35167   2.639   3.074   0.285 -0.3744 -0.0771 -0.0089
 8341WAT      O35168   7.461   5.436   1.628 -0.2546 -0.3759  0.3369
 8341WAT     H135169   7.432   5.352   1.664 -0.4803 -0.6760 -0.5170
 8341WAT     H235170   7.386   5.494   1.640 -0.5984 -0.6762 -0.2861
 8341WAT    EPW35171   7.447   5.432   1.634 -0.3297 -0.4549  0.1421
 8342WAT      O35172   2.344   4.025   0.436 -0.1764 -0.6028 -0.3461
 8342WAT     H135173   2.390   3.951   0.397 -0.2661 -1.3724  0.9670
 8342WAT     H235174   2.266   3.987   0.476  0.0763  0.0901  0.8571
 8342WAT    EPW35175   2.340   4.010   0.436 -0.1547 -0.6130 -0.0142
 8343WAT      O35176   3.908   4.674   1.184 -0.1088  0.0879  0.3228
 8343WAT     H135177   3.953   4.696   1.266  1.0077  2.3246 -0.8110
 8343WAT     H235178   3.835   4.619   1.212  1.8503 -1.6581  2.5052
 8343WAT    EPW35179   3.904   4.670   1.198  0.2968  0.1526  0.4610
 8344WAT      O35180   1.997   1.341   0.117 -0.3216 -0.8963 -0.8361
 8344WAT     H135181   1.930   1.402   0.083  0.2591  0.6494  0.6276
 8344WAT     H235182   2.053   1.323   0.042 -1.3503 -0.8039 -1.6561
 8344WAT    EPW35183   1.995   1.347   0.102 -0.3807 -0.6803 -0.7512
 8345WAT      O35184   8.463   7.889   8.626  0.3298  1.1943 -0.8262
 8345WAT     H135185   8.371   7.864   8.621 -0.0195  1.4590  2.2506
 8345WAT     H235186   8.510   7.814   8.589 -1.0535  0.3685 -0.9906
 8345WAT    EPW35187   8.457   7.875   8.620  0.1016  1.1203 -0.4420
 8346WAT      O35188   2.596   4.076   0.731  0.0660  0.3410  0.5705
 8346WAT     H135189   2.682   4.048   0.700  0.2270  2.2063 -0.7875
 8346WAT     H235190   2.543   3.996   0.728  1.2973 -0.4863 -0.2010
 8346WAT    EPW35191   2.601   4.062   0.726  0.2496  0.4780  0.2896
 8347WAT      O35192   0.792   4.530   0.625  0.1918  0.4386 -0.4963
 8347WAT     H135193   0.771   4.455   0.680 -2.4949  1.9096  0.6567
 8347WAT     H235194   0.872   4.566   0.663 -2.6133  2.6523  4.1152
 8347WAT    EPW35195   0.800   4.525   0.637 -0.5325  0.9243  0.2640
 8348WAT      O35196   5.696   2.773   1.933 -0.4391  0.5708 -0.1453
 8348WAT     H135197   5.727   2.727   1.855 -3.0551 -1.6299 -0.0524
 8348WAT     H235198   5.664   2.857   1.901  1.5805  1.1608 -0.8203
 8348WAT    EPW35199   5.696   2.778   1.919 -0.5178  0.3585 -0.2221
 8349WAT      O35200   2.224   4.456   1.454 -0.3554 -0.2918 -0.5426
 8349WAT     H135201   2.261   4.449   1.542 -0.7338  2.1266 -0.1226
 8349WAT     H235202   2.274   4.526   1.412 -1.7585  0.2832 -1.3644
 8349WAT    EPW35203   2.235   4.464   1.460 -0.5904  0.1030 -0.5956
 8350WAT      O35204   3.622   3.481   2.231 -1.0741 -0.0897  0.4317
 8350WAT     H135205   3.717   3.478   2.241 -0.9495  2.7228  0.9858
 8350WAT     H235206   3.608   3.483   2.136 -0.6084 -0.7382  0.3439
 8350WAT    EPW35207   3.633   3.481   2.220 -0.9964  0.1959  0.4932
 8351WAT      O35208   4.086   8.259   6.754  0.2355  0.4538  0.7210
 8351WAT     H135209   4.135   8.189   6.710 -0.5854 -1.4558  2.6522
 8351WAT     H235210   4.095   8.334   6.696  2.4343 -0.8087 -0.7364
 8351WAT    EPW35211   4.094   8.259   6.741  0.4172  0.0353  0.7834
 8352WAT      O35212   5.157   3.779   0.337  0.6274  0.0872  0.2136
 8352WAT     H135213   5.073   3.734   0.349  0.8066  0.1464  1.8991
 8352WAT     H235214   5.222   3.721   0.377  1.6698 -0.6516 -2.3003
 8352WAT    EPW35215   5.155   3.765   0.344  0.7885 -0.0023  0.1043
 8353WAT      O35216   6.123   6.793   3.581  0.0749  0.1972  0.2134
 8353WAT     H135217   6.209   6.760   3.557  0.3309  0.4569  0.7771
 8353WAT     H235218   6.130   6.817   3.673  0.4760  3.5355 -0.5640
 8353WAT    EPW35219   6.135   6.792   3.590  0.1616  0.6721  0.1853
 8354WAT      O35220   2.729   6.276   1.882 -0.5596  0.2307 -0.2266
 8354WAT     H135221   2.740   6.206   1.818 -1.3961  0.0408 -0.1791
 8354WAT     H235222   2.643   6.260   1.920 -1.2982  1.9637 -1.0657
 8354WAT    EPW35223   2.719   6.264   1.879 -0.7674  0.4344 -0.3310
 8355WAT      O35224   6.296   8.191   8.301  1.0001 -0.2978  0.1707
 8355WAT     H135225   6.295   8.287   8.300  0.6525 -0.2944 -1.2185
 8355WAT     H235226   6.388   8.169   8.314  1.4290  0.2618 -1.6035
 8355WAT    EPW35227   6.308   8.201   8.303  1.0109 -0.2236 -0.2460
 8356WAT      O35228   4.062   9.554   4.698  1.1823  0.2860 -0.1012
 8356WAT     H135229   4.061   9.619   4.768 -1.1172  0.9830 -0.7094
 8356WAT     H235230   4.014   9.595   4.626  4.5610  0.1502 -2.6972
 8356WAT    EPW35231   4.055   9.568   4.698  1.3247  0.3595 -0.5240
 8357WAT      O35232   6.276   7.985   7.264  0.0901 -0.1668  0.0903
 8357WAT     H135233   6.287   7.927   7.188 -0.8692 -0.4760  0.1742
 8357WAT     H235234   6.236   7.930   7.331 -0.0682  0.3826  0.4565
 8357WAT    EPW35235   6.272   7.970   7.263 -0.0577 -0.1352  0.1497
 8358WAT      O35236   7.250   7.526   7.390 -0.4213  0.1835  0.4967
 8358WAT     H135237   7.258   7.619   7.368  2.2876 -0.3057 -0.8843
 8358WAT     H235238   7.325   7.484   7.348  0.0578 -2.2338  3.4194
 8358WAT    EPW35239   7.261   7.533   7.382 -0.0010 -0.2000  0.7000
 8359WAT      O35240   5.121   0.427   0.377  0.9129  0.2493 -0.5991
 8359WAT     H135241   5.176   0.485   0.430 -0.6965  1.5709 -0.2691
 8359WAT     H235242   5.137   0.454   0.287  2.4682 -0.9297 -0.7147
 8359WAT    EPW35243   5.131   0.438   0.372  0.9058  0.2681 -0.5708
 8360WAT      O35244   4.004   4.177   0.884  0.4763  0.5270  0.8502
 8360WAT     H135245   4.034   4.266   0.904  1.7571 -0.0460  1.6282
 8360WAT     H235246   4.035   4.125   0.958 -1.5693 -0.3290  1.1531
 8360WAT    EPW35247   4.012   4.182   0.896  0.3753  0.3383  0.9928
 8361WAT      O35248   3.033   4.748   2.049 -0.4371  0.2715 -0.1447
 8361WAT     H135249   3.092   4.818   2.076  0.9733 -0.2377 -1.6809
 8361WAT     H235250   3.083   4.668   2.065 -1.2594 -0.2684 -0.2193
 8361WAT    EPW35251   3.048   4.747   2.054 -0.3597  0.1330 -0.3570
 8362WAT      O35252   8.108   6.300   5.859 -0.2655  0.3029 -0.1459
 8362WAT     H135253   8.081   6.353   5.784 -2.5929 -1.6484 -0.8202
 8362WAT     H235254   8.053   6.222   5.854  0.2427 -0.3979  3.0077
 8362WAT    EPW35255   8.097   6.297   5.848 -0.5059 -0.0465  0.1812
 8363WAT      O35256   2.058   7.839   0.661 -0.2814  0.3635  0.5371
 8363WAT     H135257   2.106   7.860   0.581  0.2796 -1.6217  0.2896
 8363WAT     H235258   2.015   7.756   0.641 -3.1918  1.6159  1.0364
 8363WAT    EPW35259   2.058   7.831   0.648 -0.5913  0.2670  0.5703
 8364WAT      O35260   9.242   1.631   7.534  0.8174  0.3389  0.4343
 8364WAT     H135261   9.285   1.705   7.493 -0.9385  0.0293 -2.2181
 8364WAT     H235262   9.298   1.556   7.514  0.2285  0.2705 -1.0738
 8364WAT    EPW35263   9.255   1.631   7.526  0.5083  0.2890 -0.1147
 8365WAT      O35264   8.742   5.929   6.864  0.4177  0.2084  0.4009
 8365WAT     H135265   8.769   5.864   6.928  0.0964  0.8118  1.1703
 8365WAT     H235266   8.795   6.006   6.884  1.0624  0.0812 -0.7376
 8365WAT    EPW35267   8.752   5.931   6.875  0.4606  0.2713  0.3521
 8366WAT      O35268   7.717   9.956   8.265 -0.6283 -0.2199 -0.1540
 8366WAT     H135269   7.624   9.975   8.277 -0.3588  2.8988 -1.9150
 8366WAT     H235270   7.718   9.873   8.217 -2.4768 -0.3807 -0.0026
 8366WAT    EPW35271   7.705   9.947   8.261 -0.8366  0.1707 -0.3662
 8367WAT      O35272   7.570   7.220   6.593  0.1873 -0.0882  0.6295
 8367WAT     H135273   7.651   7.266   6.571 -0.4435  0.4409 -0.6754
 8367WAT     H235274   7.569   7.144   6.534 -2.1859  2.0687 -2.3717
 8367WAT    EPW35275   7.581   7.216   6.582 -0.2089  0.2661  0.0615
 8368WAT      O35276   4.684   7.164   7.015 -0.1660  1.0306  0.0009
 8368WAT     H135277   4.690   7.186   6.923 -5.1820  1.3107 -0.5495
 8368WAT     H235278   4.708   7.244   7.062 -1.4454  2.2193 -1.2965
 8368WAT    EPW35279   4.688   7.177   7.009 -0.9961  1.2240 -0.2427
 8369WAT      O35280  10.990   8.427   6.107  0.5445 -0.4974 -0.1396
 8369WAT     H135281  10.989   8.454   6.015 -0.4137  0.9241  0.2525
 8369WAT     H235282  11.026   8.503   6.153 -0.7630 -0.4453  0.8436
 8369WAT    EPW35283  10.995   8.441   6.101  0.2456 -0.3028  0.0420
 8370WAT      O35284   4.908   7.849   8.004 -0.3023 -1.0371  0.3931
 8370WAT     H135285   4.819   7.840   8.036 -0.0588  1.7689  2.2254
 8370WAT     H235286   4.962   7.803   8.068 -0.3131 -1.0470  0.3952
 8370WAT    EPW35287   4.904   7.842   8.016 -0.2718 -0.6685  0.6347
 8371WAT      O35288   0.926   1.768   0.081  0.2142 -0.1697 -0.1880
 8371WAT     H135289   0.917   1.805  -0.007 -0.5090  1.8196  0.6660
 8371WAT     H235290   0.933   1.844   0.138 -1.4039 -1.3495  1.7102
 8371WAT    EPW35291   0.926   1.783   0.077 -0.0946 -0.0629  0.1750
 8372WAT      O35292   4.237   1.401   1.724  0.4605  0.6827  0.1409
 8372WAT     H135293   4.312   1.351   1.691  0.6059  1.5745 -0.9563
 8372WAT     H235294   4.269   1.491   1.729 -0.5806  1.1136 -0.5375
 8372WAT    EPW35295   4.251   1.407   1.720  0.3424  0.8571 -0.0933
 8373WAT      O35296   2.327   3.003   1.118 -0.7163  0.3370 -0.4091
 8373WAT     H135297   2.267   2.969   1.051  2.9307 -2.3854 -2.6739
 8373WAT     H235298   2.387   3.059   1.069  1.9593 -1.5702  0.4679
 8373WAT    EPW35299   2.327   3.006   1.103  0.1175 -0.2736 -0.5921
 8374WAT      O35300   7.478   1.687   6.382  0.2182  0.4581  0.7269
 8374WAT     H135301   7.469   1.765   6.327 -3.1756  0.3115  0.8507
 8374WAT     H235302   7.462   1.718   6.471  1.4044  0.0119  1.1050
 8374WAT    EPW35303   7.474   1.701   6.386 -0.0730  0.3799  0.7930
 8375WAT      O35304   2.848   0.061   2.434  0.4134  0.0225  0.3743
 8375WAT     H135305   2.766   0.094   2.470  1.1683 -0.2395  2.5072
 8375WAT     H235306   2.826  -0.027   2.403  0.2133 -0.7930  2.6239
 8375WAT    EPW35307   2.834   0.054   2.434  0.4866 -0.1196  0.9524
 8376WAT      O35308   2.936   1.780   0.478 -0.3495 -0.2893 -0.4723
 8376WAT     H135309   2.861   1.721   0.476 -2.5473  2.2405 -3.5275
 8376WAT     H235310   2.977   1.770   0.392 -0.5175  2.1463 -0.9123
 8376WAT    EPW35311   2.932   1.771   0.467 -0.6615  0.3656 -0.9333
 8377WAT      O35312   4.151   8.743   5.605 -0.0903  0.2444 -0.2392
 8377WAT     H135313   4.102   8.781   5.677 -0.3417  0.3331 -0.4570
 8377WAT     H235314   4.136   8.803   5.531 -0.7396 -0.4316 -0.6716
 8377WAT    EPW35315   4.143   8.756   5.604 -0.2089  0.1674 -0.3250
 8378WAT      O35316   4.771   3.069   5.568 -0.0681  0.0886 -0.1107
 8378WAT     H135317   4.798   3.156   5.597  0.2319 -0.0915  0.1591
 8378WAT     H235318   4.740   3.082   5.479 -1.9152  0.8211  0.6012
 8378WAT    EPW35319   4.771   3.082   5.560 -0.2723  0.1615  0.0188
 8379WAT      O35320   7.206   6.842   5.445 -0.5180 -0.1167  0.8076
 8379WAT     H135321   7.250   6.775   5.498 -0.6211 -0.3753  0.5699
 8379WAT     H235322   7.117   6.845   5.480 -0.4270  0.1166  1.0209
 8379WAT    EPW35323   7.200   6.834   5.456 -0.5198 -0.1199  0.8044
 8380WAT      O35324   4.574   8.378   8.235 -0.2499  0.0895  0.1036
 8380WAT     H135325   4.533   8.299   8.272 -0.2946 -0.9548 -2.0598
 8380WAT     H235326   4.645   8.399   8.297 -2.4636  0.5481  2.6523
 8380WAT    EPW35327   4.578   8.370   8.248 -0.5476  0.0124  0.1550
 8381WAT      O35328   1.428   4.144   1.544 -0.3429  0.1200 -0.5560
 8381WAT     H135329   1.465   4.232   1.535 -0.2838  0.0419 -1.0904
 8381WAT     H235330   1.478   4.105   1.616 -0.4436  0.5583 -0.2433
 8381WAT    EPW35331   1.440   4.151   1.553 -0.3484  0.1676 -0.5851
 8382WAT      O35332   3.197   3.450   0.389 -0.4091  0.0533  0.4164
 8382WAT     H135333   3.226   3.492   0.308  3.5841  2.2921  2.7173
 8382WAT     H235334   3.192   3.521   0.453  1.2065 -2.1609  3.2325
 8382WAT    EPW35335   3.200   3.465   0.387  0.3306  0.0565  1.0913
 8383WAT      O35336   4.790   0.777   1.415  0.1729  1.1137 -0.5306
 8383WAT     H135337   4.701   0.807   1.432 -0.7553 -1.6295 -0.0660
 8383WAT     H235338   4.783   0.725   1.335  1.1493  0.0485  0.0475
 8383WAT    EPW35339   4.777   0.774   1.406  0.1793  0.6115 -0.3931
 8384WAT      O35340   3.012   4.511   1.494 -0.5300 -0.3342 -0.1183
 8384WAT     H135341   3.101   4.544   1.494 -0.4642 -0.4395 -1.5234
 8384WAT     H235342   2.957   4.588   1.513 -0.1702 -0.1846  0.3146
 8384WAT    EPW35343   3.016   4.525   1.497 -0.4740 -0.3285 -0.2465
 8385WAT      O35344   4.958   3.457   0.914  0.3287 -0.2882  1.0145
 8385WAT     H135345   5.032   3.511   0.885 -0.4521  0.3789  0.2144
 8385WAT     H235346   4.975   3.441   1.007  2.3641 -1.6026  0.5005
 8385WAT    EPW35347   4.970   3.462   0.922  0.4942 -0.3736  0.8411
 8386WAT      O35348   3.421   1.190   0.051  0.3726  0.0885 -0.5215
 8386WAT     H135349   3.430   1.202  -0.044  0.0231  1.8057 -0.3567
 8386WAT     H235350   3.377   1.269   0.081  2.0352  0.3799  1.3113
 8386WAT    EPW35351   3.417   1.202   0.042  0.5457  0.3534 -0.2579
 8387WAT      O35352   9.137   7.355   6.175  0.8253  0.5798  0.1343
 8387WAT     H135353   9.199   7.362   6.102 -1.4009  0.4748 -1.8915
 8387WAT     H235354   9.187   7.312   6.244  2.9619  0.3535 -1.4422
 8387WAT    EPW35355   9.152   7.350   6.174  0.8135  0.5362 -0.3407
 8388WAT      O35356   2.308   5.556   0.677 -0.5450  0.1530  0.4407
 8388WAT     H135357   2.298   5.469   0.637  1.0841  0.0090  0.2786
 8388WAT     H235358   2.357   5.540   0.758  0.2850  0.9673  0.1209
 8388WAT    EPW35359   2.313   5.542   0.682 -0.2207  0.2415  0.3771
 8389WAT      O35360   6.925   8.734   8.810 -0.0633 -0.1784  0.6651
 8389WAT     H135361   6.918   8.660   8.751  0.7853  0.2258  0.0371
 8389WAT     H235362   6.928   8.811   8.752 -0.5995  0.3273  1.2871
 8389WAT    EPW35363   6.924   8.735   8.795 -0.0222 -0.0582  0.6642
 8390WAT      O35364   3.457   2.665   1.097 -0.6268 -0.3339 -0.3070
 8390WAT     H135365   3.488   2.699   1.013 -0.2889  0.5325  0.1598
 8390WAT     H235366   3.409   2.738   1.137  0.8461 -0.0797  1.1008
 8390WAT    EPW35367   3.455   2.679   1.091 -0.3880 -0.1861 -0.0598
 8391WAT      O35368   6.288   7.559   4.936  0.4492 -0.2834  0.7828
 8391WAT     H135369   6.342   7.539   4.860 -0.5905 -0.9491  0.1909
 8391WAT     H235370   6.278   7.655   4.934 -0.2046 -0.3612 -0.3877
 8391WAT    EPW35371   6.294   7.569   4.926  0.2260 -0.3815  0.5505
 8392WAT      O35372  10.385   9.164   3.525 -0.2494 -0.5414  0.5345
 8392WAT     H135373  10.386   9.127   3.437 -0.9245 -0.7079  0.5966
 8392WAT     H235374  10.451   9.114   3.573 -0.7859 -1.3185  0.4730
 8392WAT    EPW35375  10.394   9.153   3.520 -0.4096 -0.6657  0.5345
 8393WAT      O35376   6.295   8.511   8.203 -0.4325  0.2686 -0.1053
 8393WAT     H135377   6.251   8.557   8.274  0.5774  1.9258 -0.4999
 8393WAT     H235378   6.384   8.495   8.236 -1.0374 -2.4636  0.4487
 8393WAT    EPW35379   6.301   8.515   8.216 -0.3791  0.1268 -0.0849
 8394WAT      O35380   3.639   3.657   0.233 -0.7518  0.3557  0.4579
 8394WAT     H135381   3.566   3.694   0.183 -1.3589 -1.2750  0.0581
 8394WAT     H235382   3.609   3.655   0.323 -1.5776 -1.0271  0.1946
 8394WAT    EPW35383   3.626   3.661   0.238 -0.9408 -0.0418  0.3704
 8395WAT      O35384   4.572   4.917   1.040 -0.8957 -0.8454  0.0819
 8395WAT     H135385   4.585   4.932   0.947  2.3575 -1.6235  0.2907
 8395WAT     H235386   4.524   4.834   1.045 -0.6789 -1.0372 -0.8960
 8395WAT    EPW35387   4.567   4.908   1.029 -0.4382 -0.9735 -0.0196
 8396WAT      O35388   9.809   7.213   7.779  0.1513  0.2226 -0.2889
 8396WAT     H135389   9.773   7.152   7.843  0.2850 -2.3560 -2.4610
 8396WAT     H235390   9.733   7.244   7.730  0.2860 -0.0545 -0.6794
 8396WAT    EPW35391   9.794   7.209   7.781  0.1864 -0.1538 -0.6270
 8397WAT      O35392   1.230   0.380   4.027 -0.4248 -0.0438 -0.8745
 8397WAT     H135393   1.140   0.369   4.057 -0.4246 -2.0174 -1.4625
 8397WAT     H235394   1.229   0.463   3.979 -2.0316 -0.2180 -1.1980
 8397WAT    EPW35395   1.218   0.390   4.025 -0.6368 -0.3271 -0.9947
 8398WAT      O35396   4.029   8.901   7.764 -0.1802  0.2461  0.1748
 8398WAT     H135397   4.083   8.851   7.702 -0.1679 -0.4003  0.6997
 8398WAT     H235398   3.945   8.855   7.765  0.2901 -0.6340  1.7356
 8398WAT    EPW35399   4.025   8.889   7.756 -0.1163  0.0448  0.4501
 8399WAT      O35400   6.569   9.078   8.274 -0.3183 -0.1013  0.2620
 8399WAT     H135401   6.581   9.141   8.203 -0.5418 -0.1163  0.2127
 8399WAT     H235402   6.656   9.070   8.314 -0.0790 -0.4456 -0.3105
 8399WAT    EPW35403   6.582   9.085   8.270 -0.3164 -0.1488  0.1798
 8400WAT      O35404   0.380   9.377   1.109 -0.2234  0.4677  0.5094
 8400WAT     H135405   0.350   9.329   1.186  0.9619  1.4450  1.6173
 8400WAT     H235406   0.299   9.399   1.062 -0.9237 -0.6054  1.1689
 8400WAT    EPW35407   0.365   9.373   1.113 -0.1594  0.4554  0.7425
 8401WAT      O35408   3.287   3.697   0.974  0.0154 -0.2546 -0.3365
 8401WAT     H135409   3.214   3.695   1.035 -0.4214 -0.7133 -0.8606
 8401WAT     H235410   3.256   3.751   0.901  1.3775  2.3601  0.8485
 8401WAT    EPW35411   3.274   3.704   0.972  0.1376  0.0298 -0.2494
 8402WAT      O35412   6.615   6.719   8.882  0.3059 -0.6353  0.1256
 8402WAT     H135413   6.678   6.781   8.844 -3.4220  2.6664 -1.3775
 8402WAT     H235414   6.608   6.649   8.817 -0.4909  1.0761 -1.7177
 8402WAT    EPW35415   6.623   6.718   8.869 -0.2909  0.0260 -0.3152
 8403WAT      O35416   2.471   1.369   0.657  0.1539 -0.2208 -0.5497
 8403WAT     H135417   2.509   1.358   0.570  0.1808 -3.5939 -0.2302
 8403WAT     H235418   2.530   1.322   0.716 -2.3103 -2.2319  0.5066
 8403WAT    EPW35419   2.483   1.361   0.654 -0.1675 -0.9309 -0.3683
 8404WAT      O35420   7.600   9.210   8.601 -0.0982  0.4848  0.0552
 8404WAT     H135421   7.663   9.172   8.539 -0.7346 -0.2049 -0.1858
 8404WAT     H235422   7.518   9.216   8.552  0.1765  3.0646 -0.2024
 8404WAT    EPW35423   7.597   9.206   8.586 -0.1459  0.7339 -0.0110
 8405WAT      O35424   0.932   5.501   2.372  0.4448  0.5928 -0.9901
 8405WAT     H135425   0.951   5.514   2.279  0.0901  2.1763 -0.8809
 8405WAT     H235426   0.960   5.583   2.413 -0.5913  0.4251  0.1089
 8405WAT    EPW35427   0.938   5.514   2.365  0.2613  0.7794 -0.8307
 8406WAT      O35428   6.179   0.490   2.126 -0.1363  0.2257  0.6192
 8406WAT     H135429   6.097   0.540   2.127 -0.4702 -0.1651 -1.6225
 8406WAT     H235430   6.178   0.444   2.042  1.2980 -1.6508  1.5420
 8406WAT    EPW35431   6.168   0.491   2.115  0.0091 -0.0733  0.4454
 8407WAT      O35432   4.982   1.145   0.304 -0.1423  0.5986 -0.1358
 8407WAT     H135433   5.077   1.152   0.298 -0.0567 -1.1614 -1.3606
 8407WAT     H235434   4.950   1.230   0.273  1.0098  1.0190 -0.2126
 8407WAT    EPW35435   4.990   1.157   0.299  0.0212  0.4219 -0.3075
 8408WAT      O35436   1.501   1.138   8.476  0.5618 -0.3392  0.4949
 8408WAT     H135437   1.563   1.112   8.545  1.2007 -0.9130 -0.2766
 8408WAT     H235438   1.449   1.208   8.516  1.6925  0.1432  1.1846
 8408WAT    EPW35439   1.503   1.144   8.491  0.7952 -0.3513  0.4840
 8409WAT      O35440   8.790   9.592   5.220 -0.1505 -0.5218  0.2665
 8409WAT     H135441   8.734   9.547   5.156  2.0113 -1.2552 -1.2023
 8409WAT     H235442   8.855   9.527   5.245  0.9051  0.7095  0.8396
 8409WAT    EPW35443   8.791   9.578   5.215  0.2737 -0.4559  0.1483
 8410WAT      O35444   3.937   4.289   0.369 -0.2008 -0.5247  0.6077
 8410WAT     H135445   3.921   4.243   0.451  1.7222 -0.6460  0.9662
 8410WAT     H235446   3.886   4.370   0.376 -0.6639 -0.8828  1.5732
 8410WAT    EPW35447   3.928   4.294   0.381 -0.0081 -0.5882  0.7823
 8411WAT      O35448   5.962   7.983   8.938  0.0348 -0.1423  0.7570
 8411WAT     H135449   6.031   8.047   8.956  2.2952 -2.2513  0.1064
 8411WAT     H235450   5.911   7.980   9.018  0.0800  2.1554  0.9386
 8411WAT    EPW35451   5.965   7.991   8.951  0.3388 -0.1171  0.6952
 8412WAT      O35452   3.326   4.883   0.753 -0.5622 -0.6474 -0.2736
 8412WAT     H135453   3.371   4.817   0.700 -0.5036 -2.3289  1.7417
 8412WAT     H235454   3.314   4.957   0.694  1.1754 -1.6962 -2.0602
 8412WAT    EPW35455   3.330   4.884   0.739 -0.3254 -1.0076 -0.2435
 8413WAT      O35456   7.600   6.238   8.969 -0.6685  1.0784  0.7153
 8413WAT     H135457   7.580   6.329   8.991 -0.1600  2.0548 -2.3475
 8413WAT     H235458   7.690   6.241   8.937 -0.6917 -0.4999  0.4452
 8413WAT    EPW35459   7.609   6.250   8.968 -0.6042  0.9990  0.2756
 8414WAT      O35460   6.557   7.057   8.922  0.1848 -0.4441 -0.3138
 8414WAT     H135461   6.581   7.141   8.960 -1.6520 -0.0828  0.1320
 8414WAT     H235462   6.529   7.077   8.833 -0.8372 -0.4734 -0.0105
 8414WAT    EPW35463   6.557   7.071   8.915 -0.1922 -0.4005 -0.2155
 8415WAT      O35464   6.292   6.466   4.852  0.6111 -0.7539 -0.2118
 8415WAT     H135465   6.300   6.437   4.761  1.8847 -1.1793  0.0163
 8415WAT     H235466   6.367   6.524   4.866 -2.6543  4.3522 -1.1646
 8415WAT    EPW35467   6.303   6.470   4.842  0.3486 -0.1366 -0.3073
 8416WAT      O35468   6.598   9.392   7.827  0.4740 -0.5557 -0.4836
 8416WAT     H135469   6.666   9.402   7.761 -0.1263  0.9886 -0.9034
 8416WAT     H235470   6.532   9.337   7.786  0.6120 -0.5250 -0.7481
 8416WAT    EPW35471   6.598   9.386   7.813  0.4132 -0.3486 -0.5736
 8417WAT      O35472   2.453   0.955   0.777  0.0863  0.4107 -0.9071
 8417WAT     H135473   2.517   0.975   0.708  0.7588  1.6509  0.0431
 8417WAT     H235474   2.487   0.999   0.855 -1.9668  1.1524 -0.3784
 8417WAT    EPW35475   2.466   0.963   0.778 -0.0957  0.6721 -0.7120
 8418WAT      O35476   8.196   4.569   8.930 -0.0948  0.3244  0.8050
 8418WAT     H135477   8.226   4.572   9.021 -0.7430  0.8722  1.0037
 8418WAT     H235478   8.275   4.585   8.878  0.5427 -1.2493  1.2040
 8418WAT    EPW35479   8.211   4.571   8.935 -0.0958  0.1891  0.8841
 8419WAT      O35480   1.121   2.672   1.278 -0.1733  0.5675  0.2095
 8419WAT     H135481   1.088   2.645   1.192  2.1848 -1.8030 -0.1198
 8419WAT     H235482   1.197   2.727   1.257  1.1728 -1.0214  0.6190
 8419WAT    EPW35483   1.127   2.676   1.264  0.3152  0.0453  0.2201
 8420WAT      O35484   7.811   8.798   7.825  0.0667 -0.4358  0.4164
 8420WAT     H135485   7.817   8.714   7.781  0.6450 -0.2851  0.2032
 8420WAT     H235486   7.877   8.852   7.783 -1.7988  0.8622 -1.0445
 8420WAT    EPW35487   7.820   8.794   7.814 -0.1030 -0.2446  0.1957
 8421WAT      O35488   1.703   3.301   1.724  0.0210 -0.4028 -0.1089
 8421WAT     H135489   1.618   3.305   1.681  0.6885 -0.5288 -1.5006
 8421WAT     H235490   1.688   3.251   1.804 -1.4638  0.6992  0.3409
 8421WAT    EPW35491   1.690   3.295   1.729 -0.0868 -0.2739 -0.2330
 8422WAT      O35492   6.077   8.133   6.117  0.3191 -0.4037 -0.4309
 8422WAT     H135493   6.145   8.083   6.163 -1.6292 -1.2519  1.6857
 8422WAT     H235494   6.038   8.189   6.184  0.9746  2.5109 -2.2797
 8422WAT    EPW35495   6.081   8.134   6.132  0.1488 -0.1307 -0.3953
 8423WAT      O35496   6.545   8.052   7.213 -0.1181 -0.0278  0.6171
 8423WAT     H135497   6.468   8.028   7.264 -0.1698 -1.7060 -0.1958
 8423WAT     H235498   6.512   8.112   7.146 -1.0651 -1.8266 -0.6304
 8423WAT    EPW35499   6.531   8.057   7.211 -0.2499 -0.4859  0.3455
 8424WAT      O35500   6.152   5.730   7.108  0.1865 -0.2658 -0.3241
 8424WAT     H135501   6.151   5.710   7.015 -0.9162 -2.1373  0.0392
 8424WAT     H235502   6.161   5.645   7.151 -1.6316  0.2896  1.2997
 8424WAT    EPW35503   6.153   5.716   7.102 -0.1988 -0.4392 -0.0622
 8425WAT      O35504   8.027   6.551   7.716 -0.7849 -0.4182  0.6049
 8425WAT     H135505   7.982   6.488   7.773 -0.4929 -0.8082  0.4125
 8425WAT     H235506   8.115   6.514   7.706 -0.2067  0.6564  1.4988
 8425WAT    EPW35507   8.033   6.538   7.722 -0.6704 -0.3278  0.6976
 8426WAT      O35508   6.238  10.261   8.783 -0.2415  0.2017  0.7110
 8426WAT     H135509   6.291  10.340   8.793  1.1369 -0.3707 -1.4199
 8426WAT     H235510   6.282  10.195   8.837  0.3667  0.1437  0.1636
 8426WAT    EPW35511   6.251  10.263   8.791  0.0205  0.1187  0.3576
 8427WAT      O35512   1.511   3.200   3.595 -0.0871 -0.2971 -0.1340
 8427WAT     H135513   1.443   3.179   3.531  0.2678 -1.9403 -0.0350
 8427WAT     H235514   1.485   3.152   3.674  0.3024  0.4382  0.4612
 8427WAT    EPW35515   1.499   3.191   3.597  0.0111 -0.4170 -0.0424
 8428WAT      O35516   6.729   6.053   7.210 -0.2013 -0.1554  0.5986
 8428WAT     H135517   6.689   5.967   7.199  1.7040 -0.9940 -0.3311
 8428WAT     H235518   6.822   6.038   7.192  0.0049  2.3477 -0.8911
 8428WAT    EPW35519   6.736   6.040   7.206  0.0772  0.0641  0.2794
 8429WAT      O35520   0.267   5.145   0.209  0.1666 -0.7187 -0.1749
 8429WAT     H135521   0.185   5.166   0.255  0.9739  1.3462  0.4428
 8429WAT     H235522   0.262   5.051   0.194 -1.8459 -0.8298  0.7889
 8429WAT    EPW35523   0.255   5.135   0.213  0.0076 -0.4611  0.0337
 8430WAT      O35524   7.756   0.206   7.778 -0.5540  0.2834  0.1670
 8430WAT     H135525   7.782   0.119   7.807  0.5162  0.5319  0.0206
 8430WAT     H235526   7.667   0.217   7.810 -0.8308 -0.9926 -0.1111
 8430WAT    EPW35527   7.748   0.196   7.786 -0.4494  0.1478  0.1111
 8431WAT      O35528   6.123   8.361   7.809  0.6038  0.0321 -0.0404
 8431WAT     H135529   6.063   8.379   7.736  3.2587  0.2279 -2.3769
 8431WAT     H235530   6.170   8.443   7.822  0.1797  0.0073  2.0104
 8431WAT    EPW35531   6.121   8.374   7.801  0.8979  0.0548 -0.0782
 8432WAT      O35532   6.614   6.550   8.660 -0.1643 -0.6537 -0.6137
 8432WAT     H135533   6.663   6.596   8.591 -0.5057 -1.3982 -1.3661
 8432WAT     H235534   6.558   6.489   8.612 -2.6802  0.9173  0.1480
 8432WAT    EPW35535   6.613   6.548   8.644 -0.5412 -0.5448 -0.6123
 8433WAT      O35536   8.736   6.331   7.677 -0.2991 -0.7469  0.5376
 8433WAT     H135537   8.652   6.312   7.636 -0.1799  0.1338 -0.1308
 8433WAT     H235538   8.722   6.413   7.724  0.5158  0.1066 -0.6412
 8433WAT    EPW35539   8.723   6.339   7.678 -0.1750 -0.5183  0.2940
 8434WAT      O35540   1.631   2.109   0.495 -0.2025 -0.0754  0.3809
 8434WAT     H135541   1.662   2.096   0.406  0.5169  0.4210  0.5514
 8434WAT     H235542   1.678   2.044   0.547 -0.3511 -0.1238  0.4553
 8434WAT    EPW35543   1.641   2.099   0.490 -0.1272 -0.0163  0.4132
 8435WAT      O35544   6.869   8.552   8.635 -0.8546 -0.4607  0.6544
 8435WAT     H135545   6.854   8.458   8.642 -0.2456 -0.6263 -0.1447
 8435WAT     H235546   6.850   8.573   8.544  1.7846 -0.3602  0.0395
 8435WAT    EPW35547   6.864   8.542   8.624 -0.4263 -0.4692  0.4678
 8436WAT      O35548   6.582   6.991   7.726 -0.3703  0.1712  0.0525
 8436WAT     H135549   6.596   7.053   7.654  4.3952  0.6839  1.1064
 8436WAT     H235550   6.578   7.046   7.804 -0.3985 -0.6440  0.6322
 8436WAT    EPW35551   6.583   7.007   7.727  0.2549  0.1314  0.2680
 8437WAT      O35552   9.228   0.170   8.632  0.5352  0.4114 -0.5342
 8437WAT     H135553   9.282   0.246   8.608  0.0262  1.1676  0.6226
 8437WAT     H235554   9.270   0.135   8.710  1.7847 -1.6213 -2.0106
 8437WAT    EPW35555   9.241   0.176   8.639  0.6323  0.2430 -0.5760
 8438WAT      O35556   6.443   4.458   7.697  0.0919 -0.5596 -0.8919
 8438WAT     H135557   6.365   4.508   7.674  1.0745  1.2475 -0.4990
 8438WAT     H235558   6.510   4.524   7.714  1.0841 -1.9617  1.1375
 8438WAT    EPW35559   6.442   4.473   7.696  0.3524 -0.5062 -0.5722
 8439WAT      O35560   2.861   3.422   0.217 -0.2770 -0.3517 -0.0435
 8439WAT     H135561   2.892   3.512   0.207  2.5455 -0.9406  2.0662
 8439WAT     H235562   2.877   3.382   0.131 -1.2639  1.0192 -0.9044
 8439WAT    EPW35563   2.868   3.428   0.204 -0.0348 -0.2487  0.1212
 8440WAT      O35564   4.046   8.799   7.233  0.3772 -0.3451  0.1001
 8440WAT     H135565   4.124   8.746   7.249  1.3305  0.4530 -1.6645
 8440WAT     H235566   4.004   8.758   7.157 -0.4510 -0.2203  0.4721
 8440WAT    EPW35567   4.051   8.786   7.225  0.3936 -0.2232 -0.0834
 8441WAT      O35568   8.630   6.173   6.523  0.2513  0.1943  0.4477
 8441WAT     H135569   8.679   6.170   6.605  0.4603  0.5697  0.3399
 8441WAT     H235570   8.695   6.155   6.455 -0.1183 -1.1547  0.4306
 8441WAT    EPW35571   8.645   6.170   6.525  0.2303  0.0658  0.4313
 8442WAT      O35572   7.331   9.256   7.638 -0.5888  0.6813 -0.2953
 8442WAT     H135573   7.391   9.329   7.653 -3.1018  2.7114  0.6590
 8442WAT     H235574   7.313   9.221   7.725  0.0672 -0.7034 -0.6861
 8442WAT    EPW35575   7.337   9.261   7.652 -0.8335  0.7663 -0.2210
 8443WAT      O35576   3.557   1.644   1.922 -0.4176  0.3010  0.9075
 8443WAT     H135577   3.605   1.622   1.842  2.3420 -1.3433  2.8345
 8443WAT     H235578   3.535   1.737   1.912  0.2122  0.2578 -1.5308
 8443WAT    EPW35579   3.561   1.654   1.910  0.0294  0.0784  0.8401
 8444WAT      O35580   0.107   9.328   4.657  0.1791  0.0348  0.0745
 8444WAT     H135581   0.036   9.344   4.719 -1.1373 -2.4279 -0.6565
 8444WAT     H235582   0.172   9.279   4.707  0.4563  0.5704  0.2410
 8444WAT    EPW35583   0.106   9.323   4.671  0.0420 -0.2198  0.0000
 8445WAT      O35584  10.994  10.197   1.228 -0.4530 -0.4253 -0.3449
 8445WAT     H135585  11.069  10.244   1.191 -1.6375  1.4690 -0.4679
 8445WAT     H235586  11.031  10.146   1.300  1.0389 -0.0253 -0.7912
 8445WAT    EPW35587  11.009  10.197   1.233 -0.4125 -0.1230 -0.4199
 8446WAT      O35588   4.164   8.352   8.228 -0.1174  0.4989  0.1589
 8446WAT     H135589   4.212   8.273   8.202  2.8065  0.7010  4.0097
 8446WAT     H235590   4.075   8.323   8.246 -0.2777 -0.9412 -2.4872
 8446WAT    EPW35591   4.159   8.338   8.227  0.2472  0.3362  0.3181
 8447WAT      O35592   3.108   3.663   1.199 -0.0505 -0.5878  0.6152
 8447WAT     H135593   3.085   3.687   1.289 -0.1280  1.8090  0.0416
 8447WAT     H235594   3.067   3.578   1.186  0.7362 -1.4477  3.1086
 8447WAT    EPW35595   3.099   3.655   1.209  0.0430 -0.3852  0.8684
 8448WAT      O35596   5.101   7.356   7.292 -0.2364 -0.2364  0.3373
 8448WAT     H135597   5.172   7.337   7.231 -1.7066 -1.4137 -1.0882
 8448WAT     H235598   5.022   7.325   7.248 -1.4169 -0.8766  2.7084
 8448WAT    EPW35599   5.100   7.349   7.278 -0.5860 -0.4759  0.4621
 8449WAT      O35600   3.221   4.047   1.336 -0.3765  0.5595 -0.2214
 8449WAT     H135601   3.175   4.103   1.399 -0.3376  0.4190 -0.0678
 8449WAT     H235602   3.309   4.085   1.331  0.0625 -0.2704  0.8867
 8449WAT    EPW35603   3.227   4.060   1.343 -0.3134  0.4315 -0.0550
 8450WAT      O35604   1.619   4.633   3.170  0.2152 -0.1888 -0.2058
 8450WAT     H135605   1.712   4.654   3.172  0.2725 -0.2937 -1.1772
 8450WAT     H235606   1.588   4.670   3.088 -1.2207  2.2304  1.3361
 8450WAT    EPW35607   1.627   4.640   3.159  0.0334  0.1166 -0.1305
 8451WAT      O35608   6.805   6.146   8.511  0.1086  0.3015 -0.3987
 8451WAT     H135609   6.730   6.186   8.467  0.6751  1.7012 -0.1535
 8451WAT     H235610   6.780   6.054   8.522 -1.0881  0.4850 -1.3363
 8451WAT    EPW35611   6.792   6.139   8.507  0.0253  0.5107 -0.4897
 8452WAT      O35612   1.248   9.950   1.754  0.0043  0.2785 -0.7396
 8452WAT     H135613   1.234  10.010   1.681  1.3507  0.2338 -1.0676
 8452WAT     H235614   1.238   9.863   1.716 -0.4467  0.2703 -0.6050
 8452WAT    EPW35615   1.245   9.947   1.739  0.1223  0.2718 -0.7651
 8453WAT      O35616   9.438   1.113   6.006 -0.6716  0.0048 -0.2515
 8453WAT     H135617   9.482   1.193   5.977 -0.4195 -0.4420 -1.1749
 8453WAT     H235618   9.496   1.043   5.976  0.0552 -0.5090  2.1517
 8453WAT    EPW35619   9.452   1.114   5.998 -0.5422 -0.1220 -0.0563
 8454WAT      O35620   4.711   8.048   8.739 -0.6569 -0.3084  0.4699
 8454WAT     H135621   4.629   8.028   8.785  0.3781 -2.0072  1.6924
 8454WAT     H235622   4.778   8.041   8.806  0.5438  0.8281 -0.5639
 8454WAT    EPW35623   4.709   8.044   8.754 -0.3619 -0.3829  0.4945
 8455WAT      O35624   4.315   7.253   7.491 -0.3456  0.2167 -0.4009
 8455WAT     H135625   4.297   7.281   7.401  1.4678 -0.0087 -0.8640
 8455WAT     H235626   4.244   7.192   7.511 -1.3408  1.0312 -1.3009
 8455WAT    EPW35627   4.303   7.248   7.482 -0.2379  0.2944 -0.5805
 8456WAT      O35628   3.289   1.928   0.483 -0.0215  0.4071  0.4847
 8456WAT     H135629   3.381   1.944   0.503 -0.6417  0.6988  3.6521
 8456WAT     H235630   3.246   2.011   0.505 -0.9831  0.6333 -1.9500
 8456WAT    EPW35631   3.295   1.941   0.488 -0.2301  0.4754  0.5814
 8457WAT      O35632  10.086   0.106   8.890  0.2259  0.1253  0.2737
 8457WAT     H135633  10.146   0.058   8.947 -2.7598 -1.5999  2.2129
 8457WAT     H235634  10.085   0.195   8.927  1.3254  0.1161  0.3629
 8457WAT    EPW35635  10.094   0.112   8.903 -0.0229 -0.1035  0.5412
 8458WAT      O35636   7.250   6.712   7.890  0.9884 -0.5677 -0.7868
 8458WAT     H135637   7.260   6.796   7.934 -0.7572 -1.3091  1.1655
 8458WAT     H235638   7.171   6.674   7.928  1.9679 -3.2999 -1.2741
 8458WAT    EPW35639   7.241   6.718   7.901  0.8876 -1.0259 -0.5937
 8459WAT      O35640   6.717   7.590   7.030 -0.7377 -0.3593  0.1186
 8459WAT     H135641   6.751   7.551   6.949  0.8671  1.5995 -0.2437
 8459WAT     H235642   6.631   7.623   7.007  0.8063  2.8234 -1.8181
 8459WAT    EPW35643   6.710   7.589   7.017 -0.3226  0.3190 -0.1845
 8460WAT      O35644   4.885   8.579   8.281  0.1140  0.0179 -0.4401
 8460WAT     H135645   4.819   8.639   8.247 -0.9930 -0.4739  0.7465
 8460WAT     H235646   4.835   8.512   8.328  1.4497 -0.3492  0.5244
 8460WAT    EPW35647   4.870   8.578   8.283  0.1445 -0.0954 -0.1564
 8461WAT      O35648   8.508   7.938   7.939 -0.1999  0.1933  0.2029
 8461WAT     H135649   8.599   7.910   7.931 -0.1263  0.7471 -1.0034
 8461WAT     H235650   8.458   7.871   7.894 -0.4338 -0.2825  1.1468
 8461WAT    EPW35651   8.514   7.926   7.932 -0.2208  0.2036  0.1678
 8462WAT      O35652   0.005   0.580   8.772  0.2445 -0.2545  1.2741
 8462WAT     H135653   0.032   0.542   8.688  0.8762  0.1283  1.2922
 8462WAT     H235654  -0.043   0.510   8.816 -1.8834  0.1597 -0.2342
 8462WAT    EPW35655   0.002   0.566   8.767  0.0467 -0.1494  1.0777
 8463WAT      O35656   3.497  10.171   6.928  0.9990 -0.0777 -0.0494
 8463WAT     H135657   3.477  10.246   6.984 -0.1315 -0.5790  0.2541
 8463WAT     H235658   3.589  10.151   6.945  1.4533  1.4972 -0.4685
 8463WAT    EPW35659   3.507  10.178   6.937  0.9099  0.0634 -0.0646
 8464WAT      O35660   2.359   4.286   3.102 -0.1522  0.0344 -0.4301
 8464WAT     H135661   2.346   4.215   3.166 -0.7577  0.1492 -0.4210
 8464WAT     H235662   2.438   4.331   3.132  0.9923 -1.4101 -1.1540
 8464WAT    EPW35663   2.368   4.282   3.114 -0.0811 -0.1411 -0.5244
 8465WAT      O35664   2.328   2.577   3.169 -0.4236 -0.1597  0.3147
 8465WAT     H135665   2.279   2.657   3.190 -1.3355 -0.5410 -0.2810
 8465WAT     H235666   2.273   2.532   3.105 -0.4287 -1.7874  1.4205
 8465WAT    EPW35667   2.314   2.582   3.163 -0.5445 -0.4247  0.3821
 8466WAT      O35668   0.507   1.049   0.795  0.0950  0.3810 -0.1170
 8466WAT     H135669   0.426   1.055   0.745 -0.5250  0.1060  0.8322
 8466WAT     H235670   0.489   1.097   0.876  1.1287  0.9564 -0.2022
 8466WAT    EPW35671   0.494   1.056   0.799  0.1495  0.4206 -0.0031
 8467WAT      O35672  10.502   8.601   8.149 -0.0279  0.0165 -0.2302
 8467WAT     H135673  10.533   8.581   8.238  0.8714 -0.1545 -0.5647
 8467WAT     H235674  10.577   8.581   8.093 -0.8786 -0.7796 -1.1349
 8467WAT    EPW35675  10.516   8.595   8.154 -0.0215 -0.1106 -0.3934
 8468WAT      O35676   8.577   0.836   3.945  0.4555 -0.5842 -0.1375
 8468WAT     H135677   8.577   0.924   3.908 -0.4266  0.4070  2.0353
 8468WAT     H235678   8.619   0.781   3.879 -1.7722  0.8409 -2.9486
 8468WAT    EPW35679   8.582   0.840   3.931  0.0458 -0.2655 -0.2217
 8469WAT      O35680   2.443   2.371   5.154  0.2095 -0.5272  0.4958
 8469WAT     H135681   2.387   2.449   5.164 -1.1120 -0.7510 -3.4838
 8469WAT     H235682   2.482   2.359   5.241  0.2634  4.3564  1.4601
 8469WAT    EPW35683   2.441   2.380   5.167  0.0423  0.0875  0.0980
 8470WAT      O35684   6.224   3.365   1.771 -0.5796 -0.1595  0.1644
 8470WAT     H135685   6.270   3.448   1.789  1.5229 -1.2212 -0.0694
 8470WAT     H235686   6.133   3.383   1.797 -0.1496  2.1496  0.3208
 8470WAT    EPW35687   6.218   3.379   1.777 -0.2453  0.0050  0.1541
 8471WAT      O35688   5.362   8.444   8.961 -0.1615 -0.4756  0.4284
 8471WAT     H135689   5.274   8.419   8.990 -1.1201  1.7375 -0.3972
 8471WAT     H235690   5.348   8.501   8.886  1.9569  0.6658  0.8176
 8471WAT    EPW35691   5.349   8.448   8.955 -0.0086 -0.0334  0.3710
 8472WAT      O35692   6.474   7.018   3.962  0.0559  0.1021  0.3506
 8472WAT     H135693   6.390   7.035   3.920  0.3424  0.4903 -0.0645
 8472WAT     H235694   6.482   6.922   3.961 -0.4168  0.0574  0.4692
 8472WAT    EPW35695   6.464   7.007   3.957  0.0315  0.1471  0.3114
 8473WAT      O35696   9.385   2.657   8.855  0.2358  0.1412  0.6343
 8473WAT     H135697   9.334   2.595   8.805  0.2455  0.3161  0.4075
 8473WAT     H235698   9.336   2.668   8.937 -0.4667  0.8444  0.1358
 8473WAT    EPW35699   9.372   2.650   8.859  0.1445  0.2570  0.5383
 8474WAT      O35700   5.656  10.156   8.914 -0.9973  0.3374  0.2397
 8474WAT     H135701   5.686  10.246   8.901 -1.3255  0.3549 -0.4516
 8474WAT     H235702   5.709  10.123   8.987  0.0563  0.6523 -0.3673
 8474WAT    EPW35703   5.667  10.164   8.922 -0.9012  0.3815  0.0687
 8475WAT      O35704   8.872   8.726   8.582 -0.3870  0.0657 -0.3968
 8475WAT     H135705   8.828   8.733   8.667 -0.5423  1.0856 -0.5446
 8475WAT     H235706   8.928   8.804   8.578  0.3277 -0.4603 -0.8383
 8475WAT    EPW35707   8.874   8.737   8.593 -0.3138  0.1307 -0.4745
 8476WAT      O35708   4.610   1.073   0.029  1.2163  0.3107 -0.2270
 8476WAT     H135709   4.536   1.082   0.089  1.5098  1.6472 -0.0459
 8476WAT     H235710   4.678   1.030   0.082  2.1944  3.2756  1.1105
 8476WAT    EPW35711   4.610   1.068   0.044  1.3843  0.8783 -0.0262
 8477WAT      O35712   5.672   7.495   8.474  0.3728 -0.1902 -0.6342
 8477WAT     H135713   5.624   7.497   8.556 -0.9200  0.9144 -1.3752
 8477WAT     H235714   5.685   7.587   8.451  0.8643 -0.4777 -1.5856
 8477WAT    EPW35715   5.667   7.507   8.482  0.2670 -0.0825 -0.8574
 8478WAT      O35716   2.638   0.603   6.728  0.4486  0.7200 -0.4335
 8478WAT     H135717   2.551   0.569   6.748  1.4587 -2.0151 -0.1614
 8478WAT     H235718   2.672   0.635   6.811 -0.0616  1.2582 -0.4282
 8478WAT    EPW35719   2.631   0.603   6.741  0.5145  0.4302 -0.3970
 8479WAT      O35720   8.143   6.062   7.517  0.4733 -0.2408 -0.5851
 8479WAT     H135721   8.114   5.981   7.475 -0.6498  0.5656 -1.4359
 8479WAT     H235722   8.143   6.127   7.446 -1.0746  1.0700  0.5633
 8479WAT    EPW35723   8.139   6.060   7.502  0.1216  0.0384 -0.5460
 8480WAT      O35724   1.837   4.929   0.742  0.2229 -0.4173  0.1902
 8480WAT     H135725   1.900   4.884   0.685  0.5834 -0.3143  0.4985
 8480WAT     H235726   1.855   4.894   0.829  0.3791  0.1748  0.4031
 8480WAT    EPW35727   1.848   4.919   0.746  0.2910 -0.3254  0.2590
 8481WAT      O35728   8.306   5.759   6.229 -0.0702  0.1203 -0.5178
 8481WAT     H135729   8.379   5.814   6.202 -1.8344  1.9457 -1.8920
 8481WAT     H235730   8.317   5.678   6.179  1.3088  0.1280 -0.2570
 8481WAT    EPW35731   8.317   5.756   6.219 -0.1206  0.3619 -0.6645
 8482WAT      O35732   3.012   5.353   0.202  0.0194  0.2650  0.6950
 8482WAT     H135733   3.002   5.266   0.240  0.1975 -0.1294 -0.1311
 8482WAT     H235734   3.066   5.339   0.124 -2.3496  0.6581 -1.0964
 8482WAT    EPW35735   3.018   5.340   0.197 -0.2694  0.2649  0.3498
 8483WAT      O35736  10.455   1.754   8.881  0.1010 -0.9326  0.0523
 8483WAT     H135737  10.388   1.774   8.947  0.2791 -1.2441  0.3295
 8483WAT     H235738  10.499   1.676   8.914  0.0981 -1.1745 -0.5073
 8483WAT    EPW35739  10.452   1.747   8.894  0.1245 -1.0056  0.0153
 8484WAT      O35740   2.859   1.580   7.933 -0.2695 -0.1394 -0.4877
 8484WAT     H135741   2.897   1.519   7.870 -0.2438  0.1704 -0.7700
 8484WAT     H235742   2.769   1.592   7.903 -0.7065 -1.1227  0.3582
 8484WAT    EPW35743   2.852   1.573   7.921 -0.3238 -0.2282 -0.4132
 8485WAT      O35744   1.433  10.056   7.258  0.8106 -0.0423 -0.0288
 8485WAT     H135745   1.422  10.114   7.182  0.1054  0.3312  0.3430
 8485WAT     H235746   1.519  10.078   7.293  1.1467 -0.2264 -0.7241
 8485WAT    EPW35747   1.443  10.067   7.253  0.7620 -0.0172 -0.0715
 8486WAT      O35748   1.193   7.145   6.519  0.6446 -0.3839 -0.3283
 8486WAT     H135749   1.113   7.123   6.567  0.8189 -1.4797 -0.5187
 8486WAT     H235750   1.167   7.142   6.427  0.7639 -0.1700 -0.3682
 8486WAT    EPW35751   1.179   7.141   6.514  0.6832 -0.5002 -0.3586
 8487WAT      O35752   2.727   4.558   0.742 -0.1923 -0.0834  0.5505
 8487WAT     H135753   2.701   4.649   0.723  1.0568 -0.0988 -1.5858
 8487WAT     H235754   2.673   4.533   0.817 -0.0272  2.6765  1.7175
 8487WAT    EPW35755   2.716   4.567   0.749 -0.0057  0.2789  0.4227
 8488WAT      O35756   9.047   8.991   6.964  0.5220  0.1461 -0.4632
 8488WAT     H135757   9.029   9.085   6.959 -1.6900 -0.1679  0.2873
 8488WAT     H235758   9.142   8.984   6.969  0.6849  2.3930  0.4312
 8488WAT    EPW35759   9.057   9.002   6.964  0.2518  0.4005 -0.2463
 8489WAT      O35760   4.145   0.265   8.972 -0.2278  0.3437  0.4082
 8489WAT     H135761   4.152   0.215   8.891 -0.9831  0.9491 -0.0539
 8489WAT     H235762   4.236   0.286   8.996  0.0282 -0.3330  0.0368
 8489WAT    EPW35763   4.158   0.261   8.965 -0.2935  0.3342  0.2985
 8490WAT      O35764   2.640   6.109   0.571  0.1593 -0.6384  0.6111
 8490WAT     H135765   2.564   6.094   0.515 -2.1776  0.8983  3.1004
 8490WAT     H235766   2.680   6.023   0.582 -1.4079 -1.5631 -0.5293
 8490WAT    EPW35767   2.635   6.096   0.565 -0.3556 -0.5574  0.7890
 8491WAT      O35768   0.602   8.853   8.944 -0.2450  0.0310  0.4880
 8491WAT     H135769   0.599   8.942   8.981  0.5817  0.1421  0.3169
 8491WAT     H235770   0.556   8.861   8.860  0.0012  0.3519  0.3792
 8491WAT    EPW35771   0.595   8.866   8.937 -0.1036  0.0877  0.4511
 8492WAT      O35772   1.616   0.222   5.610  0.8871 -0.2437 -0.4623
 8492WAT     H135773   1.657   0.136   5.617  0.7340 -0.2874 -0.0851
 8492WAT     H235774   1.663   0.265   5.538  2.6389  0.2837  0.9383
 8492WAT    EPW35775   1.628   0.216   5.601  1.0980 -0.1799 -0.2277
 8493WAT      O35776   7.572   9.523   7.037  0.5302  0.1151  0.1135
 8493WAT     H135777   7.516   9.450   7.010 -1.2233  1.6680 -0.7171
 8493WAT     H235778   7.632   9.485   7.101 -0.9729 -1.8352  0.4660
 8493WAT    EPW35779   7.572   9.508   7.042  0.1006  0.0625  0.0505
 8494WAT      O35780   4.575   2.617   0.839 -0.2671 -0.0929 -0.3261
 8494WAT     H135781   4.521   2.686   0.801 -2.4115 -0.7545  1.3101
 8494WAT     H235782   4.512   2.552   0.870  1.5099 -1.1612  1.2298
 8494WAT    EPW35783   4.559   2.617   0.838 -0.3157 -0.3210  0.0950
 8495WAT      O35784   6.433  10.147   5.499 -0.2604 -0.3907 -0.5361
 8495WAT     H135785   6.367  10.215   5.494 -0.4230 -0.5803 -1.1002
 8495WAT     H235786   6.489  10.162   5.423  0.4371 -0.1437  0.0118
 8495WAT    EPW35787   6.432  10.158   5.488 -0.1900 -0.3829 -0.5381
 8496WAT      O35788   9.619  10.318   8.702 -0.4584 -0.2361 -1.0847
 8496WAT     H135789   9.539  10.273   8.674 -1.1597  0.5070 -0.3636
 8496WAT     H235790   9.664  10.340   8.621 -2.2363  1.5335 -1.6938
 8496WAT    EPW35791   9.614  10.315   8.688 -0.7854  0.0958 -1.0700
 8497WAT      O35792   6.379   5.122   0.799 -0.1782 -0.4393  0.1709
 8497WAT     H135793   6.306   5.177   0.827 -0.6930 -1.5947  1.1936
 8497WAT     H235794   6.375   5.125   0.704 -0.7175  0.5949  0.2056
 8497WAT    EPW35795   6.368   5.130   0.790 -0.3173 -0.4551  0.3104
 8498WAT      O35796  10.300   6.874   6.295 -0.1648 -0.5550 -0.6364
 8498WAT     H135797  10.334   6.841   6.211 -0.1268 -1.2137 -0.3678
 8498WAT     H235798  10.217   6.828   6.307 -1.8798  1.9465 -1.9025
 8498WAT    EPW35799  10.294   6.864   6.285 -0.3862 -0.3119 -0.7679
 8499WAT      O35800   0.718   1.149   8.574 -0.1679  0.0120  0.4081
 8499WAT     H135801   0.655   1.124   8.506  0.7106 -2.8292  0.5170
 8499WAT     H235802   0.681   1.229   8.612 -3.1016 -0.8543 -0.3388
 8499WAT    EPW35803   0.705   1.157   8.570 -0.4390 -0.4770  0.3238
 8500WAT      O35804   5.566   8.479   6.756  0.2596  0.1758 -0.2442
 8500WAT     H135805   5.656   8.502   6.779  0.9812 -2.4237 -0.2369
 8500WAT     H235806   5.570   8.456   6.663 -0.2817 -0.4269 -0.1257
 8500WAT    EPW35807   5.578   8.479   6.747  0.2832 -0.2460 -0.2275
 8501WAT      O35808   3.657   6.838   3.470 -0.0141 -0.2596 -0.6660
 8501WAT     H135809   3.719   6.822   3.542 -2.4302  0.9133  1.8816
 8501WAT     H235810   3.648   6.933   3.468 -2.4079 -0.4082 -0.2295
 8501WAT    EPW35811   3.664   6.849   3.479 -0.6484 -0.1245 -0.2726
 8502WAT      O35812   4.737   3.784   0.619 -0.1851 -0.2447  0.2011
 8502WAT     H135813   4.701   3.843   0.553  2.2169  0.3881 -0.6195
 8502WAT     H235814   4.756   3.703   0.572 -0.6582 -0.6431  0.6725
 8502WAT    EPW35815   4.735   3.781   0.604  0.0694 -0.2139  0.1551
 8503WAT      O35816   1.910   5.562   2.735  0.6252  0.5210  0.2048
 8503WAT     H135817   1.955   5.645   2.717 -0.0307  0.9174  0.3725
 8503WAT     H235818   1.934   5.541   2.825 -0.8977  1.6435  0.9226
 8503WAT    EPW35819   1.919   5.570   2.744  0.3378  0.7215  0.3216
 8504WAT      O35820   3.237   3.855   0.757  0.1239 -0.1066  0.6261
 8504WAT     H135821   3.215   3.811   0.675  0.0547 -1.6206  1.4160
 8504WAT     H235822   3.325   3.890   0.742  0.0644 -0.2641 -0.1336
 8504WAT    EPW35823   3.246   3.854   0.744  0.1069 -0.3270  0.6301
 8505WAT      O35824   8.181   9.320   4.772 -0.5944 -0.0795  0.1389
 8505WAT     H135825   8.098   9.303   4.728 -0.2108  1.3715 -1.2637
 8505WAT     H235826   8.183   9.259   4.846 -2.1062 -1.3300 -0.8079
 8505WAT    EPW35827   8.171   9.310   4.776 -0.7434 -0.0529 -0.1709
 8506WAT      O35828   8.189   6.103   6.781 -0.3031  0.0210  0.1698
 8506WAT     H135829   8.142   6.141   6.855 -2.2483 -2.8075  0.5552
 8506WAT     H235830   8.281   6.106   6.806 -0.9707 -1.9969  3.3947
 8506WAT    EPW35831   8.195   6.109   6.794 -0.6480 -0.6182  0.6459
 8507WAT      O35832   6.551   4.320   0.666  0.0576  0.6093  0.6380
 8507WAT     H135833   6.533   4.315   0.572  0.3133 -0.3848  0.6233
 8507WAT     H235834   6.509   4.242   0.703 -1.6029  1.8990  1.6501
 8507WAT    EPW35835   6.543   4.309   0.659 -0.1276  0.6483  0.7696
 8508WAT      O35836   1.114   6.036   2.152  0.1237 -0.5030 -0.4349
 8508WAT     H135837   1.072   6.122   2.148  0.1927 -0.4755 -0.5504
 8508WAT     H235838   1.046   5.975   2.124  0.5433 -0.3345 -1.8989
 8508WAT    EPW35839   1.099   6.040   2.148  0.1882 -0.4771 -0.6434
 8509WAT      O35840  10.355   4.649   1.249  0.5693  0.1938  0.5510
 8509WAT     H135841  10.298   4.584   1.210 -0.9854  1.5574  0.4530
 8509WAT     H235842  10.372   4.617   1.337 -1.2131  0.2486  0.9400
 8509WAT    EPW35843  10.350   4.636   1.255  0.1292  0.3810  0.5894
 8510WAT      O35844   3.551   2.761   0.147  0.1248  0.4031  0.1356
 8510WAT     H135845   3.626   2.705   0.125  0.9499  1.0115  1.3022
 8510WAT     H235846   3.556   2.771   0.242 -0.2001  2.1750 -0.0008
 8510WAT    EPW35847   3.562   2.755   0.157  0.1907  0.7170  0.2715
 8511WAT      O35848   3.797   2.253   0.201  0.2316 -0.2664 -0.4943
 8511WAT     H135849   3.835   2.338   0.176  1.1721 -0.7105 -0.6085
 8511WAT     H235850   3.752   2.271   0.284  1.4647  0.0957  0.1305
 8511WAT    EPW35851   3.796   2.267   0.209  0.5183 -0.2770 -0.4270
 8512WAT      O35852   6.524   3.471   0.698  0.0072  1.0777  0.7500
 8512WAT     H135853   6.542   3.529   0.773 -0.9720 -0.8025  2.5589
 8512WAT     H235854   6.553   3.384   0.727 -0.9968  0.1702 -0.8154
 8512WAT    EPW35855   6.530   3.467   0.712 -0.2544  0.7101  0.7821
 8513WAT      O35856   2.461   4.680   0.030 -0.1242 -0.2341 -0.2073
 8513WAT     H135857   2.401   4.720  -0.032  0.6098  1.3904  0.0801
 8513WAT     H235858   2.536   4.653  -0.023 -0.5033 -1.0421 -0.3579
 8513WAT    EPW35859   2.463   4.681   0.015 -0.0775 -0.1266 -0.1893
 8514WAT      O35860  10.133   7.157   4.723 -0.0978 -0.2092 -0.3824
 8514WAT     H135861  10.220   7.119   4.711  0.5989  1.0670  0.3820
 8514WAT     H235862  10.080   7.086   4.759  0.7941 -0.8322 -0.2759
 8514WAT    EPW35863  10.137   7.143   4.726  0.1116 -0.1230 -0.2677
 8515WAT      O35864   7.934   8.956   8.546  0.2550  0.3348  0.3674
 8515WAT     H135865   7.972   8.896   8.610  1.4010  0.7437  0.0984
 8515WAT     H235866   8.002   9.022   8.532 -0.2970  0.7066 -0.6593
 8515WAT    EPW35867   7.948   8.957   8.552  0.3335  0.4377  0.1969
 8516WAT      O35868   3.073   5.240   1.394 -0.0550 -0.4325  0.2279
 8516WAT     H135869   3.162   5.273   1.380  0.3985  0.4577  4.1200
 8516WAT     H235870   3.041   5.288   1.470 -3.8117 -0.9950 -0.7846
 8516WAT    EPW35871   3.081   5.251   1.402 -0.4905 -0.3891  0.6078
 8517WAT      O35872   6.226   9.089   0.669  0.1669 -0.7748  0.8294
 8517WAT     H135873   6.201   9.150   0.737  1.9723 -0.2724  1.0878
 8517WAT     H235874   6.221   9.003   0.711  0.5765 -0.5312  1.3910
 8517WAT    EPW35875   6.222   9.085   0.683  0.4592 -0.6762  0.9376
 8518WAT      O35876   1.800   3.856   2.824  0.5334 -1.0683 -0.1225
 8518WAT     H135877   1.809   3.794   2.751  2.6700  0.0893 -0.9311
 8518WAT     H235878   1.856   3.821   2.893 -0.2386 -1.3391  0.3685
 8518WAT    EPW35879   1.809   3.843   2.823  0.7133 -0.9514 -0.1644
 8519WAT      O35880   2.715   0.729   8.548 -0.2397  0.0020  0.1281
 8519WAT     H135881   2.791   0.703   8.496  2.5134  0.6379  3.4354
 8519WAT     H235882   2.658   0.775   8.486  3.8729  2.9738 -1.9701
 8519WAT    EPW35883   2.717   0.732   8.533  0.6659  0.4779  0.2875
 8520WAT      O35884   5.266   9.963   8.060  0.1400  0.5657 -0.2084
 8520WAT     H135885   5.344   9.994   8.014 -0.4125  4.0866  0.9599
 8520WAT     H235886   5.193   9.996   8.008 -0.5833 -0.7101 -0.0440
 8520WAT    EPW35887   5.267   9.971   8.047 -0.0286  0.8616 -0.0324
 8521WAT      O35888   6.592   9.814   8.685  0.0675  0.0337  0.2331
 8521WAT     H135889   6.550   9.780   8.606 -1.6229 -0.2056  1.1990
 8521WAT     H235890   6.685   9.821   8.662  0.0487 -2.6152 -0.8951
 8521WAT    EPW35891   6.599   9.811   8.672 -0.1578 -0.3476  0.2112
 8522WAT      O35892   0.272   7.240   7.415  0.0215 -0.1281 -0.5350
 8522WAT     H135893   0.198   7.210   7.362  0.5598  0.3116 -1.5674
 8522WAT     H235894   0.344   7.246   7.353  0.8023 -0.0683  0.3620
 8522WAT    EPW35895   0.271   7.237   7.400  0.1954 -0.0622 -0.5531
 8523WAT      O35896   3.204   5.316   0.426 -0.4044  0.3941  0.2121
 8523WAT     H135897   3.132   5.340   0.367 -0.2897  1.7279  0.5762
 8523WAT     H235898   3.202   5.383   0.494  1.1284  0.3967  0.2839
 8523WAT    EPW35899   3.194   5.328   0.427 -0.1870  0.5703  0.2696
 8524WAT      O35900   6.534   6.399   0.312  0.4368 -0.3977 -0.1647
 8524WAT     H135901   6.586   6.474   0.341  0.6407 -0.3506 -0.6400
 8524WAT     H235902   6.576   6.372   0.230 -1.8223  1.2344 -1.9719
 8524WAT    EPW35903   6.547   6.405   0.305  0.1659 -0.1762 -0.4658
 8525WAT      O35904  10.836   9.795   6.121  0.3452  0.0698 -0.6611
 8525WAT     H135905  10.915   9.770   6.074 -1.2877 -2.7900 -2.1025
 8525WAT     H235906  10.838   9.743   6.201 -0.3336 -0.4211 -0.9599
 8525WAT    EPW35907  10.847   9.785   6.125  0.0410 -0.3719 -0.8907
 8526WAT      O35908   5.366   5.960   2.415 -0.2495  0.5790  0.0742
 8526WAT     H135909   5.396   5.935   2.502 -0.0494 -0.9271 -0.3971
 8526WAT     H235910   5.278   5.923   2.409 -0.7758  1.7954  0.0958
 8526WAT    EPW35911   5.358   5.951   2.426 -0.2923  0.5407  0.0149
 8527WAT      O35912   0.258   8.389   4.212  0.5674  0.0699  0.1769
 8527WAT     H135913   0.292   8.338   4.138  0.0446 -1.4724  0.9517
 8527WAT     H235914   0.336   8.419   4.259  0.9015 -0.8581  0.2444
 8527WAT    EPW35915   0.273   8.386   4.208  0.5425 -0.2561  0.2880
 8528WAT      O35916  10.049   9.488   7.256 -0.7200 -0.1532  0.1224
 8528WAT     H135917   9.989   9.540   7.309  1.4942  1.2272  1.4158
 8528WAT     H235918  10.093   9.431   7.319 -0.0560 -0.5357 -0.6733
 8528WAT    EPW35919  10.047   9.487   7.271 -0.3405 -0.0215  0.1881
 8529WAT      O35920   0.926   0.771   6.113 -0.3308  0.1642 -0.2907
 8529WAT     H135921   1.007   0.822   6.122  0.4458 -1.1306  0.4964
 8529WAT     H235922   0.925   0.744   6.022  1.0158 -1.1441  0.0393
 8529WAT    EPW35923   0.937   0.774   6.102 -0.0507 -0.1791 -0.1433
 8530WAT      O35924  10.723   0.810   8.873  0.2952  0.2402  0.0071
 8530WAT     H135925  10.686   0.758   8.944 -1.5753  0.5622 -0.6532
 8530WAT     H235926  10.687   0.898   8.887 -0.8881  0.0993 -1.8188
 8530WAT    EPW35927  10.713   0.815   8.884 -0.1078  0.2641 -0.3209
 8531WAT      O35928   5.332   7.603   7.001  0.3071  0.1889  0.2398
 8531WAT     H135929   5.360   7.531   6.943 -3.4411  0.0496 -1.7038
 8531WAT     H235930   5.404   7.666   6.996  1.5440 -1.2260 -2.0861
 8531WAT    EPW35931   5.346   7.602   6.992 -0.0241 -0.0160 -0.3231
 8532WAT      O35932   8.223   8.530   7.519 -0.0629 -0.4288 -0.2002
 8532WAT     H135933   8.148   8.574   7.479 -0.0412 -0.9720 -0.8416
 8532WAT     H235934   8.266   8.485   7.447 -2.1207 -4.5691  0.8402
 8532WAT    EPW35935   8.219   8.530   7.505 -0.3314 -1.0467 -0.1476
 8533WAT      O35936   7.782   1.544   8.921  0.3903 -0.0071 -0.1964
 8533WAT     H135937   7.708   1.575   8.868  0.5874  4.0286  1.5470
 8533WAT     H235938   7.743   1.479   8.981 -0.7389 -1.1916 -2.1049
 8533WAT    EPW35939   7.767   1.539   8.922  0.2675  0.3690 -0.2179
 8534WAT      O35940   1.440   0.389   8.851  0.4797  0.0293  0.2879
 8534WAT     H135941   1.450   0.427   8.939 -0.6383 -0.3159  0.5825
 8534WAT     H235942   1.413   0.298   8.868  1.2452 -0.3443 -0.4161
 8534WAT    EPW35943   1.438   0.382   8.865  0.4333 -0.0655  0.2341
 8535WAT      O35944   7.917   7.678   7.478  1.0660 -0.3271 -0.3600
 8535WAT     H135945   7.840   7.734   7.477  0.8620 -0.5917  0.0352
 8535WAT     H235946   7.991   7.738   7.469  0.8115 -0.0824 -0.8252
 8535WAT    EPW35947   7.917   7.693   7.477  1.0054 -0.3295 -0.3693
 8536WAT      O35948  10.384   1.846   7.068  0.4330 -0.0721  0.0594
 8536WAT     H135949  10.304   1.887   7.035  0.9223  0.8312 -0.0480
 8536WAT     H235950  10.449   1.917   7.066  1.8725 -1.3418 -2.1353
 8536WAT    EPW35951  10.382   1.861   7.063  0.6871 -0.1205 -0.2441
 8537WAT      O35952   5.741   5.621   1.400 -0.4397  0.0478 -0.1077
 8537WAT     H135953   5.811   5.638   1.464  0.6309 -0.4194 -1.1090
 8537WAT     H235954   5.777   5.552   1.344 -2.1769 -1.0240  0.0352
 8537WAT    EPW35955   5.755   5.614   1.401 -0.5274 -0.1552 -0.2209
 8538WAT      O35956   8.590   9.020   4.377 -0.3414 -0.9843  0.1061
 8538WAT     H135957   8.629   9.077   4.444 -1.6883  0.1518 -0.0403
 8538WAT     H235958   8.526   9.076   4.333  0.2082 -1.8343 -1.8577
 8538WAT    EPW35959   8.587   9.035   4.380 -0.4463 -0.9465 -0.1721
 8539WAT      O35960   8.909   7.047   6.750  0.6306 -0.1393 -0.6675
 8539WAT     H135961   8.829   7.003   6.779  0.4173 -0.0614 -1.1340
 8539WAT     H235962   8.978   6.982   6.764  0.2695 -0.7826 -1.6990
 8539WAT    EPW35963   8.908   7.032   6.756  0.5550 -0.2136 -0.8647
 8540WAT      O35964   7.004   5.864   0.336 -0.6500  0.6473 -0.1286
 8540WAT     H135965   6.923   5.883   0.288 -1.2267 -0.6627  0.2839
 8540WAT     H235966   7.073   5.866   0.270 -1.1210  1.0186 -0.6135
 8540WAT    EPW35967   7.002   5.867   0.321 -0.7885  0.5233 -0.1382
 8541WAT      O35968   3.464   3.509   1.249 -0.3174 -0.2018 -0.8820
 8541WAT     H135969   3.444   3.603   1.248  1.2347  0.1623 -1.0721
 8541WAT     H235970   3.389   3.468   1.207 -1.0241  0.9587 -0.7947
 8541WAT    EPW35971   3.452   3.516   1.243 -0.2059 -0.0007 -0.8956
 8542WAT      O35972   0.047   1.769   7.155  0.8072  0.4594  0.0685
 8542WAT     H135973   0.124   1.820   7.131  3.2053 -4.1681 -3.5556
 8542WAT     H235974  -0.019   1.793   7.091  0.7311  1.2593  0.4352
 8542WAT    EPW35975   0.048   1.779   7.144  1.1129 -0.0454 -0.3610
 8543WAT      O35976   6.594   6.904   6.276  0.1171  0.3549 -0.3530
 8543WAT     H135977   6.507   6.922   6.311 -0.4530 -2.8987  0.1742
 8543WAT     H235978   6.578   6.874   6.186  0.5243 -1.4521  0.1473
 8543WAT    EPW35979   6.581   6.903   6.269  0.0956 -0.3126 -0.2174
 8544WAT      O35980   3.504   3.271   7.519 -0.1678 -0.0802  0.1820
 8544WAT     H135981   3.456   3.276   7.602  1.9582  2.4166  1.4386
 8544WAT     H235982   3.585   3.225   7.541 -0.4811 -1.2812 -1.0682
 8544WAT    EPW35983   3.508   3.266   7.533  0.0713  0.0907  0.1829
 8545WAT      O35984   5.762   7.553   7.026  0.1762  0.8589  0.0405
 8545WAT     H135985   5.844   7.564   7.074  0.2731  0.2542  0.0123
 8545WAT     H235986   5.766   7.465   6.989 -0.2504  1.0221 -0.4144
 8545WAT    EPW35987   5.773   7.543   7.028  0.1326  0.8006 -0.0234
 8546WAT      O35988   7.913   7.055   8.638 -0.3535  0.0031 -0.0161
 8546WAT     H135989   7.843   7.093   8.692 -1.7517  0.4938 -2.0396
 8546WAT     H235990   7.905   7.100   8.554  2.0273 -0.4043 -0.5291
 8546WAT    EPW35991   7.902   7.066   8.634 -0.2241  0.0138 -0.3510
 8547WAT      O35992   4.023   5.911   2.075  0.0338 -0.6522 -0.2947
 8547WAT     H135993   4.043   5.925   2.168  1.3289  0.4952 -0.7157
 8547WAT     H235994   3.940   5.957   2.062 -1.5584 -3.0281  0.8370
 8547WAT    EPW35995   4.015   5.919   2.085 -0.0055 -0.8142 -0.2010
 8548WAT      O35996   5.980   8.526   1.956  0.6383  0.1081  0.0636
 8548WAT     H135997   5.892   8.500   1.985  0.4873  1.2889  0.7389
 8548WAT     H235998   6.037   8.456   1.988  0.0095 -0.3852  0.1191
 8548WAT    EPW35999   5.976   8.513   1.964  0.5352  0.1988  0.1600
 8549WAT      O36000   3.913  10.030   0.473 -0.0063 -0.2969 -0.3426
 8549WAT     H136001   3.831  10.024   0.425 -0.4454  0.2975  0.3128
 8549WAT     H236002   3.970  10.083   0.417 -0.9819  1.6160  0.3730
 8549WAT    EPW36003   3.910  10.037   0.460 -0.1929  0.0339 -0.1618
 8550WAT      O36004   1.061   3.554   4.895 -0.2103  0.3155 -0.4094
 8550WAT     H136005   0.968   3.575   4.896 -0.1618  0.5135  0.1361
 8550WAT     H236006   1.088   3.558   4.987  0.2183 -0.2680 -0.5023
 8550WAT    EPW36007   1.052   3.557   4.907 -0.1474  0.2648 -0.3498
 8551WAT      O36008   8.724   9.499   8.128 -0.4369 -0.4371 -0.4306
 8551WAT     H136009   8.782   9.426   8.108  0.5234  0.5943 -1.5389
 8551WAT     H236010   8.751   9.569   8.069 -0.7711  1.1219  1.1603
 8551WAT    EPW36011   8.735   9.499   8.118 -0.3543 -0.0958 -0.3672
 8552WAT      O36012   1.877   0.162   7.127  0.1674  0.1496  0.1180
 8552WAT     H136013   1.811   0.204   7.073 -0.9225 -1.9579 -0.2906
 8552WAT     H236014   1.959   0.177   7.081 -0.1917  1.6147 -0.0877
 8552WAT    EPW36015   1.879   0.169   7.114 -0.0237  0.0649  0.0372
 8553WAT      O36016   4.673   5.256   1.704 -0.2470 -0.0217 -0.2392
 8553WAT     H136017   4.755   5.263   1.753 -0.5063 -0.6569  0.2984
 8553WAT     H236018   4.626   5.337   1.723 -0.6170 -0.5257  1.0698
 8553WAT    EPW36019   4.678   5.268   1.713 -0.3297 -0.1719  0.0044
 8554WAT      O36020   5.886   9.245   7.808  0.1016 -0.5049  0.2290
 8554WAT     H136021   5.838   9.170   7.844 -1.8314  0.0423 -1.0478
 8554WAT     H236022   5.826   9.283   7.743  2.2479  0.2725 -1.4389
 8554WAT    EPW36023   5.872   9.240   7.804  0.1297 -0.3304 -0.1590
 8555WAT      O36024   1.549   1.010   6.713 -0.2669 -0.0670 -0.3164
 8555WAT     H136025   1.458   1.007   6.682 -1.6449 -2.1141  3.3107
 8555WAT     H236026   1.598   1.045   6.639 -3.3885 -2.5887 -3.9640
 8555WAT    EPW36027   1.544   1.014   6.699 -0.8605 -0.6696 -0.3192
 8556WAT      O36028   0.785   2.864   8.547 -0.6711  0.3200 -0.1310
 8556WAT     H136029   0.815   2.951   8.571  1.3550 -0.0549 -1.1217
 8556WAT     H236030   0.822   2.849   8.461 -0.4990 -1.7541  0.2629
 8556WAT    EPW36031   0.794   2.874   8.539 -0.3812 -0.0032 -0.2093
 8557WAT      O36032  10.711   9.501   7.580  0.1704 -0.2188 -0.6456
 8557WAT     H136033  10.800   9.518   7.550 -0.1391 -0.2328 -1.5953
 8557WAT     H236034  10.661   9.577   7.552 -0.9299 -1.8731 -3.7004
 8557WAT    EPW36035  10.716   9.513   7.573 -0.0157 -0.4392 -1.1737
 8558WAT      O36036   6.400   3.990   1.334 -0.6923  0.0100 -0.0562
 8558WAT     H136037   6.469   4.008   1.271 -0.7954 -1.1927 -0.5534
 8558WAT     H236038   6.432   3.914   1.383 -1.7529 -0.7148 -0.4573
 8558WAT    EPW36039   6.414   3.982   1.332 -0.8459 -0.2441 -0.1747
 8559WAT      O36040   8.686   9.096   8.620  0.5668  0.3085 -0.3281
 8559WAT     H136041   8.626   9.170   8.613 -0.9572 -0.8140  0.1991
 8559WAT     H236042   8.696   9.064   8.530 -2.8654 -1.8681 -0.1050
 8559WAT    EPW36043   8.680   9.101   8.607 -0.0873 -0.1268 -0.2294
 8560WAT      O36044   2.070   2.967   7.499  0.1825  0.2251 -0.4607
 8560WAT     H136045   2.163   2.983   7.511 -0.5181  2.7124  4.1632
 8560WAT     H236046   2.031   3.055   7.494 -1.9724 -0.7315 -2.5333
 8560WAT    EPW36047   2.077   2.981   7.500 -0.1942  0.4269 -0.1242
 8561WAT      O36048   6.976   7.804   7.998 -0.5661 -0.0986  0.1797
 8561WAT     H136049   6.966   7.781   7.905 -1.2591  1.4431 -0.1621
 8561WAT     H236050   7.063   7.843   8.004 -1.4771  2.1809 -0.4066
 8561WAT    EPW36051   6.986   7.806   7.986 -0.7777  0.4053  0.0575
 8562WAT      O36052   1.044   0.034   8.148 -0.2841  0.1940 -0.4409
 8562WAT     H136053   0.988  -0.018   8.205 -1.4706  0.5078 -1.2911
 8562WAT     H236054   1.003   0.029   8.062  1.2986 -0.0100 -1.2168
 8562WAT    EPW36055   1.032   0.027   8.144 -0.2319  0.2085 -0.6552
 8563WAT      O36056   4.898   9.396   7.658  0.4978  0.9240  0.0270
 8563WAT     H136057   4.826   9.371   7.715  0.2199  0.5943 -0.4579
 8563WAT     H236058   4.971   9.413   7.717  0.7374 -1.1265  0.4012
 8563WAT    EPW36059   4.898   9.395   7.673  0.4930  0.6094  0.0124
 8564WAT      O36060   9.151   8.301   7.066  0.2130 -0.3885 -1.1762
 8564WAT     H136061   9.241   8.274   7.084 -0.5808 -1.8349  0.9279
 8564WAT     H236062   9.159   8.394   7.046  2.2234 -0.5760 -1.5492
 8564WAT    EPW36063   9.164   8.310   7.066  0.3734 -0.6042 -0.9480
 8565WAT      O36064  10.372   7.322   6.715 -0.3920  0.6905 -0.0684
 8565WAT     H136065  10.355   7.236   6.753  0.2568  0.4219 -0.3781
 8565WAT     H236066  10.462   7.317   6.683 -0.6770  1.1421 -0.9965
 8565WAT    EPW36067  10.382   7.310   6.716 -0.3443  0.7145 -0.2317
 8566WAT      O36068   5.646   7.324   7.600  0.2713  0.8480 -0.9194
 8566WAT     H136069   5.730   7.365   7.581 -0.1800  2.4941  0.3826
 8566WAT     H236070   5.632   7.341   7.693 -1.9998  1.5883 -1.3352
 8566WAT    EPW36071   5.656   7.332   7.610 -0.0882  1.1628 -0.8025
 8567WAT      O36072   4.361   5.304   1.553  0.0265  0.4467  0.1276
 8567WAT     H136073   4.456   5.317   1.544 -0.0120  1.4386  0.9299
 8567WAT     H236074   4.350   5.277   1.644 -0.3325 -1.2184 -0.3863
 8567WAT    EPW36075   4.372   5.302   1.564 -0.0260  0.3579  0.1656
 8568WAT      O36076   8.416  10.145   5.641 -0.2072 -0.4714 -0.3209
 8568WAT     H136077   8.436  10.167   5.549  1.7609  2.2066  0.6068
 8568WAT     H236078   8.324  10.167   5.651 -0.6566 -1.4990 -1.8072
 8568WAT    EPW36079   8.407  10.151   5.630 -0.0067 -0.2537 -0.3948
 8569WAT      O36080   8.569   6.840   7.997 -0.6128  0.2598 -0.1914
 8569WAT     H136081   8.566   6.812   8.088 -1.6699  0.2815 -0.2073
 8569WAT     H236082   8.624   6.918   7.998  0.8007 -0.7179  0.1465
 8569WAT    EPW36083   8.576   6.847   8.009 -0.5665  0.1338 -0.1493
 8570WAT      O36084   0.058   0.442   6.127  0.4969  0.0719  1.0069
 8570WAT     H136085   0.062   0.347   6.142  0.4556  0.0803  1.0701
 8570WAT     H236086  -0.011   0.452   6.061  1.6373 -0.0961 -0.2697
 8570WAT    EPW36087   0.049   0.431   6.120  0.6423  0.0509  0.8469
 8571WAT      O36088   4.536   4.530   1.510 -0.1165  0.1734  0.0663
 8571WAT     H136089   4.547   4.621   1.480  0.7330  0.9590  2.5170
 8571WAT     H236090   4.441   4.520   1.521 -0.4217 -0.0232 -2.3331
 8571WAT    EPW36091   4.525   4.541   1.508 -0.0448  0.2511  0.0731
 8572WAT      O36092   6.598   8.543   6.449  0.3228  0.1342 -0.1555
 8572WAT     H136093   6.642   8.560   6.366  2.0379 -0.1571  0.6445
 8572WAT     H236094   6.532   8.613   6.456 -0.0574 -0.0124 -1.8694
 8572WAT    EPW36095   6.595   8.555   6.439  0.4990  0.0772 -0.2761
 8573WAT      O36096   2.470   0.192   8.303  0.1511 -0.5099  0.3715
 8573WAT     H136097   2.563   0.175   8.286  0.2021  0.2848 -0.1735
 8573WAT     H236098   2.468   0.218   8.395  0.3560 -1.3071  0.6116
 8573WAT    EPW36099   2.482   0.193   8.313  0.1849 -0.5103  0.3314
 8574WAT      O36100   3.311   6.337   1.960  0.1117 -0.6242 -0.1459
 8574WAT     H136101   3.371   6.412   1.960  0.7514 -1.1274 -0.3316
 8574WAT     H236102   3.225   6.375   1.941  0.2467  0.1918  0.7954
 8574WAT    EPW36103   3.307   6.352   1.957  0.2139 -0.5827 -0.0463
 8575WAT      O36104   8.309   8.412   6.381 -0.1841 -0.0503 -0.8263
 8575WAT     H136105   8.266   8.485   6.426 -0.3408 -0.5021 -0.2300
 8575WAT     H236106   8.401   8.437   6.378  0.3899 -1.2136  2.3340
 8575WAT    EPW36107   8.315   8.425   6.387 -0.1287 -0.2632 -0.3307
 8576WAT      O36108   7.063   6.115   1.602  0.3075  0.0941 -0.6858
 8576WAT     H136109   6.970   6.101   1.621  0.3946 -1.7557 -1.3618
 8576WAT     H236110   7.105   6.033   1.628  2.0445  1.4921  1.1864
 8576WAT    EPW36111   7.056   6.102   1.608  0.5479  0.0343 -0.5280
 8577WAT      O36112   3.390   6.013   2.943  0.7693 -0.9629  0.1199
 8577WAT     H136113   3.353   6.031   3.030  1.0367  3.4355 -0.4439
 8577WAT     H236114   3.314   6.009   2.885  0.5971 -3.8142  0.4237
 8577WAT    EPW36115   3.375   6.015   2.947  0.7818 -0.7589  0.0856
 8578WAT      O36116   1.654   7.002   2.922  0.3824  0.2157  0.2429
 8578WAT     H136117   1.720   6.965   2.864  3.6815  0.8730  3.2121
 8578WAT     H236118   1.612   6.926   2.962  0.2331 -0.2259 -0.7301
 8578WAT    EPW36119   1.657   6.988   2.920  0.7979  0.2439  0.5062
 8579WAT      O36120   8.729   2.662   0.832  0.5098  0.2954 -0.2877
 8579WAT     H136121   8.821   2.684   0.848  0.8445 -1.1829  0.0143
 8579WAT     H236122   8.706   2.712   0.754  2.4164 -1.3739 -2.0504
 8579WAT    EPW36123   8.738   2.671   0.824  0.8059 -0.1198 -0.4804
 8580WAT      O36124   9.945   1.816   6.705 -0.2606 -0.5735  0.1905
 8580WAT     H136125   9.952   1.906   6.672 -0.7926 -1.9418 -4.2416
 8580WAT     H236126  10.033   1.795   6.734  0.4428  0.6514 -0.9205
 8580WAT    EPW36127   9.957   1.825   6.704 -0.2379 -0.5924 -0.5405
 8581WAT      O36128   5.510   9.919   6.770  0.4772  0.4941  0.7421
 8581WAT     H136129   5.564   9.998   6.780  2.2584  0.0427 -3.2265
 8581WAT     H236130   5.465   9.932   6.687 -0.4155 -2.0280  0.7549
 8581WAT    EPW36131   5.511   9.931   6.760  0.5941  0.1020  0.2205
 8582WAT      O36132   4.751   5.210   3.045  0.0431 -1.1610  0.3388
 8582WAT     H136133   4.799   5.225   3.126 -0.0359 -0.5812  0.2800
 8582WAT     H236134   4.775   5.121   3.019  0.8305 -0.9957  0.4790
 8582WAT    EPW36135   4.760   5.200   3.052  0.1364 -1.0626  0.3496
 8583WAT      O36136  10.205   0.074   8.626  0.0647 -0.4174  0.6714
 8583WAT     H136137  10.155   0.076   8.545 -1.3464 -0.2549  1.5119
 8583WAT     H236138  10.147   0.113   8.691  1.3450 -0.1120  1.6677
 8583WAT    EPW36139  10.190   0.079   8.624  0.0467 -0.3557  0.9136
 8584WAT      O36140   5.639   1.453   2.729  0.1450  0.1722  0.0860
 8584WAT     H136141   5.609   1.512   2.799  2.6915  1.0312  0.5465
 8584WAT     H236142   5.596   1.486   2.650  1.4534  2.7326  0.3304
 8584WAT    EPW36143   5.629   1.465   2.728  0.6537  0.6232  0.1791
 8585WAT      O36144   8.976   8.366   4.071  0.0352 -0.6979  0.3774
 8585WAT     H136145   8.882   8.361   4.090 -0.3885  2.7629 -0.1865
 8585WAT     H236146   9.017   8.374   4.157 -0.1128 -2.3859  0.6375
 8585WAT    EPW36147   8.969   8.366   4.085 -0.0401 -0.4635  0.3374
 8586WAT      O36148   0.761   4.732   7.284 -0.3130 -0.7087 -0.4936
 8586WAT     H136149   0.783   4.658   7.341  0.2829  0.2539  0.5781
 8586WAT     H236150   0.752   4.806   7.344  0.5234  0.3842 -1.6687
 8586WAT    EPW36151   0.763   4.732   7.300 -0.1240 -0.4375 -0.5071
 8587WAT      O36152  10.459   3.334   8.981  0.2306 -0.6361  0.0716
 8587WAT     H136153  10.411   3.400   8.931 -1.2496 -3.9421 -3.4474
 8587WAT     H236154  10.407   3.319   9.059 -1.5193 -0.2855 -0.9805
 8587WAT    EPW36155  10.446   3.340   8.984 -0.1954 -1.0257 -0.5313
 8588WAT      O36156   7.628   0.867   4.376 -0.3832 -0.1774 -0.8324
 8588WAT     H136157   7.624   0.938   4.312 -0.5896  0.4961 -0.0940
 8588WAT     H236158   7.682   0.902   4.447 -0.9999 -0.5186 -0.1754
 8588WAT    EPW36159   7.634   0.881   4.377 -0.4919 -0.1336 -0.6480
 8589WAT      O36160   0.939   7.271   7.460 -0.5673 -0.0223 -0.0868
 8589WAT     H136161   0.922   7.288   7.367  0.6977  0.9921 -0.1545
 8589WAT     H236162   0.918   7.354   7.503  2.5618  0.8261  0.0063
 8589WAT    EPW36163   0.934   7.284   7.453  0.0122  0.2234 -0.0834
 8590WAT      O36164   8.668   0.344   7.067 -0.6533 -0.7537  0.3640
 8590WAT     H136165   8.713   0.427   7.085  1.0453 -1.8050  1.2600
 8590WAT     H236166   8.682   0.292   7.147 -2.0166 -1.7661 -0.0280
 8590WAT    EPW36167   8.676   0.348   7.080 -0.6089 -1.0259  0.4306
 8591WAT      O36168   8.917   8.493   6.730 -0.1284  0.6641 -0.4118
 8591WAT     H136169   8.823   8.481   6.723  0.0189 -2.2140  1.3824
 8591WAT     H236170   8.928   8.556   6.801 -0.7454 -1.5270  1.7647
 8591WAT    EPW36171   8.906   8.500   6.738 -0.1907 -0.0038  0.1121
 8592WAT      O36172   7.743   9.036   7.190 -0.6508  0.6537 -0.6517
 8592WAT     H136173   7.818   9.066   7.242 -0.1229  0.8057 -1.4862
 8592WAT     H236174   7.676   9.016   7.255 -0.9853  3.4428  0.0071
 8592WAT    EPW36175   7.744   9.038   7.206 -0.6254  1.0414 -0.6750
 8593WAT      O36176  10.539   3.548   7.583 -0.0532  0.3506 -0.1343
 8593WAT     H136177  10.483   3.589   7.517 -2.8758 -0.1658  1.7610
 8593WAT     H236178  10.599   3.493   7.532 -1.8021  0.3138 -2.2953
 8593WAT    EPW36179  10.540   3.546   7.568 -0.6561  0.2776 -0.1698
 8594WAT      O36180   4.523   1.435   4.035  0.1791 -0.6760 -0.0842
 8594WAT     H136181   4.499   1.374   3.965 -3.3906  1.0067 -0.5079
 8594WAT     H236182   4.458   1.505   4.030  1.6276  1.0926  3.0105
 8594WAT    EPW36183   4.511   1.436   4.025 -0.1009 -0.2208  0.2680
 8595WAT      O36184   3.868   1.171   3.866  0.7215 -0.0926  0.2830
 8595WAT     H136185   3.897   1.261   3.849  0.9240 -0.1564  0.2850
 8595WAT     H236186   3.936   1.117   3.826  0.7452 -0.2437  0.5243
 8595WAT    EPW36187   3.881   1.176   3.859  0.7513 -0.1209  0.3151
 8596WAT      O36188  10.179   1.126   7.941 -0.3132  0.5017  0.8776
 8596WAT     H136189  10.173   1.033   7.961 -1.5053  0.4958  0.5915
 8596WAT     H236190  10.207   1.167   8.023  0.6663 -0.1441  0.8758
 8596WAT    EPW36191  10.182   1.119   7.955 -0.3409  0.4157  0.8397
 8597WAT      O36192   9.735   6.964   7.403 -0.6044  0.0584 -0.0095
 8597WAT     H136193   9.722   7.058   7.413 -0.0072  0.5407 -2.8677
 8597WAT     H236194   9.825   6.956   7.371 -0.4004 -1.5886  0.8741
 8597WAT    EPW36195   9.745   6.975   7.400 -0.4983 -0.0951 -0.2699
 8598WAT      O36196   1.660   9.343   4.958  0.1226 -0.5849  0.0487
 8598WAT     H136197   1.586   9.351   5.019 -0.2467  1.8870 -0.5986
 8598WAT     H236198   1.619   9.344   4.872  0.8783  1.1533 -0.3297
 8598WAT    EPW36199   1.645   9.344   4.955  0.1735 -0.0305 -0.0868
 8599WAT      O36200   9.081   8.085   5.660  0.1251 -0.5868  0.4016
 8599WAT     H136201   9.162   8.133   5.643 -0.0104 -0.1396  1.0029
 8599WAT     H236202   9.106   8.015   5.719  0.0079 -0.2188  0.8930
 8599WAT    EPW36203   9.095   8.082   5.665  0.0916 -0.4797  0.5460
 8600WAT      O36204   0.456   0.416   6.292  0.3593  0.0535  0.0240
 8600WAT     H136205   0.532   0.443   6.240  1.2554 -1.3543  0.5614
 8600WAT     H236206   0.454   0.478   6.365  0.9385  0.1497 -0.0351
 8600WAT    EPW36207   0.465   0.428   6.295  0.5539 -0.1195  0.0868
 8601WAT      O36208   1.106   9.432   2.800 -0.7682  0.3863 -0.5395
 8601WAT     H136209   1.144   9.517   2.820  0.5982 -0.3353  0.0719
 8601WAT     H236210   1.160   9.397   2.729 -0.2691 -0.6287  0.3014
 8601WAT    EPW36211   1.118   9.439   2.793 -0.5221  0.1569 -0.3482
 8602WAT      O36212   8.436   9.361   8.225  0.2070  0.3740 -0.0742
 8602WAT     H136213   8.483   9.339   8.144  0.7645  2.4363 -0.3592
 8602WAT     H236214   8.366   9.420   8.197  0.6504  1.4340  0.9606
 8602WAT    EPW36215   8.433   9.366   8.211  0.3395  0.7854  0.0243
 8603WAT      O36216  10.097   9.482   7.783 -0.3101 -0.0248 -0.3251
 8603WAT     H136217  10.125   9.458   7.871  0.7129 -2.4906 -1.2220
 8603WAT     H236218  10.011   9.440   7.773  0.4973 -1.5875 -1.1453
 8603WAT    EPW36219  10.090   9.473   7.793 -0.0687 -0.5569 -0.5515
 8604WAT      O36220   4.269   7.724   2.490  0.1380 -0.4733 -0.0122
 8604WAT     H136221   4.236   7.793   2.548 -0.4075 -0.6842 -0.0596
 8604WAT     H236222   4.337   7.767   2.438  0.3446 -0.1788  0.5023
 8604WAT    EPW36223   4.273   7.739   2.491  0.0932 -0.4625  0.0495
 8605WAT      O36224   9.249   7.359   5.920  0.6123 -0.0379  0.2640
 8605WAT     H136225   9.194   7.407   5.858  0.2330 -1.8238 -0.8547
 8605WAT     H236226   9.210   7.272   5.924  1.6223 -0.4506  1.7639
 8605WAT    EPW36227   9.237   7.354   5.912  0.6952 -0.3281  0.3142
 8606WAT      O36228   8.045   8.901   4.156 -0.5554 -0.7799 -0.3930
 8606WAT     H136229   8.042   8.845   4.233 -0.5259 -2.5805 -1.6221
 8606WAT     H236230   8.025   8.989   4.188 -1.4072 -1.6216  1.5107
 8606WAT    EPW36231   8.042   8.905   4.170 -0.6642 -1.1287 -0.3037
 8607WAT      O36232   4.363   1.421   8.279  0.1089 -0.2094  0.0247
 8607WAT     H136233   4.449   1.445   8.314  1.4787 -0.9120 -2.6025
 8607WAT     H236234   4.317   1.505   8.268  1.8745  0.5749 -1.8711
 8607WAT    EPW36235   4.368   1.435   8.282  0.5226 -0.1985 -0.5713
 8608WAT      O36236   8.670   8.569   8.717  0.0053  0.4291  0.8067
 8608WAT     H136237   8.625   8.567   8.633  0.5162 -0.8688  0.5287
 8608WAT     H236238   8.617   8.627   8.772  0.1028  1.9593 -0.6294
 8608WAT    EPW36239   8.657   8.576   8.713  0.0854  0.4597  0.5803
 8609WAT      O36240   8.523   8.226   5.457 -0.5652  0.0266 -0.4365
 8609WAT     H136241   8.605   8.185   5.483 -1.1110  0.4626  2.3959
 8609WAT     H236242   8.458   8.156   5.463 -0.6634  0.0702 -0.9800
 8609WAT    EPW36243   8.525   8.212   5.462 -0.6499  0.0896 -0.1347
 8610WAT      O36244   0.140   9.768   6.107  0.2530  0.0554  0.5155
 8610WAT     H136245   0.232   9.761   6.084  0.0535  1.0457 -0.6441
 8610WAT     H236246   0.117   9.680   6.138  0.7257 -1.2801 -2.5088
 8610WAT    EPW36247   0.149   9.755   6.108  0.2890  0.0095 -0.0365
 8611WAT      O36248   9.897   2.848   5.791 -0.2721  0.1647  0.5603
 8611WAT     H136249   9.806   2.850   5.823 -0.6567  0.9283 -0.5305
 8611WAT     H236250   9.941   2.787   5.850 -0.9979  1.3083  2.3877
 8611WAT    EPW36251   9.891   2.840   5.803 -0.4191  0.4163  0.6571
 8612WAT      O36252   5.422   7.850   0.158 -0.4400 -0.0388 -0.2490
 8612WAT     H136253   5.405   7.869   0.251 -0.1351 -2.5972  0.3981
 8612WAT     H236254   5.376   7.768   0.142  1.0840 -0.6230 -1.8675
 8612WAT    EPW36255   5.414   7.842   0.168 -0.1991 -0.4532 -0.3771
 8613WAT      O36256   3.113   0.335   7.397  0.3458  0.0775 -0.4310
 8613WAT     H136257   3.199   0.374   7.382  0.2616 -0.4317 -2.6572
 8613WAT     H236258   3.051   0.402   7.368  0.0614 -0.2295 -0.5452
 8613WAT    EPW36259   3.116   0.349   7.391  0.2972 -0.0301 -0.7396
 8614WAT      O36260   7.756   3.463   0.827 -0.2793 -0.2177  0.4208
 8614WAT     H136261   7.686   3.514   0.868  0.6470  0.0268  1.7565
 8614WAT     H236262   7.724   3.446   0.739 -0.5579  2.8911 -0.2189
 8614WAT    EPW36263   7.743   3.468   0.821 -0.1938  0.2245  0.5126
 8615WAT      O36264   1.266   0.320   4.515 -0.0604  0.1705  0.0563
 8615WAT     H136265   1.338   0.325   4.577 -0.3729 -0.5097  0.4917
 8615WAT     H236266   1.295   0.370   4.439  0.5955  0.4511  0.4893
 8615WAT    EPW36267   1.279   0.327   4.513 -0.0151  0.1177  0.1707
 8616WAT      O36268   2.407   0.834   2.710  0.3544 -0.3587 -0.6035
 8616WAT     H136269   2.325   0.876   2.737  1.1406  1.1466 -0.4812
 8616WAT     H236270   2.439   0.791   2.789 -0.8458 -1.9194 -0.9166
 8616WAT    EPW36271   2.400   0.834   2.724  0.2998 -0.3660 -0.6288
 8617WAT      O36272   2.268   0.200   4.719 -0.5381 -0.3268 -0.0134
 8617WAT     H136273   2.212   0.233   4.649  2.1659  0.3154 -2.0462
 8617WAT     H236274   2.273   0.272   4.782 -2.7269 -0.7882  0.7615
 8617WAT    EPW36275   2.261   0.214   4.718 -0.4702 -0.3030 -0.1793
 8618WAT      O36276   2.418   0.209   6.699 -0.0521  0.1096 -0.3518
 8618WAT     H136277   2.478   0.160   6.755 -1.6933 -1.2041  0.3495
 8618WAT     H236278   2.331   0.181   6.727 -1.1301  3.5952  0.2254
 8618WAT    EPW36279   2.414   0.199   6.710 -0.4107  0.3960 -0.1829
 8619WAT      O36280   4.411   5.750   0.534  0.6025 -0.0909  0.4435
 8619WAT     H136281   4.494   5.780   0.572  0.2733 -0.0296  1.1326
 8619WAT     H236282   4.428   5.659   0.509  0.7472 -0.2205  1.0010
 8619WAT    EPW36283   4.424   5.742   0.536  0.5782 -0.0999  0.6079
 8620WAT      O36284   0.553   0.177   7.674 -0.1031  0.4544 -0.6651
 8620WAT     H136285   0.489   0.246   7.656 -0.6156 -0.1602 -1.2159
 8620WAT     H236286   0.628   0.224   7.710 -0.6545  1.2431 -0.5030
 8620WAT    EPW36287   0.554   0.192   7.676 -0.2434  0.4773 -0.7162
 8621WAT      O36288   6.206   0.497   7.809  0.3556  0.1153 -0.2022
 8621WAT     H136289   6.231   0.589   7.820  1.8545 -0.1412 -1.2094
 8621WAT     H236290   6.272   0.449   7.859  1.1388 -0.5192 -1.7910
 8621WAT    EPW36291   6.218   0.503   7.817  0.6566 -0.0022 -0.5445
 8622WAT      O36292   6.031   6.088   0.829  0.5216  0.1435  0.3490
 8622WAT     H136293   6.078   6.008   0.852  0.1721 -0.2966 -0.4295
 8622WAT     H236294   5.962   6.059   0.769 -1.5840  0.6056  2.4257
 8622WAT    EPW36295   6.028   6.074   0.824  0.1976  0.1464  0.5203
 8623WAT      O36296   9.580   7.909   5.877 -1.2932  0.4864  0.3450
 8623WAT     H136297   9.587   7.814   5.892  2.2452  0.5775  0.0672
 8623WAT     H236298   9.519   7.917   5.804  0.2310 -1.8595 -1.3577
 8623WAT    EPW36299   9.573   7.897   5.870 -0.6256  0.1891  0.0839
 8624WAT      O36300   5.450   8.291   2.612  0.4919 -0.0169 -0.5175
 8624WAT     H136301   5.525   8.348   2.593  0.3598 -0.1911 -1.6972
 8624WAT     H236302   5.448   8.231   2.537  0.1180 -1.0229  0.2891
 8624WAT    EPW36303   5.460   8.291   2.599  0.4251 -0.1726 -0.5668
 8625WAT      O36304   7.232   7.916   7.953  0.1523 -0.0117  0.0098
 8625WAT     H136305   7.307   7.969   7.980  1.4920 -1.5198 -0.5633
 8625WAT     H236306   7.188   7.969   7.886  0.5304  1.0157  0.5504
 8625WAT    EPW36307   7.236   7.930   7.948  0.3791 -0.0749  0.0055
 8626WAT      O36308   4.283   0.376   7.010 -0.3878 -0.2689 -0.5194
 8626WAT     H136309   4.324   0.431   7.077 -1.7582 -1.1516  1.1407
 8626WAT     H236310   4.351   0.313   6.985  0.7369  1.2312 -1.3993
 8626WAT    EPW36311   4.297   0.375   7.015 -0.4201 -0.1874 -0.4165
 8627WAT      O36312   0.326   7.575   2.533  0.1887  0.5637 -0.9385
 8627WAT     H136313   0.374   7.503   2.573  1.4000  2.1665  0.6878
 8627WAT     H236314   0.245   7.536   2.500  0.7379 -1.4770  0.0257
 8627WAT    EPW36315   0.322   7.561   2.534  0.4209  0.5059 -0.5969
 8628WAT      O36316   5.355   6.277   2.329 -0.1457 -0.5779 -0.1411
 8628WAT     H136317   5.323   6.278   2.239 -0.6021  0.9633  0.0082
 8628WAT     H236318   5.364   6.184   2.350 -2.7421 -1.0780 -0.8400
 8628WAT    EPW36319   5.352   6.265   2.320 -0.5484 -0.4404 -0.2137
 8629WAT      O36320   1.679   7.822   4.501 -0.2917 -0.2338 -0.2812
 8629WAT     H136321   1.756   7.793   4.452  0.7422  2.7747 -0.6430
 8629WAT     H236322   1.712   7.843   4.588 -0.3547  2.2980 -0.8045
 8629WAT    EPW36323   1.693   7.821   4.506 -0.1636  0.4971 -0.3979
 8630WAT      O36324   3.982   0.404   4.634 -0.3899 -0.7631  0.2480
 8630WAT     H136325   3.975   0.364   4.721 -0.1172  0.3673  0.8162
 8630WAT     H236326   4.039   0.480   4.647 -1.4891  0.2514 -0.6125
 8630WAT    EPW36327   3.989   0.409   4.647 -0.4988 -0.4802  0.2096
 8631WAT      O36328   1.723   0.107   8.859  0.1429  0.9398 -0.0119
 8631WAT     H136329   1.701   0.093   8.767  0.4633  0.2656  0.0097
 8631WAT     H236330   1.730   0.019   8.896  0.8070  1.1848  0.4689
 8631WAT    EPW36331   1.721   0.093   8.852  0.2728  0.8832  0.0548
 8632WAT      O36332   5.861   1.526   6.798 -0.4444 -0.8219 -0.9630
 8632WAT     H136333   5.929   1.481   6.848 -0.9831  0.2261  0.8178
 8632WAT     H236334   5.903   1.608   6.771 -1.1067  0.1012  0.6524
 8632WAT    EPW36335   5.876   1.531   6.801 -0.6030 -0.5619 -0.5152
 8633WAT      O36336   3.799   0.736   3.660 -0.1527  0.3215  0.1089
 8633WAT     H136337   3.849   0.817   3.647  2.6688 -1.4598 -1.0040
 8633WAT     H236338   3.804   0.720   3.754 -0.4484  1.2305  0.2930
 8633WAT    EPW36339   3.806   0.745   3.671  0.1806  0.2064 -0.0137
 8634WAT      O36340  10.518  10.249   6.043 -0.7804 -0.3382 -0.0852
 8634WAT     H136341  10.569  10.263   6.123  1.4308  1.0866 -1.6173
 8634WAT     H236342  10.521  10.333   5.998 -5.6671  0.2675  0.1898
 8634WAT    EPW36343  10.526  10.262   6.048 -1.1334 -0.0701 -0.2508
 8635WAT      O36344   2.203  10.257   7.338 -0.7280 -0.4456 -0.8759
 8635WAT     H136345   2.268  10.319   7.306 -2.5975  1.7543 -0.6092
 8635WAT     H236346   2.192  10.195   7.266  1.9660 -1.2090 -0.7313
 8635WAT    EPW36347   2.210  10.257   7.324 -0.6193 -0.2565 -0.8214
 8636WAT      O36348   0.334   7.940   5.254  0.0257  0.1493 -1.4200
 8636WAT     H136349   0.417   7.900   5.278  0.4350  1.5766 -0.2888
 8636WAT     H236350   0.334   7.941   5.158  0.7527 -0.9302 -1.4467
 8636WAT    EPW36351   0.345   7.935   5.244  0.1756  0.1950 -1.2743
 8637WAT      O36352   9.011   1.645   5.982 -0.0712 -0.6360  0.1325
 8637WAT     H136353   9.090   1.619   5.936  1.1027 -1.5753  2.4869
 8637WAT     H236354   9.042   1.702   6.052 -1.8077  1.1189 -0.4213
 8637WAT    EPW36355   9.025   1.649   5.985 -0.1450 -0.5285  0.3703
 8638WAT      O36356   4.423   0.362   8.381 -0.3604  0.3305  0.1111
 8638WAT     H136357   4.368   0.399   8.313 -0.8096  1.2564  0.9625
 8638WAT     H236358   4.443   0.273   8.350 -1.7204  0.2407 -0.5499
 8638WAT    EPW36359   4.419   0.355   8.368 -0.5991  0.4408  0.1359
 8639WAT      O36360   7.554   5.916   2.405  0.9846 -0.2711 -0.6096
 8639WAT     H136361   7.614   5.868   2.348 -0.1520 -1.0911 -1.1583
 8639WAT     H236362   7.521   5.850   2.466  1.3243  0.3656  0.2901
 8639WAT    EPW36363   7.557   5.901   2.405  0.8795 -0.2954 -0.5634
 8640WAT      O36364   1.566   8.140   6.585 -0.7484 -0.2125 -0.0370
 8640WAT     H136365   1.514   8.187   6.519 -2.0372  0.7389  1.5486
 8640WAT     H236366   1.652   8.181   6.581 -0.5022 -0.8427 -1.7658
 8640WAT    EPW36367   1.570   8.152   6.576 -0.8859 -0.1707 -0.0556
 8641WAT      O36368   7.540   7.973   0.867 -0.6443  0.2069 -0.0502
 8641WAT     H136369   7.514   7.882   0.886 -1.1676  0.7556  2.1812
 8641WAT     H236370   7.531   7.981   0.773  0.8594 -2.4839 -0.5270
 8641WAT    EPW36371   7.535   7.962   0.857 -0.5152 -0.0761  0.1812
 8642WAT      O36372   9.823  10.042   6.292  0.0878 -0.3223  0.1478
 8642WAT     H136373   9.828  10.097   6.370 -1.2367  1.7270 -1.1074
 8642WAT     H236374   9.729  10.023   6.283  0.2653 -0.8050 -0.7799
 8642WAT    EPW36375   9.811  10.047   6.301 -0.0634 -0.1159 -0.1400
 8643WAT      O36376   1.858   2.818   7.592  0.0846 -0.1208 -0.2338
 8643WAT     H136377   1.944   2.860   7.590  0.2995 -0.1873  3.0610
 8643WAT     H236378   1.814   2.855   7.668 -1.9065 -1.7825 -0.4712
 8643WAT    EPW36379   1.864   2.828   7.601 -0.1496 -0.3489  0.1698
 8644WAT      O36380   2.219   2.277   8.451  0.1120  0.3361 -0.5505
 8644WAT     H136381   2.232   2.318   8.537 -0.1114 -2.1275  0.7618
 8644WAT     H236382   2.129   2.244   8.454  0.3496 -0.4232 -1.4104
 8644WAT    EPW36383   2.209   2.278   8.463  0.1138 -0.0889 -0.4907
 8645WAT      O36384   2.518   5.306   4.945  0.1775 -0.3467 -0.3592
 8645WAT     H136385   2.463   5.384   4.944  0.2883 -0.2053  1.5715
 8645WAT     H236386   2.608   5.339   4.942  0.2161 -0.3971  0.1059
 8645WAT    EPW36387   2.522   5.321   4.944  0.1971 -0.3343 -0.0432
 8646WAT      O36388   3.546   0.089   7.892 -0.0019 -0.5470  0.5211
 8646WAT     H136389   3.491   0.012   7.907 -1.5630  0.0418 -1.7631
 8646WAT     H236390   3.566   0.086   7.798 -2.1084  3.0354 -0.2151
 8646WAT    EPW36391   3.542   0.078   7.882 -0.4855  0.0031  0.1225
 8647WAT      O36392   6.546   3.221   0.773 -0.7548 -0.1681  0.5706
 8647WAT     H136393   6.588   3.170   0.703 -0.0868 -0.4940  1.2026
 8647WAT     H236394   6.535   3.159   0.845  0.9660  0.7911  1.7222
 8647WAT    EPW36395   6.550   3.206   0.773 -0.4396 -0.0846  0.8059
 8648WAT      O36396   5.401   5.018   1.543  0.0085  0.4315  0.5507
 8648WAT     H136397   5.392   5.090   1.480 -1.1852 -0.7508 -0.6785
 8648WAT     H236398   5.370   5.055   1.626 -0.3114  1.4169  0.0075
 8648WAT    EPW36399   5.396   5.033   1.546 -0.1910  0.4055  0.3169
 8649WAT      O36400   4.447   0.029   5.961 -0.4540 -0.0952 -0.3900
 8649WAT     H136401   4.359   0.063   5.944  0.3269  0.2978 -4.8278
 8649WAT     H236402   4.439  -0.066   5.945 -0.5467 -0.5850  2.1120
 8649WAT    EPW36403   4.434   0.021   5.957 -0.3631 -0.1080 -0.6454
 8650WAT      O36404   7.660   4.626   1.502  0.7012  0.4136  0.4319
 8650WAT     H136405   7.691   4.546   1.545  0.3898 -0.5833 -1.0813
 8650WAT     H236406   7.622   4.678   1.572 -3.3849 -2.8189  1.0281
 8650WAT    EPW36407   7.659   4.622   1.517  0.1211 -0.1442  0.3109
 8651WAT      O36408  10.294   9.591   7.398 -0.5857  0.7723 -0.4006
 8651WAT     H136409  10.380   9.582   7.358  0.4425  1.5664  1.5121
 8651WAT     H236410  10.249   9.656   7.344  0.7386  1.8003 -0.3144
 8651WAT    EPW36411  10.299   9.598   7.385 -0.2756  1.0123 -0.1371
 8652WAT      O36412   6.336   6.869   7.360  0.2103 -0.0734 -0.1579
 8652WAT     H136413   6.287   6.787   7.365 -0.1580  0.0982 -0.8827
 8652WAT     H236414   6.281   6.927   7.308  0.7461  0.4386 -0.1683
 8652WAT    EPW36415   6.322   6.866   7.354  0.2325  0.0167 -0.2546
 8653WAT      O36416   9.050  10.182   6.819 -0.3859  0.1108 -0.2975
 8653WAT     H136417   9.027  10.179   6.912  0.2815  2.1146 -0.0241
 8653WAT     H236418   9.118  10.116   6.809 -0.5359 -0.1982  0.6134
 8653WAT    EPW36419   9.056  10.173   6.830 -0.3185  0.3338 -0.1414
 8654WAT      O36420   0.343   9.451   5.613  0.1446  0.3183  0.7411
 8654WAT     H136421   0.390   9.514   5.559 -2.1889 -0.6063 -2.6936
 8654WAT     H236422   0.295   9.396   5.551 -3.0531 -0.7259  3.7599
 8654WAT    EPW36423   0.343   9.452   5.598 -0.5849  0.0582  0.6862
 8655WAT      O36424   8.033   8.869   6.666 -0.8469 -0.8715 -0.3062
 8655WAT     H136425   8.005   8.911   6.585 -2.2688 -2.1733 -0.5117
 8655WAT     H236426   8.038   8.941   6.729 -1.4783 -0.1160 -1.0994
 8655WAT    EPW36427   8.030   8.884   6.664 -1.1182 -0.9437 -0.4380
 8656WAT      O36428   9.845  10.008   4.492 -0.0609  0.1136  0.5827
 8656WAT     H136429   9.802   9.923   4.496 -0.5492  0.3435  0.3890
 8656WAT     H236430   9.936   9.988   4.472  0.1367 -0.4351  1.9003
 8656WAT    EPW36431   9.851   9.994   4.490 -0.0997  0.0710  0.7312
 8657WAT      O36432   7.788   4.859   0.795  0.2950 -0.1003  0.3257
 8657WAT     H136433   7.777   4.925   0.726 -3.3449  2.0701  2.6404
 8657WAT     H236434   7.852   4.897   0.855  0.3514 -0.0370  0.2259
 8657WAT    EPW36435   7.795   4.873   0.794 -0.1774  0.1943  0.6178
 8658WAT      O36436   2.261   3.923   6.945 -0.1726  0.7306 -0.5273
 8658WAT     H136437   2.335   3.938   7.003  0.5565  1.4581 -1.6118
 8658WAT     H236438   2.246   4.008   6.903 -0.3399  0.1107 -1.7820
 8658WAT    EPW36439   2.268   3.936   6.947 -0.0985  0.7448 -0.8359
 8659WAT      O36440   0.013   0.192   7.409  0.5001  0.0573  0.3476
 8659WAT     H136441   0.077   0.121   7.400  0.4403 -0.2132  1.8605
 8659WAT     H236442  -0.011   0.192   7.501 -0.0848  1.5575  0.2318
 8659WAT    EPW36443   0.018   0.183   7.420  0.4148  0.2195  0.5319
 8660WAT      O36444   3.513   2.537   7.250  0.0799 -0.2544  0.3013
 8660WAT     H136445   3.514   2.602   7.320  1.0926 -0.0416  0.0997
 8660WAT     H236446   3.433   2.557   7.200  0.6733  1.2200 -0.1019
 8660WAT    EPW36447   3.502   2.548   7.252  0.2918 -0.0319  0.2217
 8661WAT      O36448   7.415   3.552   0.451  0.0395 -0.4327  0.1002
 8661WAT     H136449   7.356   3.576   0.523 -1.9424  1.3465 -1.9507
 8661WAT     H236450   7.360   3.499   0.393  1.7737 -2.3650  0.1440
 8661WAT    EPW36451   7.400   3.548   0.453  0.0067 -0.4528 -0.1645
 8662WAT      O36452   6.226   9.964   7.015  0.0609  0.3540 -0.1499
 8662WAT     H136453   6.187   9.991   7.098  0.0607 -2.2806  0.8122
 8662WAT     H236454   6.316   9.940   7.039 -0.1939 -1.2281 -0.7198
 8662WAT    EPW36455   6.233   9.965   7.029  0.0274 -0.2017 -0.0982
 8663WAT      O36456   6.463   0.295   5.373  0.0749  0.6172  0.5526
 8663WAT     H136457   6.399   0.227   5.396  2.1192 -1.6022  0.0280
 8663WAT     H236458   6.548   0.257   5.395  1.4749  2.0987 -1.8614
 8663WAT    EPW36459   6.465   0.281   5.379  0.5293  0.5199  0.1650
 8664WAT      O36460   5.442   0.520   5.617 -0.9700 -0.1573  0.2350
 8664WAT     H136461   5.532   0.531   5.587 -0.2182 -0.1892  2.2767
 8664WAT     H236462   5.388   0.531   5.539  0.8279 -0.6547 -1.1323
 8664WAT    EPW36463   5.447   0.523   5.603 -0.6340 -0.2271  0.3240
 8665WAT      O36464   3.210   4.056   2.707 -0.5212 -0.1039  0.1418
 8665WAT     H136465   3.269   3.983   2.728 -1.4889 -1.4408 -1.5401
 8665WAT     H236466   3.176   4.034   2.621 -1.9923  1.6257  0.2487
 8665WAT    EPW36467   3.214   4.043   2.699 -0.8429 -0.0522 -0.0659
 8666WAT      O36468   8.470   9.565   6.000 -0.3817  0.4169  0.6325
 8666WAT     H136469   8.433   9.571   6.088  0.5084  0.3476  1.0150
 8666WAT     H236470   8.550   9.514   6.010  0.9900  2.3452  0.2184
 8666WAT    EPW36471   8.476   9.559   6.013 -0.0830  0.6623  0.6285
 8667WAT      O36472   9.934   8.825   7.417 -0.0873 -0.0921  0.0215
 8667WAT     H136473   9.900   8.914   7.405 -0.0968 -0.0376  0.4304
 8667WAT     H236474  10.029   8.836   7.416 -0.0110  0.3947  3.1004
 8667WAT    EPW36475   9.942   8.838   7.415 -0.0787 -0.0210  0.4816
 8668WAT      O36476   5.276   0.853   5.500 -0.5838 -0.0177  0.3474
 8668WAT     H136477   5.266   0.762   5.473 -1.4698  1.0127 -3.4383
 8668WAT     H236478   5.365   0.876   5.474 -0.2173  0.1132  1.6785
 8668WAT    EPW36479   5.287   0.844   5.493 -0.6523  0.1355  0.0234
 8669WAT      O36480   5.924   6.146   0.178  0.2525 -0.0053 -0.4625
 8669WAT     H136481   6.004   6.094   0.170 -0.4257 -1.2821  0.6366
 8669WAT     H236482   5.910   6.155   0.272 -1.2543 -0.3946 -0.6258
 8669WAT    EPW36483   5.932   6.140   0.189 -0.0358 -0.2253 -0.3391
 8670WAT      O36484   3.644   6.667   0.515 -0.3125  0.3583  0.1353
 8670WAT     H136485   3.718   6.606   0.510 -0.3318  0.3121  0.4047
 8670WAT     H236486   3.622   6.670   0.608  0.6157  1.8671  0.3451
 8670WAT    EPW36487   3.651   6.660   0.527 -0.1926  0.5512  0.1985
 8671WAT      O36488   1.319   3.794   7.212 -0.1703 -0.2345 -0.9741
 8671WAT     H136489   1.256   3.843   7.158  0.0288  0.3452 -0.6950
 8671WAT     H236490   1.368   3.741   7.150  0.0112  0.3724 -1.3640
 8671WAT    EPW36491   1.317   3.794   7.197 -0.1202 -0.0778 -0.9890
 8672WAT      O36492  10.557   8.571   6.292  0.3190 -0.1583 -0.3677
 8672WAT     H136493  10.636   8.621   6.273 -0.5800  1.2411 -0.5937
 8672WAT     H236494  10.533   8.596   6.380  1.8720 -3.0815  1.0506
 8672WAT    EPW36495  10.564   8.581   6.301  0.4053 -0.3595 -0.2105
 8673WAT      O36496   0.923   0.782   5.297 -0.2257 -0.3186 -0.3530
 8673WAT     H136497   0.983   0.794   5.370  1.1524  0.8175 -1.5969
 8673WAT     H236498   0.840   0.818   5.327  0.4495  0.5911  0.4713
 8673WAT    EPW36499   0.920   0.788   5.310  0.0451 -0.0488 -0.4082
 8674WAT      O36500   8.986   9.795   5.165 -0.1027  0.3741  0.3701
 8674WAT     H136501   9.016   9.785   5.075 -2.3600 -0.2632 -0.3932
 8674WAT     H236502   8.904   9.746   5.168  1.0292 -1.5693  3.4329
 8674WAT    EPW36503   8.979   9.787   5.153 -0.2508  0.0334  0.6735
 8675WAT      O36504   2.992   0.345   6.460 -0.3638 -0.8538  0.1846
 8675WAT     H136505   2.921   0.406   6.483 -0.8741 -2.1054  2.2020
 8675WAT     H236506   3.071   0.399   6.465 -0.8228 -0.2489  1.7519
 8675WAT    EPW36507   2.993   0.360   6.464 -0.4915 -0.9391  0.6573
 8676WAT      O36508   9.784   6.868   6.189 -0.4059 -0.5547 -0.1587
 8676WAT     H136509   9.857   6.924   6.214 -1.2348  0.3972  0.1912
 8676WAT     H236510   9.738   6.849   6.271 -1.2868 -0.0806 -0.5312
 8676WAT    EPW36511   9.787   6.873   6.203 -0.6318 -0.3667 -0.1616
 8677WAT      O36512   2.378   0.886   7.418 -0.4415  0.6609  0.1545
 8677WAT     H136513   2.290   0.904   7.452  0.2329  2.5619  1.0474
 8677WAT     H236514   2.414   0.820   7.476 -1.7051 -1.1411 -1.0064
 8677WAT    EPW36515   2.371   0.880   7.430 -0.5193  0.6739  0.1190
 8678WAT      O36516   1.283   1.289   3.674  0.7203 -0.0507 -0.5605
 8678WAT     H136517   1.317   1.288   3.764  2.5042 -0.1970 -1.1807
 8678WAT     H236518   1.252   1.200   3.659 -0.3431  0.1804  0.1486
 8678WAT    EPW36519   1.284   1.277   3.684  0.8154 -0.0395 -0.5487
 8679WAT      O36520   7.542   7.709   0.497  0.1821 -0.3327 -0.0669
 8679WAT     H136521   7.466   7.656   0.521  0.2935  0.9361  3.8692
 8679WAT     H236522   7.616   7.663   0.537  0.5645  1.4975  1.4797
 8679WAT    EPW36523   7.542   7.696   0.505  0.2472  0.0758  0.6562
 8680WAT      O36524   8.756   8.903   6.087 -0.2878 -0.4485 -0.2550
 8680WAT     H136525   8.794   8.858   6.162 -0.2083  2.0890  1.3353
 8680WAT     H236526   8.791   8.857   6.011  3.0242 -0.5469  1.1853
 8680WAT    EPW36527   8.766   8.891   6.086  0.1597 -0.1268  0.1447
 8681WAT      O36528   5.833   4.447   3.123  0.7675  0.0652 -0.6587
 8681WAT     H136529   5.860   4.456   3.031  0.5826  0.7740 -0.6506
 8681WAT     H236530   5.815   4.537   3.151  1.8948 -0.0377  0.4154
 8681WAT    EPW36531   5.834   4.460   3.114  0.8919  0.1452 -0.5161
 8682WAT      O36532   2.873   4.418   5.102 -0.0233  0.2836  0.1135
 8682WAT     H136533   2.919   4.478   5.160 -3.8572  2.8662  0.8407
 8682WAT     H236534   2.841   4.348   5.160 -0.8316  0.9407  0.4692
 8682WAT    EPW36535   2.875   4.416   5.117 -0.6355  0.7110  0.2565
 8683WAT      O36536   7.773   8.706   8.174  0.0384  0.7695 -0.7650
 8683WAT     H136537   7.735   8.787   8.140 -1.7929  1.3666  2.3161
 8683WAT     H236538   7.862   8.730   8.198 -1.0891  2.5926  2.0191
 8683WAT    EPW36539   7.780   8.720   8.172 -0.3519  1.0891  0.0086
 8684WAT      O36540   8.595   8.414   5.179 -0.4325  0.1477  0.0565
 8684WAT     H136541   8.581   8.320   5.168  0.3482  0.2656 -2.6836
 8684WAT     H236542   8.658   8.437   5.111  0.9393  2.3352  1.9240
 8684WAT    EPW36543   8.601   8.405   5.169 -0.1488  0.4520 -0.0584
 8685WAT      O36544  10.553   2.070   7.056 -0.5912  0.2193 -0.8310
 8685WAT     H136545  10.535   2.129   7.130  0.8434  0.0418 -0.2989
 8685WAT     H236546  10.528   2.120   6.979 -3.2638 -0.0336 -0.2170
 8685WAT    EPW36547  10.547   2.085   7.056 -0.7539  0.1625 -0.6800
 8686WAT      O36548   8.646  10.096   3.551  0.2508 -0.0157 -0.3967
 8686WAT     H136549   8.714  10.051   3.601  0.7643  1.1553 -0.0055
 8686WAT     H236550   8.680  10.101   3.462  2.1147  3.1439  0.3373
 8686WAT    EPW36551   8.659  10.091   3.546  0.5636  0.5555 -0.2483
 8687WAT      O36552   6.956   4.115   1.244  0.2469 -0.6625 -0.8577
 8687WAT     H136553   6.893   4.187   1.239 -1.0844 -1.7965 -1.0131
 8687WAT     H236554   6.984   4.113   1.336 -0.5165 -0.6031 -0.6209
 8687WAT    EPW36555   6.952   4.124   1.256 -0.0293 -0.8042 -0.8469
 8688WAT      O36556  10.763   8.617   7.509  0.4038 -0.0424 -0.2656
 8688WAT     H136557  10.731   8.707   7.519  0.3271 -0.0642 -0.3100
 8688WAT     H236558  10.858   8.624   7.512  0.4247  0.1585 -1.2634
 8688WAT    EPW36559  10.771   8.630   7.511  0.3967 -0.0191 -0.4029
 8689WAT      O36560  10.040   6.717   8.063  0.4338  0.1421 -0.0638
 8689WAT     H136561   9.944   6.711   8.062  0.4391 -0.0389 -1.6622
 8689WAT     H236562  10.057   6.811   8.056  0.3627  0.0989 -0.8989
 8689WAT    EPW36563  10.029   6.729   8.062  0.4249  0.1123 -0.3848
 8690WAT      O36564   2.129   8.963   4.982  0.2879 -0.3527  0.4437
 8690WAT     H136565   2.181   9.036   5.014  1.6319  0.0840 -2.3935
 8690WAT     H236566   2.051   9.004   4.945 -0.8251 -0.7664  2.2260
 8690WAT    EPW36567   2.126   8.978   4.981  0.3183 -0.3495  0.3045
 8691WAT      O36568   3.833   0.547   5.665 -0.4072 -0.3705  0.0923
 8691WAT     H136569   3.908   0.488   5.675  0.5546  0.6790 -0.7102
 8691WAT     H236570   3.802   0.529   5.576 -1.5965 -1.3258  0.6755
 8691WAT    EPW36571   3.839   0.537   5.654 -0.4374 -0.3581  0.0634
 8692WAT      O36572   4.493   2.096   3.351  0.5137 -0.0462 -0.0937
 8692WAT     H136573   4.523   2.011   3.318 -0.9216 -0.3646 -0.6595
 8692WAT     H236574   4.444   2.075   3.431 -0.9255  0.0576 -0.9015
 8692WAT    EPW36575   4.490   2.082   3.357  0.1345 -0.0746 -0.2749
 8693WAT      O36576   5.004   0.492   7.351  0.3338 -0.3489  0.0856
 8693WAT     H136577   4.914   0.522   7.360  0.4342  0.0648 -0.2238
 8693WAT     H236578   5.016   0.429   7.422  0.0210  0.1216  0.5671
 8693WAT    EPW36579   4.994   0.488   7.361  0.3057 -0.2323  0.1085
 8694WAT      O36580   5.499   3.767   0.700  0.1101  0.7221  0.4486
 8694WAT     H136581   5.544   3.851   0.701  0.1810  0.7201 -0.6239
 8694WAT     H236582   5.543   3.718   0.630 -0.8941  0.3562  0.0486
 8694WAT    EPW36583   5.511   3.771   0.691 -0.0129  0.6735  0.2543
 8695WAT      O36584  10.914   7.459   3.565 -1.7334 -0.6632 -0.2113
 8695WAT     H136585  10.951   7.410   3.492 -1.3528 -1.3013  0.4051
 8695WAT     H236586  10.827   7.485   3.534 -1.3636 -0.4435 -1.0950
 8695WAT    EPW36587  10.907   7.456   3.551 -1.6341 -0.7181 -0.2465
 8696WAT      O36588   0.255   8.609   6.437  0.7861  0.3528  0.3380
 8696WAT     H136589   0.292   8.664   6.506  0.8609 -0.5927  1.0687
 8696WAT     H236590   0.329   8.589   6.379  0.5512  1.8774 -0.5548
 8696WAT    EPW36591   0.270   8.614   6.438  0.7650  0.4292  0.3166
 8697WAT      O36592   6.819   7.781   8.321 -0.6711  0.5286 -0.3705
 8697WAT     H136593   6.805   7.860   8.268 -4.7361  0.5560  0.4540
 8697WAT     H236594   6.804   7.809   8.411  1.1880 -0.5742  0.3354
 8697WAT    EPW36595   6.815   7.796   8.326 -0.9623  0.3870 -0.1683
 8698WAT      O36596  10.802   7.903   6.661 -0.1006  0.0275  0.3722
 8698WAT     H136597  10.804   7.872   6.752  2.6125  0.8842  0.6653
 8698WAT     H236598  10.769   7.827   6.612 -2.3728 -0.2197  2.0684
 8698WAT    EPW36599  10.798   7.889   6.667 -0.0429  0.1080  0.6344
 8699WAT      O36600  10.489   8.466   5.131 -0.5967 -0.3484 -0.0025
 8699WAT     H136601  10.450   8.472   5.044 -0.5861  1.1777  0.0687
 8699WAT     H236602  10.448   8.537   5.180  1.8040  0.9723  0.2348
 8699WAT    EPW36603  10.478   8.476   5.126 -0.2785  0.0272  0.0384
 8700WAT      O36604   7.379   6.682   2.574 -0.2814  0.6423  0.5739
 8700WAT     H136605   7.456   6.625   2.577  0.5516  1.5490 -1.5385
 8700WAT     H236606   7.389   6.731   2.492 -2.3502  1.8758  0.9949
 8700WAT    EPW36607   7.391   6.681   2.564 -0.4449  0.9246  0.3508
 8701WAT      O36608   9.731   8.775   8.239  0.3915 -0.4929 -0.1991
 8701WAT     H136609   9.657   8.731   8.281  0.4770 -1.9176 -1.4533
 8701WAT     H236610   9.704   8.787   8.148  1.0156  0.6435 -0.2650
 8701WAT    EPW36611   9.718   8.771   8.232  0.4845 -0.5307 -0.3729
 8702WAT      O36612   7.006   9.218   7.886 -0.1081  0.4131  0.2702
 8702WAT     H136613   6.933   9.159   7.904 -0.5627  0.4963 -1.1995
 8702WAT     H236614   7.082   9.160   7.874 -1.0042 -0.2177 -3.6612
 8702WAT    EPW36615   7.007   9.203   7.887 -0.2863  0.3405 -0.4423
 8703WAT      O36616   7.260   9.715   6.779  0.4568 -0.4838  0.4457
 8703WAT     H136617   7.245   9.685   6.869 -3.0028  2.1034  0.9526
 8703WAT     H236618   7.218   9.648   6.725 -3.0937  0.8398  1.2781
 8703WAT    EPW36619   7.252   9.702   6.784 -0.4675  0.0319  0.6220
 8704WAT      O36620   1.426   9.308   8.405 -0.1268 -0.3150 -0.7348
 8704WAT     H136621   1.421   9.213   8.392 -1.6367 -0.0082 -2.8628
 8704WAT     H236622   1.456   9.342   8.321  1.9533  1.0437  0.4659
 8704WAT    EPW36623   1.429   9.300   8.392 -0.0516 -0.0958 -0.8569
 8705WAT      O36624   5.901   6.180   0.449 -0.1002 -0.0075  0.3486
 8705WAT     H136625   5.856   6.123   0.512 -1.1664 -1.4001 -1.5389
 8705WAT     H236626   5.988   6.194   0.486 -0.6450 -0.8635  2.0499
 8705WAT    EPW36627   5.906   6.175   0.462 -0.3128 -0.3040  0.3241
 8706WAT      O36628   3.438   0.435   8.657 -0.9246 -0.1857 -0.7476
 8706WAT     H136629   3.394   0.515   8.685 -1.8113 -0.3751 -1.5485
 8706WAT     H236630   3.371   0.387   8.607 -1.0125 -2.2772  1.2263
 8706WAT    EPW36631   3.423   0.439   8.654 -1.0531 -0.4866 -0.5927
 8707WAT      O36632   9.873   7.544   5.414 -0.3152  0.4478  0.2559
 8707WAT     H136633   9.963   7.513   5.399 -0.1615  0.8234  0.3798
 8707WAT     H236634   9.831   7.536   5.329 -0.3532 -0.3177  0.3362
 8707WAT    EPW36635   9.880   7.539   5.401 -0.2995  0.3963  0.2830
 8708WAT      O36636   8.771   9.027   6.693  0.6097 -0.1309  0.4812
 8708WAT     H136637   8.826   9.089   6.646  0.0617  0.3675  0.4899
 8708WAT     H236638   8.681   9.053   6.672  0.3633 -1.3948 -0.1616
 8708WAT    EPW36639   8.766   9.038   6.684  0.5054 -0.2317  0.3974
 8709WAT      O36640   8.919   6.063   1.577 -0.1519  0.2531 -1.4972
 8709WAT     H136641   8.832   6.103   1.567  0.5714  2.6291  0.6860
 8709WAT     H236642   8.929   6.052   1.672  1.5021 -1.0591 -1.7871
 8709WAT    EPW36643   8.909   6.067   1.588  0.1616  0.3934 -1.2475
 8710WAT      O36644   4.904   1.917   3.911  0.1892 -0.5868  0.4719
 8710WAT     H136645   4.946   1.901   3.996  0.4737 -1.0581  0.2466
 8710WAT     H236646   4.820   1.872   3.917  0.0872 -0.3788  0.6072
 8710WAT    EPW36647   4.899   1.909   3.923  0.2136 -0.6215  0.4601
 8711WAT      O36648   7.639   9.638   6.157 -0.4825 -0.0690  0.2735
 8711WAT     H136649   7.668   9.707   6.218  0.9541  0.3320 -0.8142
 8711WAT     H236650   7.576   9.586   6.208 -1.2875  1.7809  1.2587
 8711WAT    EPW36651   7.634   9.640   6.172 -0.3994  0.2284  0.2601
 8712WAT      O36652   2.033   1.015   7.842  0.4136 -0.5285 -0.1710
 8712WAT     H136653   2.034   1.049   7.932  0.4752 -0.3483 -0.2388
 8712WAT     H236654   2.120   0.976   7.831  1.0783  1.0017 -0.7326
 8712WAT    EPW36655   2.045   1.015   7.853  0.5091 -0.3029 -0.2537
 8713WAT      O36656   6.630   8.361   7.327  0.4633 -0.2462  0.1980
 8713WAT     H136657   6.538   8.353   7.303  0.2617  0.9457  0.4925
 8713WAT     H236658   6.651   8.278   7.370 -0.5784 -0.3811  0.4696
 8713WAT    EPW36659   6.621   8.349   7.329  0.2995 -0.1063  0.2728
 8714WAT      O36660   4.599   6.183   2.003  0.7227 -0.2234  0.5789
 8714WAT     H136661   4.514   6.153   1.972  0.5804  0.0127  0.7401
 8714WAT     H236662   4.613   6.266   1.957  2.1045 -1.5546 -1.5729
 8714WAT    EPW36663   4.590   6.190   1.993  0.8862 -0.3679  0.3163
 8715WAT      O36664   4.459   0.610   2.230 -0.1830  0.5520 -0.4367
 8715WAT     H136665   4.436   0.557   2.306 -0.7568  0.7487 -0.4721
 8715WAT     H236666   4.540   0.571   2.198  0.2084  0.6178  0.4280
 8715WAT    EPW36667   4.467   0.598   2.236 -0.2069  0.5867 -0.3273
 8716WAT      O36668   8.232  10.040   6.785 -0.2117 -0.4676  0.3121
 8716WAT     H136669   8.302  10.014   6.725 -0.2127  0.2037  0.0013
 8716WAT     H236670   8.256  10.002   6.869 -0.3092 -1.5867 -0.1576
 8716WAT    EPW36671   8.245  10.032   6.788 -0.2246 -0.5260  0.2091
 8717WAT      O36672   0.293   1.074   7.017 -0.2570 -0.2474  0.7351
 8717WAT     H136673   0.222   1.038   7.070  0.4210  0.1245  1.9243
 8717WAT     H236674   0.364   1.010   7.027  0.4204  0.6045  1.6061
 8717WAT    EPW36675   0.293   1.061   7.025 -0.0782 -0.0860  1.0066
 8718WAT      O36676   4.724   5.004   4.856 -0.5614  0.6972 -0.1837
 8718WAT     H136677   4.640   4.966   4.833 -0.5860  0.3098  0.5159
 8718WAT     H236678   4.786   4.964   4.795 -0.5181 -0.8042  0.7898
 8718WAT    EPW36679   4.721   4.994   4.845 -0.5589  0.4480  0.0372
 8719WAT      O36680   5.184   1.836   1.010 -0.3685  0.3302  0.0543
 8719WAT     H136681   5.220   1.796   0.931 -1.4759 -2.3430  0.7866
 8719WAT     H236682   5.093   1.808   1.012 -0.3605  0.2852  2.2725
 8719WAT    EPW36683   5.177   1.827   1.000 -0.5136 -0.0283  0.4435
 8720WAT      O36684   0.460   6.991   6.820  0.4701  0.3777 -0.4326
 8720WAT     H136685   0.556   7.001   6.824  0.7679 -2.2472  0.6159
 8720WAT     H236686   0.435   7.040   6.742  2.5400  1.8671 -0.2567
 8720WAT    EPW36687   0.470   6.999   6.810  0.7824  0.2282 -0.2708
 8721WAT      O36688   0.725   7.710   7.810  0.1235  0.1568 -0.1771
 8721WAT     H136689   0.720   7.795   7.767 -0.2768  0.1718 -0.1067
 8721WAT     H236690   0.812   7.678   7.789 -0.3731 -0.2371 -1.7952
 8721WAT    EPW36691   0.736   7.717   7.801  0.0052  0.1068 -0.3812
 8722WAT      O36692   3.952   3.427   7.621 -0.0209 -0.4005  0.3985
 8722WAT     H136693   3.908   3.466   7.545  3.1772  1.5615 -0.6773
 8722WAT     H236694   3.998   3.500   7.661  4.2086 -2.4821 -0.1252
 8722WAT    EPW36695   3.952   3.442   7.616  0.9588 -0.4163  0.1874
 8723WAT      O36696   2.560   1.884   7.875  0.1044 -0.0473  0.3344
 8723WAT     H136697   2.613   1.960   7.899 -0.7637  0.1039  1.8789
 8723WAT     H236698   2.619   1.831   7.821  0.5212  2.0015 -1.3601
 8723WAT    EPW36699   2.575   1.887   7.871  0.0448  0.2428  0.3145
 8724WAT      O36700  10.170   7.757   8.572  0.1874  0.1259 -0.6076
 8724WAT     H136701  10.188   7.779   8.480  0.6325 -0.7231 -0.7404
 8724WAT     H236702  10.249   7.712   8.601  0.0193  0.3276  0.1790
 8724WAT    EPW36703  10.183   7.754   8.563  0.2236  0.0405 -0.5212
 8725WAT      O36704   9.921   9.116   1.630 -0.1672 -0.2225 -0.3645
 8725WAT     H136705   9.828   9.141   1.624  0.0873  0.6775 -0.8084
 8725WAT     H236706   9.948   9.106   1.538 -0.0165 -1.2398 -0.2147
 8725WAT    EPW36707   9.912   9.118   1.617 -0.1140 -0.2375 -0.4033
 8726WAT      O36708   5.032   1.178   7.057 -0.2932  0.7749  0.0022
 8726WAT     H136709   4.957   1.185   6.997 -0.1641  2.6195 -0.0076
 8726WAT     H236710   5.104   1.149   7.001 -1.2689 -2.6413  0.3084
 8726WAT    EPW36711   5.032   1.175   7.042 -0.4044  0.5676  0.0410
 8727WAT      O36712   7.438   7.290   8.227 -0.1824  0.6230 -0.4586
 8727WAT     H136713   7.420   7.363   8.166  0.3956 -0.3958 -1.9039
 8727WAT     H236714   7.532   7.296   8.244  0.0732 -0.3881 -1.4266
 8727WAT    EPW36715   7.448   7.301   8.221 -0.0727  0.3550 -0.7763
 8728WAT      O36716   2.636   0.859   5.623  0.4187 -0.0926 -0.1388
 8728WAT     H136717   2.688   0.909   5.560  0.7235  0.1217  0.2773
 8728WAT     H236718   2.549   0.853   5.583  0.2941  1.0151 -0.0754
 8728WAT    EPW36719   2.631   0.865   5.610  0.4424  0.0818 -0.0756
 8729WAT      O36720   5.323   4.147   0.253 -0.3204 -0.5446 -0.0562
 8729WAT     H136721   5.361   4.059   0.260 -0.7012 -0.6988  0.1253
 8729WAT     H236722   5.235   4.137   0.287 -0.5605 -0.2136 -0.5654
 8729WAT    EPW36723   5.317   4.134   0.258 -0.4025 -0.5212 -0.0994
 8730WAT      O36724   1.906   0.079   8.293 -0.0100  0.1166 -0.1369
 8730WAT     H136725   1.885   0.030   8.372  0.4457  0.1128 -0.0164
 8730WAT     H236726   1.863   0.164   8.304 -1.5929 -0.5741 -0.7611
 8730WAT    EPW36727   1.898   0.084   8.305 -0.1587  0.0250 -0.2031
 8731WAT      O36728   5.302   4.298   0.023 -0.1882  0.4739 -0.4766
 8731WAT     H136729   5.311   4.255   0.109 -1.6633 -2.2080 -1.5245
 8731WAT     H236730   5.374   4.361   0.020 -0.4527  1.1325  2.9532
 8731WAT    EPW36731   5.313   4.300   0.034 -0.4175  0.2069 -0.1625
 8732WAT      O36732   2.645   2.361   7.708  0.2630 -0.1288 -0.2061
 8732WAT     H136733   2.592   2.404   7.641 -0.1939 -0.2035  0.0976
 8732WAT     H236734   2.672   2.278   7.668  0.9169  0.3134 -0.6936
 8732WAT    EPW36735   2.642   2.355   7.694  0.2891 -0.0802 -0.2306
 8733WAT      O36736   5.786   6.765   8.295  0.4961  0.1207 -0.8409
 8733WAT     H136737   5.757   6.674   8.286  1.6162 -0.5941  1.8697
 8733WAT     H236738   5.881   6.758   8.306  0.6956  1.7154 -1.3043
 8733WAT    EPW36739   5.795   6.752   8.295  0.6702  0.2365 -0.5450
 8734WAT      O36740   1.186   9.580   6.408 -0.0790 -0.9720  0.2483
 8734WAT     H136741   1.129   9.618   6.474  0.3720 -1.1208  0.7266
 8734WAT     H236742   1.134   9.583   6.327  1.1228  3.9427 -0.6696
 8734WAT    EPW36743   1.172   9.585   6.406  0.1390 -0.3438  0.1903
 8735WAT      O36744   6.235   7.724   6.408  0.1287  0.0384 -0.4099
 8735WAT     H136745   6.228   7.631   6.428 -0.0972 -0.0284 -0.7717
 8735WAT     H236746   6.188   7.733   6.325 -0.5768  0.6195  0.0432
 8735WAT    EPW36747   6.228   7.713   6.399  0.0060  0.1063 -0.3977
 8736WAT      O36748   5.860   3.067   2.155 -0.4703  0.4016  0.5183
 8736WAT     H136749   5.768   3.080   2.132  0.0711 -0.9421 -3.0808
 8736WAT     H236750   5.875   2.973   2.142  1.1935  0.3836  2.1304
 8736WAT    EPW36751   5.850   3.056   2.150 -0.1795  0.2222  0.2562
 8737WAT      O36752   1.310   1.571   5.616 -0.7563 -0.0246 -0.1090
 8737WAT     H136753   1.249   1.538   5.549 -0.6701 -0.5641  0.0709
 8737WAT     H236754   1.385   1.512   5.611 -1.3545 -0.9880  1.4385
 8737WAT    EPW36755   1.312   1.559   5.606 -0.8239 -0.2229  0.1187
 8738WAT      O36756   2.731   1.706   5.027 -0.0202  0.3481 -0.1516
 8738WAT     H136757   2.681   1.686   5.106  0.4411 -3.0911 -0.5935
 8738WAT     H236758   2.822   1.704   5.055  0.0916  1.2488 -0.4058
 8738WAT    EPW36759   2.736   1.703   5.042  0.0553  0.0132 -0.2434
 8739WAT      O36760   2.417   1.145   8.582 -0.3370  0.3989 -0.3873
 8739WAT     H136761   2.358   1.082   8.623  0.6398 -0.0104  0.4437
 8739WAT     H236762   2.407   1.130   8.488 -1.5004  0.3045 -0.2573
 8739WAT    EPW36763   2.408   1.134   8.575 -0.3614  0.3325 -0.2604
 8740WAT      O36764  10.213   9.453   3.222 -0.2933  0.0989 -0.6509
 8740WAT     H136765  10.129   9.442   3.176 -0.8013  4.4418 -1.1792
 8740WAT     H236766  10.199   9.410   3.306 -3.4322  1.2335 -0.4288
 8740WAT    EPW36767  10.200   9.446   3.227 -0.7744  0.8211 -0.6912
 8741WAT      O36768   8.049   9.040   6.900 -0.1140 -0.1812  0.4329
 8741WAT     H136769   8.029   8.993   6.981 -2.1215 -1.2003 -0.5865
 8741WAT     H236770   7.973   9.097   6.886  0.2465  0.0532 -0.6911
 8741WAT    EPW36771   8.036   9.041   6.909 -0.3314 -0.2847  0.1502
 8742WAT      O36772   8.813   7.743   7.290 -0.8036  0.6105  0.5430
 8742WAT     H136773   8.719   7.737   7.308 -0.8840 -1.8387 -0.3759
 8742WAT     H236774   8.822   7.717   7.199  0.7266  1.5236  0.3986
 8742WAT    EPW36775   8.802   7.739   7.280 -0.6123  0.4079  0.4029
 8743WAT      O36776   3.066   0.178   6.231 -0.4907 -1.2333  0.2183
 8743WAT     H136777   3.114   0.096   6.243 -2.2101 -2.2505  0.5446
 8743WAT     H236778   3.027   0.196   6.317 -1.1660 -0.7750 -0.1731
 8743WAT    EPW36779   3.067   0.170   6.244 -0.8068 -1.3070  0.2098
 8744WAT      O36780   0.829  10.212   7.343  0.4969 -0.3817 -0.5408
 8744WAT     H136781   0.911  10.229   7.297  0.3014  0.3939 -0.6177
 8744WAT     H236782   0.854  10.200   7.435  0.6521  0.3070 -0.4902
 8744WAT    EPW36783   0.843  10.213   7.349  0.4916 -0.1888 -0.5441
 8745WAT      O36784   0.526   7.149   3.574  0.2074 -0.1642 -0.4579
 8745WAT     H136785   0.437   7.141   3.609  0.4945 -0.9001  0.1118
 8745WAT     H236786   0.513   7.158   3.479 -0.4247 -1.4063 -0.5128
 8745WAT    EPW36787   0.512   7.149   3.566  0.1619 -0.4253 -0.3901
 8746WAT      O36788   7.908   8.103   8.438  0.3434  0.4343 -0.1266
 8746WAT     H136789   7.829   8.153   8.458  0.8848  0.9255  0.8275
 8746WAT     H236790   7.934   8.065   8.521  1.1092  0.2606 -0.4392
 8746WAT    EPW36791   7.901   8.104   8.451  0.5159  0.4759 -0.0424
 8747WAT      O36792   1.046   9.132   8.758  0.2698 -0.4185 -0.3233
 8747WAT     H136793   0.999   9.216   8.759  0.7300 -0.1583 -0.0540
 8747WAT     H236794   1.023   9.092   8.842 -0.3333 -0.7798 -0.6591
 8747WAT    EPW36795   1.037   9.138   8.769  0.2509 -0.4325 -0.3319
 8748WAT      O36796   9.535   9.860   5.921 -0.4716  0.0355 -0.2947
 8748WAT     H136797   9.504   9.945   5.953 -1.2955  0.2268 -1.5487
 8748WAT     H236798   9.535   9.868   5.826 -0.8344 -1.4601 -0.4512
 8748WAT    EPW36799   9.531   9.872   5.913 -0.6280 -0.1364 -0.4807
 8749WAT      O36800  10.154  10.317   6.992 -0.5049  0.4684 -0.2365
 8749WAT     H136801  10.217  10.344   7.059 -0.7885 -2.1928  1.2643
 8749WAT     H236802  10.207  10.275   6.924 -0.5611 -1.6298  0.9516
 8749WAT    EPW36803  10.169  10.315   6.992 -0.5493 -0.1593  0.1180
 8750WAT      O36804  10.357   8.396   7.861 -0.4313 -0.8173 -0.3533
 8750WAT     H136805  10.352   8.364   7.951 -0.0014  1.7536  0.6554
 8750WAT     H236806  10.450   8.385   7.838  0.1329  1.3298  0.6906
 8750WAT    EPW36807  10.369   8.390   7.869 -0.2999 -0.1945 -0.0825
 8751WAT      O36808   1.743   0.147   1.707  0.8482 -0.7933 -0.1191
 8751WAT     H136809   1.710   0.174   1.622  0.8142 -1.0731 -0.1943
 8751WAT     H236810   1.734   0.052   1.708  0.1398 -0.7318  0.4903
 8751WAT    EPW36811   1.737   0.138   1.696  0.7504 -0.8221 -0.0486
 8752WAT      O36812   1.882   0.889   7.646 -0.2904 -0.1416 -0.3993
 8752WAT     H136813   1.841   0.815   7.690 -2.1886  0.1831 -1.5054
 8752WAT     H236814   1.924   0.939   7.716 -0.9325 -1.0431  0.6559
 8752WAT    EPW36815   1.882   0.886   7.661 -0.6254 -0.2177 -0.4058
 8753WAT      O36816   6.960   9.630   6.226  0.0013  0.8511 -0.1779
 8753WAT     H136817   6.894   9.588   6.170  0.6713  1.3726 -1.4010
 8753WAT     H236818   7.027   9.563   6.237  0.1926  0.9709 -0.5848
 8753WAT    EPW36819   6.960   9.615   6.220  0.1149  0.9351 -0.3929
 8754WAT      O36820   6.972   8.095   7.216 -0.1143  0.1312 -0.3395
 8754WAT     H136821   6.960   8.187   7.192  2.7475  0.1866 -2.0826
 8754WAT     H236822   6.962   8.048   7.134  0.9384 -0.7899  0.0406
 8754WAT    EPW36823   6.969   8.101   7.202  0.4020  0.0172 -0.5193
 8755WAT      O36824   4.785   2.938   0.329  0.0055  0.4366  0.4589
 8755WAT     H136825   4.803   2.901   0.415  0.6088 -0.6413 -0.1012
 8755WAT     H236826   4.694   2.913   0.310  0.4548 -1.0023  0.0147
 8755WAT    EPW36827   4.775   2.930   0.338  0.1445  0.1047  0.3265
 8756WAT      O36828   1.460  10.341   6.554 -0.3200 -0.3350 -0.3732
 8756WAT     H136829   1.389  10.359   6.493  0.1898 -0.7433 -1.1106
 8756WAT     H236830   1.436  10.259   6.596 -0.7165 -0.0061  0.0480
 8756WAT    EPW36831   1.448  10.333   6.551 -0.3049 -0.3454 -0.4148
 8757WAT      O36832   4.391   0.775   2.835  0.0774 -1.0966  0.0400
 8757WAT     H136833   4.455   0.837   2.800 -1.4570 -0.1945 -1.3543
 8757WAT     H236834   4.359   0.815   2.916 -0.9162  0.0135 -0.8611
 8757WAT    EPW36835   4.395   0.788   2.841 -0.2561 -0.8312 -0.2626
 8758WAT      O36836   3.366   1.047   5.431 -0.1783 -0.2517  0.3511
 8758WAT     H136837   3.322   0.978   5.381  1.2762  1.0517 -3.0219
 8758WAT     H236838   3.392   1.004   5.513 -1.5262 -2.9426 -0.4990
 8758WAT    EPW36839   3.364   1.032   5.435 -0.1643 -0.4346 -0.2062
 8759WAT      O36840   1.569   0.972   8.118 -0.3841 -0.1289  0.5539
 8759WAT     H136841   1.496   0.912   8.134 -1.9603  0.9943 -1.7101
 8759WAT     H236842   1.531   1.059   8.132  0.2600  0.5059 -1.3197
 8759WAT    EPW36843   1.554   0.976   8.122 -0.5070  0.1029  0.0076
 8760WAT      O36844  10.153   8.783   5.594  0.1287 -0.3976  0.1729
 8760WAT     H136845  10.062   8.756   5.606 -0.2995  1.5580  1.8683
 8760WAT     H236846  10.148   8.870   5.555  1.2326 -0.0274  0.7943
 8760WAT    EPW36847  10.141   8.791   5.591  0.2179 -0.0906  0.4785
 8761WAT      O36848   5.632   5.635   0.617  0.5072 -0.0859  0.0120
 8761WAT     H136849   5.719   5.595   0.618  0.7151  0.2309 -2.0532
 8761WAT     H236850   5.571   5.561   0.625  0.9406 -0.5491 -0.8544
 8761WAT    EPW36851   5.635   5.620   0.618  0.5918 -0.1051 -0.3747
 8762WAT      O36852   8.399   9.304   8.526 -0.1387 -0.4461  0.6032
 8762WAT     H136853   8.447   9.297   8.443 -1.1209 -1.0436  0.0812
 8762WAT     H236854   8.435   9.384   8.566 -0.4537  0.5182 -0.9278
 8762WAT    EPW36855   8.410   9.314   8.520 -0.3099 -0.3977  0.3328
 8763WAT      O36856  10.935   6.730   6.635 -0.4935  0.2447  0.0297
 8763WAT     H136857  10.869   6.764   6.575 -1.4920 -4.1266 -1.7602
 8763WAT     H236858  11.003   6.695   6.577  0.6675 -0.2603  1.6307
 8763WAT    EPW36859  10.935   6.730   6.619 -0.4721 -0.3982  0.0048
 8764WAT      O36860   5.314   2.956   8.582  0.0594 -0.4817  0.0110
 8764WAT     H136861   5.286   2.868   8.607 -1.6548 -0.4503 -1.6149
 8764WAT     H236862   5.321   3.003   8.665  2.4806 -2.4816  1.0687
 8764WAT    EPW36863   5.311   2.951   8.596  0.1526 -0.7412 -0.0644
 8765WAT      O36864   3.240   1.327   5.510  0.2010 -0.1227  0.0036
 8765WAT     H136865   3.227   1.412   5.468  0.1371  0.5275  1.2904
 8765WAT     H236866   3.286   1.274   5.445  0.6631  1.0455 -0.6370
 8765WAT    EPW36867   3.244   1.331   5.496  0.2534  0.1171  0.0889
 8766WAT      O36868  10.804   8.058   5.929  0.2426  0.0191  0.5152
 8766WAT     H136869  10.739   8.060   5.859 -1.3487  0.5483  1.9261
 8766WAT     H236870  10.793   8.142   5.974  1.8925  0.0981  0.8378
 8766WAT    EPW36871  10.794   8.069   5.926  0.2503  0.0992  0.7439
 8767WAT      O36872   1.217   9.111   5.169 -0.4431  0.4909  0.3718
 8767WAT     H136873   1.224   9.034   5.225 -0.9187  0.4322  0.3607
 8767WAT     H236874   1.220   9.185   5.230  0.2165  0.4745  0.3629
 8767WAT    EPW36875   1.218   9.111   5.184 -0.4188  0.4816  0.3691
 8768WAT      O36876   2.425   3.448   2.976 -0.0977 -0.6718  0.1954
 8768WAT     H136877   2.394   3.414   2.891  1.6816  2.4841 -1.9215
 8768WAT     H236878   2.488   3.382   3.006 -1.8377 -2.5741 -0.1038
 8768WAT    EPW36879   2.429   3.434   2.968 -0.0925 -0.5065 -0.1233
 8769WAT      O36880  10.644   8.531   8.371 -0.2649  0.4901 -0.1264
 8769WAT     H136881  10.628   8.532   8.465  0.4806 -0.2498  0.0116
 8769WAT     H236882  10.644   8.438   8.347  1.7080  0.5458 -0.4711
 8769WAT    EPW36883  10.642   8.519   8.380  0.0935  0.4005 -0.1535
 8770WAT      O36884   0.209   9.075   7.916 -0.1197 -0.1739 -0.0080
 8770WAT     H136885   0.233   9.053   7.826  2.3381  0.7409  0.3435
 8770WAT     H236886   0.146   9.147   7.908  1.3816  1.0904 -1.0299
 8770WAT    EPW36887   0.204   9.082   7.903  0.4025  0.1135 -0.0963
 8771WAT      O36888  10.721   6.373   6.162 -0.8497 -0.5847 -0.1036
 8771WAT     H136889  10.771   6.399   6.085  0.3367  1.1309  1.1821
 8771WAT     H236890  10.759   6.288   6.188 -2.8578 -2.4237 -2.6909
 8771WAT    EPW36891  10.733   6.365   6.156 -0.9580 -0.6011 -0.2754
 8772WAT      O36892   7.236   6.284   0.012 -0.3133  0.3160  0.3056
 8772WAT     H136893   7.167   6.233  -0.031  1.9683 -2.8634  0.1067
 8772WAT     H236894   7.200   6.304   0.098 -1.0626 -2.4728  0.7277
 8772WAT    EPW36895   7.222   6.280   0.018 -0.1111 -0.4711  0.3351
 8773WAT      O36896   4.079   7.626   4.295 -0.1895 -0.2540  0.3281
 8773WAT     H136897   4.026   7.587   4.364 -0.5964 -1.0896 -0.4496
 8773WAT     H236898   4.134   7.689   4.341 -0.8008 -0.4418  1.3483
 8773WAT    EPW36899   4.080   7.629   4.310 -0.3235 -0.3891  0.3600
 8774WAT      O36900   7.057   3.641   1.913 -0.5659 -0.6858  0.2145
 8774WAT     H136901   7.118   3.714   1.901  2.4426 -2.9668  0.3098
 8774WAT     H236902   7.066   3.618   2.006 -1.6266 -1.0665  0.2374
 8774WAT    EPW36903   7.066   3.647   1.924 -0.3085 -1.0369  0.2300
 8775WAT      O36904   8.609  10.198   6.745  0.2504  0.2966 -0.5510
 8775WAT     H136905   8.539  10.230   6.688 -0.5568  1.1925  0.8849
 8775WAT     H236906   8.687  10.198   6.690 -0.7919 -0.3595 -2.0871
 8775WAT    EPW36907   8.610  10.202   6.730  0.0062  0.3281 -0.5641
 8776WAT      O36908   3.265   3.003   2.961 -0.5114 -0.1023  0.4674
 8776WAT     H136909   3.330   3.048   2.907 -0.0238 -0.6829  0.5613
 8776WAT     H236910   3.188   2.996   2.906 -0.2632 -0.0270  0.1091
 8776WAT    EPW36911   3.263   3.008   2.947 -0.4144 -0.1689  0.4325
 8777WAT      O36912   1.122   1.288   7.877 -0.2051 -0.5137 -0.1229
 8777WAT     H136913   1.102   1.207   7.831  0.5858 -1.0532  0.4462
 8777WAT     H236914   1.038   1.317   7.912 -0.6945 -0.4667 -1.2914
 8777WAT    EPW36915   1.109   1.281   7.876 -0.1653 -0.5787 -0.2022
 8778WAT      O36916   4.810   1.157   3.608 -0.2954  0.7796  0.3936
 8778WAT     H136917   4.878   1.196   3.553  1.7024  0.1591  2.2695
 8778WAT     H236918   4.807   1.213   3.685 -0.6968 -0.1684  1.0861
 8778WAT    EPW36919   4.819   1.169   3.611 -0.0851  0.5727  0.7323
 8779WAT      O36920   7.843   9.471   3.380 -0.6336 -0.5806 -0.4708
 8779WAT     H136921   7.924   9.516   3.404 -0.1315 -1.5246 -0.3718
 8779WAT     H236922   7.846   9.468   3.284  0.2542 -2.0444 -0.4174
 8779WAT    EPW36923   7.854   9.477   3.370 -0.4504 -0.8979 -0.4505
 8780WAT      O36924   2.356   5.745   6.807 -0.6795 -0.0284  0.1117
 8780WAT     H136925   2.396   5.680   6.750 -1.7450 -1.8600  1.3857
 8780WAT     H236926   2.381   5.829   6.767  3.1318 -1.0221 -0.0483
 8780WAT    EPW36927   2.365   5.748   6.794 -0.3173 -0.4008  0.2587
 8781WAT      O36928   2.531   1.735   8.213 -0.4064  0.1370 -0.0384
 8781WAT     H136929   2.451   1.715   8.163 -0.6839  1.6238 -0.2360
 8781WAT     H236930   2.594   1.670   8.183 -1.6140 -1.2917  0.3515
 8781WAT    EPW36931   2.529   1.724   8.202 -0.6022  0.1447 -0.0129
 8782WAT      O36932   6.420   3.401   6.116  0.6293  0.0442  0.8355
 8782WAT     H136933   6.479   3.370   6.047  1.9546  1.9431  1.0448
 8782WAT     H236934   6.402   3.323   6.168 -0.4198 -1.4493 -1.5974
 8782WAT    EPW36935   6.425   3.387   6.114  0.6659  0.0976  0.5424
 8783WAT      O36936   3.498   1.456   6.988 -0.5933  0.2741 -0.3216
 8783WAT     H136937   3.527   1.399   6.916 -0.2363  2.4711 -2.0137
 8783WAT     H236938   3.474   1.395   7.058  0.6439 -1.9097 -1.6760
 8783WAT    EPW36939   3.499   1.440   6.987 -0.3830  0.2758 -0.7236
 8784WAT      O36940   3.337   5.445   4.697  0.0262 -0.6851  0.9698
 8784WAT     H136941   3.306   5.459   4.787 -1.2826  0.1711  0.4137
 8784WAT     H236942   3.309   5.524   4.650 -2.2777 -2.5111 -0.9604
 8784WAT    EPW36943   3.329   5.457   4.703 -0.4504 -0.8130  0.6418
 8785WAT      O36944   3.581   0.243   4.397 -0.4500 -0.3661  0.3868
 8785WAT     H136945   3.586   0.171   4.334  0.5434  0.8943 -1.0557
 8785WAT     H236946   3.672   0.273   4.407 -0.7873  0.4234  1.2584
 8785WAT    EPW36947   3.594   0.238   4.390 -0.3635 -0.0957  0.3116
 8786WAT      O36948   2.049   9.474   7.324  0.0063  0.0644  0.2255
 8786WAT     H136949   2.049   9.427   7.241 -1.2087  4.0976 -2.3414
 8786WAT     H236950   2.117   9.540   7.315 -2.0716  2.5042  1.0692
 8786WAT    EPW36951   2.058   9.477   7.312 -0.4281  0.9184 -0.0019
 8787WAT      O36952   5.898   0.135   4.781 -0.1357 -0.1988  0.0807
 8787WAT     H136953   5.973   0.162   4.834  1.5029 -2.6978 -0.7543
 8787WAT     H236954   5.920   0.164   4.692 -1.0411  0.5997  0.0988
 8787WAT    EPW36955   5.911   0.143   4.776 -0.0389 -0.4231 -0.0269
 8788WAT      O36956   0.083   5.649   0.597  0.2572 -0.4791 -0.5933
 8788WAT     H136957   0.002   5.615   0.634  0.4327 -0.7144 -0.4227
 8788WAT     H236958   0.135   5.676   0.672  0.0259  0.4009 -0.7370
 8788WAT    EPW36959   0.079   5.648   0.612  0.2499 -0.3941 -0.5898
 8789WAT      O36960  10.012  10.123   7.149 -0.3296 -0.0896 -0.1509
 8789WAT     H136961  10.001  10.054   7.084 -1.8539  1.2491 -1.3772
 8789WAT     H236962  10.074  10.184   7.109  0.6100 -0.4465  0.7093
 8789WAT    EPW36963  10.019  10.122   7.135 -0.4067  0.0401 -0.1993
 8790WAT      O36964   7.667   3.868   4.179  0.1162 -0.7203 -0.1138
 8790WAT     H136965   7.715   3.950   4.168 -3.3686  1.8510  1.7027
 8790WAT     H236966   7.697   3.835   4.264 -1.1762  0.9307  1.0730
 8790WAT    EPW36967   7.677   3.875   4.189 -0.5138 -0.1633  0.2823
 8791WAT      O36968   2.581   2.789   8.436  0.3221  0.4553  0.1903
 8791WAT     H136969   2.649   2.728   8.465 -2.1327 -2.2922  0.7215
 8791WAT     H236970   2.507   2.772   8.495 -0.6636  3.8071  0.1276
 8791WAT    EPW36971   2.580   2.779   8.448 -0.1315  0.5350  0.2522
 8792WAT      O36972   6.955   7.584   0.219  0.3871 -0.1901 -0.5523
 8792WAT     H136973   7.036   7.572   0.169  0.6527 -0.2019 -0.1223
 8792WAT     H236974   6.937   7.678   0.214  0.2761 -0.2242 -0.8722
 8792WAT    EPW36975   6.963   7.595   0.211  0.4075 -0.1960 -0.5378
 8793WAT      O36976   6.564   2.025   7.141  0.1420  0.5083  0.1483
 8793WAT     H136977   6.493   1.998   7.199 -0.5821  4.1994  1.2746
 8793WAT     H236978   6.581   1.948   7.087 -3.2120 -1.2541  1.2775
 8793WAT    EPW36979   6.557   2.011   7.142 -0.3958  0.7626  0.4458
 8794WAT      O36980   5.531   0.325   7.329 -0.5443  0.0857 -0.2109
 8794WAT     H136981   5.515   0.297   7.420  1.4314 -1.4830 -0.2812
 8794WAT     H236982   5.486   0.409   7.322 -0.2233  0.5742  2.4386
 8794WAT    EPW36983   5.523   0.333   7.340 -0.2415 -0.0567  0.1295
 8795WAT      O36984   1.539   4.570   8.941  0.0541  0.2857 -0.6618
 8795WAT     H136985   1.603   4.526   8.996 -0.3154 -1.6253 -1.6978
 8795WAT     H236986   1.589   4.601   8.866  0.3892  2.0891  0.2486
 8795WAT    EPW36987   1.554   4.569   8.939  0.0498  0.2718 -0.6781
 8796WAT      O36988   4.162   2.450   2.414 -0.0292  0.9643  0.4157
 8796WAT     H136989   4.179   2.538   2.447  0.8149  1.6848 -1.7931
 8796WAT     H236990   4.241   2.401   2.436 -0.6992  0.5397  2.1040
 8796WAT    EPW36991   4.175   2.455   2.422 -0.0062  1.0033  0.3470
 8797WAT      O36992   8.406   3.326   6.208  0.3595 -0.1362 -0.2785
 8797WAT     H136993   8.341   3.390   6.179  0.5212 -0.7789 -2.1376
 8797WAT     H236994   8.476   3.379   6.247 -0.5070  0.6509  0.2528
 8797WAT    EPW36995   8.406   3.341   6.210  0.2661 -0.1171 -0.4539
 8798WAT      O36996   4.017   2.954   4.625 -0.0067  0.3096 -0.3428
 8798WAT     H136997   4.033   2.901   4.704  0.6609 -2.6442 -2.2960
 8798WAT     H236998   4.083   3.023   4.630 -0.7038  0.9168  2.1814
 8798WAT    EPW36999   4.028   2.956   4.636 -0.0107  0.0000 -0.2673
 8799WAT      O37000   6.185   4.575   8.866 -0.0816  0.1621 -0.3924
 8799WAT     H137001   6.100   4.602   8.831 -0.3428  1.0394  0.8263
 8799WAT     H237002   6.165   4.536   8.951  0.6791 -0.2428 -0.3857
 8799WAT    EPW37003   6.171   4.573   8.873 -0.0157  0.2244 -0.2303
 8800WAT      O37004   2.495   1.832   8.465 -0.7602  0.2656 -0.5623
 8800WAT     H137005   2.580   1.852   8.504 -0.8590  0.0246 -0.2158
 8800WAT     H237006   2.516   1.803   8.376 -0.5243  0.7346 -0.6609
 8800WAT    EPW37007   2.509   1.831   8.459 -0.7421  0.2957 -0.5298
 8801WAT      O37008   2.369   0.488   5.693 -0.0858  0.4657  0.3446
 8801WAT     H137009   2.442   0.445   5.738  0.0997 -0.0584 -0.4413
 8801WAT     H237010   2.295   0.477   5.753  0.8733  2.7622  2.0905
 8801WAT    EPW37011   2.368   0.481   5.707  0.0651  0.6994  0.4714
 8802WAT      O37012   4.629   3.054   7.464  0.6222  0.3321 -0.2031
 8802WAT     H137013   4.674   2.980   7.422 -1.1269  0.4183 -2.3901
 8802WAT     H237014   4.551   3.016   7.502 -0.1319  0.9711 -1.0669
 8802WAT    EPW37015   4.625   3.039   7.463  0.2921  0.4278 -0.6056
 8803WAT      O37016   0.368  10.072   5.813 -1.1952 -0.3652 -0.2052
 8803WAT     H137017   0.355  10.167   5.816 -0.7936 -0.2955 -0.5493
 8803WAT     H237018   0.313  10.038   5.884 -0.0536  0.2749  1.0435
 8803WAT    EPW37019   0.359  10.080   5.823 -0.9917 -0.2718 -0.0861
 8804WAT      O37020   0.393   1.247   7.257 -0.3905  0.1056  0.4038
 8804WAT     H137021   0.364   1.323   7.206  0.9405 -0.5263 -1.3847
 8804WAT     H237022   0.371   1.172   7.202 -1.0281 -0.7836  1.8246
 8804WAT    EPW37023   0.386   1.247   7.243 -0.2990 -0.0950  0.3555
 8805WAT      O37024   3.036  10.331   4.591 -0.2003  0.3052  0.5661
 8805WAT     H137025   3.000  10.339   4.679  0.4483 -1.2206  1.0074
 8805WAT     H237026   3.120  10.286   4.603  0.3918  1.0013 -0.7324
 8805WAT    EPW37027   3.042  10.326   4.604 -0.0367  0.1957  0.4532
 8806WAT      O37028   0.502   8.619   5.541  0.3495  0.0365 -0.4545
 8806WAT     H137029   0.510   8.686   5.609 -3.7692  0.6701 -0.3423
 8806WAT     H237030   0.497   8.669   5.459 -2.3447  0.0311 -0.4017
 8806WAT    EPW37031   0.502   8.634   5.539 -0.5490  0.1192 -0.4327
 8807WAT      O37032   9.980   9.572   6.913 -0.2719  0.5420  0.0686
 8807WAT     H137033   9.961   9.632   6.985 -0.8697  0.6844 -0.1912
 8807WAT     H237034   9.926   9.605   6.841  1.3828  1.2680 -0.8988
 8807WAT    EPW37035   9.970   9.585   6.913 -0.1321  0.6561 -0.0932
 8808WAT      O37036   4.877   4.522   7.354 -0.2513 -0.0477  0.6461
 8808WAT     H137037   4.920   4.607   7.362 -3.8862  2.1204 -0.4046
 8808WAT     H237038   4.905   4.473   7.432  1.3787  2.3500  1.6950
 8808WAT    EPW37039   4.886   4.527   7.365 -0.5157  0.5546  0.6461
 8809WAT      O37040   6.528   7.438   0.058 -0.0470  0.6845 -0.3893
 8809WAT     H137041   6.508   7.524   0.095  1.6097  0.6341  0.7128
 8809WAT     H237042   6.531   7.453  -0.037 -2.7425  1.1617 -0.4883
 8809WAT    EPW37043   6.526   7.451   0.050 -0.1841  0.7408 -0.2570
 8810WAT      O37044   7.485   8.757   0.191  0.0199 -0.0982  0.1556
 8810WAT     H137045   7.543   8.688   0.223  1.9322  1.2497 -0.2850
 8810WAT     H237046   7.514   8.836   0.236 -0.4100  0.9164 -1.2951
 8810WAT    EPW37047   7.496   8.758   0.201  0.2155  0.2136 -0.0938
 8811WAT      O37048   8.462   9.352   7.165  0.4155 -0.1414  0.7843
 8811WAT     H137049   8.495   9.286   7.104 -3.2475  1.3900 -3.3643
 8811WAT     H237050   8.535   9.413   7.175  1.0114 -0.0186 -2.9274
 8811WAT    EPW37051   8.476   9.351   7.159  0.0110  0.0763 -0.2525
 8812WAT      O37052   0.440   0.440   6.779  0.4597 -0.2034 -0.8598
 8812WAT     H137053   0.375   0.455   6.849  0.1296 -0.2347 -1.1557
 8812WAT     H237054   0.517   0.406   6.825  0.5642  0.6212 -0.3958
 8812WAT    EPW37055   0.441   0.438   6.795  0.4299 -0.0988 -0.8376
 8813WAT      O37056   0.301  10.087   6.564 -0.0189  0.2097  0.0306
 8813WAT     H137057   0.216  10.110   6.526 -0.6698 -0.5956  0.9144
 8813WAT     H237058   0.281  10.013   6.622  0.9802  1.1145  1.6088
 8813WAT    EPW37059   0.287  10.080   6.567  0.0270  0.2232  0.3552
 8814WAT      O37060   5.229   0.743   5.779 -0.0080 -0.4887  0.3027
 8814WAT     H137061   5.267   0.787   5.704  0.4061  2.6087  2.1650
 8814WAT     H237062   5.281   0.664   5.790 -0.0426 -0.9949 -2.5417
 8814WAT    EPW37063   5.241   0.738   5.770  0.0420 -0.1469  0.1731
 8815WAT      O37064   3.618   3.541   6.960 -0.0619 -0.2428  0.5767
 8815WAT     H137065   3.658   3.454   6.965 -2.0700 -1.2533  0.2987
 8815WAT     H237066   3.669   3.594   7.021  3.6830 -0.4860 -2.0179
 8815WAT    EPW37067   3.630   3.536   6.969  0.1671 -0.4082  0.1979
 8816WAT      O37068   3.656   2.166   4.856 -0.3596  0.1645 -0.0236
 8816WAT     H137069   3.600   2.208   4.922 -0.9869 -1.8981  0.8439
 8816WAT     H237070   3.601   2.159   4.778 -0.8662 -0.5874  0.3866
 8816WAT    EPW37071   3.641   2.171   4.855 -0.5090 -0.2067  0.1450
 8817WAT      O37072   6.739   1.515   6.942 -0.2848  0.1384  0.0550
 8817WAT     H137073   6.816   1.551   6.985  0.7045  1.2643 -2.4557
 8817WAT     H237074   6.772   1.443   6.889 -1.3541 -0.8124  0.6220
 8817WAT    EPW37075   6.753   1.510   6.940 -0.2954  0.1616 -0.2015
 8818WAT      O37076   3.732   1.168   8.125  0.3031  0.5081 -1.0377
 8818WAT     H137077   3.800   1.101   8.134 -0.4487 -0.0475  1.1029
 8818WAT     H237078   3.655   1.121   8.095  0.4469  0.8944 -2.0594
 8818WAT    EPW37079   3.731   1.153   8.122  0.2229  0.4858 -0.8903
 8819WAT      O37080   2.396   2.341   7.040  0.2519  0.4055 -0.1200
 8819WAT     H137081   2.366   2.346   7.131 -3.5811  0.6846 -1.2064
 8819WAT     H237082   2.375   2.251   7.013 -1.6261  1.1583 -1.4676
 8819WAT    EPW37083   2.389   2.330   7.048 -0.5013  0.5417 -0.4408
 8820WAT      O37084   2.363   3.961   5.333  0.1927  0.2022 -0.3393
 8820WAT     H137085   2.400   3.951   5.421  0.5853  1.1674 -0.3797
 8820WAT     H237086   2.314   4.043   5.337  1.3586  0.9941 -1.3771
 8820WAT    EPW37087   2.362   3.971   5.346  0.3983  0.4340 -0.4816
 8821WAT      O37088   3.724   3.023   0.481  0.4157  0.2385  0.0799
 8821WAT     H137089   3.804   2.983   0.447  0.5438  1.3120 -0.9752
 8821WAT     H237090   3.756   3.087   0.545  0.2724 -0.5709  0.9878
 8821WAT    EPW37091   3.739   3.026   0.485  0.4138  0.2733  0.0605
 8822WAT      O37092   5.315   1.465   5.131  0.3576  0.3458 -0.4427
 8822WAT     H137093   5.264   1.545   5.124 -3.1837 -1.4856  1.3962
 8822WAT     H237094   5.252   1.395   5.113  3.2550 -2.0942 -1.9713
 8822WAT    EPW37095   5.300   1.466   5.128  0.2728 -0.2176 -0.4017
 8823WAT      O37096   9.863   7.435   1.564 -0.2798  0.3905 -0.3487
 8823WAT     H137097   9.822   7.352   1.588 -0.0863 -0.2027 -1.9084
 8823WAT     H237098   9.822   7.500   1.621 -1.2643 -0.6083  0.1188
 8823WAT    EPW37099   9.852   7.433   1.574 -0.3843  0.1807 -0.4928
 8824WAT      O37100   4.690   3.282   7.074 -0.2329  0.9953 -0.2645
 8824WAT     H137101   4.672   3.374   7.054 -0.0441  0.8938 -0.9453
 8824WAT     H237102   4.776   3.266   7.034 -1.2781 -0.0952 -2.2241
 8824WAT    EPW37103   4.699   3.292   7.066 -0.3459  0.8380 -0.6127
 8825WAT      O37104   4.952   1.760   1.297  0.5978 -0.3249 -0.6395
 8825WAT     H137105   5.044   1.778   1.277  0.8941  0.9662  1.5201
 8825WAT     H237106   4.944   1.665   1.293  2.0614 -0.4647 -0.7251
 8825WAT    EPW37107   4.963   1.750   1.294  0.8299 -0.1731 -0.3659
 8826WAT      O37108   4.108   1.632   4.983  0.1328 -0.2798  0.2683
 8826WAT     H137109   4.142   1.544   4.969 -0.9350 -0.4155 -1.7231
 8826WAT     H237110   4.183   1.690   4.970  0.5703 -0.8090  0.4097
 8826WAT    EPW37111   4.122   1.628   4.980  0.0496 -0.3675  0.0243
 8827WAT      O37112   4.478   0.695   6.758  0.7972 -0.0440 -0.3120
 8827WAT     H137113   4.555   0.642   6.736  1.1709  0.1738  0.4537
 8827WAT     H237114   4.511   0.784   6.765  0.4809  0.0488  0.0474
 8827WAT    EPW37115   4.492   0.699   6.756  0.8047 -0.0030 -0.1636
 8828WAT      O37116   8.459   6.222   2.198 -0.7549  0.3579  0.1238
 8828WAT     H137117   8.477   6.301   2.250 -0.4744  0.8958 -0.7570
 8828WAT     H237118   8.520   6.157   2.232 -1.9526  0.0598  1.8273
 8828WAT    EPW37119   8.469   6.224   2.210 -0.8759  0.3896  0.2325
 8829WAT      O37120   4.764   2.143   7.408  0.2430 -0.6200 -0.4457
 8829WAT     H137121   4.746   2.049   7.406  0.0153 -0.5851 -0.1720
 8829WAT     H237122   4.700   2.177   7.470  0.0308 -0.2237 -0.8769
 8829WAT    EPW37123   4.753   2.135   7.416  0.1848 -0.5630 -0.4663
 8830WAT      O37124   3.413   2.904   5.427 -0.0176 -0.9069  0.1651
 8830WAT     H137125   3.371   2.846   5.364 -0.7278 -0.9495  0.6656
 8830WAT     H237126   3.340   2.946   5.472  0.4373 -1.8746  1.8892
 8830WAT    EPW37127   3.397   2.902   5.424 -0.0513 -1.0402  0.4585
 8831WAT      O37128   4.696   0.268   6.067 -0.5651  0.2761  0.4002
 8831WAT     H137129   4.694   0.235   5.977  1.5139  0.8202  0.1079
 8831WAT     H237130   4.718   0.191   6.120 -1.4475  0.0286  0.4224
 8831WAT    EPW37131   4.698   0.253   6.062 -0.4070  0.3152  0.3645
 8832WAT      O37132   3.098   2.294   4.661  0.2961 -0.4074 -0.0258
 8832WAT     H137133   3.009   2.294   4.626 -0.7210  1.9861  2.1821
 8832WAT     H237134   3.121   2.202   4.668 -0.3231 -1.0863 -4.3827
 8832WAT    EPW37135   3.089   2.282   4.658  0.0802 -0.1813 -0.3095
 8833WAT      O37136   8.781   4.271   3.314 -0.5099 -0.1151 -0.4238
 8833WAT     H137137   8.801   4.245   3.224  1.3834  4.8870 -1.7879
 8833WAT     H237138   8.867   4.283   3.355 -1.3253 -1.0191  1.6767
 8833WAT    EPW37139   8.795   4.269   3.308 -0.3676  0.4253 -0.3266
 8834WAT      O37140   7.960   4.389   0.738  0.1772  0.2394 -0.4061
 8834WAT     H137141   7.893   4.455   0.720 -1.0887 -1.2009 -1.2022
 8834WAT     H237142   7.986   4.357   0.652  0.8215 -0.2633 -0.0342
 8834WAT    EPW37143   7.954   4.394   0.724  0.0951 -0.0167 -0.4621
 8835WAT      O37144   1.315   0.968   5.247 -0.6918  0.5003 -0.0554
 8835WAT     H137145   1.256   0.996   5.317 -0.3650 -0.2693  0.5559
 8835WAT     H237146   1.258   0.937   5.177 -1.1139 -2.5973  1.4768
 8835WAT    EPW37147   1.300   0.967   5.247 -0.7043 -0.0097  0.2270
 8836WAT      O37148   2.206   0.585   4.416 -0.2959  0.0132  0.5211
 8836WAT     H137149   2.112   0.573   4.407 -0.2601 -0.6581  0.9926
 8836WAT     H237150   2.234   0.617   4.330 -1.0095  0.6169  0.5082
 8836WAT    EPW37151   2.197   0.588   4.403 -0.3853  0.0043  0.5817
 8837WAT      O37152   7.031   7.010   4.859  0.5051  0.1636 -0.2875
 8837WAT     H137153   7.000   6.948   4.794  0.3616 -0.6064  0.4992
 8837WAT     H237154   7.060   6.956   4.932 -1.7195  1.0215  1.3442
 8837WAT    EPW37155   7.031   6.995   4.860  0.1926  0.1752  0.0312
 8838WAT      O37156   6.506   0.975   5.052 -0.3768  0.2407 -0.0248
 8838WAT     H137157   6.524   0.927   5.133 -0.1812  0.0124 -0.2041
 8838WAT     H237158   6.510   0.909   4.983  4.0566  1.0816 -0.8752
 8838WAT    EPW37159   6.509   0.960   5.054  0.2339  0.3215 -0.1607
 8839WAT      O37160   1.694   3.339   5.601 -0.0838  0.4946 -0.2477
 8839WAT     H137161   1.602   3.316   5.614 -0.9727  2.5134 -2.2210
 8839WAT     H237162   1.723   3.282   5.530 -0.6061  1.5265 -1.3226
 8839WAT    EPW37163   1.686   3.328   5.593 -0.2699  0.8968 -0.6495
 8840WAT      O37164   4.717   1.081   7.522 -1.0964 -0.0246 -0.3125
 8840WAT     H137165   4.791   1.121   7.476  0.8839 -2.8289  0.1975
 8840WAT     H237166   4.695   1.145   7.590  1.2375  0.7440 -0.1674
 8840WAT    EPW37167   4.724   1.095   7.525 -0.5274 -0.2931 -0.2263
 8841WAT      O37168   2.268   0.525   8.066  0.2961 -0.7120 -0.1445
 8841WAT     H137169   2.215   0.499   8.142 -0.7776  0.7746 -0.3280
 8841WAT     H237170   2.216   0.497   7.990  0.8437 -1.2190 -0.3331
 8841WAT    EPW37171   2.254   0.518   8.066  0.2269 -0.5828 -0.1941
 8842WAT      O37172   0.014  10.046   5.370  0.2827  0.6104 -0.1238
 8842WAT     H137173   0.033  10.018   5.460  0.5791 -1.2051 -0.7214
 8842WAT     H237174  -0.074  10.085   5.375 -0.2459 -0.6389  0.7380
 8842WAT    EPW37175   0.005  10.048   5.383  0.2522  0.2065 -0.0889
 8843WAT      O37176   0.257   0.679   7.955 -0.0614 -0.0762 -0.0890
 8843WAT     H137177   0.200   0.603   7.944 -0.8241  0.7337 -2.5705
 8843WAT     H237178   0.270   0.712   7.866  0.2604  2.6747  0.8594
 8843WAT    EPW37179   0.251   0.674   7.942 -0.1195  0.3935 -0.2909
 8844WAT      O37180   5.266   1.768   5.790 -0.0862  0.0291 -0.0388
 8844WAT     H137181   5.230   1.697   5.737  0.4692 -1.2562  1.2356
 8844WAT     H237182   5.323   1.816   5.731  1.6000 -2.1797 -0.3496
 8844WAT    EPW37183   5.269   1.765   5.776  0.2093 -0.4317  0.0882
 8845WAT      O37184   2.322   0.796   6.064 -0.0498 -0.5657  0.4070
 8845WAT     H137185   2.242   0.764   6.023 -0.8060  1.0642  0.5100
 8845WAT     H237186   2.387   0.796   5.994 -0.9095  0.7047 -0.4355
 8845WAT    EPW37187   2.320   0.792   6.050 -0.2630 -0.1832  0.3097
 8846WAT      O37188   3.510   0.348   6.242  0.1032  0.0454 -0.1463
 8846WAT     H137189   3.545   0.366   6.329  1.1673  0.5675 -0.6542
 8846WAT     H237190   3.567   0.398   6.183 -0.0606 -0.9907 -1.2097
 8846WAT    EPW37191   3.522   0.357   6.246  0.2218 -0.0224 -0.3536
 8847WAT      O37192   4.228   0.118   8.750  0.0176 -0.9784 -1.1195
 8847WAT     H137193   4.298   0.168   8.707  0.8052 -0.9822  0.1220
 8847WAT     H237194   4.274   0.059   8.810 -1.0182 -1.6345 -0.9553
 8847WAT    EPW37195   4.244   0.117   8.752 -0.0153 -1.0654 -0.9341
 8848WAT      O37196   9.690  10.154   5.504  0.1885 -0.6730  0.2494
 8848WAT     H137197   9.672  10.164   5.597 -0.9622 -1.8310  0.1757
 8848WAT     H237198   9.677  10.242   5.468  0.6894 -0.2036  1.1712
 8848WAT    EPW37199   9.686  10.167   5.511  0.1030 -0.7639  0.3614
 8849WAT      O37200   8.191   6.351   0.273 -0.1677 -0.2039  0.2552
 8849WAT     H137201   8.165   6.259   0.272 -0.4513 -0.1294  0.4276
 8849WAT     H237202   8.210   6.369   0.365  0.9428 -0.3729  0.0660
 8849WAT    EPW37203   8.190   6.341   0.285 -0.0587 -0.2165  0.2530
 8850WAT      O37204   2.047   1.207   7.465 -0.1811 -0.3852  0.1188
 8850WAT     H137205   2.125   1.243   7.423  0.3454  0.5532  1.8196
 8850WAT     H237206   2.051   1.114   7.446  0.2702 -0.0841 -1.4802
 8850WAT    EPW37207   2.058   1.200   7.457 -0.0522 -0.2218  0.1323
 8851WAT      O37208   8.210   3.274   1.509 -0.1662 -0.1571 -0.8116
 8851WAT     H137209   8.172   3.187   1.494 -0.0061 -0.0383 -2.0507
 8851WAT     H237210   8.146   3.320   1.563 -0.6020 -0.7935 -0.7741
 8851WAT    EPW37211   8.197   3.269   1.514 -0.2027 -0.2254 -0.9701
 8852WAT      O37212   7.860   8.572   0.416 -0.3897 -0.1898  0.6404
 8852WAT     H137213   7.815   8.544   0.496 -1.4181  2.0093  0.8903
 8852WAT     H237214   7.802   8.547   0.345 -1.2774  1.1598  0.8589
 8852WAT    EPW37215   7.847   8.565   0.417 -0.6425  0.2785  0.7022
 8853WAT      O37216   5.389   2.583   6.992 -0.2858  0.0946  0.2404
 8853WAT     H137217   5.380   2.679   6.989 -2.3649 -0.0639 -0.1423
 8853WAT     H237218   5.353   2.559   7.078 -0.4322 -0.3863  0.0443
 8853WAT    EPW37219   5.383   2.593   7.003 -0.5794  0.0103  0.1640
 8854WAT      O37220   6.949   0.430   5.373  0.0778  0.7242  0.4535
 8854WAT     H137221   6.968   0.460   5.284  0.7854 -2.2603 -0.5093
 8854WAT     H237222   7.032   0.394   5.404 -0.4994  0.5317  1.8218
 8854WAT    EPW37223   6.963   0.430   5.365  0.0951  0.3052  0.5071
 8855WAT      O37224   7.463   0.600   4.340  0.1200 -0.3477  0.0735
 8855WAT     H137225   7.488   0.587   4.249  2.5105 -0.7875  0.7347
 8855WAT     H237226   7.521   0.670   4.372 -0.7807 -0.0891  1.2374
 8855WAT    EPW37227   7.474   0.608   4.332  0.3166 -0.3716  0.3142
 8856WAT      O37228   2.985   1.274   5.366  0.0831  0.0236  0.1675
 8856WAT     H137229   2.914   1.275   5.430 -0.0357  2.7783  0.0822
 8856WAT     H237230   3.065   1.265   5.418  0.1672  4.2030  1.1042
 8856WAT    EPW37231   2.986   1.273   5.381  0.0784  0.9382  0.2797
 8857WAT      O37232   1.449   1.258   5.639 -0.1718 -0.8934  0.2683
 8857WAT     H137233   1.524   1.313   5.662  0.2765 -1.6887  0.7466
 8857WAT     H237234   1.474   1.219   5.555 -0.5596 -0.2643 -0.1528
 8857WAT    EPW37235   1.463   1.260   5.631 -0.1638 -0.9153  0.2761
 8858WAT      O37236   6.997   6.911   0.042 -0.8296 -0.3844  0.2010
 8858WAT     H137237   6.932   6.975   0.070 -0.0139 -0.4790  2.4632
 8858WAT     H237238   6.947   6.833   0.018 -1.6213  0.0520  0.4295
 8858WAT    EPW37239   6.982   6.909   0.042 -0.8264 -0.3393  0.5298
 8859WAT      O37240   4.872   2.098   5.360 -0.0192  0.3969 -0.8515
 8859WAT     H137241   4.940   2.079   5.425 -0.2728  0.8834 -0.4340
 8859WAT     H237242   4.868   2.020   5.306  1.0613  0.4586 -1.0459
 8859WAT    EPW37243   4.880   2.085   5.362  0.0896  0.4691 -0.8221
 8860WAT      O37244   7.228   4.792   7.960  0.5576  0.3146  0.3391
 8860WAT     H137245   7.189   4.863   7.909  0.0865  0.2059  0.5414
 8860WAT     H237246   7.190   4.802   8.047  0.2113 -0.4051  0.2766
 8860WAT    EPW37247   7.218   4.803   7.965  0.4499  0.2053  0.3574
 8861WAT      O37248   7.023   5.845   0.891  0.4866  0.0929 -0.4081
 8861WAT     H137249   7.060   5.757   0.891 -0.0093 -0.1276  0.2430
 8861WAT     H237250   6.948   5.839   0.831  0.6482  0.1567 -0.6153
 8861WAT    EPW37251   7.018   5.832   0.883  0.4427  0.0722 -0.3495
 8862WAT      O37252   2.902   1.517   6.280 -1.1132 -0.2880  0.0735
 8862WAT     H137253   2.853   1.526   6.198 -0.3698 -0.3882 -0.3927
 8862WAT     H237254   2.857   1.576   6.341 -1.5798 -0.0908 -0.4522
 8862WAT    EPW37255   2.890   1.526   6.277 -1.0767 -0.2753 -0.0575
 8863WAT      O37256   0.857   1.773   5.954  0.5958 -0.4737  0.1380
 8863WAT     H137257   0.889   1.686   5.930 -1.7290 -0.9101 -1.8021
 8863WAT     H237258   0.762   1.764   5.952  0.2663  1.4750  2.5650
 8863WAT    EPW37259   0.849   1.760   5.951  0.2457 -0.2742  0.2022
 8864WAT      O37260   8.166   7.947   0.020  0.3652 -0.6814  0.0680
 8864WAT     H137261   8.078   7.910   0.017  1.0471 -2.6179  1.9346
 8864WAT     H237262   8.176   7.981   0.109  0.9848  1.0142 -0.5983
 8864WAT    EPW37263   8.156   7.947   0.031  0.5364 -0.7131  0.2263
 8865WAT      O37264   2.084   1.733   7.244 -0.1104  0.8043  0.2428
 8865WAT     H137265   2.141   1.742   7.321  0.9549 -0.0705 -0.4178
 8865WAT     H237266   1.996   1.734   7.280  0.3451 -2.9300  1.9854
 8865WAT    EPW37267   2.080   1.734   7.259  0.0902  0.1965  0.3855
 8866WAT      O37268   2.375   1.476   8.872  0.3155  0.1794 -1.0675
 8866WAT     H137269   2.356   1.494   8.964  1.8047 -0.8977 -0.5016
 8866WAT     H237270   2.440   1.405   8.875  0.4414  0.1736 -2.9488
 8866WAT    EPW37271   2.381   1.469   8.885  0.5286  0.0365 -1.2407
 8867WAT      O37272   2.783   2.851   8.807 -0.4720  0.2328 -0.1780
 8867WAT     H137273   2.775   2.771   8.756 -0.5972 -0.0057  0.2102
 8867WAT     H237274   2.726   2.914   8.763 -0.7717 -0.0462 -0.1859
 8867WAT    EPW37275   2.775   2.849   8.794 -0.5281  0.1646 -0.1283
 8868WAT      O37276   3.893   4.511   5.690  0.0647  0.2412 -0.5997
 8868WAT     H137277   3.890   4.546   5.779  0.3428 -0.4795 -0.2973
 8868WAT     H237278   3.922   4.420   5.701 -0.3949 -0.0071 -1.3839
 8868WAT    EPW37279   3.897   4.504   5.703  0.0409  0.1135 -0.6633
 8869WAT      O37280   4.815   1.330   5.116 -0.5974 -0.6188  0.0291
 8869WAT     H137281   4.751   1.358   5.182  1.1853 -0.7312  1.8749
 8869WAT     H237282   4.773   1.255   5.073 -0.7260 -2.3483  2.9694
 8869WAT    EPW37283   4.801   1.324   5.119 -0.3791 -0.8617  0.6607
 8870WAT      O37284   6.596   7.782   0.027  0.1651 -0.3637 -0.6682
 8870WAT     H137285   6.651   7.840  -0.026  0.7648 -0.7466 -0.4834
 8870WAT     H237286   6.534   7.744  -0.035 -0.0364  0.2374 -0.8425
 8870WAT    EPW37287   6.595   7.784   0.012  0.2177 -0.3350 -0.6669
 8871WAT      O37288   1.587   3.012   6.317  0.1414  0.0823  0.6420
 8871WAT     H137289   1.607   3.085   6.258  2.1097 -0.1597  0.9498
 8871WAT     H237290   1.648   2.943   6.291 -1.1126 -1.1801  0.9216
 8871WAT    EPW37291   1.597   3.013   6.305  0.2357 -0.1162  0.7198
 8872WAT      O37292   1.673   9.896   6.722 -0.5722 -0.1034 -0.0001
 8872WAT     H137293   1.732   9.902   6.647  1.0423  0.9247  1.2848
 8872WAT     H237294   1.687   9.978   6.770 -1.9909 -0.4751  1.1397
 8872WAT    EPW37295   1.683   9.908   6.718 -0.5464 -0.0172  0.3197
 8873WAT      O37296   7.598   9.381   3.954  0.5216  0.2637 -0.1656
 8873WAT     H137297   7.507   9.356   3.966  1.0636 -0.9098  1.8454
 8873WAT     H237298   7.594   9.471   3.922 -1.3491 -0.3253 -1.7841
 8873WAT    EPW37299   7.586   9.390   3.951  0.3464  0.0310 -0.1138
 8874WAT      O37300   2.707   1.168   8.238  0.1243  0.0863 -0.0345
 8874WAT     H137301   2.697   1.246   8.292  0.5935 -0.3737  0.7297
 8874WAT     H237302   2.777   1.191   8.177 -0.9373  0.8949 -1.0151
 8874WAT    EPW37303   2.715   1.182   8.237  0.0461  0.1323 -0.0625
 8875WAT      O37304   5.638   0.420   6.651  0.5267 -0.3450 -1.0757
 8875WAT     H137305   5.679   0.350   6.601 -0.7502 -2.2389  0.3600
 8875WAT     H237306   5.584   0.374   6.716 -1.6961  1.9494 -1.1259
 8875WAT    EPW37307   5.636   0.405   6.653  0.0651 -0.2921 -0.8929
 8876WAT      O37308   1.860   0.419   4.955 -0.7385  0.7977 -0.5445
 8876WAT     H137309   1.848   0.478   5.029  0.7068  0.2487  0.1825
 8876WAT     H237310   1.948   0.383   4.968 -1.8429 -2.1791 -0.4267
 8876WAT    EPW37311   1.870   0.422   4.967 -0.6934  0.3327 -0.4330
 8877WAT      O37312   6.910   2.653   0.065 -0.1938  1.0112 -0.0692
 8877WAT     H137313   6.995   2.636   0.024 -1.2034 -0.6117 -1.6385
 8877WAT     H237314   6.894   2.746   0.048 -0.7830  0.3706 -4.0111
 8877WAT    EPW37315   6.919   2.663   0.057 -0.4046  0.7128 -0.7961
 8878WAT      O37316   4.531   0.802   5.499 -0.2761  0.3442 -0.3191
 8878WAT     H137317   4.609   0.747   5.491 -1.4347 -1.1978 -1.5447
 8878WAT     H237318   4.517   0.809   5.594  0.1514 -1.1709 -0.1161
 8878WAT    EPW37319   4.539   0.795   5.511 -0.3724 -0.0590 -0.4542
 8879WAT      O37320   4.605   1.141   4.976 -0.2728  0.5473 -0.1820
 8879WAT     H137321   4.670   1.081   5.012  0.8187  1.3000 -0.8471
 8879WAT     H237322   4.646   1.177   4.897 -0.8416  2.2563  0.2535
 8879WAT    EPW37323   4.619   1.138   4.970 -0.2041  0.8720 -0.2122
 8880WAT      O37324   4.468   2.971   5.613  0.2642  0.0755 -0.3211
 8880WAT     H137325   4.473   2.949   5.520  0.1031 -2.3368  0.1827
 8880WAT     H237326   4.536   3.037   5.626 -0.5489  1.4223 -2.3650
 8880WAT    EPW37327   4.477   2.977   5.602  0.1357 -0.0650 -0.5240
 8881WAT      O37328   0.695   8.563   7.607  0.1740  0.3533  0.0340
 8881WAT     H137329   0.646   8.644   7.598  0.5589  0.4729 -1.1235
 8881WAT     H237330   0.629   8.497   7.627 -0.4768  0.5218 -1.4290
 8881WAT    EPW37331   0.680   8.565   7.608  0.1390  0.3915 -0.3114
 8882WAT      O37332   1.619   1.369   7.704 -0.2519 -0.3922 -0.7962
 8882WAT     H137333   1.701   1.356   7.657 -0.1487 -1.2384 -0.4004
 8882WAT     H237334   1.575   1.285   7.699 -2.1915  0.6369 -3.0172
 8882WAT    EPW37335   1.624   1.357   7.697 -0.4941 -0.3681 -1.0369
 8883WAT      O37336   6.650   3.347   5.000  0.0263 -0.5012  0.3761
 8883WAT     H137337   6.679   3.374   4.912  0.6409 -1.3725  0.3018
 8883WAT     H237338   6.564   3.309   4.985  0.7356 -1.9936 -0.0960
 8883WAT    EPW37339   6.643   3.346   4.986  0.2007 -0.8129  0.3040
 8884WAT      O37340   2.577   0.097   5.898 -0.0580  0.1475 -0.5376
 8884WAT     H137341   2.660   0.091   5.850  0.3529 -1.7308  0.3113
 8884WAT     H237342   2.561   0.008   5.929 -3.2767  0.0511 -2.0796
 8884WAT    EPW37343   2.586   0.084   5.896 -0.4284 -0.1130 -0.6292
 8885WAT      O37344   0.828   1.256   6.284  0.1461  0.6274  0.2619
 8885WAT     H137345   0.910   1.209   6.298 -0.4741 -0.6332 -0.2312
 8885WAT     H237346   0.803   1.235   6.194 -1.2812  0.0865  0.7638
 8885WAT    EPW37347   0.836   1.247   6.274 -0.1240  0.3898  0.2630
 8886WAT      O37348   3.777   3.497   4.818 -0.2511  0.0643 -0.8545
 8886WAT     H137349   3.684   3.512   4.834 -0.0946 -0.2940  0.4584
 8886WAT     H237350   3.822   3.564   4.869  0.2318  0.1906 -1.4231
 8886WAT    EPW37351   3.771   3.508   4.827 -0.1668  0.0336 -0.7560
 8887WAT      O37352   0.496   8.787   5.329  0.2120 -0.1158  0.2574
 8887WAT     H137353   0.450   8.750   5.253  1.5685 -2.5246  0.5291
 8887WAT     H237354   0.556   8.852   5.290  1.0370 -1.4575 -0.8108
 8887WAT    EPW37355   0.498   8.791   5.314  0.4997 -0.6099  0.1523
 8888WAT      O37356  10.724   8.308   6.021  0.2163  0.7881 -0.2391
 8888WAT     H137357  10.679   8.283   6.101 -1.1796  2.0037 -0.6086
 8888WAT     H237358  10.783   8.379   6.048  0.4398  0.5597 -0.1256
 8888WAT    EPW37359  10.726   8.314   6.035  0.0620  0.9184 -0.2730
 8889WAT      O37360   4.071   1.004   4.562 -0.6813  0.7858 -0.0809
 8889WAT     H137361   4.082   0.916   4.526 -0.7467  0.3404  0.9499
 8889WAT     H237362   3.977   1.018   4.563 -0.6915  0.7144  0.0898
 8889WAT    EPW37363   4.060   0.994   4.558 -0.6914  0.7176  0.0775
 8890WAT      O37364   7.302   7.072   2.172  0.3207  0.1738 -0.4889
 8890WAT     H137365   7.210   7.049   2.180  0.7562 -0.9902  2.3382
 8890WAT     H237366   7.302   7.163   2.143 -1.7596  0.6383  0.7909
 8890WAT    EPW37367   7.290   7.081   2.169  0.1037  0.0815  0.0529
 8891WAT      O37368   6.480   3.557   6.330  0.1072 -0.1627  0.0847
 8891WAT     H137369   6.426   3.538   6.406  2.1721  0.3678  1.7803
 8891WAT     H237370   6.459   3.487   6.268 -4.0690  1.2242 -0.3567
 8891WAT    EPW37371   6.470   3.545   6.332 -0.1709  0.0901  0.2503
 8892WAT      O37372   5.003   0.457   5.507 -0.3536 -0.6077 -0.5941
 8892WAT     H137373   4.978   0.543   5.473 -2.5106 -0.5002  1.0149
 8892WAT     H237374   4.986   0.397   5.434 -1.3015  0.0573 -0.9497
 8892WAT    EPW37375   4.997   0.460   5.493 -0.7632 -0.5058 -0.4284
 8893WAT      O37376   1.814  10.037   5.242  0.4515  0.0806  0.6245
 8893WAT     H137377   1.791  10.057   5.151  3.2504  3.6638  0.5156
 8893WAT     H237378   1.877   9.965   5.236  0.8932  0.5392 -0.2979
 8893WAT    EPW37379   1.819  10.030   5.229  0.8788  0.6142  0.4885
 8894WAT      O37380   4.715   4.646   6.721  0.2181 -0.7584 -0.2573
 8894WAT     H137381   4.644   4.594   6.683  1.7738 -2.6833 -0.7073
 8894WAT     H237382   4.747   4.593   6.794 -1.3586  1.9156  2.6097
 8894WAT    EPW37383   4.710   4.632   6.726  0.2155 -0.6595  0.0613
 8895WAT      O37384   2.589   1.092   6.534  0.5348  0.7478 -0.0794
 8895WAT     H137385   2.590   1.014   6.589 -0.1030 -0.1739 -1.3194
 8895WAT     H237386   2.522   1.148   6.573 -1.4046 -0.7861 -1.0302
 8895WAT    EPW37387   2.581   1.089   6.546  0.1949  0.4240 -0.3684
 8896WAT      O37388   0.862  10.068   8.401  0.1270 -0.1660  0.4375
 8896WAT     H137389   0.947  10.112   8.404  0.4021 -0.7270  3.3394
 8896WAT     H237390   0.807  10.127   8.348  1.5493  1.6353  0.8515
 8896WAT    EPW37391   0.866  10.082   8.394  0.3509 -0.0029  0.8750
 8897WAT      O37392   4.539   1.634   5.746 -0.4504 -0.6960  0.8378
 8897WAT     H137393   4.568   1.570   5.682 -2.8775 -0.7272 -0.3556
 8897WAT     H237394   4.479   1.691   5.698 -1.7764 -0.2466  2.8890
 8897WAT    EPW37395   4.535   1.633   5.731 -0.9456 -0.6408  0.9506
 8898WAT      O37396   7.271   6.989   1.629 -0.6617  0.5458  0.1480
 8898WAT     H137397   7.263   6.902   1.668 -2.6680  1.0570  1.0048
 8898WAT     H237398   7.240   6.978   1.539 -1.7396  0.5409  0.5169
 8898WAT    EPW37399   7.266   6.976   1.622 -1.0684  0.6125  0.3096
 8899WAT      O37400   2.728   2.133   7.581 -0.0287 -0.2350 -0.6180
 8899WAT     H137401   2.813   2.169   7.555 -0.6012  1.1853 -0.6335
 8899WAT     H237402   2.683   2.118   7.498 -0.4531  0.7282 -0.5717
 8899WAT    EPW37403   2.733   2.136   7.566 -0.1602  0.0794 -0.6142
 8900WAT      O37404   3.726   0.479   7.388  0.1781 -0.1009  0.3111
 8900WAT     H137405   3.695   0.397   7.426  2.5647 -1.9116 -1.2730
 8900WAT     H237406   3.800   0.505   7.444 -0.3837  0.8559  0.6353
 8900WAT    EPW37407   3.732   0.471   7.400  0.4188 -0.2135  0.1450
 8901WAT      O37408   4.735   2.497   8.731 -0.3221 -0.3166  0.0574
 8901WAT     H137409   4.743   2.543   8.814 -0.1699  0.6540 -0.4803
 8901WAT     H237410   4.708   2.408   8.755 -1.5742  0.3110  1.0516
 8901WAT    EPW37411   4.733   2.491   8.745 -0.4671 -0.1057  0.1173
 8902WAT      O37412   9.147   1.853   7.148 -0.0296  0.2258  0.5474
 8902WAT     H137413   9.160   1.788   7.079 -2.3561 -0.6734  0.8430
 8902WAT     H237414   9.191   1.931   7.117 -0.1163 -0.4662 -1.4681
 8902WAT    EPW37415   9.154   1.855   7.135 -0.3481  0.0160  0.3207
 8903WAT      O37416   9.111   6.100   1.014  0.6330 -0.1770 -0.0955
 8903WAT     H137417   9.161   6.142   0.945  0.3194  0.8559  0.2809
 8903WAT     H237418   9.131   6.151   1.093 -1.5014  0.7272 -0.0621
 8903WAT    EPW37419   9.120   6.112   1.016  0.3104  0.0789 -0.0415
 8904WAT      O37420   5.718   2.097   7.614 -0.3499 -0.0751 -0.4854
 8904WAT     H137421   5.693   2.129   7.527  0.6942 -1.6850 -1.4105
 8904WAT     H237422   5.638   2.106   7.666 -0.4594  2.8729 -0.9631
 8904WAT    EPW37423   5.704   2.103   7.610 -0.2267  0.1014 -0.6704
 8905WAT      O37424  10.307   9.974   7.888  0.0187 -0.7851  0.7681
 8905WAT     H137425  10.258   9.899   7.921 -1.1105 -0.6384 -0.5167
 8905WAT     H237426  10.262   9.999   7.807  0.9061  0.7207  0.7023
 8905WAT    EPW37427  10.295   9.968   7.882 -0.0129 -0.5679  0.5901
 8906WAT      O37428   1.062   2.734   6.931 -1.4126 -0.1411 -0.3604
 8906WAT     H137429   1.037   2.643   6.945 -0.7699 -0.2921 -0.1790
 8906WAT     H237430   0.999   2.767   6.867 -1.9843 -0.5550 -0.0204
 8906WAT    EPW37431   1.050   2.727   6.925 -1.4033 -0.2155 -0.2918
 8907WAT      O37432   6.021   3.203   7.247 -0.1379  0.2990  0.1105
 8907WAT     H137433   5.961   3.128   7.248  0.0896  0.1011 -0.5380
 8907WAT     H237434   5.990   3.259   7.318  1.8245 -2.0651  3.0356
 8907WAT    EPW37435   6.009   3.200   7.256  0.1509 -0.0390  0.4106
 8908WAT      O37436   7.143   2.100   6.707 -0.0566  0.7424  0.0191
 8908WAT     H137437   7.219   2.150   6.680  1.4161  0.9504  3.8751
 8908WAT     H237438   7.170   2.008   6.698  0.6053  0.8138  1.1153
 8908WAT    EPW37439   7.156   2.094   6.702  0.2251  0.7793  0.6721
 8909WAT      O37440  10.648   8.231   6.270 -0.3905  0.1953 -0.5937
 8909WAT     H137441  10.567   8.180   6.266  1.0869 -2.1931 -2.6336
 8909WAT     H237442  10.698   8.189   6.341 -0.7332  1.4429  0.4242
 8909WAT    EPW37443  10.644   8.218   6.279 -0.2408  0.0448 -0.7286
 8910WAT      O37444   0.661   3.226   5.078 -1.1101 -0.2376 -0.0783
 8910WAT     H137445   0.638   3.134   5.082  0.7186 -0.8432 -1.9070
 8910WAT     H237446   0.654   3.249   4.985  0.8567  0.7439 -0.0392
 8910WAT    EPW37447   0.657   3.217   5.066 -0.6095 -0.1879 -0.3142
 8911WAT      O37448   8.114   7.406   2.151  0.6086 -0.5197 -0.3193
 8911WAT     H137449   8.088   7.432   2.062  1.8949  0.4877 -0.4411
 8911WAT     H237450   8.062   7.462   2.209  0.7866 -0.1767 -0.4868
 8911WAT    EPW37451   8.104   7.417   2.147  0.8016 -0.3417 -0.3575
 8912WAT      O37452   3.226   3.039   5.550 -0.3599  0.1684  0.4748
 8912WAT     H137453   3.178   3.032   5.633  1.7717  1.1914  1.8871
 8912WAT     H237454   3.234   3.133   5.535 -0.2599 -0.0039 -0.6378
 8912WAT    EPW37455   3.221   3.051   5.559 -0.0654  0.2806  0.5147
 8913WAT      O37456   1.469   9.457   5.148 -0.3750  0.0268  0.1850
 8913WAT     H137457   1.513   9.536   5.117 -0.2396 -0.5777 -1.2612
 8913WAT     H237458   1.381   9.461   5.110 -1.2209  0.6423  2.0880
 8913WAT    EPW37459   1.463   9.468   5.139 -0.4687  0.0286  0.2453
 8914WAT      O37460   1.901   1.494   5.116 -0.0500  0.8355  0.5268
 8914WAT     H137461   1.919   1.587   5.108  2.3685  0.4057  0.1591
 8914WAT     H237462   1.959   1.464   5.186  0.7204 -0.7176 -0.7049
 8914WAT    EPW37463   1.911   1.502   5.124  0.3707  0.5739  0.3161
 8915WAT      O37464   4.540   0.880   5.771  0.7021 -0.2430 -0.2106
 8915WAT     H137465   4.601   0.931   5.824  0.0388 -0.2049  0.5249
 8915WAT     H237466   4.504   0.815   5.831  2.2337 -2.2590 -1.3323
 8915WAT    EPW37467   4.544   0.878   5.786  0.8166 -0.5039 -0.2618
 8916WAT      O37468   4.940   1.314   1.106 -0.1104  0.0375  0.2124
 8916WAT     H137469   4.851   1.303   1.138 -0.7714  1.4235 -1.0516
 8916WAT     H237470   4.973   1.390   1.154 -0.2272  0.5706 -0.5304
 8916WAT    EPW37471   4.933   1.323   1.117 -0.2131  0.2906 -0.0523
 8917WAT      O37472   2.179   3.408   5.449  0.1369  0.1345  0.7586
 8917WAT     H137473   2.169   3.339   5.384  1.0467  0.8303 -0.1558
 8917WAT     H237474   2.108   3.470   5.429 -0.6307 -0.4740  1.5296
 8917WAT    EPW37475   2.169   3.407   5.437  0.1557  0.1458  0.7396
 8918WAT      O37476   2.349   3.085   7.826  0.0965 -0.0455 -0.6261
 8918WAT     H137477   2.367   3.049   7.912  1.1509  0.8568 -0.4518
 8918WAT     H237478   2.420   3.051   7.771 -0.0746  0.0959 -0.9352
 8918WAT    EPW37479   2.361   3.076   7.830  0.2129  0.0920 -0.6437
 8919WAT      O37480   3.094   3.957   5.927 -0.4438  0.5468  0.0212
 8919WAT     H137481   3.152   3.998   5.862 -0.6856 -0.2038 -0.6881
 8919WAT     H237482   3.031   3.908   5.875 -0.0045 -0.9528  0.8383
 8919WAT    EPW37483   3.093   3.956   5.911 -0.4178  0.2501  0.0350
 8920WAT      O37484   3.622   1.679   6.905  1.1412 -0.8374 -0.1887
 8920WAT     H137485   3.691   1.721   6.956 -0.2916  0.6553  0.6245
 8920WAT     H237486   3.598   1.602   6.956  0.9493 -0.3332  0.5102
 8920WAT    EPW37487   3.628   1.674   6.918  0.9269 -0.5740  0.0107
 8921WAT      O37488   0.918   8.691   3.324  0.1517  0.2470  0.1316
 8921WAT     H137489   0.860   8.616   3.343 -0.6801  0.7023 -0.5437
 8921WAT     H237490   0.995   8.676   3.379  0.1811 -1.3260 -0.2879
 8921WAT    EPW37491   0.921   8.679   3.333  0.0459  0.0992 -0.0128
 8922WAT      O37492   1.064   9.458   5.720 -0.4626 -0.0832 -0.2108
 8922WAT     H137493   1.017   9.520   5.664 -2.5168  0.7845  2.2731
 8922WAT     H237494   1.012   9.378   5.715  0.7263 -0.8257 -1.3649
 8922WAT    EPW37495   1.051   9.456   5.712 -0.5768 -0.0668 -0.0355
 8923WAT      O37496   3.025   3.418   6.897 -0.5571 -0.2571 -0.1973
 8923WAT     H137497   3.111   3.442   6.930 -1.2692  1.2603  0.6146
 8923WAT     H237498   2.967   3.425   6.972 -1.9975  2.1066 -1.4061
 8923WAT    EPW37499   3.028   3.422   6.911 -0.8411  0.2548 -0.2496
 8924WAT      O37500   2.783   0.457   8.203 -0.8379 -0.0411 -0.3781
 8924WAT     H137501   2.812   0.530   8.149 -2.5695  1.8995  1.1814
 8924WAT     H237502   2.862   0.404   8.215  1.0083  2.6153  0.0489
 8924WAT    EPW37503   2.797   0.459   8.197 -0.8229  0.5652 -0.1159
 8925WAT      O37504   7.226   8.838   8.586  0.2933  0.0157 -0.0973
 8925WAT     H137505   7.262   8.870   8.669  1.3022  0.1759 -0.5772
 8925WAT     H237506   7.198   8.748   8.604  1.6728 -0.3925  0.1059
 8925WAT    EPW37507   7.227   8.831   8.600  0.6082 -0.0167 -0.1340
 8926WAT      O37508   5.075   1.509   2.956 -0.4983 -0.6379  0.7205
 8926WAT     H137509   5.036   1.585   2.912  1.3733  0.0094  0.0684
 8926WAT     H237510   5.001   1.450   2.971 -1.7487  0.5916 -0.2483
 8926WAT    EPW37511   5.060   1.511   2.952 -0.4160 -0.3904  0.5068
 8927WAT      O37512   5.847   2.470   7.576  0.4471 -0.5879 -0.2107
 8927WAT     H137513   5.890   2.390   7.607  3.6691  1.5765  1.3645
 8927WAT     H237514   5.891   2.491   7.494 -3.6121 -2.7173 -3.3312
 8927WAT    EPW37515   5.858   2.462   7.570  0.3371 -0.5834 -0.4144
 8928WAT      O37516   3.484   4.877   7.206  0.3618  0.5417  0.2720
 8928WAT     H137517   3.569   4.833   7.218  1.5568  2.6644  0.1517
 8928WAT     H237518   3.472   4.928   7.286 -0.6151  0.5923  0.1028
 8928WAT    EPW37519   3.494   4.877   7.218  0.3905  0.8285  0.2339
 8929WAT      O37520   1.596   0.928   4.410 -1.0331  0.2138 -0.0876
 8929WAT     H137521   1.556   0.988   4.472 -0.2006  0.3088  0.3825
 8929WAT     H237522   1.523   0.880   4.371 -1.5926  0.4165  0.6928
 8929WAT    EPW37523   1.581   0.929   4.413 -0.9971  0.2531  0.0772
 8930WAT      O37524   1.527   1.307   7.056 -0.6329 -0.1687 -0.0547
 8930WAT     H137525   1.512   1.335   7.146 -0.8127  0.5005 -0.2806
 8930WAT     H237526   1.532   1.389   7.006 -0.2534 -0.5153 -0.6097
 8930WAT    EPW37527   1.526   1.322   7.061 -0.6065 -0.1261 -0.1576
 8931WAT      O37528   2.636   1.453   6.874  0.0070  0.1823  0.4490
 8931WAT     H137529   2.700   1.514   6.838 -0.0378  1.4478  2.3326
 8931WAT     H237530   2.689   1.388   6.921  0.0976 -1.7676 -2.1232
 8931WAT    EPW37531   2.651   1.452   6.876  0.0131  0.0920  0.3583
 8932WAT      O37532   3.936   4.694   5.441  0.0760  0.1495 -0.2642
 8932WAT     H137533   3.937   4.647   5.525 -0.6703  0.1823 -0.2357
 8932WAT     H237534   4.023   4.734   5.436 -0.3390  1.3284  1.1793
 8932WAT    EPW37535   3.948   4.693   5.452 -0.0771  0.3092 -0.0701
 8933WAT      O37536   3.557   1.493   8.931 -0.1958 -0.8458  0.6309
 8933WAT     H137537   3.542   1.482   8.837 -1.0354  1.4098  0.4525
 8933WAT     H237538   3.599   1.411   8.958 -1.5139 -2.2551 -1.3459
 8933WAT    EPW37539   3.561   1.481   8.922 -0.4804 -0.7343  0.3467
 8934WAT      O37540   5.346   3.293   7.304  0.3939 -0.7563  0.4896
 8934WAT     H137541   5.379   3.230   7.368  1.1775 -2.4506 -1.4621
 8934WAT     H237542   5.343   3.244   7.222  0.9899  1.7455 -1.1323
 8934WAT    EPW37543   5.350   3.278   7.302  0.5755 -0.6498  0.0181
 8935WAT      O37544   6.455   1.127   2.993  0.5529 -0.4134 -0.0895
 8935WAT     H137545   6.498   1.103   2.912  0.2364 -2.3608  0.2752
 8935WAT     H237546   6.363   1.139   2.970  0.7170  0.6050 -0.2788
 8935WAT    EPW37547   6.449   1.125   2.979  0.5329 -0.5359 -0.0663
 8936WAT      O37548   4.395   4.153   8.202 -0.0937  0.2681  0.6512
 8936WAT     H137549   4.394   4.061   8.176  1.9318  0.5681 -0.6259
 8936WAT     H237550   4.470   4.161   8.261  0.9395  1.4464 -0.7496
 8936WAT    EPW37551   4.405   4.142   8.206  0.3095  0.4630  0.2985
 8937WAT      O37552   5.967   3.686   6.622 -0.1752 -0.1499  1.1337
 8937WAT     H137553   6.008   3.685   6.708  0.5744 -1.4726  0.7914
 8937WAT     H237554   5.873   3.678   6.639  0.0007 -0.8249  1.8192
 8937WAT    EPW37555   5.960   3.685   6.635 -0.0532 -0.4133  1.1790
 8938WAT      O37556   2.349   0.906   6.900 -0.1175 -0.0065 -0.5161
 8938WAT     H137557   2.278   0.888   6.962  0.8057  2.2314  1.3522
 8938WAT     H237558   2.342   1.000   6.883  0.8573 -0.2190 -2.3673
 8938WAT    EPW37559   2.339   0.916   6.906  0.1327  0.2606 -0.5140
 8939WAT      O37560  10.688   9.448   6.973  0.1589  0.0689 -0.8602
 8939WAT     H137561  10.646   9.534   6.976 -1.5379 -0.5904 -3.3047
 8939WAT     H237562  10.615   9.386   6.968  1.3189 -1.6276  1.4900
 8939WAT    EPW37563  10.673   9.451   6.973  0.0882 -0.2418 -0.8726
 8940WAT      O37564   1.387   2.700   5.541 -0.1716 -0.4877  0.4345
 8940WAT     H137565   1.465   2.644   5.549 -1.1911 -2.1471 -0.5328
 8940WAT     H237566   1.314   2.641   5.561 -1.2243  0.9005  0.7985
 8940WAT    EPW37567   1.387   2.685   5.545 -0.4449 -0.5234  0.3545
 8941WAT      O37568   4.065   5.781   1.827 -0.2559 -0.1196 -0.1794
 8941WAT     H137569   4.074   5.825   1.912 -0.0320 -0.4596 -0.0274
 8941WAT     H237570   4.107   5.696   1.839  1.5359  0.5619 -1.1935
 8941WAT    EPW37571   4.071   5.776   1.840  0.0098 -0.0746 -0.2931
 8942WAT      O37572   7.572   2.731   6.189  0.1859 -0.0499 -0.3080
 8942WAT     H137573   7.532   2.798   6.134  1.0696  0.3950 -0.4242
 8942WAT     H237574   7.637   2.690   6.133 -2.6160 -3.4492 -1.4485
 8942WAT    EPW37575   7.575   2.734   6.175 -0.0670 -0.4396 -0.4740
 8943WAT      O37576   1.848   2.147   6.517  0.1434 -0.0551  0.3324
 8943WAT     H137577   1.885   2.177   6.434 -0.0604  0.5450  0.4501
 8943WAT     H237578   1.787   2.077   6.493  1.2781 -1.0049  0.1309
 8943WAT    EPW37579   1.845   2.142   6.503  0.2661 -0.1013  0.3214
 8944WAT      O37580   6.632   6.318   0.570  0.3315  0.2344  0.3670
 8944WAT     H137581   6.632   6.226   0.544  0.7071  0.1762  0.5702
 8944WAT     H237582   6.565   6.358   0.516  0.9877  0.0789 -0.5825
 8944WAT    EPW37583   6.623   6.311   0.560  0.4678  0.2062  0.2686
 8945WAT      O37584   3.919   3.749   8.424  0.0414 -0.8388 -1.3921
 8945WAT     H137585   3.888   3.673   8.375 -1.3059 -0.0224 -1.8686
 8945WAT     H237586   3.843   3.807   8.429  1.0728  0.5569 -1.1822
 8945WAT    EPW37587   3.905   3.747   8.418 -0.0004 -0.5471 -1.4267
 8946WAT      O37588   8.088   7.245   1.395 -0.7855 -0.0922  0.9726
 8946WAT     H137589   8.083   7.323   1.340  1.1505 -0.5223  0.0906
 8946WAT     H237590   8.088   7.278   1.484  0.7400  1.0073  0.6028
 8946WAT    EPW37591   8.087   7.260   1.399 -0.3290 -0.0038  0.8076
 8947WAT      O37592   5.246   2.398   5.459 -1.1237 -0.1091 -0.1145
 8947WAT     H137593   5.220   2.425   5.547  1.0133  0.6800  0.3261
 8947WAT     H237594   5.282   2.310   5.470 -2.6834 -0.8432 -0.5776
 8947WAT    EPW37595   5.247   2.390   5.472 -1.0476 -0.1018 -0.1173
 8948WAT      O37596   1.909   7.563   6.788 -0.2116 -0.0033 -0.6228
 8948WAT     H137597   1.932   7.651   6.819 -0.3577  0.1764 -1.0245
 8948WAT     H237598   1.862   7.524   6.862  1.2401 -0.3300  0.1660
 8948WAT    EPW37599   1.906   7.569   6.802 -0.0394 -0.0229 -0.5717
 8949WAT      O37600   3.039   6.005   5.582  0.0626  0.5337  0.9343
 8949WAT     H137601   2.956   6.031   5.543  0.1053  1.5473  1.5071
 8949WAT     H237602   3.105   6.047   5.527  0.2134 -0.1457  0.5726
 8949WAT    EPW37603   3.037   6.014   5.570  0.0882  0.5774  0.9623
 8950WAT      O37604   7.204   4.102   0.547 -0.0122  0.0601  0.8746
 8950WAT     H137605   7.251   4.182   0.524 -0.0693  0.0073  0.5742
 8950WAT     H237606   7.244   4.075   0.629 -1.2552  1.4300  1.9936
 8950WAT    EPW37607   7.215   4.109   0.555 -0.1836  0.2339  0.9826
 8951WAT      O37608  10.114   5.066   8.304  0.2450 -0.4781  0.0241
 8951WAT     H137609  10.062   4.991   8.274 -1.8992 -1.3353  4.9273
 8951WAT     H237610  10.114   5.127   8.230 -1.4441 -3.5271 -2.7471
 8951WAT    EPW37611  10.107   5.064   8.290 -0.2604 -0.9935  0.3052
 8952WAT      O37612   4.466   5.456   0.481 -0.3183  0.8084  0.3359
 8952WAT     H137613   4.502   5.398   0.547 -1.1208  0.3349  0.3656
 8952WAT     H237614   4.428   5.398   0.415  0.6258  1.2605 -0.6524
 8952WAT    EPW37615   4.466   5.441   0.481 -0.2995  0.8054  0.2094
 8953WAT      O37616   0.664   1.916   6.581 -1.1046  0.1326 -0.2230
 8953WAT     H137617   0.683   1.903   6.488  1.8399 -0.6021  0.3528
 8953WAT     H237618   0.716   1.993   6.605 -2.8488  1.1057  0.5981
 8953WAT    EPW37619   0.674   1.924   6.572 -0.9463  0.1641 -0.0391
 8954WAT      O37620   1.785   0.367   5.440  0.4882  0.5521  0.1983
 8954WAT     H137621   1.858   0.307   5.425 -1.5283 -1.9179 -0.5184
 8954WAT     H237622   1.776   0.415   5.358  1.2510  0.8336  0.2726
 8954WAT    EPW37623   1.793   0.365   5.427  0.3229  0.2635  0.1135
 8955WAT      O37624  10.374   7.403   2.143  0.2652 -0.7063 -0.2043
 8955WAT     H137625  10.304   7.459   2.112  0.8556 -0.1130 -0.4942
 8955WAT     H237626  10.422   7.458   2.206 -0.1587 -1.4593  0.7999
 8955WAT    EPW37627  10.371   7.418   2.147  0.2871 -0.7274 -0.1100
 8956WAT      O37628   5.518   9.557   6.034  0.1931 -0.5999 -0.7126
 8956WAT     H137629   5.493   9.630   6.090  0.6219  0.4043 -1.7932
 8956WAT     H237630   5.502   9.588   5.945  3.6172 -0.5043 -1.4145
 8956WAT    EPW37631   5.513   9.570   6.030  0.7012 -0.4549 -0.9480
 8957WAT      O37632   3.673   0.976   7.802  0.7156  0.0738  0.9474
 8957WAT     H137633   3.708   1.063   7.822  0.3181  0.4795 -0.0526
 8957WAT     H237634   3.625   0.951   7.881 -2.5737  2.5285 -0.0424
 8957WAT    EPW37635   3.671   0.984   7.815  0.2292  0.4511  0.6852
 8958WAT      O37636  10.316   0.079   7.351 -0.7610  0.0457 -0.0310
 8958WAT     H137637  10.248   0.013   7.367 -0.1864 -0.2489  1.3444
 8958WAT     H237638  10.302   0.145   7.419  0.8396 -0.4646  0.8623
 8958WAT    EPW37639  10.305   0.079   7.362 -0.4740 -0.0605  0.2682
 8959WAT      O37640   7.528   7.595   2.444 -0.8714  0.0541  0.3360
 8959WAT     H137641   7.583   7.562   2.373  0.5159  2.6024  0.0906
 8959WAT     H237642   7.438   7.587   2.411 -0.2664  1.3593 -1.8696
 8959WAT    EPW37643   7.523   7.590   2.430 -0.6084  0.5624  0.0128
 8960WAT      O37644   4.216   2.342   4.952 -0.2453 -0.5085 -0.5657
 8960WAT     H137645   4.296   2.306   4.916  0.5282 -0.2360  0.8027
 8960WAT     H237646   4.191   2.412   4.892 -0.2798 -1.5289 -1.7795
 8960WAT    EPW37647   4.223   2.347   4.939 -0.1478 -0.6073 -0.5453
 8961WAT      O37648   8.476  10.172   6.450  0.3340  0.3031 -0.0320
 8961WAT     H137649   8.380  10.180   6.457  0.4206  1.1268  0.4286
 8961WAT     H237650   8.507  10.262   6.446  1.0306  0.0263 -1.3205
 8961WAT    EPW37651   8.467  10.185   6.450  0.4373  0.3757 -0.1409
 8962WAT      O37652   3.833   0.734   8.440  0.0515 -0.6668 -0.1344
 8962WAT     H137653   3.744   0.701   8.431  0.8519 -3.1375  0.3977
 8962WAT     H237654   3.888   0.656   8.448  2.2982  0.7620 -0.4912
 8962WAT    EPW37655   3.829   0.719   8.440  0.4534 -0.8043 -0.1111
 8963WAT      O37656   3.256   3.520   6.010 -0.7875 -0.3055  0.0991
 8963WAT     H137657   3.336   3.524   5.957 -0.8323  1.0717  0.1028
 8963WAT     H237658   3.193   3.572   5.961 -1.7675 -1.5473 -0.0051
 8963WAT    EPW37659   3.258   3.528   5.996 -0.9226 -0.2877  0.0858
 8964WAT      O37660   2.179   5.547   2.576  0.0388 -0.0110  0.2691
 8964WAT     H137661   2.255   5.565   2.631  1.3853 -2.2796 -0.6914
 8964WAT     H237662   2.177   5.451   2.570 -1.7559  0.0832 -1.3127
 8964WAT    EPW37663   2.189   5.537   2.583 -0.0201 -0.2978 -0.0663
 8965WAT      O37664   6.515   1.054   7.493 -0.4991  0.0441  0.5182
 8965WAT     H137665   6.477   1.141   7.505  1.8251  1.1651  0.2872
 8965WAT     H237666   6.581   1.047   7.562  0.8909 -0.6096 -0.8319
 8965WAT    EPW37667   6.519   1.065   7.504 -0.0091  0.1057  0.3097
 8966WAT      O37668   2.567   9.946   7.261 -0.3402  0.1697 -0.3043
 8966WAT     H137669   2.520  10.010   7.315 -0.1244  0.9363 -1.0165
 8966WAT     H237670   2.505   9.922   7.193  0.0516  0.6695 -0.8460
 8966WAT    EPW37671   2.553   9.951   7.259 -0.2601  0.3371 -0.4697
 8967WAT      O37672   4.723   3.503   4.976 -0.1705  0.1526 -0.1331
 8967WAT     H137673   4.695   3.464   4.893 -0.2445 -0.1451  0.0275
 8967WAT     H237674   4.781   3.575   4.951 -0.4081  0.2350 -0.4480
 8967WAT    EPW37675   4.727   3.507   4.962 -0.2115  0.1242 -0.1535
 8968WAT      O37676   4.651   1.510   5.305  0.7769 -0.8991 -0.2950
 8968WAT     H137677   4.693   1.496   5.390 -0.2022  1.6782  0.6941
 8968WAT     H237678   4.659   1.604   5.290 -2.6203 -0.6327 -1.1116
 8968WAT    EPW37679   4.658   1.521   5.314  0.1996 -0.5239 -0.2720
 8969WAT      O37680   6.589   3.662   7.074  0.3894 -0.0015 -0.0112
 8969WAT     H137681   6.627   3.623   6.995 -2.9415  0.5402 -2.0920
 8969WAT     H237682   6.561   3.588   7.126 -0.5632 -0.4276 -1.0867
 8969WAT    EPW37683   6.591   3.647   7.070 -0.1757  0.0138 -0.4277
 8970WAT      O37684   5.097   1.813   7.462 -0.7168 -0.1689 -0.3063
 8970WAT     H137685   5.160   1.804   7.390  0.6525  2.0732  0.5113
 8970WAT     H237686   5.028   1.750   7.441  2.2592 -3.6843 -0.6538
 8970WAT    EPW37687   5.096   1.803   7.450 -0.1433 -0.3368 -0.2441
 8971WAT      O37688   5.135   2.294   7.268  1.0487 -0.6535 -0.4596
 8971WAT     H137689   5.156   2.206   7.236 -0.9388 -2.0465  1.7046
 8971WAT     H237690   5.185   2.303   7.349  0.0292 -0.4595  0.1593
 8971WAT    EPW37691   5.144   2.283   7.275  0.6521 -0.8118 -0.0927
 8972WAT      O37692   1.527   1.708   7.354 -0.2204  0.4411 -0.0805
 8972WAT     H137693   1.520   1.691   7.448  1.4401  1.5525  0.3006
 8972WAT     H237694   1.442   1.744   7.329 -0.0134  2.1528  1.4866
 8972WAT    EPW37695   1.515   1.710   7.363  0.0259  0.8135  0.1767
 8973WAT      O37696   4.794   0.768   5.212  0.1079  0.4921 -0.3994
 8973WAT     H137697   4.814   0.675   5.197 -1.6062 -0.1183  0.7331
 8973WAT     H237698   4.842   0.790   5.292 -1.1556 -0.0646  0.5410
 8973WAT    EPW37699   4.803   0.758   5.220 -0.2847  0.3381 -0.1259
 8974WAT      O37700   8.509   7.539   0.355 -0.1741  0.6651  0.0193
 8974WAT     H137701   8.599   7.509   0.344 -0.1660  1.4804 -3.1979
 8974WAT     H237702   8.456   7.459   0.355  0.3340  0.2646 -1.9620
 8974WAT    EPW37703   8.514   7.525   0.354 -0.1059  0.7195 -0.6664
 8975WAT      O37704   2.552   1.199   6.039  0.6669 -0.5285  0.3483
 8975WAT     H137705   2.513   1.164   6.119 -1.2942  2.2965  0.7751
 8975WAT     H237706   2.630   1.246   6.069  0.1749  0.1603  0.5639
 8975WAT    EPW37707   2.557   1.201   6.053  0.3436 -0.0650  0.4332
 8976WAT      O37708   7.167   0.897   4.244 -0.2779 -0.3042 -0.1741
 8976WAT     H137709   7.218   0.855   4.174 -0.8131  3.3878 -3.0898
 8976WAT     H237710   7.078   0.900   4.210 -0.2850  2.8779 -0.1873
 8976WAT    EPW37711   7.162   0.892   4.230 -0.3495  0.6025 -0.5603
 8977WAT      O37712   7.303   2.118   7.810  0.2901  0.3151  0.3037
 8977WAT     H137713   7.382   2.080   7.773  1.1125  0.3954  1.8664
 8977WAT     H237714   7.232   2.063   7.778  0.9085  0.5303 -1.5152
 8977WAT    EPW37715   7.304   2.106   7.801  0.4802  0.3542  0.2699
 8978WAT      O37716   4.362   3.418   6.733 -0.2229 -0.1738 -0.9475
 8978WAT     H137717   4.385   3.463   6.652 -0.5977  3.1424  0.6365
 8978WAT     H237718   4.269   3.438   6.745  0.1927  0.8122  1.0461
 8978WAT    EPW37719   4.353   3.427   6.724 -0.2174  0.3935 -0.4754
 8979WAT      O37720   6.910   5.960   2.084 -0.3977 -0.2511 -0.1125
 8979WAT     H137721   6.933   5.968   1.991 -0.9298  0.8740 -0.1651
 8979WAT     H237722   6.993   5.970   2.130 -0.4843  2.2232 -0.3676
 8979WAT    EPW37723   6.924   5.962   2.077 -0.4792  0.2236 -0.1531
 8980WAT      O37724  10.267   7.398   0.021  0.6660 -0.2451 -0.2408
 8980WAT     H137725  10.328   7.365  -0.045 -1.3301 -0.3541 -2.1562
 8980WAT     H237726  10.309   7.477   0.055  2.9079 -1.5855  0.2841
 8980WAT    EPW37727  10.281   7.404   0.016  0.6986 -0.4363 -0.4242
 8981WAT      O37728   3.900   0.622   4.870 -0.1676  0.2359  0.2849
 8981WAT     H137729   3.835   0.690   4.856 -1.2822 -0.0052  3.3972
 8981WAT     H237730   3.983   0.663   4.847 -1.2068  0.9808 -2.5293
 8981WAT    EPW37731   3.902   0.636   4.865 -0.4517  0.3023  0.3242
 8982WAT      O37732   3.851   0.817   7.529 -0.9230 -0.1564 -0.0344
 8982WAT     H137733   3.793   0.848   7.599 -1.4677 -1.2139  0.0131
 8982WAT     H237734   3.796   0.820   7.450 -1.1253 -1.3338  0.0420
 8982WAT    EPW37735   3.836   0.821   7.528 -1.0215 -0.4512 -0.0184
 8983WAT      O37736   4.231   3.441   5.076 -0.2648 -0.5783 -0.0968
 8983WAT     H137737   4.263   3.484   4.997  0.1849  1.1194  0.9493
 8983WAT     H237738   4.138   3.466   5.081 -0.0826  0.0453  0.3392
 8983WAT    EPW37739   4.223   3.450   5.066 -0.1814 -0.2722  0.0987
 8984WAT      O37740   3.899   4.517   5.120 -0.3524 -0.0151 -0.1657
 8984WAT     H137741   3.928   4.601   5.084 -0.8137 -0.0951 -0.7457
 8984WAT     H237742   3.935   4.452   5.060 -0.4695 -0.2025 -0.0336
 8984WAT    EPW37743   3.908   4.519   5.107 -0.4286 -0.0501 -0.2246
 8985WAT      O37744  10.987   8.409   5.810 -0.2095 -0.1775 -0.4099
 8985WAT     H137745  11.058   8.463   5.777  0.1385  0.0364  0.6362
 8985WAT     H237746  10.909   8.463   5.800  0.2485  0.9012  1.3910
 8985WAT    EPW37747  10.986   8.423   5.804 -0.1032 -0.0062 -0.0346
 8986WAT      O37748   5.837   3.078   6.468  0.1400 -0.1047  0.2730
 8986WAT     H137749   5.770   3.136   6.432  2.2555  1.7496 -0.9611
 8986WAT     H237750   5.860   3.117   6.552  0.8452  0.2673 -0.0871
 8986WAT    EPW37751   5.831   3.091   6.474  0.5121  0.1891  0.0625
 8987WAT      O37752   6.247   1.569   5.816  0.4724 -0.8300  0.0251
 8987WAT     H137753   6.274   1.640   5.759 -2.4017 -1.2712 -2.1117
 8987WAT     H237754   6.321   1.509   5.817  1.0561 -0.2481 -2.4112
 8987WAT    EPW37755   6.260   1.570   5.809  0.1707 -0.8115 -0.5782
 8988WAT      O37756   4.190   4.621   5.711 -0.4376 -0.1194 -0.4102
 8988WAT     H137757   4.274   4.666   5.719 -0.6260  0.0367  0.9955
 8988WAT     H237758   4.159   4.613   5.801 -2.3873  0.7105 -0.9490
 8988WAT    EPW37759   4.197   4.626   5.724 -0.7195  0.0103 -0.2959
 8989WAT      O37760   6.641   4.035   6.975 -0.2497  0.2245 -0.0768
 8989WAT     H137761   6.561   3.990   6.950 -0.8340  1.9171 -1.5110
 8989WAT     H237762   6.632   4.051   7.069 -0.1641 -2.2266  0.4041
 8989WAT    EPW37763   6.629   4.031   6.984 -0.3157  0.1245 -0.2027
 8990WAT      O37764   0.886  10.081   7.845 -0.3086 -0.4447 -1.1362
 8990WAT     H137765   0.869  10.082   7.750  2.5389 -0.5099 -1.7501
 8990WAT     H237766   0.921   9.993   7.861 -0.7131 -0.4132 -0.0265
 8990WAT    EPW37767   0.889  10.069   7.834  0.0136 -0.4492 -1.0710
 8991WAT      O37768   7.116   6.110   1.319 -0.0064  0.0193 -0.2572
 8991WAT     H137769   7.137   6.111   1.413 -2.4327  1.6633  0.3664
 8991WAT     H237770   7.196   6.141   1.276  2.1075 -3.2417  0.8983
 8991WAT    EPW37771   7.129   6.114   1.326 -0.0477 -0.1941 -0.0226
 8992WAT      O37772   4.118   3.375   6.603  0.3896 -0.2054 -0.3768
 8992WAT     H137773   4.097   3.457   6.559 -1.1978 -0.0247  0.6183
 8992WAT     H237774   4.168   3.325   6.539  2.1113  1.8358 -0.7208
 8992WAT    EPW37775   4.121   3.379   6.589  0.4075  0.0876 -0.2913
 8993WAT      O37776   4.297   3.160   7.724 -0.4703  0.3430  0.6163
 8993WAT     H137777   4.267   3.200   7.643  1.7198  3.4436  1.1331
 8993WAT     H237778   4.385   3.196   7.737  1.2683 -3.7624  1.9570
 8993WAT    EPW37779   4.305   3.170   7.715  0.0482  0.2104  0.8614
 8994WAT      O37780   2.525   5.355   8.548  0.2109  0.0310  0.4775
 8994WAT     H137781   2.486   5.343   8.461 -0.6185  0.3384  0.8024
 8994WAT     H237782   2.586   5.282   8.557 -3.1834 -2.9361  1.5772
 8994WAT    EPW37783   2.528   5.344   8.538 -0.3462 -0.3197  0.6652
 8995WAT      O37784   6.755   1.386   5.198  0.1644 -1.7585 -0.7210
 8995WAT     H137785   6.766   1.374   5.104 -1.1660 -0.3133 -1.1054
 8995WAT     H237786   6.813   1.459   5.220  0.1469 -1.8050 -0.5216
 8995WAT    EPW37787   6.764   1.394   5.189 -0.0136 -1.5740 -0.7453
 8996WAT      O37788   7.318   3.791   6.683 -0.1444 -0.2872 -0.2550
 8996WAT     H137789   7.374   3.859   6.721  0.8504 -0.5637 -1.1984
 8996WAT     H237790   7.369   3.754   6.612 -1.8412 -0.0067 -1.6999
 8996WAT    EPW37791   7.332   3.795   6.679 -0.2370 -0.2866 -0.5701
 8997WAT      O37792   7.158   2.998   5.355  0.0115 -0.0196  0.5327
 8997WAT     H137793   7.064   2.989   5.367  0.1126 -0.5318  0.9743
 8997WAT     H237794   7.186   2.915   5.317  0.2519  0.2211  0.1689
 8997WAT    EPW37795   7.150   2.986   5.351  0.0565 -0.0554  0.5431
 8998WAT      O37796   3.991   2.168   3.510  0.3752 -0.3795  0.6520
 8998WAT     H137797   3.946   2.109   3.571 -0.7896 -1.6592 -1.3572
 8998WAT     H237798   4.083   2.142   3.515 -0.1499 -2.5764 -0.3631
 8998WAT    EPW37799   3.997   2.157   3.519  0.1523 -0.8380  0.2531
 8999WAT      O37800   5.544   4.705   8.388  0.2145  0.1821  0.1298
 8999WAT     H137801   5.508   4.768   8.326 -2.2629 -0.0417  1.2532
 8999WAT     H237802   5.561   4.627   8.336  0.5552  0.8152 -0.7210
 8999WAT    EPW37803   5.542   4.703   8.373 -0.0672  0.2360  0.1659
 9000WAT      O37804   2.762   2.081   7.930  0.6371 -0.6497  0.2177
 9000WAT     H137805   2.764   2.137   8.007 -0.2998  0.3373 -0.4611
 9000WAT     H237806   2.842   2.102   7.882  0.0463  0.4925 -0.2882
 9000WAT    EPW37807   2.773   2.091   7.934  0.4357 -0.3688  0.0613
 9001WAT      O37808   2.508   9.439   5.197 -0.6383 -0.1339  0.2038
 9001WAT     H137809   2.603   9.435   5.184 -0.2776 -0.0142  2.3893
 9001WAT     H237810   2.478   9.502   5.132  1.1746  1.7630  1.0864
 9001WAT    EPW37811   2.517   9.447   5.186 -0.3517  0.1321  0.6084
 9002WAT      O37812   5.123   4.320   7.448  0.5303 -0.5560  0.4556
 9002WAT     H137813   5.159   4.346   7.533 -2.2013  1.7016  1.0706
 9002WAT     H237814   5.067   4.244   7.468  0.1308 -0.2173  0.6430
 9002WAT    EPW37815   5.120   4.313   7.462  0.1171 -0.2136  0.5615
 9003WAT      O37816   0.543   0.857   0.347  0.3335  0.4334 -0.3339
 9003WAT     H137817   0.450   0.849   0.368  0.8461 -2.2410  1.4429
 9003WAT     H237818   0.571   0.937   0.391 -0.5580 -0.3373  1.7615
 9003WAT    EPW37819   0.535   0.866   0.355  0.2835 -0.0210  0.1768
 9004WAT      O37820   8.662   5.788   0.117 -0.5319  0.2512  0.3020
 9004WAT     H137821   8.655   5.844   0.039  1.1079 -0.8466 -0.6869
 9004WAT     H237822   8.757   5.779   0.131 -0.7147 -2.5815  0.1816
 9004WAT    EPW37823   8.674   5.794   0.109 -0.3405 -0.2675  0.1557
 9005WAT      O37824   6.184   4.050   6.976 -0.7803  0.5654  0.2810
 9005WAT     H137825   6.129   4.125   6.998 -1.4319 -0.0291  0.7154
 9005WAT     H237826   6.261   4.088   6.934 -0.5783  1.5591  1.4898
 9005WAT    EPW37827   6.187   4.064   6.973 -0.8399  0.6180  0.4973
 9006WAT      O37828   5.989   2.679   4.895 -0.4190 -0.7400 -0.2032
 9006WAT     H137829   5.951   2.759   4.859 -2.1932 -0.0120  2.9088
 9006WAT     H237830   5.933   2.609   4.863  0.2006 -0.6240 -1.6498
 9006WAT    EPW37831   5.977   2.680   4.886 -0.5713 -0.6287  0.0165
 9007WAT      O37832   6.427   6.048   0.360  0.0529  0.1001 -0.7786
 9007WAT     H137833   6.494   6.098   0.313  0.5470  1.1849  1.0028
 9007WAT     H237834   6.467   6.025   0.443 -1.0647 -1.1152 -0.5458
 9007WAT    EPW37835   6.441   6.052   0.365 -0.0296  0.0830 -0.5129
 9008WAT      O37836   6.579   2.385   7.718 -0.6298 -0.6930  0.1059
 9008WAT     H137837   6.487   2.382   7.745 -0.0037 -0.6467  2.3996
 9008WAT     H237838   6.627   2.343   7.789  1.5098  2.6151  0.8040
 9008WAT    EPW37839   6.573   2.379   7.731 -0.2649 -0.2505  0.5007
 9009WAT      O37840   4.057   2.244   7.095 -0.2698  0.0379 -0.8014
 9009WAT     H137841   4.099   2.246   7.181  0.6842 -0.3409 -1.2468
 9009WAT     H237842   4.102   2.312   7.044 -1.0994  0.5401 -0.8999
 9009WAT    EPW37843   4.068   2.254   7.100 -0.2534  0.0541 -0.8729
 9010WAT      O37844   5.044   2.784   7.580  0.4591  0.2249 -0.1726
 9010WAT     H137845   5.065   2.874   7.603  0.7349 -0.0522  0.6664
 9010WAT     H237846   5.078   2.774   7.491 -0.2133  1.1575 -0.5538
 9010WAT    EPW37847   5.051   2.794   7.571  0.4070  0.3115 -0.1121
 9011WAT      O37848   5.011   3.463   6.051 -0.5350 -0.0148  0.1154
 9011WAT     H137849   5.049   3.446   5.965 -0.2152 -2.5012  0.6832
 9011WAT     H237850   5.053   3.399   6.109 -3.3032 -0.8315  1.3989
 9011WAT    EPW37851   5.022   3.452   6.047 -0.8581 -0.4505  0.3595
 9012WAT      O37852   4.291   3.227   5.977  0.5658 -0.2073  0.4807
 9012WAT     H137853   4.215   3.170   5.988  1.3101 -1.7456 -1.6210
 9012WAT     H237854   4.312   3.256   6.066 -2.1199 -0.1521  1.1827
 9012WAT    EPW37855   4.284   3.223   5.990  0.3097 -0.4029  0.2964
 9013WAT      O37856   2.168   2.175   5.405 -0.0801 -0.3222  0.9583
 9013WAT     H137857   2.160   2.080   5.408  0.7316 -0.6187 -2.4561
 9013WAT     H237858   2.262   2.191   5.401 -0.1675  0.7326  2.4889
 9013WAT    EPW37859   2.179   2.165   5.405  0.0154 -0.2222  0.7098
 9014WAT      O37860   8.837   7.471   8.111  0.2328  0.1483  0.1296
 9014WAT     H137861   8.797   7.521   8.040  1.4664  1.8838  0.5965
 9014WAT     H237862   8.876   7.395   8.068 -0.5814  0.2128 -0.7715
 9014WAT    EPW37863   8.837   7.468   8.096  0.2890  0.3858  0.0720
 9015WAT      O37864   6.175   0.788   7.890  0.0978  0.4077 -0.1310
 9015WAT     H137865   6.267   0.799   7.868  0.5470  1.1889  1.9161
 9015WAT     H237866   6.144   0.877   7.908 -0.2159 -0.0702  2.0629
 9015WAT    EPW37867   6.183   0.802   7.890  0.1161  0.4477  0.4282
 9016WAT      O37868   4.238   4.007   5.392 -0.0414 -0.4154  0.6256
 9016WAT     H137869   4.277   4.094   5.379 -0.0402 -0.4730  0.2419
 9016WAT     H237870   4.313   3.950   5.411  0.0717 -0.5222 -0.0898
 9016WAT    EPW37871   4.253   4.011   5.393 -0.0267 -0.4370  0.4807
 9017WAT      O37872   5.653   2.188   5.869 -0.7211 -0.2692  0.2766
 9017WAT     H137873   5.710   2.177   5.792 -0.9657  5.5851 -1.2099
 9017WAT     H237874   5.714   2.185   5.944  0.3720 -0.9129 -0.5972
 9017WAT    EPW37875   5.669   2.186   5.869 -0.6094  0.4182 -0.0346
 9018WAT      O37876   2.749   0.905   2.857 -0.0108 -0.6386 -0.1996
 9018WAT     H137877   2.713   0.963   2.790 -1.3766  0.7198  1.6242
 9018WAT     H237878   2.752   0.819   2.815 -0.6222  0.2014 -2.0533
 9018WAT    EPW37879   2.745   0.901   2.842 -0.2716 -0.3487 -0.2035
 9019WAT      O37880  10.056   5.263   5.665  0.7964 -0.7552  0.3128
 9019WAT     H137881  10.139   5.311   5.659  0.4712 -0.2626 -0.3025
 9019WAT     H237882  10.080   5.180   5.707  0.8494  1.1568  4.4877
 9019WAT    EPW37883  10.070   5.258   5.670  0.7606 -0.4382  0.7823
 9020WAT      O37884   3.287   4.249   8.122  0.8110  0.4265 -0.2200
 9020WAT     H137885   3.283   4.324   8.181  1.5955 -0.0197  0.4376
 9020WAT     H237886   3.364   4.200   8.152  0.3213 -0.6280 -0.6369
 9020WAT    EPW37887   3.297   4.252   8.134  0.8501  0.2286 -0.1884
 9021WAT      O37888   4.489   2.107   4.569 -0.3178 -0.2049 -0.2107
 9021WAT     H137889   4.398   2.086   4.548  0.2402 -1.0725 -1.9168
 9021WAT     H237890   4.538   2.027   4.550  0.6992 -0.1408  1.7972
 9021WAT    EPW37891   4.483   2.094   4.564 -0.1099 -0.3109 -0.1707
 9022WAT      O37892   4.794   3.103   4.097 -0.0433  0.5209 -0.0230
 9022WAT     H137893   4.870   3.069   4.049  0.5139 -0.7939  1.6783
 9022WAT     H237894   4.829   3.175   4.148  0.2259 -0.4258  1.1723
 9022WAT    EPW37895   4.809   3.108   4.097  0.0658  0.2227  0.3593
 9023WAT      O37896   2.435   3.254   6.633 -0.1654 -0.0587  0.2017
 9023WAT     H137897   2.500   3.324   6.639  0.2495 -0.5397  2.1476
 9023WAT     H237898   2.357   3.291   6.674 -0.2031 -0.4282  0.4707
 9023WAT    EPW37899   2.433   3.268   6.639 -0.1156 -0.1709  0.4938
 9024WAT      O37900   6.844   4.370   7.569  0.7450 -0.0080 -0.5083
 9024WAT     H137901   6.800   4.301   7.521 -2.3723  1.3153  0.2076
 9024WAT     H237902   6.862   4.331   7.655  0.7144 -0.4936 -0.7186
 9024WAT    EPW37903   6.841   4.356   7.574  0.3295  0.1028 -0.4416
 9025WAT      O37904   5.401   1.559   7.908  0.2230 -0.4493 -0.0128
 9025WAT     H137905   5.461   1.560   7.983 -1.8585 -1.9782  1.7931
 9025WAT     H237906   5.374   1.650   7.897 -0.7770 -0.4007  2.2976
 9025WAT    EPW37907   5.406   1.571   7.917 -0.1833 -0.6446  0.5302
 9026WAT      O37908   3.719   5.271   7.663  0.2861  0.4853  0.7317
 9026WAT     H137909   3.797   5.271   7.717  0.9909 -0.5172 -0.2372
 9026WAT     H237910   3.742   5.325   7.587 -0.4093  1.2335  1.0483
 9026WAT    EPW37911   3.732   5.278   7.660  0.2872  0.4518  0.6456
 9027WAT      O37912   7.024   9.784   0.193 -0.1551 -0.0537  0.1174
 9027WAT     H137913   6.996   9.861   0.243  0.6063 -1.4439  2.8510
 9027WAT     H237914   7.084   9.819   0.128  0.3746  1.6679  1.4542
 9027WAT    EPW37915   7.028   9.799   0.191  0.0153 -0.0100  0.6542
 9028WAT      O37916   3.843   4.390   7.902  0.8506 -0.4139  0.2214
 9028WAT     H137917   3.832   4.414   7.810  1.8092  0.4208  0.3083
 9028WAT     H237918   3.906   4.318   7.901 -0.0952 -1.2633  0.1492
 9028WAT    EPW37919   3.850   4.384   7.890  0.8523 -0.4160  0.2234
 9029WAT      O37920   3.156   3.003   2.212 -0.1796  0.3088 -0.0301
 9029WAT     H137921   3.148   2.912   2.183 -1.2125  0.9926 -2.1428
 9029WAT     H237922   3.116   3.004   2.299 -2.4462 -0.8591 -0.9567
 9029WAT    EPW37923   3.149   2.991   2.219 -0.6146  0.2450 -0.4309
 9030WAT      O37924   6.525   3.235   7.010  0.6822 -0.0460  0.0533
 9030WAT     H137925   6.455   3.192   6.961  0.1796  0.6909  0.0978
 9030WAT     H237926   6.579   3.164   7.043 -0.5888 -0.6868  0.8353
 9030WAT    EPW37927   6.523   3.220   7.008  0.4482 -0.0334  0.1621
 9031WAT      O37928   6.242   4.115   8.169  0.1818  0.5427 -0.4323
 9031WAT     H137929   6.223   4.021   8.173  1.2015  0.2941 -1.0891
 9031WAT     H237930   6.334   4.120   8.144 -0.6383  1.6993 -3.7861
 9031WAT    EPW37931   6.252   4.103   8.167  0.2081  0.6623 -0.9618
 9032WAT      O37932   0.861   3.537   7.224  0.3848  0.7582  0.3066
 9032WAT     H137933   0.850   3.630   7.242 -0.6585  0.8089 -0.5158
 9032WAT     H237934   0.876   3.533   7.130 -2.0908 -0.0677 -0.1133
 9032WAT    EPW37935   0.862   3.549   7.214 -0.0793  0.6559  0.1426
 9033WAT      O37936   5.048   1.413   8.827  0.0575  0.4184 -0.1750
 9033WAT     H137937   5.126   1.468   8.825 -1.7036  3.0961 -0.1838
 9033WAT     H237938   5.036   1.394   8.920  0.5248  0.2514 -0.1440
 9033WAT    EPW37939   5.057   1.417   8.839 -0.1132  0.7495 -0.1721
 9034WAT      O37940   6.294   3.329   5.814 -0.0818 -0.2489 -0.8377
 9034WAT     H137941   6.265   3.270   5.745  1.3968  0.3350 -2.0377
 9034WAT     H237942   6.320   3.271   5.885 -1.9415 -0.8512 -0.5990
 9034WAT    EPW37943   6.294   3.314   5.814 -0.1321 -0.2514 -0.9644
 9035WAT      O37944   7.953   3.320   6.227  0.9276  0.1673 -0.3200
 9035WAT     H137945   7.944   3.287   6.138  3.2931 -0.6757 -0.3245
 9035WAT     H237946   7.974   3.242   6.279  0.3088  0.7633  0.8527
 9035WAT    EPW37947   7.955   3.305   6.222  1.1578  0.1348 -0.1657
 9036WAT      O37948   5.671   0.816   7.269 -0.0003  0.7281  0.1499
 9036WAT     H137949   5.687   0.896   7.318 -1.0835  0.3683  1.1486
 9036WAT     H237950   5.734   0.753   7.304 -0.0310  0.7766  0.2911
 9036WAT    EPW37951   5.681   0.818   7.280 -0.1471  0.6871  0.3004
 9037WAT      O37952   4.233   1.513   4.389 -0.0212 -0.5300 -0.0250
 9037WAT     H137953   4.246   1.608   4.380 -0.8767 -0.5332 -1.9492
 9037WAT     H237954   4.320   1.478   4.408  0.0827  0.7355  2.1140
 9037WAT    EPW37955   4.246   1.521   4.390 -0.1204 -0.3634  0.0036
 9038WAT      O37956   4.589   2.577   5.883 -1.1667  0.0770 -0.1286
 9038WAT     H137957   4.623   2.548   5.798 -0.4332 -2.4294  0.9273
 9038WAT     H237958   4.564   2.669   5.869  1.9197  0.7548 -2.1846
 9038WAT    EPW37959   4.590   2.585   5.870 -0.6630 -0.1640 -0.2606
 9039WAT      O37960   4.972   3.260   7.181 -0.1125  0.2115 -0.6408
 9039WAT     H137961   4.975   3.287   7.273  2.1016 -0.6925 -0.3733
 9039WAT     H237962   4.971   3.165   7.185  4.3645 -0.1001 -1.3737
 9039WAT    EPW37963   4.973   3.251   7.194  0.7703  0.0511 -0.7024
 9040WAT      O37964   6.992   5.935   7.330  0.1441  0.6125 -0.4232
 9040WAT     H137965   6.990   6.003   7.398 -0.0695  2.0387 -1.7941
 9040WAT     H237966   7.071   5.884   7.350  1.4624  2.5107 -0.4525
 9040WAT    EPW37967   7.002   5.937   7.342  0.2894  1.0509 -0.6080
 9041WAT      O37968   4.458   2.455   7.009  0.3361 -1.0101 -0.8867
 9041WAT     H137969   4.440   2.471   7.101  1.3362 -1.9506 -0.5161
 9041WAT     H237970   4.545   2.416   7.007 -0.7521 -3.6517 -1.9515
 9041WAT    EPW37971   4.467   2.452   7.021  0.3245 -1.4825 -0.9782
 9042WAT      O37972   0.937   5.461   7.863 -0.5499 -0.6397  0.3999
 9042WAT     H137973   0.971   5.442   7.775  2.0970 -0.3641  1.2568
 9042WAT     H237974   0.950   5.380   7.912  2.0364  0.3727  1.5884
 9042WAT    EPW37975   0.944   5.448   7.858  0.1403 -0.4697  0.6700
 9043WAT      O37976   4.322   2.616   5.416 -0.5362 -0.1506 -0.0632
 9043WAT     H137977   4.290   2.694   5.460 -1.7261 -1.0019  0.6319
 9043WAT     H237978   4.416   2.631   5.405 -0.7268  1.3219  0.1287
 9043WAT    EPW37979   4.330   2.628   5.420 -0.7181 -0.0685  0.0539
 9044WAT      O37980   8.151   9.474   0.349 -0.0633  0.5865  0.2882
 9044WAT     H137981   8.210   9.525   0.293  0.3551  0.6733  0.7941
 9044WAT     H237982   8.092   9.430   0.289 -0.9073  2.2372 -0.1508
 9044WAT    EPW37983   8.151   9.475   0.334 -0.1187  0.8154  0.2970
 9045WAT      O37984   3.239   3.911   1.612  0.3636  0.5400  0.3627
 9045WAT     H137985   3.223   4.004   1.628  1.1989  0.4932  1.5711
 9045WAT     H237986   3.335   3.902   1.614  0.2950 -0.3480  0.2437
 9045WAT    EPW37987   3.250   3.922   1.614  0.4647  0.4168  0.5064
 9046WAT      O37988   5.369   4.130   7.704  0.2344 -0.2357  0.3274
 9046WAT     H137989   5.306   4.070   7.744 -0.6617  0.2985 -0.2435
 9046WAT     H237990   5.438   4.073   7.670 -1.0723 -1.0629 -1.0705
 9046WAT    EPW37991   5.369   4.114   7.705 -0.0563 -0.2744  0.0679
 9047WAT      O37992   9.656   4.514   7.632 -0.2952 -0.2448 -0.2481
 9047WAT     H137993   9.737   4.541   7.675 -0.3252  0.7744 -0.8040
 9047WAT     H237994   9.659   4.556   7.546 -1.0667 -0.8052 -0.5624
 9047WAT    EPW37995   9.667   4.523   7.626 -0.4010 -0.1843 -0.3629
 9048WAT      O37996   5.521   1.268   8.617 -0.6258 -0.8216 -0.3205
 9048WAT     H137997   5.603   1.233   8.653 -0.3504 -1.4421 -1.5203
 9048WAT     H237998   5.453   1.214   8.656 -0.5364  0.0461  1.1148
 9048WAT    EPW37999   5.523   1.256   8.627 -0.5779 -0.7890 -0.2894
 9049WAT      O38000   8.746   3.234   3.442  0.0230 -0.7381  0.0347
 9049WAT     H138001   8.801   3.221   3.519 -1.7515  0.4700  1.5829
 9049WAT     H238002   8.780   3.314   3.401 -1.8784  1.3946  2.3183
 9049WAT    EPW38003   8.758   3.243   3.446 -0.4621 -0.2974  0.5401
 9050WAT      O38004   6.766   4.915   6.597 -0.0581 -0.3762  0.2571
 9050WAT     H138005   6.766   4.960   6.681 -1.6362  0.1413  0.0223
 9050WAT     H238006   6.827   4.965   6.543  0.3538 -0.2350  0.8419
 9050WAT    EPW38007   6.774   4.927   6.601 -0.2117 -0.2894  0.3035
 9051WAT      O38008   5.193   3.494   7.019  0.3523 -0.7161  0.4950
 9051WAT     H138009   5.207   3.493   6.924 -1.5822  2.4174  0.0154
 9051WAT     H238010   5.260   3.554   7.052  0.1461 -0.7079  0.9029
 9051WAT    EPW38011   5.204   3.502   7.011  0.0703 -0.3017  0.4857
 9052WAT      O38012   3.821   4.275   6.767  0.2149  0.0355 -0.5992
 9052WAT     H138013   3.873   4.334   6.820 -0.9204  0.4539  0.0958
 9052WAT     H238014   3.847   4.293   6.677  0.7140  0.7696 -0.3125
 9052WAT    EPW38015   3.831   4.285   6.762  0.1309  0.1876 -0.4699
 9053WAT      O38016   1.622   2.021   6.324  0.2054  0.0945 -0.1882
 9053WAT     H138017   1.686   2.010   6.253 -1.2373 -1.4624 -1.3437
 9053WAT     H238018   1.566   1.943   6.317 -1.3586  1.0334  1.2514
 9053WAT    EPW38019   1.623   2.009   6.313 -0.1912  0.0131 -0.1507
 9054WAT      O38020   2.865   1.773   5.748 -0.1612  0.0117 -0.1232
 9054WAT     H138021   2.923   1.850   5.750  0.3689 -0.3862 -0.0258
 9054WAT     H238022   2.884   1.730   5.665 -1.6518  0.8771 -0.9436
 9054WAT    EPW38023   2.875   1.778   5.737 -0.2879  0.0733 -0.2184
 9055WAT      O38024   3.512   1.549   5.770  0.0888 -0.4251 -0.8288
 9055WAT     H138025   3.467   1.515   5.848  0.0495 -1.0269 -1.1059
 9055WAT     H238026   3.603   1.524   5.783  0.2407  0.2497 -0.5615
 9055WAT    EPW38027   3.518   1.541   5.782  0.1037 -0.4154 -0.8302
 9056WAT      O38028   8.570   7.947   0.507  0.7227 -0.4634  0.4017
 9056WAT     H138029   8.626   7.906   0.572  2.0734 -1.3975 -1.2482
 9056WAT     H238030   8.588   8.041   0.516  1.8391 -0.6771  0.5740
 9056WAT    EPW38031   8.580   7.954   0.517  1.0486 -0.6149  0.2069
 9057WAT      O38032   5.109   3.242   7.935 -0.1969  0.8474 -0.4952
 9057WAT     H138033   5.100   3.286   8.019 -0.0740  1.1213 -0.6270
 9057WAT     H238034   5.169   3.169   7.953  0.5012  1.4067 -0.5378
 9057WAT    EPW38035   5.116   3.238   7.948 -0.0887  0.9574 -0.5181
 9058WAT      O38036   6.780   4.413   7.858  0.6465 -0.0366 -0.1751
 9058WAT     H138037   6.828   4.495   7.865  0.2992  0.1369  0.2584
 9058WAT     H238038   6.693   4.439   7.828  1.1388 -0.4606 -2.1025
 9058WAT    EPW38039   6.775   4.427   7.855  0.6657 -0.0699 -0.3722
 9059WAT      O38040   2.970   3.599   6.416 -0.1842 -0.8295  0.7225
 9059WAT     H138041   2.901   3.532   6.414 -1.2093  0.1366 -2.6816
 9059WAT     H238042   3.043   3.559   6.369 -0.6164  0.1693 -0.8655
 9059WAT    EPW38043   2.970   3.585   6.410 -0.3765 -0.5704  0.0639
 9060WAT      O38044   5.021   3.195   7.576  0.2252  0.2102 -0.5543
 9060WAT     H138045   4.937   3.201   7.621  0.2768  0.2058 -0.4567
 9060WAT     H238046   5.083   3.170   7.645 -0.3898 -4.2562 -1.2729
 9060WAT    EPW38047   5.018   3.192   7.591  0.1509 -0.3793 -0.6363
 9061WAT      O38048   7.459   3.412   7.357  0.2296  0.3919  0.0945
 9061WAT     H138049   7.411   3.376   7.432  0.5073 -1.1934 -0.4539
 9061WAT     H238050   7.531   3.461   7.397  1.6233 -2.1322  0.9603
 9061WAT    EPW38051   7.462   3.414   7.372  0.4501 -0.1502  0.1364
 9062WAT      O38052   7.168   4.799   8.226  0.1666  0.5575 -0.1634
 9062WAT     H138053   7.197   4.889   8.244 -1.2089  0.9523  0.2331
 9062WAT     H238054   7.072   4.804   8.229  0.0724 -1.0217  0.3450
 9062WAT    EPW38055   7.159   4.812   8.229 -0.0274  0.4010 -0.0439
 9063WAT      O38056   5.424   2.273   8.778 -0.5116  0.7019 -0.9167
 9063WAT     H138057   5.478   2.344   8.813 -1.6033  0.5499  1.2464
 9063WAT     H238058   5.394   2.306   8.693 -2.6671  3.8491  0.8356
 9063WAT    EPW38059   5.427   2.287   8.771 -0.9401  1.0970 -0.4005
 9064WAT      O38060   4.617   4.825   5.123  0.1108 -0.2389  0.4596
 9064WAT     H138061   4.560   4.902   5.127 -1.6907 -1.4045 -1.2934
 9064WAT     H238062   4.600   4.786   5.037  1.7142 -2.0553  0.8906
 9064WAT    EPW38063   4.607   4.830   5.112  0.0846 -0.6318  0.2854
 9065WAT      O38064   2.283   4.950   8.391  0.1947  0.0918  0.3001
 9065WAT     H138065   2.377   4.951   8.412  0.2111  1.4749  0.2165
 9065WAT     H238066   2.279   4.908   8.305  0.9768  1.9065 -0.6605
 9065WAT    EPW38067   2.295   4.944   8.382  0.3000  0.5136  0.1621
 9066WAT      O38068   5.149   1.107   7.868 -0.3166 -0.2993  0.1859
 9066WAT     H138069   5.179   1.177   7.926  1.0028  1.2368 -2.2018
 9066WAT     H238070   5.076   1.145   7.820 -0.7043 -1.1779  0.0606
 9066WAT    EPW38071   5.144   1.121   7.869 -0.1936 -0.2126 -0.1459
 9067WAT      O38072   2.782   2.569   8.129  0.2466  0.3071 -0.4233
 9067WAT     H138073   2.718   2.504   8.100  0.2959  0.2350 -0.3711
 9067WAT     H238074   2.737   2.653   8.118 -0.3092  0.1950  0.7436
 9067WAT    EPW38075   2.767   2.571   8.124  0.1798  0.2828 -0.2618
 9068WAT      O38076   9.940   5.938   0.972 -0.1698 -0.4157 -0.0924
 9068WAT     H138077  10.002   6.011   0.971  0.2413 -0.7548  0.1846
 9068WAT     H238078   9.968   5.882   0.900 -2.8451  1.5877 -2.9855
 9068WAT    EPW38079   9.952   5.941   0.962 -0.4687 -0.1962 -0.4375
 9069WAT      O38080   5.859   2.408   4.088  0.6347  0.0962 -0.3297
 9069WAT     H138081   5.787   2.429   4.027  3.1278  1.8512 -2.9431
 9069WAT     H238082   5.931   2.383   4.031  2.4795 -0.4352  2.1166
 9069WAT    EPW38083   5.859   2.408   4.072  1.2069  0.2576 -0.3519
 9070WAT      O38084   2.763   0.396   0.761  0.4610  0.1617  0.0152
 9070WAT     H138085   2.824   0.377   0.833  0.2506 -0.8546 -0.0619
 9070WAT     H238086   2.711   0.316   0.752  1.1763 -0.1442 -1.9448
 9070WAT    EPW38087   2.764   0.383   0.769  0.5275 -0.0127 -0.2535
 9071WAT      O38088   4.406   3.225   7.323 -0.4761 -0.0482  0.5664
 9071WAT     H138089   4.473   3.163   7.353 -0.0485 -0.5301 -1.2537
 9071WAT     H238090   4.345   3.171   7.273 -0.3278  0.9186 -0.7002
 9071WAT    EPW38091   4.407   3.209   7.320 -0.4003  0.0157  0.1593
 9072WAT      O38092   1.621   2.053   8.191 -0.3894  0.2340 -0.0096
 9072WAT     H138093   1.696   2.012   8.234 -1.4544 -0.4602  1.2976
 9072WAT     H238094   1.602   1.997   8.116 -1.9712 -1.9868  1.8781
 9072WAT    EPW38095   1.628   2.040   8.187 -0.7386 -0.1504  0.4120
 9073WAT      O38096   4.214   4.457   6.661  0.0364  0.1289  0.0383
 9073WAT     H138097   4.190   4.497   6.745  0.3019  1.6390 -0.5818
 9073WAT     H238098   4.214   4.363   6.679 -0.4647  0.3938  1.5832
 9073WAT    EPW38099   4.211   4.450   6.675  0.0050  0.3629  0.1605
 9074WAT      O38100   7.695   4.610   6.779  0.1017 -0.3818  0.3901
 9074WAT     H138101   7.699   4.663   6.859  0.5980  0.6577 -0.2985
 9074WAT     H238102   7.657   4.527   6.807 -0.6616  0.3197  1.5118
 9074WAT    EPW38103   7.691   4.606   6.793  0.0668 -0.1521  0.4470
 9075WAT      O38104   6.863   0.359   4.714  0.3399  0.0267  0.6928
 9075WAT     H138105   6.947   0.331   4.749  0.8060  0.7388  0.1778
 9075WAT     H238106   6.879   0.370   4.620 -0.6410 -0.9690  0.3806
 9075WAT    EPW38107   6.876   0.357   4.706  0.2720 -0.0107  0.5834
 9076WAT      O38108   5.772   3.923   4.489 -0.2226 -0.0077 -0.1453
 9076WAT     H138109   5.755   3.981   4.416  0.4780  2.0243  1.2015
 9076WAT     H238110   5.694   3.929   4.544 -1.0075 -1.9976 -0.9444
 9076WAT    EPW38111   5.760   3.931   4.487 -0.2337 -0.0020 -0.0732
 9077WAT      O38112   6.235   1.717   5.186 -0.0025 -0.8582  0.3171
 9077WAT     H138113   6.275   1.632   5.202 -0.7760 -1.1231  0.8810
 9077WAT     H238114   6.238   1.727   5.091  0.1891 -1.4712  0.2552
 9077WAT    EPW38115   6.240   1.707   5.175 -0.0794 -0.9739  0.3834
 9078WAT      O38116   5.108   2.473   2.099  0.2970  0.5786  0.0410
 9078WAT     H138117   5.152   2.442   2.178 -0.7966  0.6300  0.6904
 9078WAT     H238118   5.118   2.568   2.102 -1.9937  0.8577  1.5701
 9078WAT    EPW38119   5.115   2.482   2.110 -0.1495  0.6223  0.3284
 9079WAT      O38120   5.806   5.004   5.300 -0.8096 -0.3109  0.2251
 9079WAT     H138121   5.798   4.953   5.381  0.4457 -0.3393  0.3401
 9079WAT     H238122   5.825   4.939   5.233 -0.9468 -0.1816  0.0593
 9079WAT    EPW38123   5.807   4.989   5.302 -0.6621 -0.2975  0.2186
 9080WAT      O38124   5.130   3.640   1.957 -0.3401 -0.2894  0.1452
 9080WAT     H138125   5.055   3.580   1.956 -2.4952  2.2578 -0.1534
 9080WAT     H238126   5.165   3.636   1.868 -0.9387 -0.5073 -0.0857
 9080WAT    EPW38127   5.125   3.631   1.945 -0.7033  0.0179  0.0754
 9081WAT      O38128   4.632   4.467   7.170  0.9100 -0.0217 -0.2790
 9081WAT     H138129   4.692   4.480   7.244  0.7121 -0.4372 -0.0431
 9081WAT     H238130   4.556   4.521   7.191  0.5471 -0.6996  0.1757
 9081WAT    EPW38131   4.630   4.476   7.183  0.8359 -0.1659 -0.1881
 9082WAT      O38132   4.816   4.892   8.384  0.6881  0.1422 -0.9004
 9082WAT     H138133   4.895   4.941   8.364  0.9392  0.5525  0.9948
 9082WAT     H238134   4.769   4.888   8.300  2.6351 -0.0426 -2.0360
 9082WAT    EPW38135   4.820   4.898   8.370  0.9778  0.1719 -0.8006
 9083WAT      O38136   9.453   4.605   8.584 -0.8049  0.4321 -0.0006
 9083WAT     H138137   9.443   4.635   8.494 -0.5042  1.2330  0.2232
 9083WAT     H238138   9.365   4.578   8.611 -0.5036 -2.0897 -1.2894
 9083WAT    EPW38139   9.440   4.605   8.576 -0.7253  0.2050 -0.1407
 9084WAT      O38140   2.607   5.540   5.703  0.1292  0.4620  0.2248
 9084WAT     H138141   2.512   5.549   5.705  0.2847  2.4471  0.7270
 9084WAT     H238142   2.635   5.554   5.794  0.8489 -1.0568  0.2638
 9084WAT    EPW38143   2.598   5.543   5.715  0.2446  0.5236  0.2964
 9085WAT      O38144   8.046   7.015   0.137  0.0804 -0.8695  0.1479
 9085WAT     H138145   8.058   7.046   0.047 -3.4319  1.2570  0.2356
 9085WAT     H238146   8.135   7.010   0.172  1.4265  0.8286 -2.6469
 9085WAT    EPW38147   8.059   7.019   0.130 -0.2055 -0.3650 -0.2091
 9086WAT      O38148   4.859   3.313   8.921  0.2149 -0.3914  0.0694
 9086WAT     H138149   4.884   3.383   8.861 -1.5487  0.2217 -0.0113
 9086WAT     H238150   4.783   3.347   8.968 -0.0522 -1.8626  0.7712
 9086WAT    EPW38151   4.852   3.327   8.919 -0.0529 -0.5045  0.1512
 9087WAT      O38152   4.841   1.374   3.017 -0.5008  0.1439 -0.1871
 9087WAT     H138153   4.832   1.278   3.018 -1.5976  0.2305 -0.2545
 9087WAT     H238154   4.779   1.402   2.949  1.7983  0.7361 -2.1600
 9087WAT    EPW38155   4.832   1.365   3.008 -0.3424  0.2335 -0.4562
 9088WAT      O38156   5.018   1.877   4.163 -0.3035  0.0360 -0.7004
 9088WAT     H138157   5.022   1.930   4.243 -2.9141 -1.1260  0.3164
 9088WAT     H238158   5.076   1.803   4.182  1.2623  1.1133 -1.0635
 9088WAT    EPW38159   5.026   1.874   4.176 -0.4416  0.0249 -0.6139
 9089WAT      O38160   4.287   0.603   5.386  0.1899 -0.4839  0.2187
 9089WAT     H138161   4.336   0.685   5.387  2.2803 -1.6724  0.8396
 9089WAT     H238162   4.271   0.585   5.294  1.6090 -0.4479 -0.0432
 9089WAT    EPW38163   4.291   0.611   5.374  0.6528 -0.6359  0.2661
 9090WAT      O38164   3.714   0.534   4.367  0.8370 -0.1162 -0.4117
 9090WAT     H138165   3.756   0.482   4.299  0.3610  0.9437 -1.5618
 9090WAT     H238166   3.677   0.609   4.320 -0.2456  0.2130  0.8972
 9090WAT    EPW38167   3.714   0.537   4.352  0.6313  0.0671 -0.3908
 9091WAT      O38168   4.446   2.922   7.640 -0.2323  0.4201  0.1965
 9091WAT     H138169   4.478   2.869   7.713 -0.2316 -0.0221 -0.1238
 9091WAT     H238170   4.442   3.011   7.676  0.7943  0.3934  0.4236
 9091WAT    EPW38171   4.450   2.927   7.655 -0.0968  0.3581  0.1841
 9092WAT      O38172   5.226   2.583   6.181  0.0311 -0.5561  0.5043
 9092WAT     H138173   5.228   2.678   6.193  0.8531  0.0294 -3.1865
 9092WAT     H238174   5.139   2.565   6.147 -0.3646 -1.2943  1.8293
 9092WAT    EPW38175   5.215   2.594   6.178  0.0877 -0.5761  0.1924
 9093WAT      O38176   5.009   1.553   5.019 -0.3556 -0.7546 -0.7484
 9093WAT     H138177   5.027   1.495   4.944  1.1689 -0.8090 -0.3677
 9093WAT     H238178   4.964   1.497   5.082 -0.2655 -1.1220 -1.0055
 9093WAT    EPW38179   5.006   1.538   5.017 -0.1426 -0.8103 -0.7322
 9094WAT      O38180   5.778   2.361   6.483  0.0630  0.0350 -0.0645
 9094WAT     H138181   5.757   2.275   6.519 -3.0834  0.4483 -0.6618
 9094WAT     H238182   5.748   2.356   6.392 -3.3428  2.6740  0.7240
 9094WAT    EPW38183   5.772   2.349   6.475 -0.8013  0.4375 -0.0391
 9095WAT      O38184   3.083   8.030   5.544  0.0623  0.9159  0.0615
 9095WAT     H138185   2.988   8.019   5.535  0.2661 -0.5884 -0.5282
 9095WAT     H238186   3.093   8.104   5.604 -1.4798  1.0725  0.1625
 9095WAT    EPW38187   3.072   8.038   5.551 -0.1143  0.7381 -0.0029
 9096WAT      O38188   3.930   3.225   5.742  0.9665  0.3174  0.3704
 9096WAT     H138189   4.020   3.194   5.736  0.6818 -0.5839  0.5514
 9096WAT     H238190   3.879   3.147   5.765 -0.4945 -0.1925 -3.8414
 9096WAT    EPW38191   3.935   3.211   5.744  0.7361  0.1311 -0.1612
 9097WAT      O38192   4.406   4.227   6.853  0.4693 -0.0535 -0.7646
 9097WAT     H138193   4.410   4.135   6.825 -1.8664 -0.7219  0.7681
 9097WAT     H238194   4.321   4.234   6.897  0.1312  3.1222 -1.7273
 9097WAT    EPW38195   4.395   4.216   6.855  0.1166  0.2775 -0.6893
 9098WAT      O38196   7.161   4.603   7.571  0.3396  0.3278  0.0852
 9098WAT     H138197   7.080   4.646   7.599  0.6343  0.6560  0.4357
 9098WAT     H238198   7.228   4.634   7.633 -0.0432 -3.2588  2.6474
 9098WAT    EPW38199   7.159   4.613   7.583  0.3281 -0.1020  0.4692
 9099WAT      O38200  10.429   9.675   1.635 -0.1063  0.1643  0.3211
 9099WAT     H138201  10.436   9.588   1.675 -2.6702  0.3202  1.3478
 9099WAT     H238202  10.335   9.684   1.618  0.5806  0.8435 -4.2298
 9099WAT    EPW38203  10.417   9.664   1.638 -0.3533  0.2747 -0.1438
 9100WAT      O38204   8.696   9.394   0.157 -0.0495  0.5392 -0.7416
 9100WAT     H138205   8.677   9.306   0.191  0.4636  0.2672 -1.1488
 9100WAT     H238206   8.678   9.387   0.063  0.5233  0.7214 -0.8651
 9100WAT    EPW38207   8.691   9.381   0.149  0.0939  0.5269 -0.8116
 9101WAT      O38208   5.333   1.511   2.972 -0.3784 -0.1826  0.0844
 9101WAT     H138209   5.241   1.500   2.997  0.0151 -1.4039  1.1045
 9101WAT     H238210   5.362   1.423   2.949  0.8043 -0.0037  0.8060
 9101WAT    EPW38211   5.324   1.498   2.972 -0.1705 -0.3201  0.3141
 9102WAT      O38212   7.418   4.826   6.804  0.0276  0.2036 -0.3168
 9102WAT     H138213   7.511   4.833   6.785  0.3201 -1.4294  0.3209
 9102WAT     H238214   7.392   4.741   6.767 -1.2340  0.6593 -0.5454
 9102WAT    EPW38215   7.427   4.816   6.796 -0.1004  0.0484 -0.2630
 9103WAT      O38216   6.425   3.076   5.540  0.1883  0.0003 -1.1507
 9103WAT     H138217   6.492   3.078   5.608 -1.8018  1.2497  0.9140
 9103WAT     H238218   6.344   3.058   5.587 -1.4434  1.9991 -3.0004
 9103WAT    EPW38219   6.423   3.074   5.555 -0.2892  0.4287 -1.1222
 9104WAT      O38220   5.754   4.004   6.416  0.0498 -0.2428  0.1184
 9104WAT     H138221   5.775   3.969   6.502  3.5481 -1.2624 -0.9804
 9104WAT     H238222   5.679   3.952   6.387  1.6732 -3.1667  0.7742
 9104WAT    EPW38223   5.747   3.993   6.423  0.7250 -0.7629  0.0601
 9105WAT      O38224   7.076   1.725   4.193 -0.6115 -0.1771  0.2356
 9105WAT     H138225   7.089   1.776   4.114 -1.8003  0.1087  0.2096
 9105WAT     H238226   7.089   1.788   4.265  0.9096 -0.5351  0.3018
 9105WAT    EPW38227   7.079   1.740   4.192 -0.5679 -0.1867  0.2410
 9106WAT      O38228   5.005   2.402   3.549  0.7444  0.0377 -0.1606
 9106WAT     H138229   4.970   2.421   3.636  1.9778  1.1150  0.1269
 9106WAT     H238230   5.097   2.380   3.564  0.9116 -0.0110 -1.1719
 9106WAT    EPW38231   5.013   2.402   3.562  0.9291  0.1733 -0.2561
 9107WAT      O38232   4.505   8.051   8.952 -0.4751  0.3411  0.1590
 9107WAT     H138233   4.502   8.129   9.007  0.2522  2.0393 -2.0705
 9107WAT     H238234   4.425   8.057   8.899  0.5385  0.6781 -1.3877
 9107WAT    EPW38235   4.494   8.062   8.953 -0.2455  0.6096 -0.3391
 9108WAT      O38236   4.589   3.161   8.786 -0.1442  0.3476  0.0593
 9108WAT     H138237   4.538   3.189   8.710  2.5320  3.8434 -0.7274
 9108WAT     H238238   4.680   3.164   8.756  0.8545 -0.5033  2.7450
 9108WAT    EPW38239   4.595   3.165   8.772  0.3407  0.6965  0.3095
 9109WAT      O38240   7.032   4.066   7.624 -0.4472  0.2351  0.4814
 9109WAT     H138241   7.063   4.146   7.668  0.6716 -0.9718  2.0177
 9109WAT     H238242   7.043   3.997   7.689  1.9484 -1.8287 -1.8791
 9109WAT    EPW38243   7.037   4.068   7.638  0.0165 -0.1965  0.3729
 9110WAT      O38244   3.676   4.237   8.167 -0.4369 -0.6031  1.1040
 9110WAT     H138245   3.651   4.311   8.112  0.5445 -1.0096  0.0874
 9110WAT     H238246   3.708   4.277   8.248  0.5608  0.1250  0.3746
 9110WAT    EPW38247   3.677   4.252   8.171 -0.1758 -0.5608  0.8745
 9111WAT      O38248   6.191   2.032   2.538 -0.1402  0.5679  0.1211
 9111WAT     H138249   6.108   2.012   2.581  0.5678 -2.6018  0.2620
 9111WAT     H238250   6.191   1.979   2.459  0.0455  3.7133 -2.1854
 9111WAT    EPW38251   6.180   2.022   2.533 -0.0226  0.5646 -0.1646
 9112WAT      O38252   8.915   8.823   0.157  0.0058  0.4194 -0.0321
 9112WAT     H138253   8.940   8.884   0.087  0.6333  0.5520  0.2907
 9112WAT     H238254   8.997   8.779   0.180 -0.3993 -0.3740 -0.0915
 9112WAT    EPW38255   8.929   8.825   0.151  0.0353  0.3319  0.0027
 9113WAT      O38256   5.401   3.943   8.469 -0.9768 -0.7465  0.2313
 9113WAT     H138257   5.399   3.900   8.554 -0.8183 -1.1227  0.0466
 9113WAT     H238258   5.318   3.918   8.428 -1.0618 -0.5496  0.2844
 9113WAT    EPW38259   5.389   3.934   8.474 -0.9673 -0.7701  0.2141
 9114WAT      O38260   7.384   2.244   7.455 -0.8337  0.0424  0.1817
 9114WAT     H138261   7.445   2.210   7.520 -1.9426  0.6325  1.6031
 9114WAT     H238262   7.370   2.335   7.481  0.1757  0.9116 -2.0667
 9114WAT    EPW38263   7.390   2.252   7.467 -0.8466  0.2348  0.0730
 9115WAT      O38264   2.825   2.061   6.481 -0.4469  0.4816  0.0620
 9115WAT     H138265   2.880   1.986   6.504  0.8920  2.1049  2.6376
 9115WAT     H238266   2.757   2.062   6.548  0.0484  1.9944  0.5837
 9115WAT    EPW38267   2.823   2.051   6.493 -0.2050  0.8953  0.4706
 9116WAT      O38268   2.609  10.247   6.355 -0.3617 -0.4934 -0.4718
 9116WAT     H138269   2.514  10.235   6.352 -0.6132  0.9442  0.5177
 9116WAT     H238270   2.645  10.159   6.349 -1.6877 -0.9669 -2.4404
 9116WAT    EPW38271   2.601  10.234   6.354 -0.5697 -0.3667 -0.6011
 9117WAT      O38272   5.582   4.673   6.842 -0.0841 -0.0348 -0.3959
 9117WAT     H138273   5.653   4.640   6.788  0.1062  0.4286 -0.4349
 9117WAT     H238274   5.565   4.761   6.808 -0.4414 -0.0109 -0.1625
 9117WAT    EPW38275   5.589   4.680   6.831 -0.1063  0.0291 -0.3705
 9118WAT      O38276   2.388   1.823   3.774  0.1624 -0.5477 -0.1429
 9118WAT     H138277   2.296   1.834   3.799 -0.1131  0.3150 -1.4612
 9118WAT     H238278   2.393   1.733   3.742  0.1721 -1.1462  1.4207
 9118WAT    EPW38279   2.376   1.813   3.773  0.1272 -0.5129 -0.1105
 9119WAT      O38280   3.027   4.478   4.859  0.5689 -0.6168  0.0472
 9119WAT     H138281   3.049   4.463   4.950  3.2509 -0.5272 -0.5264
 9119WAT     H238282   3.111   4.479   4.813 -0.6975 -0.8181 -2.4574
 9119WAT    EPW38283   3.041   4.476   4.865  0.7558 -0.6313 -0.3591
 9120WAT      O38284   4.713   3.435   7.635 -0.6350 -1.0406 -0.3545
 9120WAT     H138285   4.631   3.482   7.653  0.0354 -0.8579  2.6377
 9120WAT     H238286   4.716   3.430   7.539 -2.7472  1.3990 -0.6689
 9120WAT    EPW38287   4.702   3.441   7.624 -0.8252 -0.6948 -0.0014
 9121WAT      O38288   7.571   7.512   1.655 -0.4262 -0.2939  0.6092
 9121WAT     H138289   7.559   7.452   1.582 -1.5074  0.3938  0.2112
 9121WAT     H238290   7.497   7.495   1.713 -1.0492  1.0448  0.2175
 9121WAT    EPW38291   7.560   7.502   1.653 -0.6509 -0.0269  0.5050
 9122WAT      O38292   4.634   3.569   7.038  0.3233  0.5214 -0.1174
 9122WAT     H138293   4.626   3.558   7.132  2.6704  0.9421  0.1864
 9122WAT     H238294   4.545   3.588   7.008 -0.5112  0.0338  1.9453
 9122WAT    EPW38295   4.621   3.570   7.046  0.5229  0.5126  0.1948
 9123WAT      O38296   1.622  10.307   5.981  0.5812  0.1972  0.2652
 9123WAT     H138297   1.625  10.266   5.894 -0.8327 -1.3914  0.9063
 9123WAT     H238298   1.603  10.399   5.963  0.2086 -0.1167 -1.1046
 9123WAT    EPW38299   1.620  10.314   5.967  0.3456 -0.0534  0.1690
 9124WAT      O38300   2.216   2.622   6.778 -0.2628  0.0393 -0.4276
 9124WAT     H138301   2.292   2.654   6.728  1.0365 -0.6888  0.9956
 9124WAT     H238302   2.155   2.592   6.711  1.7011 -1.5802 -1.6241
 9124WAT    EPW38303   2.218   2.623   6.763  0.1675 -0.2704 -0.3977
 9125WAT      O38304   2.937   6.114   3.425  0.0177 -0.3182 -0.2337
 9125WAT     H138305   2.909   6.132   3.514 -3.0237  1.6970 -1.4429
 9125WAT     H238306   2.982   6.193   3.397 -0.5835 -0.2496 -1.0297
 9125WAT    EPW38307   2.939   6.127   3.433 -0.4628 -0.0434 -0.4982
 9126WAT      O38308   6.586   4.726   8.442 -0.1746  0.9520 -0.2682
 9126WAT     H138309   6.574   4.631   8.438  1.3968  0.7688 -1.5010
 9126WAT     H238310   6.660   4.743   8.384  0.0105  2.8640  0.4772
 9126WAT    EPW38311   6.594   4.715   8.434  0.0570  1.1804 -0.3324
 9127WAT      O38312   2.733   4.637   3.685 -0.2804  0.0297 -0.2504
 9127WAT     H138313   2.651   4.594   3.709 -0.3391 -0.9518 -2.0616
 9127WAT     H238314   2.791   4.620   3.759 -1.9384  1.5701  1.5255
 9127WAT    EPW38315   2.730   4.629   3.698 -0.5069  0.1035 -0.2551
 9128WAT      O38316   2.009   3.215   7.644 -0.1836  0.0262  1.0737
 9128WAT     H138317   2.025   3.172   7.728  0.2263  2.2087  2.2150
 9128WAT     H238318   1.926   3.262   7.657  0.6053  1.5665  0.8362
 9128WAT    EPW38319   2.000   3.216   7.657 -0.0254  0.5172  1.1930
 9129WAT      O38320   4.650   2.365   6.070 -0.1384 -0.0117 -0.0985
 9129WAT     H138321   4.656   2.294   6.006 -3.2240 -1.6414  1.1665
 9129WAT     H238322   4.612   2.438   6.022  2.1082  0.5588 -1.1656
 9129WAT    EPW38323   4.646   2.365   6.055 -0.2494 -0.1514 -0.0725
 9130WAT      O38324   5.293   4.586   7.571 -0.4033  0.2202  0.0166
 9130WAT     H138325   5.211   4.627   7.600  1.1449  3.9638 -0.3478
 9130WAT     H238326   5.310   4.626   7.486  0.3300 -2.8705 -1.4485
 9130WAT    EPW38327   5.284   4.597   7.563 -0.1025  0.3061 -0.2246
 9131WAT      O38328   6.577   4.243   8.896 -0.5452 -0.1190 -0.0663
 9131WAT     H138329   6.526   4.186   8.953 -1.4550  0.0689 -0.6598
 9131WAT     H238330   6.595   4.321   8.949 -0.4301 -0.4089  0.3200
 9131WAT    EPW38331   6.573   4.246   8.910 -0.6497 -0.1323 -0.0935
 9132WAT      O38332   3.475   3.179   8.144 -0.5756 -0.8751 -0.2746
 9132WAT     H138333   3.565   3.151   8.159 -1.3181 -3.0010  0.6079
 9132WAT     H238334   3.430   3.161   8.226 -1.6334  1.1358 -0.3440
 9132WAT    EPW38335   3.481   3.173   8.157 -0.8130 -0.8903 -0.1678
 9133WAT      O38336   7.403   0.691   7.369 -0.3484  0.0026  0.8332
 9133WAT     H138337   7.468   0.690   7.439  0.0584 -0.6328  0.4555
 9133WAT     H238338   7.395   0.784   7.346 -1.0087  0.3043  2.1766
 9133WAT    EPW38339   7.410   0.703   7.375 -0.3817 -0.0415  0.9608
 9134WAT      O38340   4.769   2.843   7.331 -0.1041 -0.0835 -0.0512
 9134WAT     H138341   4.717   2.793   7.268  0.4416 -2.6717  1.4127
 9134WAT     H238342   4.860   2.819   7.311  0.5807  3.1669 -1.5570
 9134WAT    EPW38343   4.775   2.833   7.320  0.0584  0.0039 -0.0570
 9135WAT      O38344   5.691   0.293   8.957  0.1503  0.4643 -0.1051
 9135WAT     H138345   5.718   0.360   9.020 -3.0463  0.7141  1.1651
 9135WAT     H238346   5.611   0.256   8.994 -0.6240 -0.9934 -2.9558
 9135WAT    EPW38347   5.684   0.297   8.970 -0.3734  0.3054 -0.3135
 9136WAT      O38348   5.116   2.449   8.028  0.3051 -0.2261  0.0099
 9136WAT     H138349   5.097   2.508   7.955 -1.1998  1.4034  1.5995
 9136WAT     H238350   5.048   2.382   8.022  0.5241 -0.4145 -0.3952
 9136WAT    EPW38351   5.104   2.448   8.018  0.1352 -0.0360  0.1664
 9137WAT      O38352   0.944   9.016   5.164 -0.0324  0.7562 -0.5925
 9137WAT     H138353   1.014   9.014   5.229 -0.5168 -3.3060  0.0452
 9137WAT     H238354   0.987   9.045   5.083  1.8616  0.4396  0.2485
 9137WAT    EPW38355   0.959   9.020   5.162  0.1535  0.1788 -0.3977
 9138WAT      O38356   3.957   2.888   7.494 -1.1907 -1.0870  0.0634
 9138WAT     H138357   4.004   2.822   7.442 -2.0790 -0.1041 -2.1231
 9138WAT     H238358   4.010   2.899   7.572  0.6162 -2.1570 -0.9335
 9138WAT    EPW38359   3.970   2.881   7.497 -1.0695 -1.0984 -0.3562
 9139WAT      O38360   5.531   3.574   6.932 -0.2837 -0.0211 -0.4534
 9139WAT     H138361   5.508   3.562   7.024  1.9469  2.7385  0.6385
 9139WAT     H238362   5.461   3.628   6.896 -0.3474  0.2836  0.1178
 9139WAT    EPW38363   5.519   3.580   6.939  0.0021  0.3830 -0.2339
 9140WAT      O38364   3.847   3.437   8.366  0.6025 -0.4160 -0.1673
 9140WAT     H138365   3.753   3.419   8.359  0.7937 -1.6988  0.3152
 9140WAT     H238366   3.869   3.410   8.455  1.5523 -0.7098 -0.4881
 9140WAT    EPW38367   3.837   3.431   8.377  0.7529 -0.6241 -0.1454
 9141WAT      O38368   2.549   0.837   6.644 -0.2333 -0.2206 -0.5791
 9141WAT     H138369   2.485   0.837   6.573 -1.2951  0.4663  0.3299
 9141WAT     H238370   2.546   0.747   6.678  0.2378 -0.5358 -1.3454
 9141WAT    EPW38371   2.540   0.825   6.639 -0.3111 -0.1716 -0.5603
 9142WAT      O38372   5.777   3.336   6.858 -0.2563  0.0817 -0.4450
 9142WAT     H138373   5.772   3.373   6.770  0.0637  0.5444 -0.2708
 9142WAT     H238374   5.729   3.397   6.913 -1.0513 -0.5591 -0.4028
 9142WAT    EPW38375   5.770   3.349   6.854 -0.3188  0.0583 -0.4163
 9143WAT      O38376   2.238   3.854   5.080 -0.1151  0.2622 -0.2805
 9143WAT     H138377   2.233   3.764   5.049  0.1274  1.0040 -2.6525
 9143WAT     H238378   2.285   3.848   5.163  1.6980 -1.5869 -1.3487
 9143WAT    EPW38379   2.243   3.841   5.087  0.1560  0.1162 -0.7343
 9144WAT      O38380  10.061   1.521   0.996 -0.4766  0.1221 -0.8280
 9144WAT     H138381  10.054   1.465   0.919  0.6736 -1.2536  0.0376
 9144WAT     H238382  10.153   1.547   1.000 -0.3922 -0.2855  0.3845
 9144WAT    EPW38383  10.072   1.517   0.987 -0.3142 -0.1132 -0.5539
 9145WAT      O38384   9.935   9.777   7.101  0.0749 -0.0821 -0.6532
 9145WAT     H138385   9.846   9.793   7.068 -0.1423 -1.4632 -0.7882
 9145WAT     H238386   9.923   9.755   7.193  0.3314  0.1853 -0.5534
 9145WAT    EPW38387   9.922   9.777   7.109  0.0801 -0.2289 -0.6578
 9146WAT      O38388   4.678   0.638   6.108 -0.1381 -1.1617  0.5530
 9146WAT     H138389   4.754   0.627   6.051 -0.6610  0.9495 -0.6544
 9146WAT     H238390   4.700   0.713   6.163 -1.2155 -0.7130  0.3933
 9146WAT    EPW38391   4.691   0.647   6.108 -0.3490 -0.8241  0.3726
 9147WAT      O38392   6.462   2.134   8.370 -0.4173  0.3951  0.0570
 9147WAT     H138393   6.538   2.155   8.425  0.5962  0.4189 -1.3005
 9147WAT     H238394   6.494   2.067   8.310 -1.6609 -0.0245 -0.1662
 9147WAT    EPW38395   6.477   2.128   8.370 -0.4475  0.3430 -0.1512
 9148WAT      O38396   6.312   2.735   7.406  0.7997  0.1231  0.2584
 9148WAT     H138397   6.397   2.700   7.431  0.8798  0.2787  0.2085
 9148WAT     H238398   6.325   2.766   7.316  0.4005 -0.8188 -0.1370
 9148WAT    EPW38399   6.325   2.735   7.397  0.7575  0.0194  0.1993
 9149WAT      O38400   5.815   2.797   6.524 -0.0164 -0.3841  0.3023
 9149WAT     H138401   5.903   2.783   6.491  0.1605  0.4741  0.3780
 9149WAT     H238402   5.794   2.887   6.498 -1.6220 -1.1815 -1.4677
 9149WAT    EPW38403   5.824   2.807   6.516 -0.2048 -0.3760  0.0789
 9150WAT      O38404   4.785  10.145   7.750 -0.8642  0.3415  0.1332
 9150WAT     H138405   4.838  10.224   7.738  0.8860 -0.8830 -0.6844
 9150WAT     H238406   4.827  10.098   7.822 -1.4357 -0.1984  0.1260
 9150WAT    EPW38407   4.798  10.149   7.758 -0.7086  0.1087  0.0243
 9151WAT      O38408   6.909   3.588   8.503  0.0648 -0.4007 -0.0299
 9151WAT     H138409   6.871   3.567   8.588 -0.6231 -1.0208 -0.4775
 9151WAT     H238410   6.834   3.597   8.445  0.4715  0.8434 -0.4163
 9151WAT    EPW38411   6.894   3.587   8.507  0.0279 -0.3183 -0.1402
 9152WAT      O38412   5.259   3.068   7.689  0.4635  0.4023  1.3326
 9152WAT     H138413   5.296   3.075   7.777  0.3964  0.7780  1.3357
 9152WAT     H238414   5.324   3.109   7.633 -1.0678  3.6729  1.6564
 9152WAT    EPW38415   5.272   3.074   7.693  0.2530  0.8833  1.3757
 9153WAT      O38416   3.653   2.569   4.802  0.0631 -0.4068 -0.1046
 9153WAT     H138417   3.619   2.579   4.891 -1.3024  0.3258 -0.6736
 9153WAT     H238418   3.612   2.489   4.770 -1.3792  0.5874 -0.8630
 9153WAT    EPW38419   3.643   2.560   4.810 -0.3072 -0.1791 -0.2794
 9154WAT      O38420   0.005   7.615   1.705  0.8449 -0.1442  0.6458
 9154WAT     H138421  -0.084   7.581   1.698  0.5998  0.6235 -0.1291
 9154WAT     H238422   0.059   7.551   1.658  0.4196  0.3801 -0.6032
 9154WAT    EPW38423   0.000   7.602   1.698  0.7565  0.0265  0.3788
 9155WAT      O38424   8.187   8.275   1.878  0.0325 -0.1357 -0.5244
 9155WAT     H138425   8.094   8.295   1.867 -0.1171 -0.6413 -0.2002
 9155WAT     H238426   8.206   8.211   1.808  0.0588 -0.2771 -0.3877
 9155WAT    EPW38427   8.178   8.269   1.867  0.0162 -0.2208 -0.4637
 9156WAT      O38428   3.119   3.785   6.134  0.0938 -0.1165 -0.0602
 9156WAT     H138429   3.110   3.847   6.061 -0.8831 -0.7400 -0.4970
 9156WAT     H238430   3.212   3.766   6.138  0.5350  1.9648  0.5845
 9156WAT    EPW38431   3.130   3.791   6.125  0.0230  0.0758 -0.0327
 9157WAT      O38432   6.159   1.236   4.678 -0.7066  0.4276  0.8231
 9157WAT     H138433   6.072   1.208   4.705 -0.8420  1.6755  1.7487
 9157WAT     H238434   6.167   1.205   4.588 -1.6747 -0.6415  1.0805
 9157WAT    EPW38435   6.149   1.228   4.669 -0.8521  0.4512  0.9794
 9158WAT      O38436   3.546  10.203   4.809 -0.6388  0.3073 -0.0097
 9158WAT     H138437   3.469  10.256   4.829 -0.6890  0.8231 -1.4539
 9158WAT     H238438   3.620  10.260   4.830 -0.6616  0.1778  0.4271
 9158WAT    EPW38439   3.546  10.217   4.815 -0.6484  0.3581 -0.1428
 9159WAT      O38440   2.291   5.253   5.203 -0.4131 -0.5882 -0.9078
 9159WAT     H138441   2.356   5.306   5.158 -0.0738  2.0085  2.2323
 9159WAT     H238442   2.335   5.170   5.220  1.0450  0.0539 -1.4144
 9159WAT    EPW38443   2.305   5.249   5.200 -0.1762 -0.1609 -0.5605
 9160WAT      O38444   7.372   3.455   6.803  0.0033  0.2329 -0.6312
 9160WAT     H138445   7.340   3.535   6.846  1.9018  0.9510 -0.4591
 9160WAT     H238446   7.331   3.384   6.851 -1.1217  1.0861 -0.2851
 9160WAT    EPW38447   7.362   3.456   6.815  0.1054  0.4401 -0.5629
 9161WAT      O38448   2.401   7.447   1.248  0.3195 -0.4130 -0.3344
 9161WAT     H138449   2.361   7.534   1.246 -0.8972 -0.9599 -1.9645
 9161WAT     H238450   2.404   7.424   1.341  2.1136  1.9645  0.2879
 9161WAT    EPW38451   2.396   7.456   1.260  0.3958 -0.1714 -0.4674
 9162WAT      O38452   0.935   1.662   6.216 -0.2680 -0.6176 -0.1185
 9162WAT     H138453   0.897   1.697   6.135 -0.1863 -0.8069 -0.2364
 9162WAT     H238454   0.987   1.735   6.251 -0.1724 -0.5906 -0.3177
 9162WAT    EPW38455   0.937   1.676   6.210 -0.2446 -0.6390 -0.1605
 9163WAT      O38456   6.957   7.491   1.363 -0.4961  0.2671  0.1748
 9163WAT     H138457   6.881   7.446   1.325 -2.2020  3.3384 -0.3917
 9163WAT     H238458   7.007   7.520   1.287  1.9348 -2.5125  0.5305
 9163WAT    EPW38459   6.953   7.488   1.348 -0.4005  0.3059  0.1470
 9164WAT      O38460   3.299   4.533   7.034 -0.2769 -0.0293 -0.4689
 9164WAT     H138461   3.277   4.624   7.015  0.4444  0.4033  0.6588
 9164WAT     H238462   3.383   4.520   6.989  0.3622  0.3463  0.5561
 9164WAT    EPW38463   3.307   4.544   7.026 -0.0976  0.0772 -0.1848
 9165WAT      O38464   2.342   1.240   7.163  1.0863  0.0330 -0.3075
 9165WAT     H138465   2.419   1.273   7.118 -0.0396  2.4464 -0.6453
 9165WAT     H238466   2.286   1.317   7.174 -0.9480 -1.4721  0.5918
 9165WAT    EPW38467   2.344   1.255   7.159  0.6695  0.1528 -0.2337
 9166WAT      O38468   3.168   3.125   6.225  0.6178 -0.0779  0.2242
 9166WAT     H138469   3.143   3.197   6.168  2.4631  1.0830  0.7748
 9166WAT     H238470   3.092   3.067   6.225 -0.3301  1.0487 -1.5030
 9166WAT    EPW38471   3.155   3.127   6.217  0.7361  0.2239  0.0689
 9167WAT      O38472   6.110   2.340   7.138 -0.0245 -0.0455  0.2397
 9167WAT     H138473   6.165   2.312   7.211  0.9382  0.6424 -0.1984
 9167WAT     H238474   6.023   2.353   7.177 -0.0108 -1.5772  0.8568
 9167WAT    EPW38475   6.106   2.338   7.153  0.1042 -0.1568  0.2632
 9168WAT      O38476   8.050   6.925   2.499  0.4476  0.5803 -0.3153
 9168WAT     H138477   7.966   6.963   2.524  0.2370  0.2017 -0.4414
 9168WAT     H238478   8.036   6.892   2.410  0.6997  0.4317 -0.3027
 9168WAT    EPW38479   8.037   6.925   2.490  0.4530  0.5105 -0.3302
 9169WAT      O38480   6.420   2.452   8.233 -0.3056  0.6939 -0.8057
 9169WAT     H138481   6.351   2.516   8.213  1.1751  1.8477 -2.5948
 9169WAT     H238482   6.501   2.496   8.208  1.0668 -0.8339  0.6893
 9169WAT    EPW38483   6.421   2.466   8.227  0.0706  0.6446 -0.8440
 9170WAT      O38484   2.337   1.713   5.482 -0.0059  0.2390 -0.8577
 9170WAT     H138485   2.367   1.622   5.487 -1.8837 -0.5100 -1.9973
 9170WAT     H238486   2.389   1.759   5.548  0.9791 -1.6531 -0.2277
 9170WAT    EPW38487   2.348   1.707   5.492 -0.1236 -0.1093 -0.9251
 9171WAT      O38488   3.747   1.306   8.366  0.5015 -0.5639  0.1625
 9171WAT     H138489   3.697   1.387   8.372  3.9362  1.7187  0.2387
 9171WAT     H238490   3.739   1.279   8.275 -0.3597  0.0659  0.0429
 9171WAT    EPW38491   3.739   1.313   8.355  0.8409 -0.1798  0.1569
 9172WAT      O38492   4.992   2.019   7.153  0.5758  0.0072 -0.0772
 9172WAT     H138493   4.982   2.058   7.066  0.6768  0.7807  0.2534
 9172WAT     H238494   4.936   1.941   7.151 -0.5248  0.7901 -0.3646
 9172WAT    EPW38495   4.983   2.014   7.141  0.4442  0.2124 -0.0713
 9173WAT      O38496   5.861   1.943   7.258 -0.2986  0.4061  0.1693
 9173WAT     H138497   5.922   1.881   7.218 -0.4482 -0.2404  0.9053
 9173WAT     H238498   5.779   1.894   7.265 -0.3729  0.6250  0.9165
 9173WAT    EPW38499   5.858   1.928   7.254 -0.3281  0.3498  0.3648
 9174WAT      O38500   6.853   2.690   6.971 -0.2487  0.6210 -0.2424
 9174WAT     H138501   6.901   2.769   6.944 -0.4867  1.2311  1.0707
 9174WAT     H238502   6.920   2.632   7.007  0.2079 -0.5403 -2.6946
 9174WAT    EPW38503   6.869   2.693   6.972 -0.2198  0.5482 -0.3927
 9175WAT      O38504   2.340   4.000   6.630 -0.1943  0.4878  0.5173
 9175WAT     H138505   2.355   4.009   6.536 -1.6679  1.9722  0.3651
 9175WAT     H238506   2.422   3.965   6.665  1.1452  1.9328 -1.0359
 9175WAT    EPW38507   2.352   3.997   6.623 -0.2121  0.8742  0.2923
 9176WAT      O38508   7.615   3.215   6.650 -0.4745  0.2151  0.0451
 9176WAT     H138509   7.570   3.210   6.734 -1.4839 -2.5193 -0.5543
 9176WAT     H238510   7.641   3.125   6.632 -0.1690  0.7532 -2.5387
 9176WAT    EPW38511   7.613   3.202   6.659 -0.5672 -0.0745 -0.3750
 9177WAT      O38512   9.781   0.179   0.463  0.1090  0.0231  0.4331
 9177WAT     H138513   9.694   0.185   0.425 -0.1123  1.0531  1.0856
 9177WAT     H238514   9.767   0.183   0.557  0.8289 -0.3360  0.5678
 9177WAT    EPW38515   9.768   0.180   0.470  0.1745  0.1116  0.5369
 9178WAT      O38516   6.315   1.509   6.760 -0.2624  0.3751 -0.1209
 9178WAT     H138517   6.306   1.488   6.667  0.0980 -0.7224  0.0769
 9178WAT     H238518   6.272   1.594   6.770 -0.0393  0.6493 -1.3462
 9178WAT    EPW38519   6.308   1.518   6.749 -0.1857  0.2666 -0.2563
 9179WAT      O38520   5.470   2.508   5.701  0.1000  0.2964 -0.1513
 9179WAT     H138521   5.437   2.588   5.660  1.5943 -0.2716 -2.6666
 9179WAT     H238522   5.565   2.514   5.694  0.2872 -2.7094 -2.7576
 9179WAT    EPW38523   5.478   2.519   5.695  0.3219 -0.1750 -0.8266
 9180WAT      O38524   3.939   4.312   5.355 -0.4701 -0.4740  1.1091
 9180WAT     H138525   3.931   4.387   5.296  3.0735 -0.2451  0.7268
 9180WAT     H238526   4.015   4.331   5.409  1.7349 -4.3774 -0.1278
 9180WAT    EPW38527   3.948   4.324   5.354  0.2881 -0.9587  0.8953
 9181WAT      O38528   4.395   5.329   8.373 -0.2933 -0.2992 -0.1614
 9181WAT     H138529   4.312   5.289   8.348  0.8853 -2.7726 -0.4508
 9181WAT     H238530   4.426   5.275   8.446  0.3397  1.5478  0.9880
 9181WAT    EPW38531   4.388   5.316   8.379 -0.0546 -0.3819 -0.0477
 9182WAT      O38532   9.755   8.939   1.020  0.1598 -0.1255 -0.2812
 9182WAT     H138533   9.719   8.850   1.017 -0.3109  0.0527  0.0224
 9182WAT     H238534   9.678   8.996   1.020  0.3212  0.2284  2.8183
 9182WAT    EPW38535   9.740   8.935   1.019  0.1192 -0.0553  0.1677
 9183WAT      O38536   7.105   0.699   6.227  0.1148  0.4191  0.0767
 9183WAT     H138537   7.018   0.688   6.266  0.2251 -1.2078 -0.0850
 9183WAT     H238538   7.153   0.620   6.251  2.4259  2.3276  2.2737
 9183WAT    EPW38539   7.100   0.687   6.235  0.4342  0.4562  0.3455
 9184WAT      O38540   4.843   1.232   6.219  0.1489  0.5432  0.2529
 9184WAT     H138541   4.899   1.292   6.168 -0.1734 -0.6436 -1.6034
 9184WAT     H238542   4.778   1.289   6.259 -0.5164  1.4532 -1.9413
 9184WAT    EPW38543   4.842   1.247   6.217  0.0186  0.5068 -0.2816
 9185WAT      O38544   3.888   2.739   5.396  0.4416 -0.6162  0.1122
 9185WAT     H138545   3.922   2.674   5.457 -0.1295  0.4083  1.5684
 9185WAT     H238546   3.795   2.748   5.418 -0.0635 -1.0237 -1.6610
 9185WAT    EPW38547   3.880   2.732   5.407  0.2997 -0.5349  0.0706
 9186WAT      O38548   4.656   2.970   7.845  0.2825  0.4730 -0.1787
 9186WAT     H138549   4.654   2.888   7.894  1.9136  0.1761 -0.5672
 9186WAT     H238550   4.637   3.038   7.910 -0.9290 -0.1697  0.1715
 9186WAT    EPW38551   4.653   2.968   7.860  0.3381  0.3490 -0.1838
 9187WAT      O38552   8.587   8.954   0.475 -0.8459 -0.1657  0.4873
 9187WAT     H138553   8.494   8.974   0.467 -0.8326 -0.0979  0.5019
 9187WAT     H238554   8.614   8.996   0.557 -0.8502 -0.3641  0.5900
 9187WAT    EPW38555   8.578   8.962   0.485 -0.8445 -0.1831  0.5028
 9188WAT      O38556   3.341   0.510   5.828  0.2122  0.8040  0.3290
 9188WAT     H138557   3.315   0.513   5.920 -3.6435  1.4281 -0.6283
 9188WAT     H238558   3.410   0.576   5.821 -1.1107  2.5486  2.3742
 9188WAT    EPW38559   3.347   0.519   5.839 -0.4709  1.1164  0.4725
 9189WAT      O38560   7.035   2.917   6.906  0.0286  0.1408  0.3660
 9189WAT     H138561   7.012   2.940   6.817 -0.5973 -2.6165 -0.2896
 9189WAT     H238562   7.108   2.856   6.897  0.5500  0.5107  1.8035
 9189WAT    EPW38563   7.042   2.912   6.893  0.0148 -0.1742  0.4694
 9190WAT      O38564   4.587   5.786   6.607  0.0382  0.1806 -0.1804
 9190WAT     H138565   4.559   5.837   6.531 -0.0895  0.6629  0.1823
 9190WAT     H238566   4.641   5.847   6.658 -1.6351  0.5886  1.2221
 9190WAT    EPW38567   4.591   5.801   6.604 -0.1993  0.2980  0.0522
 9191WAT      O38568   3.789   3.638   6.098  0.2162 -0.1309  0.0259
 9191WAT     H138569   3.855   3.631   6.029 -0.3722  0.4934 -0.6311
 9191WAT     H238570   3.837   3.627   6.180  0.9319 -0.9059 -0.4811
 9191WAT    EPW38571   3.804   3.636   6.099  0.2331 -0.1508 -0.1278
 9192WAT      O38572   6.409   5.932   4.743  0.8456  0.4239 -0.1529
 9192WAT     H138573   6.423   5.843   4.710  1.2127  0.3346  0.2219
 9192WAT     H238574   6.321   5.930   4.780  0.5047  0.4754 -0.9518
 9192WAT    EPW38575   6.399   5.920   4.744  0.8490  0.4189 -0.2089
 9193WAT      O38576   7.582   4.890   6.451 -0.2093  0.1051 -0.4691
 9193WAT     H138577   7.581   4.922   6.361  2.4530 -2.0048 -1.4143
 9193WAT     H238578   7.515   4.940   6.496 -1.7875  1.0943 -3.6672
 9193WAT    EPW38579   7.573   4.901   6.445 -0.0660 -0.0427 -1.0157
 9194WAT      O38580   4.820   4.603   7.768 -0.2418 -0.2013 -0.0550
 9194WAT     H138581   4.838   4.640   7.854  1.1602 -1.3398  0.1774
 9194WAT     H238582   4.727   4.581   7.771 -0.0789 -0.8098  1.4139
 9194WAT    EPW38583   4.810   4.605   7.780 -0.0355 -0.4318  0.1695
 9195WAT      O38584   6.902   4.683   6.085  0.0674  0.6280  0.1741
 9195WAT     H138585   6.868   4.769   6.112  3.8879  1.9360  1.4409
 9195WAT     H238586   6.926   4.695   5.993 -1.8928 -0.0602 -0.4881
 9195WAT    EPW38587   6.901   4.696   6.076  0.3128  0.7098  0.2539
 9196WAT      O38588   8.787   6.326   6.157  0.1923  0.2802 -0.3637
 9196WAT     H138589   8.816   6.288   6.074  0.5200 -0.7922  0.2228
 9196WAT     H238590   8.780   6.251   6.216 -2.8460  0.5919 -0.1809
 9196WAT    EPW38591   8.790   6.311   6.154 -0.1650  0.1798 -0.2623
 9197WAT      O38592   5.361   5.593   6.711 -0.1098  0.5467 -0.1841
 9197WAT     H138593   5.297   5.524   6.691  1.7678 -0.9957 -1.2008
 9197WAT     H238594   5.424   5.551   6.770  0.7549  1.5501 -0.3649
 9197WAT    EPW38595   5.361   5.578   6.716  0.2520  0.4754 -0.3419
 9198WAT      O38596  10.957   4.134   3.873 -0.0738  0.0025 -0.3409
 9198WAT     H138597  10.982   4.170   3.958  0.1617  1.0374 -0.8214
 9198WAT     H238598  11.033   4.152   3.817 -1.0366  1.3383 -1.3130
 9198WAT    EPW38599  10.970   4.141   3.877 -0.1698  0.3152 -0.5324
 9199WAT      O38600   2.289   1.548   8.132 -0.5166 -0.6867 -0.1973
 9199WAT     H138601   2.263   1.533   8.223 -0.9548 -1.7658 -0.4875
 9199WAT     H238602   2.373   1.504   8.123 -0.3185 -0.3111 -0.2441
 9199WAT    EPW38603   2.297   1.541   8.143 -0.5482 -0.7794 -0.2418
 9200WAT      O38604   6.835   5.066   7.649  0.1431 -0.1493  0.1190
 9200WAT     H138605   6.896   4.998   7.676  0.7776  0.5076  0.3761
 9200WAT     H238606   6.849   5.137   7.713  0.3854  0.7130 -0.8676
 9200WAT    EPW38607   6.845   5.067   7.661  0.2589  0.0510  0.0229
 9201WAT      O38608   7.379   4.553   6.699  0.0196  0.3425  0.1219
 9201WAT     H138609   7.456   4.562   6.644  1.0972  2.0781  1.7605
 9201WAT     H238610   7.305   4.572   6.641  0.8639 -0.6146 -1.3103
 9201WAT    EPW38611   7.379   4.557   6.684  0.2730  0.4449  0.1493
 9202WAT      O38612   8.417   2.410   8.429  0.1843 -0.6816  0.1541
 9202WAT     H138613   8.449   2.460   8.504 -1.3898 -2.9554  2.5321
 9202WAT     H238614   8.397   2.476   8.363  1.4988  1.4656  1.7690
 9202WAT    EPW38615   8.419   2.426   8.430  0.1507 -0.6983  0.6809
 9203WAT      O38616   9.590   4.314   7.250  0.4297  0.2984 -0.4634
 9203WAT     H138617   9.532   4.240   7.231 -1.3039  0.4252  3.4300
 9203WAT     H238618   9.534   4.391   7.241  1.0497  0.7747 -0.3067
 9203WAT    EPW38619   9.575   4.315   7.246  0.2823  0.3779  0.0708
 9204WAT      O38620   8.994   5.703   8.407  0.0508 -0.7981  0.2474
 9204WAT     H138621   9.078   5.719   8.363  0.0919  2.2424  1.2044
 9204WAT     H238622   9.017   5.654   8.486  0.7088 -1.3111 -0.2544
 9204WAT    EPW38623   9.008   5.699   8.411  0.1435 -0.4647  0.3076
 9205WAT      O38624   2.784   3.246   6.497  0.2791 -0.1386 -0.4503
 9205WAT     H138625   2.730   3.284   6.428  0.6774  0.0739 -0.6464
 9205WAT     H238626   2.728   3.179   6.536  0.1785 -0.5183 -1.2246
 9205WAT    EPW38627   2.770   3.242   6.493  0.3184 -0.1606 -0.5779
 9206WAT      O38628   7.584   4.449   5.243 -0.4168  0.3427 -0.8292
 9206WAT     H138629   7.655   4.385   5.248 -0.5331  0.1316 -1.7007
 9206WAT     H238630   7.553   4.443   5.153 -1.0466  0.9691 -0.6625
 9206WAT    EPW38631   7.589   4.440   5.232 -0.5155  0.3974 -0.9222
 9207WAT      O38632   4.294   3.245   6.417  0.0856 -1.4215  0.1380
 9207WAT     H138633   4.286   3.153   6.392  3.0529 -0.7383 -4.3570
 9207WAT     H238634   4.377   3.251   6.463 -0.7834 -1.0967  1.7535
 9207WAT    EPW38635   4.304   3.234   6.420  0.3622 -1.2885 -0.2420
 9208WAT      O38636   5.361   0.134   4.976 -0.1183  0.1561  0.1664
 9208WAT     H138637   5.359   0.190   5.053 -0.2454 -0.5012  0.6457
 9208WAT     H238638   5.449   0.095   4.976  0.0741  0.5669 -0.3306
 9208WAT    EPW38639   5.373   0.136   4.986 -0.1097  0.1236  0.1638
 9209WAT      O38640   3.398   4.014   5.123  0.2616 -0.3591  0.0912
 9209WAT     H138641   3.431   4.045   5.207  0.7600  0.3122 -0.3438
 9209WAT     H238642   3.446   3.932   5.106 -0.4247 -0.9294  0.8273
 9209WAT    EPW38643   3.409   4.007   5.132  0.2367 -0.3455  0.1309
 9210WAT      O38644   4.415   3.715   7.552 -0.7376  0.0122 -0.3121
 9210WAT     H138645   4.495   3.766   7.541 -0.4881 -0.4487 -0.6460
 9210WAT     H238646   4.357   3.744   7.482 -0.5748 -0.1973 -0.5354
 9210WAT    EPW38647   4.418   3.725   7.541 -0.6831 -0.0763 -0.3858
 9211WAT      O38648   7.527   6.055   5.964  0.3778  0.0920 -0.0682
 9211WAT     H138649   7.502   6.121   5.899  0.7556 -0.0288 -0.3430
 9211WAT     H238650   7.508   5.971   5.921 -3.5865 -0.0687  1.6020
 9211WAT    EPW38651   7.521   6.053   5.950 -0.0951  0.0548  0.1159
 9212WAT      O38652   5.810   4.062   5.124 -0.4202  0.6371 -0.7571
 9212WAT     H138653   5.797   4.064   5.030 -3.8393  0.6069 -0.4242
 9212WAT     H238654   5.841   3.974   5.143 -0.9718  0.2112 -1.7680
 9212WAT    EPW38655   5.812   4.051   5.114 -0.9439  0.5767 -0.8466
 9213WAT      O38656   6.271   4.027   4.900  0.6442  0.0154 -0.4347
 9213WAT     H138657   6.235   4.100   4.950  2.7643  1.1827 -0.5045
 9213WAT     H238658   6.360   4.015   4.934  2.1682  0.7593 -3.6739
 9213WAT    EPW38659   6.278   4.035   4.911  1.1249  0.2675 -0.8712
 9214WAT      O38660   7.690   1.719   6.715  0.2453  0.6184  0.0296
 9214WAT     H138661   7.705   1.789   6.778  1.0270  0.1566  0.3812
 9214WAT     H238662   7.722   1.754   6.632 -1.0713  1.3424 -0.2030
 9214WAT    EPW38663   7.696   1.733   6.712  0.1745  0.6530  0.0451
 9215WAT      O38664   5.807   4.895   7.360  0.0530 -0.2219 -0.4248
 9215WAT     H138665   5.755   4.840   7.418  2.2104 -0.0738  1.8083
 9215WAT     H238666   5.752   4.972   7.344 -1.4003 -1.2106 -0.3257
 9215WAT    EPW38667   5.793   4.898   7.365  0.1457 -0.3328 -0.1171
 9216WAT      O38668   7.173   5.113   8.893  0.2835 -0.1252 -0.1426
 9216WAT     H138669   7.081   5.086   8.900  0.6405 -1.6761 -1.0005
 9216WAT     H238670   7.195   5.097   8.801  1.0999  1.3505 -0.2353
 9216WAT    EPW38671   7.164   5.108   8.882  0.4382 -0.1354 -0.2675
 9217WAT      O38672   5.315   5.243   7.714 -0.0615 -0.0941  0.5487
 9217WAT     H138673   5.305   5.299   7.791 -0.9791 -2.3076  2.1452
 9217WAT     H238674   5.255   5.171   7.729  0.5799 -1.1927 -1.7314
 9217WAT    EPW38675   5.306   5.241   7.726 -0.0978 -0.5307  0.4585
 9218WAT      O38676   6.936   4.985   5.838 -0.0094 -0.3710  0.1937
 9218WAT     H138677   6.956   4.894   5.813  1.0936  0.0826 -0.6819
 9218WAT     H238678   6.953   5.035   5.758 -0.9223  0.5733  0.5821
 9218WAT    EPW38679   6.941   4.979   5.824  0.0155 -0.1867  0.1292
 9219WAT      O38680   4.709   5.385   7.088  0.5106  0.5400  0.0397
 9219WAT     H138681   4.778   5.425   7.142  1.2161 -1.4589  0.7338
 9219WAT     H238682   4.638   5.367   7.151  0.6821 -0.3369 -0.0107
 9219WAT    EPW38683   4.709   5.388   7.104  0.6263  0.1607  0.1245
 9220WAT      O38684   1.888   4.771   5.669  0.2904  0.3486 -0.1376
 9220WAT     H138685   1.811   4.820   5.640  0.3914  1.2493  1.0639
 9220WAT     H238686   1.868   4.747   5.759  1.2132  0.1397  0.0177
 9220WAT    EPW38687   1.875   4.774   5.677  0.4253  0.4396  0.0415
 9221WAT      O38688   0.666   1.539   5.649  0.2320 -0.3728 -0.1568
 9221WAT     H138689   0.581   1.511   5.682  1.3318 -2.3663  1.2017
 9221WAT     H238690   0.667   1.634   5.663 -1.5774 -0.3663  0.1875
 9221WAT    EPW38691   0.655   1.548   5.655  0.1384 -0.6348  0.0675
 9222WAT      O38692   6.463   3.000   4.850  0.8894 -0.3416 -0.5941
 9222WAT     H138693   6.405   3.024   4.778  0.0584 -2.2463 -0.6267
 9222WAT     H238694   6.426   3.045   4.926 -0.8329 -1.6946 -0.5721
 9222WAT    EPW38695   6.450   3.009   4.850  0.5524 -0.7713 -0.5956
 9223WAT      O38696   5.376   5.314   7.003 -0.3324 -0.1562 -0.1310
 9223WAT     H138697   5.344   5.256   6.933 -2.2780  1.5252 -0.7325
 9223WAT     H238698   5.452   5.357   6.965  1.5986 -2.7081  0.5722
 9223WAT    EPW38699   5.382   5.312   6.989 -0.3343 -0.2711 -0.1178
 9224WAT      O38700   5.091   5.829   8.827 -0.3889 -0.5908  0.1679
 9224WAT     H138701   5.037   5.814   8.904 -0.2315 -1.3919  0.1320
 9224WAT     H238702   5.181   5.834   8.860 -0.0480 -3.2190 -0.1625
 9224WAT    EPW38703   5.096   5.828   8.841 -0.3231 -1.0433  0.1202
 9225WAT      O38704   5.516   6.186   5.615  1.1670  0.3654  0.1669
 9225WAT     H138705   5.475   6.100   5.609 -1.1109  1.3616  0.4645
 9225WAT     H238706   5.546   6.204   5.526 -1.2112  0.5602 -0.6460
 9225WAT    EPW38707   5.515   6.177   5.603  0.5529  0.5224  0.0992
 9226WAT      O38708   9.304  10.206   1.588 -0.2474 -0.5914  0.2178
 9226WAT     H138709   9.375  10.161   1.542  0.7238 -0.2757  1.3489
 9226WAT     H238710   9.310  10.174   1.678 -1.2493 -0.1984  0.4378
 9226WAT    EPW38711   9.314  10.196   1.594 -0.2518 -0.4978  0.3960
 9227WAT      O38712   8.025   4.430   8.766 -0.4639  0.1323  1.1543
 9227WAT     H138713   8.085   4.473   8.827 -1.7660  1.8957  1.2655
 9227WAT     H238714   7.941   4.475   8.778 -0.7486  0.6848 -2.0367
 9227WAT    EPW38715   8.022   4.442   8.776 -0.6733  0.4377  0.7482
 9228WAT      O38716   5.742   1.865   5.210  0.0760 -0.4633 -0.0968
 9228WAT     H138717   5.730   1.872   5.115  2.0030 -0.0954 -0.3630
 9228WAT     H238718   5.729   1.954   5.243 -0.8909 -0.6469  0.0432
 9228WAT    EPW38719   5.739   1.878   5.202  0.2027 -0.4390 -0.1132
 9229WAT      O38720   5.163   2.817   6.688 -0.2861  0.1558 -0.6874
 9229WAT     H138721   5.068   2.812   6.675 -0.2194  0.9518 -1.5626
 9229WAT     H238722   5.172   2.854   6.776 -0.8406  2.0385 -1.3560
 9229WAT    EPW38723   5.152   2.822   6.698 -0.3505  0.5093 -0.8910
 9230WAT      O38724   5.211   5.369   6.677 -0.1089  0.2687  0.2262
 9230WAT     H138725   5.118   5.364   6.701 -0.2520 -1.7723 -0.5512
 9230WAT     H238726   5.249   5.289   6.712  1.2956  0.9103  0.2223
 9230WAT    EPW38727   5.204   5.358   6.685  0.0575  0.0842  0.1230
 9231WAT      O38728   5.101   3.374   5.775  0.3156 -0.0174 -0.1162
 9231WAT     H138729   5.015   3.406   5.746  0.4522  1.7386  1.2384
 9231WAT     H238730   5.100   3.281   5.753 -2.3747 -0.2962  0.7807
 9231WAT    EPW38731   5.089   3.366   5.768 -0.0212  0.1774  0.1807
 9232WAT      O38732   6.302   2.919   5.268 -0.3837  0.1476  1.0392
 9232WAT     H138733   6.219   2.945   5.306 -0.9572 -2.3300  1.6841
 9232WAT     H238734   6.279   2.854   5.201  0.8942  1.3801 -0.6983
 9232WAT    EPW38735   6.288   2.914   5.264 -0.2909 -0.0165  0.8953
 9233WAT      O38736   6.664   2.604   7.143  0.2448 -0.9015 -0.0641
 9233WAT     H138737   6.730   2.647   7.088  0.7020 -1.7160 -0.1659
 9233WAT     H238738   6.655   2.516   7.106 -0.1252 -1.1507  0.5946
 9233WAT    EPW38739   6.672   2.598   7.131  0.2561 -1.0417  0.0095
 9234WAT      O38740   1.760  10.247   0.904  0.3691 -0.0966 -0.2140
 9234WAT     H138741   1.719  10.170   0.864 -0.9453 -0.5125  1.7649
 9234WAT     H238742   1.711  10.321   0.868  0.1443 -0.3523 -0.4404
 9234WAT    EPW38743   1.748  10.246   0.894  0.1661 -0.1850  0.0172
 9235WAT      O38744   8.801   3.330   5.614 -0.5405  0.4411  0.0019
 9235WAT     H138745   8.856   3.270   5.564 -0.2735  2.7845 -2.7992
 9235WAT     H238746   8.863   3.385   5.661 -0.4716  1.6888 -1.4572
 9235WAT    EPW38747   8.816   3.329   5.614 -0.4964  0.9147 -0.5600
 9236WAT      O38748   4.818   1.903   8.047  0.1353  0.3197  0.4346
 9236WAT     H138749   4.878   1.865   7.982 -3.4208 -1.4289 -2.1473
 9236WAT     H238750   4.770   1.971   7.998 -1.4529  0.1849  1.7386
 9236WAT    EPW38751   4.820   1.907   8.032 -0.5431  0.0713  0.2661
 9237WAT      O38752   8.255   4.302   7.566  0.4696 -0.2426  0.2514
 9237WAT     H138753   8.198   4.379   7.558 -0.9730 -1.1472  1.3318
 9237WAT     H238754   8.203   4.240   7.617 -1.0767 -4.3895 -5.3470
 9237WAT    EPW38755   8.240   4.304   7.572  0.0749 -0.9089 -0.3445
 9238WAT      O38756   5.627   4.975   6.994 -0.1753 -0.5846  1.1557
 9238WAT     H138757   5.601   4.895   7.039  0.1463 -1.7972 -0.6700
 9238WAT     H238758   5.588   4.967   6.907  2.2418 -0.1927 -0.0619
 9238WAT    EPW38759   5.618   4.963   6.988  0.1857 -0.6931  0.7544
 9239WAT      O38760   5.976   3.563   7.235  0.0545 -0.1648  0.0647
 9239WAT     H138761   5.914   3.612   7.290 -2.6126 -4.4079  1.3085
 9239WAT     H238762   6.041   3.529   7.296 -0.6609 -1.6937  0.0046
 9239WAT    EPW38763   5.976   3.565   7.250 -0.3917 -0.9263  0.2208
 9240WAT      O38764   8.812   4.478   4.913  0.5036 -0.4231  0.5046
 9240WAT     H138765   8.904   4.467   4.934  0.9478 -3.4151 -2.2487
 9240WAT     H238766   8.803   4.571   4.891  3.0071 -0.2027  0.2127
 9240WAT    EPW38767   8.823   4.489   4.912  0.8922 -0.7885  0.1030
 9241WAT      O38768   6.891   5.366   7.234  0.2240 -0.7369  0.1161
 9241WAT     H138769   6.967   5.392   7.182 -0.7502  1.9209 -0.1277
 9241WAT     H238770   6.887   5.430   7.305 -1.1766 -1.4822  0.7680
 9241WAT    EPW38771   6.901   5.378   7.236 -0.0892 -0.4845  0.1698
 9242WAT      O38772   5.100   2.571   5.058 -0.2137  0.5289 -0.1824
 9242WAT     H138773   5.092   2.476   5.065  2.4525  0.3740  2.8501
 9242WAT     H238774   5.053   2.605   5.134 -0.1708  1.5685 -0.6002
 9242WAT    EPW38775   5.093   2.563   5.069  0.1433  0.6456  0.1624
 9243WAT      O38776   6.450   4.495   7.048 -0.1991 -0.1001 -0.6438
 9243WAT     H138777   6.400   4.478   7.128  0.9599  1.8956  0.5719
 9243WAT     H238778   6.392   4.550   6.995 -0.2712  0.0720 -0.3848
 9243WAT    EPW38779   6.435   4.500   7.051 -0.0558  0.1862 -0.4497
 9244WAT      O38780   6.586   0.902   5.355  0.4811  0.1431 -0.0411
 9244WAT     H138781   6.573   0.997   5.363  0.1459  0.0621  0.4373
 9244WAT     H238782   6.667   0.885   5.404  1.0569  0.3008 -0.9051
 9244WAT    EPW38783   6.595   0.913   5.363  0.5128  0.1532 -0.0920
 9245WAT      O38784   4.517   4.809   6.833  0.3309  0.1330 -0.0842
 9245WAT     H138785   4.555   4.726   6.805 -0.6590  0.3130 -2.1634
 9245WAT     H238786   4.448   4.826   6.769  0.0831  2.2477  0.6746
 9245WAT    EPW38787   4.513   4.800   6.821  0.1674  0.4356 -0.2582
 9246WAT      O38788   2.613   5.618   6.664 -0.2949  0.3576 -0.0928
 9246WAT     H138789   2.599   5.538   6.715  0.0575 -1.8129 -3.1278
 9246WAT     H238790   2.708   5.632   6.668 -0.3530  0.6237  0.4200
 9246WAT    EPW38791   2.624   5.609   6.671 -0.2562  0.1063 -0.4253
 9247WAT      O38792   7.372   1.114   8.295  0.0571  0.3329  0.0618
 9247WAT     H138793   7.368   1.134   8.388  0.8999  0.4069  0.0866
 9247WAT     H238794   7.421   1.186   8.257 -0.6111  0.4969 -0.5018
 9247WAT    EPW38795   7.378   1.126   8.302  0.0801  0.3643 -0.0091
 9248WAT      O38796   7.982   3.618   5.298 -0.4333 -0.0122 -0.2694
 9248WAT     H138797   7.922   3.691   5.284  0.3276  0.3854 -1.7188
 9248WAT     H238798   8.066   3.650   5.266 -0.1919 -1.6887 -1.4386
 9248WAT    EPW38799   7.985   3.632   5.292 -0.3011 -0.1810 -0.6149
 9249WAT      O38800   7.459   5.206   6.187 -0.0491  0.7793  0.2727
 9249WAT     H138801   7.406   5.275   6.148  0.1893  2.3826  2.5736
 9249WAT     H238802   7.545   5.246   6.201 -0.1300  0.3734  2.3723
 9249WAT    EPW38803   7.463   5.220   6.184 -0.0284  0.9372  0.8533
 9250WAT      O38804   6.380   3.076   7.370  0.1111  0.2256 -0.5322
 9250WAT     H138805   6.471   3.054   7.389  0.7779  4.8382  3.8160
 9250WAT     H238806   6.385   3.137   7.297  0.4458  0.1356 -0.5868
 9250WAT    EPW38807   6.392   3.081   7.363  0.2432  0.8221  0.0341
 9251WAT      O38808   9.242   2.451   8.735  0.3839  0.2743 -0.4250
 9251WAT     H138809   9.303   2.441   8.661  0.8531  0.2356 -0.0360
 9251WAT     H238810   9.272   2.387   8.799 -1.2336 -1.1312 -0.9833
 9251WAT    EPW38811   9.254   2.441   8.734  0.2327  0.0840 -0.4468
 9252WAT      O38812   5.395   6.776   5.990 -0.0173  0.3583 -0.7161
 9252WAT     H138813   5.477   6.815   5.957 -0.2320  3.6969  2.1674
 9252WAT     H238814   5.414   6.753   6.080 -1.1912 -2.7481 -1.1522
 9252WAT    EPW38815   5.409   6.778   5.997 -0.2003  0.3891 -0.3932
 9253WAT      O38816   4.956   0.627   6.708  0.4619 -0.1327  1.1475
 9253WAT     H138817   4.889   0.568   6.674  1.0920 -0.7148  0.8922
 9253WAT     H238818   4.925   0.650   6.796  0.3143 -1.0457  1.3476
 9253WAT    EPW38819   4.943   0.622   6.715  0.5257 -0.3299  1.1404
 9254WAT      O38820   6.670   5.293   7.450 -0.5898  0.2950  0.0759
 9254WAT     H138821   6.758   5.256   7.451 -0.4544  0.6270  0.6655
 9254WAT     H238822   6.675   5.369   7.508 -1.0731  0.7601 -0.4726
 9254WAT    EPW38823   6.683   5.298   7.458 -0.6359  0.4003  0.0815
 9255WAT      O38824   5.679   5.579   4.970 -0.9186 -0.5483 -0.4204
 9255WAT     H138825   5.760   5.555   4.924 -0.4505  1.2967 -0.6351
 9255WAT     H238826   5.621   5.505   4.955  1.1643 -2.6242  0.9375
 9255WAT    EPW38827   5.682   5.566   4.962 -0.5822 -0.5786 -0.2697
 9256WAT      O38828   6.318   3.053   7.635  0.2992 -0.3139 -0.0315
 9256WAT     H138829   6.324   3.066   7.540  1.4836  3.1957  0.4068
 9256WAT     H238830   6.391   2.995   7.656 -1.0478 -2.6963 -1.3482
 9256WAT    EPW38831   6.328   3.047   7.625  0.2778 -0.1652 -0.1476
 9257WAT      O38832   3.864   1.656   6.522  0.2524 -0.5844 -0.2167
 9257WAT     H138833   3.793   1.627   6.579  2.4351 -3.4978  1.3078
 9257WAT     H238834   3.937   1.674   6.582  2.1547 -2.1501 -1.9276
 9257WAT    EPW38835   3.865   1.655   6.537  0.7912 -1.1752 -0.2415
 9258WAT      O38836   9.515   5.663   0.256 -0.1880 -0.4780 -0.2452
 9258WAT     H138837   9.458   5.730   0.294  0.7303  0.2447 -0.1128
 9258WAT     H238838   9.505   5.588   0.314 -0.8624 -0.2995 -0.1214
 9258WAT    EPW38839   9.506   5.662   0.269 -0.1564 -0.3591 -0.2114
 9259WAT      O38840   7.514   4.011   5.932  0.5410  0.1264  0.3609
 9259WAT     H138841   7.430   4.015   5.888 -0.4923  2.4499  2.3060
 9259WAT     H238842   7.496   3.964   6.014  1.0979  0.7163  0.8352
 9259WAT    EPW38843   7.500   4.005   5.937  0.4780  0.5109  0.6802
 9260WAT      O38844   4.528   5.298   6.817  0.4693 -0.2910 -0.4960
 9260WAT     H138845   4.607   5.258   6.853 -0.0949 -0.0556  1.0951
 9260WAT     H238846   4.456   5.258   6.865 -0.4512 -0.8416 -2.2348
 9260WAT    EPW38847   4.529   5.288   6.828  0.2735 -0.3324 -0.5152
 9261WAT      O38848   6.953   1.904   8.429 -0.0742 -0.2432 -0.4729
 9261WAT     H138849   6.961   1.951   8.346  0.2228  0.7656  0.1079
 9261WAT     H238850   7.014   1.949   8.488  0.5951 -1.6734 -0.0226
 9261WAT    EPW38851   6.962   1.916   8.426  0.0532 -0.2987 -0.3371
 9262WAT      O38852   6.848   4.527   6.703 -0.3105  0.2771 -0.1176
 9262WAT     H138853   6.838   4.531   6.798 -0.8829  0.6353 -0.1845
 9262WAT     H238854   6.758   4.526   6.670 -0.2316 -2.5264 -0.5612
 9262WAT    EPW38855   6.834   4.527   6.711 -0.3755 -0.0453 -0.1853
 9263WAT      O38856   9.936   6.027   5.749 -0.5170  0.1955  0.4055
 9263WAT     H138857   9.867   6.071   5.798 -0.5685  0.3163  0.2226
 9263WAT     H238858  10.017   6.065   5.782 -0.5920  0.9588 -0.2735
 9263WAT    EPW38859   9.938   6.038   5.760 -0.5336  0.3121  0.2913
 9264WAT      O38860   6.498   4.798   6.241 -0.7867 -0.5103 -0.4566
 9264WAT     H138861   6.545   4.750   6.174 -0.0605  0.1091 -0.4084
 9264WAT     H238862   6.409   4.807   6.207 -0.9847 -2.0178 -0.3822
 9264WAT    EPW38863   6.493   4.793   6.228 -0.7174 -0.6273 -0.4404
 9265WAT      O38864   6.834   5.814   6.310 -0.1174  0.4470  0.1603
 9265WAT     H138865   6.784   5.768   6.243 -0.7705 -0.6627  1.3660
 9265WAT     H238866   6.892   5.747   6.346 -0.2877  0.8286  1.1779
 9265WAT    EPW38867   6.835   5.799   6.306 -0.2263  0.3507  0.4535
 9266WAT      O38868   8.504   6.807   0.440  0.1493  0.0067  0.1879
 9266WAT     H138869   8.411   6.814   0.463 -0.0579 -1.0668 -0.2934
 9266WAT     H238870   8.521   6.713   0.435  0.8957  0.1898 -1.1936
 9266WAT    EPW38871   8.494   6.796   0.442  0.2198 -0.1109 -0.0578
 9267WAT      O38872   8.242   7.263   5.429  0.9164 -0.6442 -0.1937
 9267WAT     H138873   8.182   7.190   5.414 -0.7159  0.6457 -0.2996
 9267WAT     H238874   8.289   7.273   5.346 -1.4272  0.6271 -1.4616
 9267WAT    EPW38875   8.240   7.255   5.416  0.3915 -0.3064 -0.3748
 9268WAT      O38876   4.633   5.114   7.069  0.1536  0.4665  0.2428
 9268WAT     H138877   4.640   5.019   7.081 -2.1152  0.2802  0.4474
 9268WAT     H238878   4.613   5.148   7.157 -0.2623  0.9873 -0.0453
 9268WAT    EPW38879   4.632   5.106   7.082 -0.2005  0.5107  0.2320
 9269WAT      O38880   5.582   5.543   7.490  0.3243  0.2810 -0.3361
 9269WAT     H138881   5.624   5.601   7.427 -2.5458  3.2665  0.1671
 9269WAT     H238882   5.545   5.603   7.556  0.0230 -2.4218  2.1799
 9269WAT    EPW38883   5.582   5.559   7.491 -0.0939  0.3183  0.0620
 9270WAT      O38884   9.988   4.358   5.920  0.2414 -0.0157  0.0882
 9270WAT     H138885  10.035   4.286   5.878  0.9378  0.7797 -0.5379
 9270WAT     H238886  10.035   4.371   6.002 -0.2024 -0.5978  0.4448
 9270WAT    EPW38887  10.001   4.350   5.925  0.2756  0.0122  0.0527
 9271WAT      O38888   5.898   1.976   6.246  0.2803  1.3350 -0.0240
 9271WAT     H138889   5.956   2.043   6.283 -0.2343  1.2133  1.0411
 9271WAT     H238890   5.824   1.973   6.307  0.8124 -0.9996  0.5718
 9271WAT    EPW38891   5.896   1.985   6.259  0.2828  1.0110  0.1950
 9272WAT      O38892   4.696   5.048   6.735  0.1979 -0.3507 -0.3850
 9272WAT     H138893   4.640   4.971   6.742 -0.9203  0.5191  0.8310
 9272WAT     H238894   4.635   5.122   6.732  1.2395  0.6219  0.7725
 9272WAT    EPW38895   4.681   5.048   6.736  0.1876 -0.1078 -0.0720
 9273WAT      O38896  10.120   4.887   1.020  0.2301 -0.6219 -0.1014
 9273WAT     H138897  10.175   4.959   0.988  2.2682 -2.8288 -1.9844
 9273WAT     H238898  10.155   4.809   0.976 -3.1306 -2.5130  0.2648
 9273WAT    EPW38899  10.132   4.886   1.010  0.0553 -1.1623 -0.3014
 9274WAT      O38900   5.999   6.575   7.732 -0.1741  0.2102  0.6736
 9274WAT     H138901   5.922   6.553   7.679 -1.4457  3.9017  0.6982
 9274WAT     H238902   5.968   6.570   7.822 -0.3262  1.3464  0.6977
 9274WAT    EPW38903   5.985   6.571   7.737 -0.3617  0.8469  0.6802
 9275WAT      O38904   9.775   5.483   6.842  0.2938 -0.0772  0.0818
 9275WAT     H138905   9.846   5.420   6.838  0.8540  0.4349  1.3319
 9275WAT     H238906   9.698   5.432   6.868  0.3102 -0.5467 -0.7782
 9275WAT    EPW38907   9.774   5.468   6.845  0.3695 -0.0718  0.1330
 9276WAT      O38908   4.337   6.162   7.422  0.5842  0.5734  0.7883
 9276WAT     H138909   4.312   6.243   7.377 -0.3800  0.5831  1.3100
 9276WAT     H238910   4.325   6.181   7.515  0.0844 -0.2378  0.9025
 9276WAT    EPW38911   4.332   6.175   7.428  0.3915  0.4675  0.8724
 9277WAT      O38912   7.127   4.104   8.014  0.3024  0.0403  0.4592
 9277WAT     H138913   7.129   4.192   8.053  0.9287 -0.0395  0.6306
 9277WAT     H238914   7.042   4.098   7.972  0.8830  1.3670 -1.0075
 9277WAT    EPW38915   7.116   4.115   8.014  0.4616  0.2050  0.2890
 9278WAT      O38916   6.595   3.379   7.854  0.1579 -0.0149 -0.1365
 9278WAT     H138917   6.622   3.388   7.946  2.2868  0.5953 -0.7524
 9278WAT     H238918   6.514   3.328   7.857  1.2576 -1.8085  1.9517
 9278WAT    EPW38919   6.588   3.374   7.867  0.5836 -0.1712  0.0579
 9279WAT      O38920   8.793   2.720   6.421 -0.6245 -0.4536 -0.6386
 9279WAT     H138921   8.875   2.766   6.438 -1.4923  1.0691 -0.4226
 9279WAT     H238922   8.799   2.640   6.475  0.1415  0.2818  0.4085
 9279WAT    EPW38923   8.805   2.715   6.430 -0.6380 -0.1558 -0.4721
 9280WAT      O38924   5.819   4.753   8.436  1.1868 -0.2566  0.8292
 9280WAT     H138925   5.743   4.719   8.388  1.5613 -1.6538  1.1656
 9280WAT     H238926   5.786   4.829   8.483  0.9888  1.7798 -2.2667
 9280WAT    EPW38927   5.804   4.758   8.436  1.2102 -0.1724  0.4654
 9281WAT      O38928   0.591  10.224   0.746 -0.0343  0.2056 -0.2358
 9281WAT     H138929   0.659  10.226   0.679  0.8221 -0.9038  0.5558
 9281WAT     H238930   0.637  10.201   0.826 -1.0515  1.4417  0.7371
 9281WAT    EPW38931   0.606  10.221   0.747 -0.0555  0.2222 -0.0031
 9282WAT      O38932   4.706   5.008   6.115  1.0327 -0.3810 -0.7011
 9282WAT     H138933   4.627   5.001   6.061  0.3011 -2.3413  0.5280
 9282WAT     H238934   4.722   5.102   6.120 -1.0489  0.0685 -1.2430
 9282WAT    EPW38935   4.697   5.020   6.108  0.6614 -0.5801 -0.6104
 9283WAT      O38936  10.536   1.415   5.086 -0.2527 -0.1261 -0.1003
 9283WAT     H138937  10.566   1.417   4.995 -1.6011 -1.0264 -0.6023
 9283WAT     H238938  10.501   1.503   5.101  0.4783  0.1984 -0.2617
 9283WAT    EPW38939  10.535   1.427   5.076 -0.3343 -0.2020 -0.1879
 9284WAT      O38940   3.654   3.165   6.022 -0.0312 -0.0141  0.7828
 9284WAT     H138941   3.684   3.247   6.062  0.9611  0.2828 -0.5185
 9284WAT     H238942   3.732   3.129   5.980 -0.9454 -0.5054 -0.5638
 9284WAT    EPW38943   3.669   3.171   6.022 -0.0209 -0.0397  0.4337
 9285WAT      O38944   6.240   0.899   7.405  0.1185  0.3254 -0.3312
 9285WAT     H138945   6.181   0.876   7.478 -0.6663  0.6573 -0.8502
 9285WAT     H238946   6.238   0.995   7.402 -0.1482  0.3045 -1.0166
 9285WAT    EPW38947   6.232   0.909   7.414 -0.0203  0.3664 -0.4900
 9286WAT      O38948   7.342   3.913   7.469  0.3254  0.1726 -0.0588
 9286WAT     H138949   7.285   3.938   7.542  0.0905 -3.0850  1.0118
 9286WAT     H238950   7.282   3.890   7.398  0.4478 -0.1367 -0.0602
 9286WAT    EPW38951   7.326   3.913   7.469  0.3107 -0.2980  0.0820
 9287WAT      O38952   7.880  10.106   2.140  0.1340 -0.3380  0.6876
 9287WAT     H138953   7.871  10.193   2.101  1.8297 -0.3101  0.2885
 9287WAT     H238954   7.937  10.058   2.080  1.9265 -0.6484  2.5293
 9287WAT    EPW38955   7.886  10.111   2.127  0.5941 -0.3753  0.8777
 9288WAT      O38956   4.546   4.797   6.496  0.3989 -0.4526  0.2051
 9288WAT     H138957   4.582   4.759   6.416  1.3078  2.3304 -0.8266
 9288WAT     H238958   4.518   4.885   6.470 -3.6780 -1.0450  1.8839
 9288WAT    EPW38959   4.547   4.804   6.482 -0.0188 -0.1636  0.2906
 9289WAT      O38960   8.549   3.803   5.834 -0.5276  0.3162 -1.0143
 9289WAT     H138961   8.526   3.713   5.811 -1.2781 -0.0969  1.1269
 9289WAT     H238962   8.522   3.812   5.925  3.4088  1.3559  0.2720
 9289WAT    EPW38963   8.543   3.792   5.843 -0.1073  0.3989 -0.5624
 9290WAT      O38964   4.362   4.222   7.293 -0.3569 -0.7638  0.5130
 9290WAT     H138965   4.352   4.317   7.298 -1.3359 -0.6821 -1.7384
 9290WAT     H238966   4.273   4.188   7.287 -0.0075 -1.4539 -2.5134
 9290WAT    EPW38967   4.349   4.230   7.293 -0.4401 -0.8442 -0.1833
 9291WAT      O38968   7.260   5.578   4.739 -0.0495  0.1764 -0.1230
 9291WAT     H138969   7.170   5.572   4.771  0.0980  0.5334  0.3868
 9291WAT     H238970   7.295   5.489   4.748  0.1155  0.3405  1.1466
 9291WAT    EPW38971   7.253   5.566   4.745 -0.0081  0.2453  0.1116
 9292WAT      O38972   5.511   3.223   6.908  0.3990  0.0212 -0.1914
 9292WAT     H138973   5.589   3.269   6.877  0.1872 -0.6748 -1.8427
 9292WAT     H238974   5.438   3.281   6.885  0.2830 -0.2468 -0.5137
 9292WAT    EPW38975   5.511   3.237   6.901  0.3557 -0.1060 -0.4518
 9293WAT      O38976   8.027   5.837   7.128  0.6058  0.2480  0.5638
 9293WAT     H138977   7.993   5.826   7.217  1.2157 -0.9714  0.6626
 9293WAT     H238978   8.094   5.769   7.119 -0.3873 -0.5783 -1.2828
 9293WAT    EPW38979   8.031   5.827   7.138  0.5546 -0.0217  0.3331
 9294WAT      O38980   7.370   5.923   7.402 -0.3230  0.1518 -0.1683
 9294WAT     H138981   7.423   5.865   7.348 -0.3422 -0.5877  0.6045
 9294WAT     H238982   7.293   5.871   7.424 -0.1859  0.3539  0.8038
 9294WAT    EPW38983   7.367   5.909   7.398 -0.3076  0.0811  0.0618
 9295WAT      O38984   4.706   2.222   7.051 -0.2362 -0.4223  0.4146
 9295WAT     H138985   4.773   2.265   7.104  1.3238 -0.6255 -1.3280
 9295WAT     H238986   4.682   2.145   7.102 -0.2606  0.4354  1.7583
 9295WAT    EPW38987   4.712   2.217   7.065 -0.0336 -0.3361  0.3619
 9296WAT      O38988   7.131   5.387   7.908 -0.3380 -0.8718  0.2038
 9296WAT     H138989   7.192   5.381   7.835 -2.5438 -2.3354 -1.6396
 9296WAT     H238990   7.113   5.481   7.916  0.7319 -0.5955 -0.3749
 9296WAT    EPW38991   7.137   5.399   7.900 -0.4876 -1.0283 -0.1156
 9297WAT      O38992   6.523   3.957   4.989  0.2405 -0.6090 -0.0980
 9297WAT     H138993   6.587   4.015   4.948  0.5820 -0.7931  0.1719
 9297WAT     H238994   6.562   3.933   5.073 -0.0367 -0.9845 -0.0724
 9297WAT    EPW38995   6.536   3.961   4.995  0.2487 -0.6828 -0.0591
 9298WAT      O38996   9.837   6.631   0.689 -0.3248  0.7901  0.0706
 9298WAT     H138997   9.761   6.586   0.653  0.4561 -1.2653  0.8204
 9298WAT     H238998   9.802   6.686   0.760 -1.1427  0.1214  0.1939
 9298WAT    EPW38999   9.822   6.633   0.694 -0.3300  0.4308  0.1858
 9299WAT      O39000   4.942   4.192   8.858 -0.5005  0.1476 -0.1041
 9299WAT     H139001   4.876   4.262   8.854 -0.0708  0.6877  1.4621
 9299WAT     H239002   4.893   4.113   8.835 -1.5107  0.6576  0.2016
 9299WAT    EPW39003   4.927   4.191   8.855 -0.5772  0.2863  0.1426
 9300WAT      O39004   0.446   6.012   1.458 -0.3569  0.3692 -0.0650
 9300WAT     H139005   0.484   6.096   1.484 -0.4695  0.4535 -0.1750
 9300WAT     H239006   0.442   5.962   1.540  2.6576 -0.7317 -0.4632
 9300WAT    EPW39007   0.450   6.016   1.472  0.0258  0.2351 -0.1320
 9301WAT      O39008   4.324   3.860   6.968 -0.1612  0.4420 -0.8007
 9301WAT     H139009   4.400   3.885   6.916 -0.1047 -1.7128 -1.8489
 9301WAT     H239010   4.337   3.768   6.988 -0.9804  0.7734  1.7278
 9301WAT    EPW39011   4.335   3.851   6.964 -0.2620  0.2017 -0.6053
 9302WAT      O39012   5.796   3.261   7.522  0.0233  1.0795  0.0141
 9302WAT     H139013   5.843   3.290   7.600  1.0252  0.9255 -0.5196
 9302WAT     H239014   5.739   3.334   7.500  0.8420  1.7327  0.0155
 9302WAT    EPW39015   5.795   3.274   7.530  0.2635  1.1454 -0.0563
 9303WAT      O39016   9.017   4.386   3.423 -0.3480 -0.6528 -0.5879
 9303WAT     H139017   9.103   4.367   3.387  0.6148  1.6333  0.3387
 9303WAT     H239018   9.034   4.430   3.506 -2.3609  1.2145 -1.0702
 9303WAT    EPW39019   9.030   4.389   3.429 -0.4864 -0.1049 -0.5291
 9304WAT      O39020   6.896   5.898   7.815 -0.1237 -0.3640 -0.0014
 9304WAT     H139021   6.850   5.898   7.731  0.0766 -0.9854 -0.1202
 9304WAT     H239022   6.829   5.878   7.879  0.1630 -2.5083 -0.3053
 9304WAT    EPW39023   6.881   5.895   7.812 -0.0596 -0.7288 -0.0570
 9305WAT      O39024   6.556   6.162   4.850 -0.4830  0.0225  0.7115
 9305WAT     H139025   6.484   6.102   4.828  2.0436 -2.1773 -2.6671
 9305WAT     H239026   6.586   6.195   4.765  2.9032  0.2292  1.8341
 9305WAT    EPW39027   6.551   6.158   4.836  0.2971 -0.2403  0.4139
 9306WAT      O39028   5.839   3.818   8.225  0.2866 -0.0689  0.5465
 9306WAT     H139029   5.811   3.768   8.302  1.6527 -2.0246 -0.1369
 9306WAT     H239030   5.899   3.759   8.179  1.2997  1.9106 -0.8171
 9306WAT    EPW39031   5.844   3.803   8.229  0.6003 -0.0658  0.2766
 9307WAT      O39032   1.744   2.052   4.350  0.2830  0.5448  0.1226
 9307WAT     H139033   1.662   2.035   4.398  0.6380 -0.6873  0.3302
 9307WAT     H239034   1.729   2.136   4.307 -0.3641  1.2904  1.7135
 9307WAT    EPW39035   1.731   2.061   4.351  0.2446  0.4805  0.3598
 9308WAT      O39036   6.903   4.629   4.814 -0.3322  0.0434 -0.1235
 9308WAT     H139037   6.926   4.643   4.722  0.5127  1.6159  0.2663
 9308WAT     H239038   6.869   4.714   4.843 -1.0001 -0.5519  0.9092
 9308WAT    EPW39039   6.902   4.642   4.806 -0.3088  0.1724  0.0639
 9309WAT      O39040   5.006   6.047   6.908 -0.0797 -0.7036  0.6342
 9309WAT     H139041   5.048   6.110   6.850  1.6147  1.7426  4.1616
 9309WAT     H239042   4.940   6.097   6.956 -1.2417 -2.5336  1.0862
 9309WAT    EPW39043   5.003   6.062   6.906 -0.0093 -0.6223  1.1590
 9310WAT      O39044  10.146   5.329   8.642 -0.2847 -0.2482  0.5535
 9310WAT     H139045  10.105   5.264   8.699  1.3730 -0.4630  1.5609
 9310WAT     H239046  10.091   5.406   8.649 -2.0491 -1.3706 -0.3213
 9310WAT    EPW39047  10.134   5.330   8.650 -0.2990 -0.4246  0.5713
 9311WAT      O39048   2.616   1.671   0.905  0.1642 -0.1176 -0.3625
 9311WAT     H139049   2.699   1.631   0.930 -1.4903 -3.8887 -0.3317
 9311WAT     H239050   2.611   1.659   0.810  1.1730  3.5275 -1.0338
 9311WAT    EPW39051   2.627   1.664   0.895  0.0790 -0.1342 -0.4469
 9312WAT      O39052   4.527   4.436   6.651 -0.2960 -0.3565 -0.0031
 9312WAT     H139053   4.577   4.355   6.665  0.1322 -0.2717 -0.9222
 9312WAT     H239054   4.438   4.406   6.633  0.1473 -0.7606 -1.7907
 9312WAT    EPW39055   4.522   4.421   6.650 -0.1810 -0.3986 -0.3600
 9313WAT      O39056   7.101   4.401   8.025 -0.8734  0.5583  0.1642
 9313WAT     H139057   7.171   4.463   8.050 -0.4468  0.0100  0.3573
 9313WAT     H239058   7.029   4.422   8.085 -1.0670  1.4567 -0.3603
 9313WAT    EPW39059   7.101   4.412   8.036 -0.8426  0.6044  0.1202
 9314WAT      O39060   7.036   1.797   6.764  0.5908 -0.3234  0.5005
 9314WAT     H139061   7.088   1.797   6.683 -0.6402 -0.4114 -0.3175
 9314WAT     H239062   7.100   1.780   6.833  1.5616 -1.1073 -0.5410
 9314WAT    EPW39063   7.052   1.794   6.762  0.5565 -0.4385  0.2551
 9315WAT      O39064   6.967   4.551   5.206  0.0264  0.6952  0.0867
 9315WAT     H139065   6.924   4.527   5.288 -0.2821 -2.4129 -0.8416
 9315WAT     H239066   6.905   4.524   5.138  0.6837  2.2919 -1.2192
 9315WAT    EPW39067   6.953   4.544   5.208  0.0725  0.4957 -0.2081
 9316WAT      O39068   5.840   5.355   7.803 -0.4065 -0.1398 -0.7578
 9316WAT     H139069   5.837   5.380   7.711  0.3030  0.5788 -0.6001
 9316WAT     H239070   5.921   5.304   7.812  0.8811  1.9095 -0.0634
 9316WAT    EPW39071   5.851   5.352   7.792 -0.1431  0.2251 -0.6456
 9317WAT      O39072   3.017   3.322   7.925 -0.0424 -0.1181 -0.2013
 9317WAT     H139073   3.092   3.376   7.945  0.4446 -0.9793  0.3644
 9317WAT     H239074   3.036   3.284   7.839  0.7384 -1.2710  0.4620
 9317WAT    EPW39075   3.029   3.324   7.916  0.1248 -0.3839 -0.0391
 9318WAT      O39076   7.338   3.006   6.304 -0.0403  0.3890 -0.0914
 9318WAT     H139077   7.303   3.095   6.294  0.4077  0.3637 -2.2957
 9318WAT     H239078   7.432   3.016   6.291  0.4479 -0.0226  2.6108
 9318WAT    EPW39079   7.346   3.019   6.301  0.0834  0.3313 -0.0255
 9319WAT      O39080   5.168   6.492   6.643  0.7566 -0.3622  0.7279
 9319WAT     H139081   5.237   6.479   6.579 -0.6088 -1.8488 -0.5421
 9319WAT     H239082   5.140   6.583   6.631  0.6473 -0.5661 -0.6825
 9319WAT    EPW39083   5.173   6.502   6.633  0.5622 -0.5851  0.3746
 9320WAT      O39084   8.602   3.783   6.896 -0.2641  0.3443  0.4398
 9320WAT     H139085   8.625   3.694   6.869  0.1214  0.4256  0.4830
 9320WAT     H239086   8.659   3.799   6.972  1.6996  1.6229 -1.2086
 9320WAT    EPW39087   8.613   3.773   6.903  0.0463  0.5238  0.2282
 9321WAT      O39088   6.316   5.868   6.369 -0.2577  0.3098 -0.4720
 9321WAT     H139089   6.337   5.957   6.396 -2.3501  1.0711 -1.1453
 9321WAT     H239090   6.223   5.871   6.346  0.1286 -1.5124 -2.6602
 9321WAT    EPW39091   6.307   5.880   6.370 -0.4826  0.1700 -0.8497
 9322WAT      O39092   7.175   4.689   4.185 -0.5567 -0.7044 -0.1724
 9322WAT     H139093   7.140   4.600   4.194 -0.2702 -0.7755  0.2550
 9322WAT     H239094   7.260   4.686   4.230 -0.6228 -0.1683 -0.0059
 9322WAT    EPW39095   7.182   4.677   4.192 -0.5274 -0.6430 -0.0942
 9323WAT      O39096   4.980   3.762   6.859 -0.2401 -0.1455 -0.3000
 9323WAT     H139097   4.895   3.763   6.903 -0.9509 -4.6034 -1.1414
 9323WAT     H239098   5.040   3.803   6.922 -2.1456 -1.3528  2.4836
 9323WAT    EPW39099   4.977   3.768   6.873 -0.5851 -0.8928 -0.0439
 9324WAT      O39100   6.655   4.206   5.620  0.2243  0.0489 -0.2340
 9324WAT     H139101   6.627   4.117   5.642  0.6108 -0.4422 -1.6137
 9324WAT     H239102   6.588   4.262   5.658  0.6531 -0.7169  1.8098
 9324WAT    EPW39103   6.643   4.202   5.628  0.3319 -0.1171 -0.1466
 9325WAT      O39104   5.126   1.894   0.184 -0.3942 -0.5030  0.4390
 9325WAT     H139105   5.048   1.947   0.198 -0.5772 -0.6932  0.1504
 9325WAT     H239106   5.115   1.819   0.242 -0.0346 -0.1272  1.0067
 9325WAT    EPW39107   5.115   1.891   0.193 -0.3710 -0.4786  0.4758
 9326WAT      O39108   6.548   5.435   8.151 -0.2109 -0.0009  0.3329
 9326WAT     H139109   6.484   5.449   8.082 -1.6946 -1.3655  1.3655
 9326WAT     H239110   6.505   5.464   8.231  0.9229  0.2012  0.8944
 9326WAT    EPW39111   6.534   5.440   8.152 -0.2573 -0.1540  0.5436
 9327WAT      O39112   6.236   5.981   6.007 -0.0716  0.4383  0.1335
 9327WAT     H139113   6.311   6.020   6.054  1.5142  0.5112 -2.2700
 9327WAT     H239114   6.172   6.052   6.001  0.1250  0.7311  1.2156
 9327WAT    EPW39115   6.238   5.996   6.013  0.1636  0.4866 -0.0408
 9328WAT      O39116   6.566   4.202   8.600  0.0305  0.0963  0.1975
 9328WAT     H139117   6.580   4.258   8.676  1.6876  0.4198 -0.2852
 9328WAT     H239118   6.564   4.113   8.635  1.1944  0.2088  0.6119
 9328WAT    EPW39119   6.568   4.198   8.614  0.4027  0.1538  0.1884
 9329WAT      O39120   3.498   2.660   7.495  0.2145 -0.2122 -0.7305
 9329WAT     H139121   3.521   2.568   7.507  3.5892  0.3304 -1.8720
 9329WAT     H239122   3.558   2.708   7.552 -0.3194  1.3432 -1.4084
 9329WAT    EPW39123   3.509   2.654   7.504  0.5893  0.0645 -0.9704
 9330WAT      O39124   6.862   7.177   7.737 -0.5814 -0.6547  0.1590
 9330WAT     H139125   6.934   7.115   7.744  0.8476  0.7787 -1.0114
 9330WAT     H239126   6.826   7.163   7.650 -1.8552 -1.4519  0.7844
 9330WAT    EPW39127   6.867   7.167   7.727 -0.5608 -0.5708  0.0870
 9331WAT      O39128   2.185   1.168   5.721  0.2708 -0.4507  0.3744
 9331WAT     H139129   2.232   1.241   5.762  0.1916 -1.7731  3.0023
 9331WAT     H239130   2.201   1.180   5.627  0.0417  3.0445  0.6534
 9331WAT    EPW39131   2.193   1.179   5.714  0.2301 -0.1642  0.7577
 9332WAT      O39132   3.473   4.562   7.420  0.2681 -0.6983 -0.4882
 9332WAT     H139133   3.563   4.530   7.416 -0.3220 -3.5775  3.0993
 9332WAT     H239134   3.428   4.514   7.350  1.1578 -0.7909 -1.0085
 9332WAT    EPW39135   3.479   4.551   7.410  0.3076 -1.0900 -0.0834
 9333WAT      O39136   5.938   5.019   7.966 -0.2657  0.8167  0.3927
 9333WAT     H139137   5.849   5.045   7.989 -0.4785 -0.0507  0.5728
 9333WAT     H239138   5.989   5.100   7.974 -0.8275  1.0918  1.3541
 9333WAT    EPW39139   5.933   5.033   7.970 -0.3679  0.7386  0.5434
 9334WAT      O39140   6.562   5.712   5.371 -0.1153 -0.1870  0.0157
 9334WAT     H139141   6.534   5.713   5.279  0.1262 -4.2169 -0.2707
 9334WAT     H239142   6.481   5.700   5.420 -0.1175  0.7836  0.2632
 9334WAT    EPW39143   6.548   5.710   5.365 -0.0834 -0.5903  0.0105
 9335WAT      O39144   5.617   3.749   7.151  0.0776 -0.9069 -0.4280
 9335WAT     H139145   5.537   3.801   7.156 -1.0696 -2.5279 -1.0995
 9335WAT     H239146   5.664   3.783   7.075  1.9863  2.5524  2.0070
 9335WAT    EPW39147   5.613   3.760   7.142  0.1779 -0.6644 -0.1955
 9336WAT      O39148   9.296   5.241   6.214 -0.0410  0.4233  0.0267
 9336WAT     H139149   9.298   5.155   6.171  1.6862  2.0582 -3.5622
 9336WAT     H239150   9.214   5.281   6.185  1.3360  1.7078 -2.3383
 9336WAT    EPW39151   9.285   5.235   6.205  0.3686  0.8085 -0.7584
 9337WAT      O39152   8.623   8.322   6.666  0.0266  0.5697  0.6528
 9337WAT     H139153   8.599   8.333   6.758  0.7945  1.2204  0.7830
 9337WAT     H239154   8.710   8.281   6.668  1.2176  2.8838  0.2984
 9337WAT    EPW39155   8.631   8.318   6.678  0.2851  0.9608  0.6232
 9338WAT      O39156   9.117   7.553   4.302 -0.2728 -0.1146  0.3476
 9338WAT     H139157   9.123   7.575   4.395 -0.8634  1.4348  0.0514
 9338WAT     H239158   9.205   7.524   4.279  1.3020  3.9589  0.3790
 9338WAT    EPW39159   9.129   7.552   4.311 -0.1431  0.6270  0.3128
 9339WAT      O39160   5.821   3.852   7.853 -0.1603  0.0148 -0.0329
 9339WAT     H139161   5.738   3.893   7.878 -1.3050 -0.9656 -1.9802
 9339WAT     H239162   5.887   3.920   7.869 -1.1784  0.5201  2.3498
 9339WAT    EPW39163   5.819   3.867   7.858 -0.4456 -0.0479  0.0248
 9340WAT      O39164   4.748   6.939   7.171 -0.0515  0.6475  0.0970
 9340WAT     H139165   4.726   7.001   7.102 -2.2311  0.0963  0.2126
 9340WAT     H239166   4.767   6.857   7.125 -1.1885  0.3676  0.0775
 9340WAT    EPW39167   4.748   6.936   7.156 -0.4890  0.5379  0.1097
 9341WAT      O39168   6.952   5.088   6.328 -0.3809 -0.3454  0.5483
 9341WAT     H139169   7.045   5.097   6.345 -0.4621 -1.7533  2.0372
 9341WAT     H239170   6.920   5.178   6.319  0.5097  0.4473  3.8158
 9341WAT    EPW39171   6.960   5.101   6.329 -0.2744 -0.4265  1.1754
 9342WAT      O39172   6.795   4.139   7.419  0.3125 -0.0548 -0.6190
 9342WAT     H139173   6.762   4.089   7.494  1.1251 -0.3709 -0.4658
 9342WAT     H239174   6.874   4.093   7.393  0.1890  0.2228 -1.4994
 9342WAT    EPW39175   6.801   4.126   7.426  0.4036 -0.0598 -0.7150
 9343WAT      O39176   6.970   8.030   6.915 -0.2905  0.1979 -0.7043
 9343WAT     H139177   6.931   7.947   6.943 -2.6361  1.2303 -0.6890
 9343WAT     H239178   7.062   8.008   6.897 -0.2702 -1.8877  1.4568
 9343WAT    EPW39179   6.977   8.016   6.916 -0.5970  0.0587 -0.4175
 9344WAT      O39180   5.684   1.593   8.903  0.2921 -0.1385  0.6151
 9344WAT     H139181   5.614   1.555   8.956  1.4195 -1.2422  1.3765
 9344WAT     H239182   5.758   1.601   8.964  1.3957 -0.7360 -0.5858
 9344WAT    EPW39183   5.684   1.589   8.918  0.5863 -0.3629  0.5569
 9345WAT      O39184   7.033   2.747   7.511  0.0686 -0.0341 -0.0325
 9345WAT     H139185   7.060   2.716   7.597 -0.0760 -0.7490 -0.2372
 9345WAT     H239186   7.037   2.843   7.517  0.0057 -0.0790  0.7801
 9345WAT    EPW39187   7.037   2.756   7.523  0.0412 -0.1342  0.0477
 9346WAT      O39188   7.291   4.293   6.750 -0.1923  0.8020 -0.2368
 9346WAT     H139189   7.352   4.228   6.714 -1.6789 -0.3789 -0.7002
 9346WAT     H239190   7.328   4.377   6.722  0.2189  0.0458 -2.1632
 9346WAT    EPW39191   7.304   4.296   6.741 -0.3343  0.5462 -0.5522
 9347WAT      O39192   5.122   2.694   7.876  0.2966 -0.5821  0.6157
 9347WAT     H139193   5.203   2.740   7.896  1.2764 -1.4692 -1.0699
 9347WAT     H239194   5.061   2.764   7.851  1.2745 -0.0378 -0.3732
 9347WAT    EPW39195   5.124   2.710   7.875  0.5548 -0.6274  0.2630
 9348WAT      O39196   3.142   1.100   2.152 -0.5079  0.2287  0.0842
 9348WAT     H139197   3.137   1.006   2.172  1.9598 -0.2438 -1.1179
 9348WAT     H239198   3.163   1.103   2.058  2.2524  1.8150  0.6400
 9348WAT    EPW39199   3.144   1.088   2.142  0.1816  0.3756 -0.0011
 9349WAT      O39200   8.479   4.643   6.296  0.1507 -0.0188 -0.0587
 9349WAT     H139201   8.498   4.663   6.205  1.2878 -0.9484 -0.0479
 9349WAT     H239202   8.478   4.548   6.301 -3.1454 -0.0755  0.2829
 9349WAT    EPW39203   8.481   4.633   6.285 -0.1335 -0.1488 -0.0122
 9350WAT      O39204   2.421   0.806   5.448 -0.0946  0.0476 -0.2578
 9350WAT     H139205   2.348   0.749   5.424 -0.0832 -0.3128  0.5383
 9350WAT     H239206   2.382   0.894   5.455 -1.0508 -0.4872  2.6320
 9350WAT    EPW39207   2.407   0.810   5.446 -0.2191 -0.0705  0.2282
 9351WAT      O39208   8.915   4.216   4.399 -0.2139 -0.6226 -0.6245
 9351WAT     H139209   8.949   4.251   4.316  0.1910  2.6705  0.7998
 9351WAT     H239210   8.988   4.167   4.436 -0.3441 -1.9963 -2.0898
 9351WAT    EPW39211   8.929   4.214   4.393 -0.1774 -0.3693 -0.6299
 9352WAT      O39212   5.732   4.595   6.179  0.0235 -0.0372 -0.9245
 9352WAT     H139213   5.664   4.547   6.133 -1.0704  0.6261 -0.0627
 9352WAT     H239214   5.720   4.571   6.271  1.2188 -0.2064 -0.7909
 9352WAT    EPW39215   5.721   4.585   6.185  0.0370  0.0279 -0.7930
 9353WAT      O39216   4.626   3.707   8.698  0.8114  0.5778 -0.9094
 9353WAT     H139217   4.594   3.639   8.757  1.1732  1.2106  0.0231
 9353WAT     H239218   4.557   3.713   8.631 -0.5530  1.1770  0.4884
 9353WAT    EPW39219   4.612   3.699   8.697  0.6793  0.7403 -0.6018
 9354WAT      O39220   7.670   6.549   2.230 -0.3907 -0.3636 -0.3785
 9354WAT     H139221   7.713   6.475   2.272 -0.9748 -0.7886 -0.5268
 9354WAT     H239222   7.664   6.525   2.138  0.1857  0.2350 -0.5763
 9354WAT    EPW39223   7.675   6.536   2.223 -0.3917 -0.3407 -0.4241
 9355WAT      O39224   6.228   1.234   5.299 -0.2080 -0.3858  0.5864
 9355WAT     H139225   6.322   1.220   5.316 -0.7705 -0.2072  4.6847
 9355WAT     H239226   6.210   1.321   5.333 -2.0461 -0.7537  0.6629
 9355WAT    EPW39227   6.238   1.244   5.306 -0.5245 -0.4107  1.1368
 9356WAT      O39228   1.564   9.752   5.022  0.7420  0.1910  1.3563
 9356WAT     H139229   1.524   9.835   5.046  2.2740  2.6062 -3.3205
 9356WAT     H239230   1.504   9.714   4.958  1.8771 -0.3210  0.5603
 9356WAT    EPW39231   1.551   9.758   5.017  1.0938  0.4420  0.6342
 9357WAT      O39232   6.600   6.318   5.968 -0.0689  0.0059  1.4067
 9357WAT     H139233   6.566   6.394   6.015  2.2009  1.0591  1.4451
 9357WAT     H239234   6.655   6.355   5.898 -0.7239 -1.5823 -0.0275
 9357WAT    EPW39235   6.603   6.333   5.965  0.1440 -0.0644  1.2226
 9358WAT      O39236   5.229   4.724   7.311 -0.4496 -0.0051 -0.4834
 9358WAT     H139237   5.210   4.656   7.246 -1.3188  1.8310 -2.2565
 9358WAT     H239238   5.148   4.774   7.318 -1.1406 -1.3328  3.7221
 9358WAT    EPW39239   5.216   4.722   7.303 -0.6557  0.0620 -0.1626
 9359WAT      O39240   7.831   4.529   8.496 -0.2272  0.2508 -0.1018
 9359WAT     H139241   7.784   4.575   8.426  1.0950 -0.1813 -1.3095
 9359WAT     H239242   7.920   4.562   8.491  0.4652 -1.5451 -0.2161
 9359WAT    EPW39243   7.836   4.539   8.486  0.0386 -0.0432 -0.2761
 9360WAT      O39244   6.513   3.633   7.790 -0.2453 -0.5382  0.0658
 9360WAT     H139245   6.544   3.542   7.787 -0.5752 -0.6965  0.9271
 9360WAT     H239246   6.495   3.648   7.883 -1.0111  0.1311 -0.1800
 9360WAT    EPW39247   6.515   3.623   7.802 -0.3896 -0.4708  0.1469
 9361WAT      O39248   5.796   6.450   7.553  0.1161 -0.5993 -0.4006
 9361WAT     H139249   5.746   6.469   7.473  2.0020 -0.8174 -1.7119
 9361WAT     H239250   5.740   6.480   7.624 -0.3671  2.6213 -1.9576
 9361WAT    EPW39251   5.782   6.457   7.552  0.3011 -0.2034 -0.7787
 9362WAT      O39252   3.820   0.395   1.647 -0.5720 -0.1544 -0.6001
 9362WAT     H139253   3.814   0.430   1.735 -0.3772 -0.8726 -0.2965
 9362WAT     H239254   3.735   0.353   1.632 -0.2013 -1.0219 -0.3195
 9362WAT    EPW39255   3.808   0.394   1.656 -0.4976 -0.3635 -0.5230
 9363WAT      O39256   2.701   2.568   8.837  0.0362  0.2864  0.0128
 9363WAT     H139257   2.636   2.562   8.767 -0.7762 -4.7526  0.7930
 9363WAT     H239258   2.649   2.574   8.917 -0.0474 -5.1900  0.7661
 9363WAT    EPW39259   2.685   2.568   8.838 -0.0819 -1.1005  0.2151
 9364WAT      O39260   6.841   6.678   6.477  0.0877 -0.3776 -0.1587
 9364WAT     H139261   6.839   6.637   6.391  0.4959  3.0557 -1.9666
 9364WAT     H239262   6.749   6.694   6.498 -0.0869 -2.1766  0.6414
 9364WAT    EPW39263   6.828   6.675   6.469  0.1185 -0.1619 -0.2916
 9365WAT      O39264   7.498   3.970   6.823  0.0423 -0.0701 -0.1541
 9365WAT     H139265   7.527   4.037   6.760 -0.1826 -0.4419 -0.6634
 9365WAT     H239266   7.561   3.899   6.811 -1.6032 -1.3260 -2.0181
 9365WAT    EPW39267   7.510   3.970   6.813 -0.2043 -0.2849 -0.4671
 9366WAT      O39268   4.860   4.765   7.100 -0.2061  0.7901 -0.1422
 9366WAT     H139269   4.766   4.754   7.118 -0.4957  0.4372 -1.7716
 9366WAT     H239270   4.901   4.761   7.187 -1.7275  1.4407  0.6568
 9366WAT    EPW39271   4.853   4.763   7.114 -0.4449  0.8295 -0.2518
 9367WAT      O39272   8.704   6.056   5.540  0.3667 -0.0965 -0.7641
 9367WAT     H139273   8.747   5.971   5.530  0.4399 -0.2008  0.2747
 9367WAT     H239274   8.663   6.072   5.456  0.4403 -1.1190 -1.0143
 9367WAT    EPW39275   8.704   6.047   5.528  0.3862 -0.2451 -0.6599
 9368WAT      O39276   6.047   3.401   8.847 -0.0614 -0.1913  0.2503
 9368WAT     H139277   5.997   3.457   8.788 -0.2623  0.2838  0.8621
 9368WAT     H239278   6.073   3.458   8.918 -0.1893 -0.8490  0.8426
 9368WAT    EPW39279   6.043   3.416   8.848 -0.1047 -0.2153  0.4086
 9369WAT      O39280   6.539   1.484   5.327  0.2990 -0.1397  0.1123
 9369WAT     H139281   6.616   1.438   5.294 -0.2891 -0.7772 -0.4055
 9369WAT     H239282   6.469   1.459   5.267 -0.3391  0.3391  0.6445
 9369WAT    EPW39283   6.540   1.474   5.314  0.1376 -0.1606  0.1144
 9370WAT      O39284   4.096   3.796   6.066  0.4758 -0.6008  0.4153
 9370WAT     H139285   4.119   3.704   6.076  1.2814 -0.4325  0.1356
 9370WAT     H239286   4.147   3.826   5.991  0.0703  0.0265  0.3798
 9370WAT    EPW39287   4.106   3.788   6.058  0.5288 -0.4959  0.3738
 9371WAT      O39288   4.553   6.009   7.401 -0.3071  0.0196 -0.0823
 9371WAT     H139289   4.555   5.919   7.434  0.8109  0.2784  0.6091
 9371WAT     H239290   4.468   6.043   7.429 -1.2892 -1.2007 -1.4453
 9371WAT    EPW39291   4.542   6.001   7.409 -0.2890 -0.1070 -0.1709
 9372WAT      O39292   7.485   7.849   8.937 -0.4788 -0.1685  0.7312
 9372WAT     H139293   7.571   7.826   8.972  1.1340  2.0330 -1.3640
 9372WAT     H239294   7.485   7.814   8.848 -0.3759  2.3858 -0.3838
 9372WAT    EPW39295   7.496   7.841   8.930 -0.2525  0.4590  0.3076
 9373WAT      O39296   6.006   4.466   7.753 -0.2482 -0.0131 -0.2201
 9373WAT     H139297   6.044   4.472   7.841 -1.0297 -0.6499  0.1739
 9373WAT     H239298   6.032   4.379   7.723  0.1774  0.2774 -0.7006
 9373WAT    EPW39299   6.015   4.455   7.761 -0.2952 -0.0587 -0.2315
 9374WAT      O39300   7.328   4.083   5.552 -0.3623 -0.4890 -0.4859
 9374WAT     H139301   7.400   4.041   5.505 -0.0379 -0.7124  0.1832
 9374WAT     H239302   7.329   4.041   5.638  0.1626  1.0671  0.3039
 9374WAT    EPW39303   7.338   4.072   5.557 -0.2503 -0.3133 -0.2935
 9375WAT      O39304   7.077   5.824   6.099 -0.3836  0.0010 -0.2538
 9375WAT     H139305   7.146   5.868   6.051 -1.1877  0.2713 -1.1932
 9375WAT     H239306   7.110   5.817   6.189 -0.0950  2.2751 -0.1303
 9375WAT    EPW39307   7.090   5.829   6.105 -0.4516  0.3366 -0.3614
 9376WAT      O39308   6.198   5.409   6.072 -0.1243  0.0468 -1.5621
 9376WAT     H139309   6.168   5.380   6.158  0.1336 -1.4204 -1.9377
 9376WAT     H239310   6.293   5.422   6.083 -0.3458  1.5107 -1.2109
 9376WAT    EPW39311   6.207   5.406   6.085 -0.1199  0.0465 -1.5650
 9377WAT      O39312   7.326   3.018   7.215  0.3883 -0.1286 -0.0643
 9377WAT     H139313   7.387   3.091   7.210  0.3861 -0.0417  0.9199
 9377WAT     H239314   7.265   3.032   7.143  0.7110  0.5420 -0.2124
 9377WAT    EPW39315   7.326   3.029   7.205  0.4308 -0.0286  0.0460
 9378WAT      O39316   4.736   3.962   6.626 -0.0003 -0.4286  0.5785
 9378WAT     H139317   4.695   3.949   6.540  2.2121  2.0921 -0.9991
 9378WAT     H239318   4.739   4.057   6.637  1.3210 -0.6619  2.6879
 9378WAT    EPW39319   4.731   3.972   6.616  0.4659 -0.1270  0.6487
 9379WAT      O39320   6.744   3.258   5.610  0.4739 -0.6523  0.2437
 9379WAT     H139321   6.715   3.220   5.693 -0.2810 -0.1424  0.2209
 9379WAT     H239322   6.769   3.347   5.632 -1.2579  0.0180 -0.3315
 9379WAT    EPW39323   6.744   3.264   5.624  0.1459 -0.4967  0.1647
 9380WAT      O39324   0.863  10.254   0.648 -1.2482 -0.3265 -0.7332
 9380WAT     H139325   0.861  10.333   0.594  1.2145  0.2186 -0.1094
 9380WAT     H239326   0.823  10.186   0.592  1.7448  0.0338 -3.6279
 9380WAT    EPW39327   0.857  10.255   0.633 -0.5286 -0.2069 -1.0327
 9381WAT      O39328   9.415   7.631   5.073  0.3406  0.2395 -0.5142
 9381WAT     H139329   9.341   7.597   5.122 -0.3871  0.4783 -1.4324
 9381WAT     H239330   9.492   7.593   5.116 -0.2252  1.0681  1.3025
 9381WAT    EPW39331   9.416   7.622   5.085  0.1698  0.3803 -0.3955
 9382WAT      O39332   9.170   5.016   6.064 -0.3809  0.2265 -0.5503
 9382WAT     H139333   9.226   5.065   6.003 -0.4902 -0.4511 -1.1997
 9382WAT     H239334   9.098   5.077   6.084  1.2730  1.6991  1.4630
 9382WAT    EPW39335   9.168   5.031   6.059 -0.1774  0.3312 -0.3705
 9383WAT      O39336  10.142   7.758   7.080 -0.2359  0.6296  0.1691
 9383WAT     H139337  10.212   7.821   7.062 -0.3756  0.6615 -0.2825
 9383WAT     H239338  10.114   7.728   6.993  0.7147 -1.0432  0.3905
 9383WAT    EPW39339  10.148   7.762   7.066 -0.1287  0.4132  0.1385
 9384WAT      O39340   6.327   6.773   6.338  0.1762  0.3343 -0.0554
 9384WAT     H139341   6.281   6.852   6.311  0.6697  0.8963  0.7215
 9384WAT     H239342   6.257   6.711   6.361 -0.2122  1.0848  0.8527
 9384WAT    EPW39343   6.312   6.775   6.337  0.1900  0.5074  0.1669
 9385WAT      O39344   7.555   3.519   4.324  0.2595  0.8558  0.3362
 9385WAT     H139345   7.521   3.446   4.377  1.1462 -0.2644 -0.5932
 9385WAT     H239346   7.528   3.498   4.235  2.3226  0.5401 -0.2581
 9385WAT    EPW39347   7.547   3.506   4.319  0.6487  0.6663  0.1352
 9386WAT      O39348   9.525   6.361   7.853  0.2849 -0.0886  0.4518
 9386WAT     H139349   9.452   6.310   7.817  0.3750  0.0161  0.1219
 9386WAT     H239350   9.491   6.395   7.936  0.7124 -1.9284  1.4413
 9386WAT    EPW39351   9.511   6.359   7.859  0.3533 -0.3176  0.5388
 9387WAT      O39352   6.775   5.542   6.539 -0.0405  0.0759  0.0114
 9387WAT     H139353   6.847   5.486   6.509 -1.3443 -1.3931 -0.4901
 9387WAT     H239354   6.698   5.486   6.536 -1.4452  1.9483 -0.6147
 9387WAT    EPW39355   6.775   5.527   6.535 -0.3977  0.1295 -0.1373
 9388WAT      O39356   9.286   3.895   7.675  0.4729 -0.3127 -0.2894
 9388WAT     H139357   9.292   3.915   7.582 -4.6023 -0.9937 -1.0300
 9388WAT     H239358   9.268   3.801   7.678  3.3269 -0.9462  1.7317
 9388WAT    EPW39359   9.284   3.885   7.663  0.1798 -0.4861 -0.1206
 9389WAT      O39360   6.765   5.521   7.970 -0.4691 -0.5015 -0.2938
 9389WAT     H139361   6.819   5.574   8.028 -1.8582  1.3197 -0.5939
 9389WAT     H239362   6.682   5.512   8.016 -0.6876 -1.3597 -0.8222
 9389WAT    EPW39363   6.761   5.527   7.984 -0.6814 -0.3743 -0.4032
 9390WAT      O39364   9.261   7.279   5.432  0.0042 -0.1070  0.1325
 9390WAT     H139365   9.210   7.242   5.361  0.1950 -1.8248  0.8332
 9390WAT     H239366   9.217   7.361   5.454 -0.1175  0.4053 -1.8529
 9390WAT    EPW39367   9.249   7.285   5.426  0.0129 -0.2658 -0.0367
 9391WAT      O39368   9.730   8.179   6.078  0.1005 -0.1307  0.1551
 9391WAT     H139369   9.701   8.242   6.144  1.8120  2.2101 -1.1347
 9391WAT     H239370   9.677   8.199   6.001 -1.1074 -2.0769  0.4383
 9391WAT    EPW39371   9.720   8.190   6.077  0.1669 -0.0792  0.0226
 9392WAT      O39372   8.299   5.416   2.624 -0.2937  0.0271 -0.0298
 9392WAT     H139373   8.253   5.396   2.706  0.4489  0.7948  0.5934
 9392WAT     H239374   8.392   5.419   2.649  0.0712 -0.9530 -1.1530
 9392WAT    EPW39375   8.305   5.414   2.638 -0.1478 -0.0014 -0.0957
 9393WAT      O39376   8.816   5.121   6.732 -0.0933  0.0912 -0.3191
 9393WAT     H139377   8.722   5.118   6.715 -0.2429  0.7682  0.3127
 9393WAT     H239378   8.836   5.215   6.739  0.6322 -0.0463 -0.4612
 9393WAT    EPW39379   8.806   5.133   6.731 -0.0176  0.1624 -0.2544
 9394WAT      O39380   7.929   7.638   8.228  0.1352 -0.1989 -0.6976
 9394WAT     H139381   8.022   7.644   8.250 -0.2888 -2.4801  2.3279
 9394WAT     H239382   7.896   7.727   8.241  1.5624  0.2829 -0.1285
 9394WAT    EPW39383   7.937   7.650   8.233  0.2675 -0.4361 -0.2236
 9395WAT      O39384   3.918   9.403   2.681 -0.2540  0.2049  0.2903
 9395WAT     H139385   3.952   9.315   2.663 -0.2377  0.3853 -0.6041
 9395WAT     H239386   3.950   9.457   2.608 -1.3426  0.6688  0.1257
 9395WAT    EPW39387   3.927   9.399   2.669 -0.3954  0.2904  0.1506
 9396WAT      O39388   9.068   6.261   3.946 -0.6496  0.2909 -0.1532
 9396WAT     H139389   9.149   6.239   3.991 -1.7244 -0.7431  1.4192
 9396WAT     H239390   9.039   6.178   3.908 -0.1873  0.9859 -2.1232
 9396WAT    EPW39391   9.075   6.247   3.947 -0.7300  0.2463 -0.2056
 9397WAT      O39392  10.403   7.587   3.911  0.2293  0.1721 -0.2801
 9397WAT     H139393  10.462   7.663   3.914 -0.3409  0.5818  0.9993
 9397WAT     H239394  10.371   7.577   4.000 -1.9108  0.1563 -0.9841
 9397WAT    EPW39395  10.407   7.595   3.923 -0.1287  0.2241 -0.2042
 9398WAT      O39396   6.968   3.952   5.889  0.0771  0.3013  0.1372
 9398WAT     H139397   6.974   4.042   5.859 -1.7280  0.2968 -0.3444
 9398WAT     H239398   7.023   3.902   5.829  0.0348  0.9070 -0.4057
 9398WAT    EPW39399   6.976   3.957   5.877 -0.1669  0.3806  0.0021
 9399WAT      O39400   7.054   5.893   4.833  0.1734  0.1599 -0.1154
 9399WAT     H139401   6.970   5.939   4.830  1.4807  2.8859  0.6764
 9399WAT     H239402   7.101   5.924   4.756  0.2747 -1.8834 -0.9369
 9399WAT    EPW39403   7.049   5.903   4.823  0.3591  0.2501 -0.1194
 9400WAT      O39404   9.121   8.224   8.283 -0.3529 -1.5190  0.3022
 9400WAT     H139405   9.071   8.197   8.206  1.5556 -1.5779 -0.9980
 9400WAT     H239406   9.107   8.319   8.288 -1.9080 -1.7581  0.9957
 9400WAT    EPW39407   9.112   8.233   8.274 -0.3066 -1.5583  0.2222
 9401WAT      O39408   9.676   8.569   1.086 -0.0897 -0.6770 -0.9287
 9401WAT     H139409   9.627   8.534   1.159  2.1243 -0.4830  0.7526
 9401WAT     H239410   9.753   8.609   1.125 -0.4037  2.4156 -3.0849
 9401WAT    EPW39411   9.680   8.570   1.101  0.1607 -0.2432 -0.9913
 9402WAT      O39412   8.246   5.824   6.913 -0.2796  0.3932  0.2492
 9402WAT     H139413   8.218   5.739   6.879  0.1380  0.2459  0.2608
 9402WAT     H239414   8.213   5.887   6.849  0.0327  0.1615 -0.1498
 9402WAT    EPW39415   8.238   5.821   6.900 -0.1836  0.3431  0.1981
 9403WAT      O39416   8.435   6.701   3.952 -0.0191  0.2778  0.9111
 9403WAT     H139417   8.461   6.792   3.934  1.9005 -0.5673 -1.0600
 9403WAT     H239418   8.393   6.672   3.871  0.6621 -0.9851  0.9804
 9403WAT    EPW39419   8.433   6.709   3.939  0.3242  0.0000  0.6602
 9404WAT      O39420  10.963   9.330   3.400  0.4472  0.4013 -0.4806
 9404WAT     H139421  10.966   9.380   3.481  0.3579 -0.7574  0.2752
 9404WAT     H239422  10.907   9.255   3.421  2.5689 -1.3668 -0.7245
 9404WAT    EPW39423  10.956   9.326   3.414  0.7153  0.0153 -0.4129
 9405WAT      O39424   9.257   4.802   7.238 -0.7728 -0.1583 -0.5772
 9405WAT     H139425   9.250   4.882   7.187 -1.9157  0.0893 -0.0613
 9405WAT     H239426   9.302   4.741   7.180 -2.1600  0.0667 -1.9670
 9405WAT    EPW39427   9.262   4.804   7.224 -1.1067 -0.0958 -0.6921
 9406WAT      O39428   0.246   0.567   0.725  0.4121  0.1402 -0.0182
 9406WAT     H139429   0.309   0.630   0.759 -2.2728  1.9355  1.9815
 9406WAT     H239430   0.228   0.596   0.636  0.7606  0.9074  0.1572
 9406WAT    EPW39431   0.252   0.579   0.718  0.1039  0.4781  0.2686
 9407WAT      O39432   7.716   7.958   7.977  0.7440  0.2136 -0.7833
 9407WAT     H139433   7.797   7.938   7.929  0.1824 -0.4096 -1.4944
 9407WAT     H239434   7.677   8.031   7.930  0.8384  0.4570 -0.4905
 9407WAT    EPW39435   7.722   7.965   7.965  0.6824  0.1638 -0.8388
 9408WAT      O39436   6.827   6.840   6.045 -0.2311 -0.0801 -0.1073
 9408WAT     H139437   6.839   6.868   6.136 -0.7714 -1.3113  0.3644
 9408WAT     H239438   6.907   6.869   6.001  0.0266  0.5671  0.7503
 9408WAT    EPW39439   6.839   6.847   6.051 -0.2685 -0.1571  0.0682
 9409WAT      O39440   7.376   6.409   8.276  1.2604 -0.2270  0.1671
 9409WAT     H139441   7.357   6.334   8.221 -3.1606  0.9796 -0.2896
 9409WAT     H239442   7.358   6.379   8.365  1.2436 -0.1847  0.1776
 9409WAT    EPW39443   7.371   6.395   8.281  0.6752 -0.0620  0.1082
 9410WAT      O39444   9.947   6.959   4.055  0.5489 -0.6792 -0.0041
 9410WAT     H139445  10.015   6.894   4.036  1.0814  0.4328 -2.2991
 9410WAT     H239446   9.867   6.921   4.020 -0.0031 -1.7828  2.2804
 9410WAT    EPW39447   9.945   6.945   4.048  0.5460 -0.6778 -0.0052
 9411WAT      O39448   9.356   8.911   8.729 -0.3184  0.2692 -0.2831
 9411WAT     H139449   9.431   8.888   8.784  1.8839  1.5447 -2.5598
 9411WAT     H239450   9.318   8.988   8.772 -0.9861 -0.9325  1.3920
 9411WAT    EPW39451   9.361   8.918   8.742 -0.1163  0.2789 -0.3624
 9412WAT      O39452   6.629   8.057   6.874  0.4562 -0.3757  0.6302
 9412WAT     H139453   6.571   8.129   6.896  0.7761  0.2274 -0.4152
 9412WAT     H239454   6.717   8.089   6.892  0.5395 -0.9456  1.2990
 9412WAT    EPW39455   6.633   8.071   6.879  0.5093 -0.3715  0.5805
 9413WAT      O39456   5.343   9.517   8.015  0.9740  0.1401  0.4082
 9413WAT     H139457   5.284   9.513   8.091  0.1354 -0.3341 -0.2551
 9413WAT     H239458   5.395   9.597   8.030 -1.2524  1.7545  0.0055
 9413WAT    EPW39459   5.342   9.527   8.027  0.5698  0.2909  0.2675
 9414WAT      O39460   1.833   1.106   0.184 -0.4012 -0.6077  0.1331
 9414WAT     H139461   1.746   1.136   0.159 -0.6263 -1.5932 -0.3040
 9414WAT     H239462   1.889   1.183   0.174 -1.1504 -0.0586  0.0859
 9414WAT    EPW39463   1.829   1.120   0.180 -0.5296 -0.6652  0.0692
 9415WAT      O39464   4.517   2.628   7.337 -0.0563  0.2885  0.4046
 9415WAT     H139465   4.453   2.689   7.374 -0.0570  0.7137 -0.2942
 9415WAT     H239466   4.544   2.574   7.412  0.5818  1.6938  1.2270
 9415WAT    EPW39467   4.512   2.629   7.352  0.0279  0.5300  0.4208
 9416WAT      O39468   8.314   3.309   8.141 -0.8021  0.1408  0.5801
 9416WAT     H139469   8.374   3.378   8.168 -1.1758  0.5305  0.4254
 9416WAT     H239470   8.371   3.234   8.122 -0.3162  0.6406 -0.0047
 9416WAT    EPW39471   8.329   3.308   8.142 -0.7877  0.2582  0.4830
 9417WAT      O39472   9.103   6.046   5.173 -0.9047 -0.2892 -1.0312
 9417WAT     H139473   9.038   6.094   5.224  1.4000  0.4903  1.4197
 9417WAT     H239474   9.129   6.107   5.104  0.5928  1.4176  0.8926
 9417WAT    EPW39475   9.098   6.060   5.170 -0.4034  0.0386 -0.4542
 9418WAT      O39476   0.593   9.704   0.098 -0.3353  0.1037  0.4464
 9418WAT     H139477   0.573   9.701   0.191 -4.0004  0.3370 -0.1820
 9418WAT     H239478   0.572   9.793   0.071 -1.4404 -0.5163 -0.9260
 9418WAT    EPW39479   0.588   9.715   0.107 -0.9645  0.0525  0.1825
 9419WAT      O39480   5.929   6.880   4.144 -0.7473 -0.5975 -0.3972
 9419WAT     H139481   5.873   6.803   4.150 -0.9239 -0.3696  3.3638
 9419WAT     H239482   5.892   6.942   4.206  1.6778  0.9277 -0.3255
 9419WAT    EPW39483   5.917   6.878   4.153 -0.4506 -0.3662  0.1085
 9420WAT      O39484   2.135   1.597   0.143 -0.1106  0.4918 -0.6713
 9420WAT     H139485   2.074   1.646   0.088 -1.2815 -0.8504 -0.6492
 9420WAT     H239486   2.087   1.516   0.165  2.4631 -1.6479 -2.4065
 9420WAT    EPW39487   2.120   1.593   0.139  0.0744  0.0326 -0.8972
 9421WAT      O39488   8.966   4.988   8.214  0.5296 -0.1007 -0.3951
 9421WAT     H139489   9.053   4.977   8.176  1.6012  2.8218  0.9109
 9421WAT     H239490   8.927   5.060   8.164 -0.6060 -0.4631 -0.0643
 9421WAT    EPW39491   8.972   4.996   8.202  0.5212  0.2372 -0.1788
 9422WAT      O39492   9.263   5.720   4.315 -0.1995 -0.1833 -0.7665
 9422WAT     H139493   9.307   5.707   4.231  0.9265 -1.1698 -0.0616
 9422WAT     H239494   9.256   5.632   4.352 -0.5020  0.2590  0.2483
 9422WAT    EPW39495   9.268   5.707   4.309 -0.0911 -0.2549 -0.5398
 9423WAT      O39496   1.998   5.581   6.260  0.7031  0.0077 -0.6556
 9423WAT     H139497   1.948   5.508   6.224 -4.3459  1.9481  1.6057
 9423WAT     H239498   1.989   5.572   6.355  3.5535  1.3990 -0.1392
 9423WAT    EPW39499   1.991   5.570   6.268  0.4132  0.4473 -0.2894
 9424WAT      O39500   6.457   5.748   8.000 -0.0427 -0.4007 -0.0714
 9424WAT     H139501   6.449   5.654   7.985  3.2369 -1.4249  3.0524
 9424WAT     H239502   6.414   5.763   8.084 -1.1798  1.0900 -0.8824
 9424WAT    EPW39503   6.451   5.738   8.009  0.2396 -0.3388  0.2337
 9425WAT      O39504   6.215   7.108   4.088 -0.3415  0.0164  0.0944
 9425WAT     H139505   6.238   7.025   4.130  1.6224  0.3542 -0.2211
 9425WAT     H239506   6.170   7.158   4.157 -0.4654 -0.8392  0.6513
 9425WAT    EPW39507   6.212   7.104   4.103 -0.0987 -0.0520  0.1264
 9426WAT      O39508   6.770   4.547   4.229  0.1654 -0.1098 -0.0444
 9426WAT     H139509   6.681   4.582   4.222 -0.5849 -2.1038 -1.2897
 9426WAT     H239510   6.799   4.537   4.138  1.0692 -0.9447  0.3177
 9426WAT    EPW39511   6.763   4.551   4.216  0.1857 -0.4828 -0.1609
 9427WAT      O39512   6.385   6.061   7.338 -0.3212  0.3164 -0.1422
 9427WAT     H139513   6.450   6.008   7.292 -1.0267 -1.4234  0.7584
 9427WAT     H239514   6.333   6.100   7.268  1.6785  1.8183 -0.8793
 9427WAT    EPW39515   6.387   6.059   7.322 -0.1507  0.2851 -0.1206
 9428WAT      O39516   8.915   4.577   4.296 -0.5009  0.8245  0.1803
 9428WAT     H139517   8.828   4.577   4.335 -0.7343 -0.1550 -0.2966
 9428WAT     H239518   8.900   4.564   4.202  0.1907 -0.6005  0.2397
 9428WAT    EPW39519   8.902   4.575   4.289 -0.4401  0.5076  0.1254
 9429WAT      O39520   9.376   4.061   6.630  0.7917 -0.1976  0.1682
 9429WAT     H139521   9.405   4.142   6.673  2.7092 -0.7426  0.0251
 9429WAT     H239522   9.348   4.004   6.701  0.6610  0.1377  0.3867
 9429WAT    EPW39523   9.376   4.064   6.645  1.0271 -0.2253  0.1783
 9430WAT      O39524   6.456   5.269   6.631 -0.0449  0.0206 -0.1227
 9430WAT     H139525   6.431   5.177   6.635  1.1337 -0.3653 -0.9533
 9430WAT     H239526   6.531   5.276   6.690  0.0383  0.3841 -0.2680
 9430WAT    EPW39527   6.463   5.258   6.639  0.1216  0.0174 -0.2515
 9431WAT      O39528  10.552   2.776   5.871  0.7079  0.2895 -0.3141
 9431WAT     H139529  10.581   2.867   5.878  0.4718  0.4753 -1.5884
 9431WAT     H239530  10.457   2.781   5.885  0.7811  0.1412  0.2782
 9431WAT    EPW39531  10.543   2.789   5.874  0.6857  0.2944 -0.4039
 9432WAT      O39532   7.916   4.855   6.412  0.0244  0.9663 -0.6161
 9432WAT     H139533   7.900   4.890   6.499 -0.8175 -0.2840 -0.2391
 9432WAT     H239534   8.011   4.843   6.407 -0.1042 -2.8478  1.7994
 9432WAT    EPW39535   7.926   4.858   6.423 -0.1035  0.2983 -0.2475
 9433WAT      O39536   6.671   5.685   6.105  0.0488 -0.1871 -0.1910
 9433WAT     H139537   6.642   5.749   6.040 -1.2839  0.8672  1.3542
 9433WAT     H239538   6.593   5.633   6.124  0.0791  0.2738  1.3560
 9433WAT    EPW39539   6.657   5.686   6.099 -0.1230  0.0129  0.2167
 9434WAT      O39540   6.837   6.143   5.015 -0.2378  0.1023  0.3186
 9434WAT     H139541   6.755   6.145   4.966 -0.0887  1.1352  0.0967
 9434WAT     H239542   6.867   6.052   5.007 -1.3019 -0.2526  0.3210
 9434WAT    EPW39543   6.830   6.131   5.007 -0.3588  0.1919  0.2897
 9435WAT      O39544  10.990   4.545   7.463 -0.8088 -0.4685 -0.3956
 9435WAT     H139545  10.919   4.522   7.404 -0.5430 -0.2704 -0.7977
 9435WAT     H239546  10.948   4.592   7.535 -1.0014  0.2702 -0.9794
 9435WAT    EPW39547  10.975   4.548   7.465 -0.7992 -0.3448 -0.5257
 9436WAT      O39548   2.202   9.226   0.879  0.5053  0.4677 -0.0022
 9436WAT     H139549   2.287   9.227   0.922 -0.0423 -0.6109  1.1609
 9436WAT     H239550   2.146   9.174   0.936 -1.4619  2.6272  0.1906
 9436WAT    EPW39551   2.206   9.219   0.892  0.1737  0.6104  0.1766
 9437WAT      O39552   9.469   4.665   6.366 -0.5713 -0.0227  0.5068
 9437WAT     H139553   9.404   4.717   6.319 -0.2896  0.7113  0.9259
 9437WAT     H239554   9.552   4.689   6.326 -0.5634 -1.1282 -0.1813
 9437WAT    EPW39555   9.471   4.675   6.354 -0.5326 -0.0718  0.4714
 9438WAT      O39556   8.558   5.285   4.042  0.1902  0.0663  0.2466
 9438WAT     H139557   8.523   5.205   4.002  0.1623 -1.1398  2.5255
 9438WAT     H239558   8.645   5.296   4.002 -1.4289  1.4752 -3.3258
 9438WAT    EPW39559   8.565   5.276   4.031 -0.0272  0.0930  0.0758
 9439WAT      O39560   4.272   5.516   6.818 -0.7312 -0.1170  0.4544
 9439WAT     H139561   4.238   5.605   6.827 -2.6170 -0.6746 -0.5440
 9439WAT     H239562   4.276   5.483   6.908 -0.3290  0.8545  0.8040
 9439WAT    EPW39563   4.268   5.523   6.831 -0.9270 -0.0625  0.3691
 9440WAT      O39564   7.915   7.777   6.873 -0.0618  0.0861  0.0131
 9440WAT     H139565   7.974   7.834   6.923  0.0731 -1.1969  1.4005
 9440WAT     H239566   7.830   7.822   6.876 -0.0447  0.0792  1.3945
 9440WAT    EPW39567   7.911   7.790   6.880 -0.0420 -0.0842  0.3784
 9441WAT      O39568   5.007   3.555   7.681  0.4586  0.4156  0.0282
 9441WAT     H139569   4.920   3.514   7.687  0.4394  0.5812  0.9972
 9441WAT     H239570   5.049   3.535   7.765  1.3788  0.3100 -0.4414
 9441WAT    EPW39571   5.001   3.547   7.693  0.5774  0.4234  0.0942
 9442WAT      O39572   9.912   4.720   6.352  0.2888  0.0461 -0.0072
 9442WAT     H139573   9.972   4.738   6.425  1.5382 -2.7470 -0.1956
 9442WAT     H239574   9.961   4.746   6.274 -0.4761  1.6627  0.0059
 9442WAT    EPW39575   9.926   4.726   6.351  0.3529 -0.1090 -0.0305
 9443WAT      O39576   6.253   5.080   7.522  0.2090 -0.3771  0.5496
 9443WAT     H139577   6.194   5.155   7.524 -0.6329 -0.9979  0.0226
 9443WAT     H239578   6.200   5.009   7.484  1.7131 -0.5916 -1.2938
 9443WAT    EPW39579   6.238   5.080   7.518  0.2964 -0.4873  0.2367
 9444WAT      O39580   8.467   6.809   5.481  0.3419 -0.4474 -0.0625
 9444WAT     H139581   8.472   6.899   5.512  0.3563 -0.9697  1.5267
 9444WAT     H239582   8.453   6.757   5.560  0.5424 -1.8640 -0.9260
 9444WAT    EPW39583   8.465   6.814   5.496  0.3705 -0.7033  0.0331
 9445WAT      O39584   2.126   2.020   1.130 -0.0075 -0.1459 -0.2576
 9445WAT     H139585   2.176   2.095   1.096  1.0482 -1.2831 -1.2878
 9445WAT     H239586   2.191   1.967   1.175 -0.6008 -0.8598 -0.2319
 9445WAT    EPW39587   2.141   2.023   1.131  0.0534 -0.3901 -0.3901
 9446WAT      O39588   5.918   5.459   4.835 -0.3659 -0.1315 -0.0736
 9446WAT     H139589   5.968   5.388   4.874 -0.6923 -0.3409 -0.0309
 9446WAT     H239590   5.984   5.518   4.799 -0.0326  0.2412  1.0822
 9446WAT    EPW39591   5.933   5.457   4.836 -0.3653 -0.1101  0.0846
 9447WAT      O39592   6.435   7.208   5.792  0.0436 -0.2378 -0.5966
 9447WAT     H139593   6.461   7.254   5.873  0.7031 -0.6274 -0.5838
 9447WAT     H239594   6.360   7.258   5.760 -0.2032 -0.0539  0.2390
 9447WAT    EPW39595   6.428   7.221   5.799  0.0982 -0.2654 -0.4849
 9448WAT      O39596   7.250   5.627   5.470 -0.3066  0.1754 -0.2007
 9448WAT     H139597   7.324   5.566   5.470 -0.8521 -0.4971  0.1186
 9448WAT     H239598   7.287   5.708   5.435  0.4226 -0.3423 -0.6852
 9448WAT    EPW39599   7.265   5.629   5.465 -0.2823  0.0184 -0.2224
 9449WAT      O39600   9.254   8.793   1.491  0.4529 -0.6118  1.0137
 9449WAT     H139601   9.309   8.871   1.497 -1.7749  1.2458 -0.9689
 9449WAT     H239602   9.282   8.750   1.411 -0.9927  0.4667 -0.1301
 9449WAT    EPW39603   9.265   8.798   1.481 -0.0315 -0.2246  0.6014
 9450WAT      O39604   7.342   5.318   4.784 -0.7021  0.3553 -0.2763
 9450WAT     H139605   7.430   5.296   4.752  0.0730  1.8346  0.6962
 9450WAT     H239606   7.311   5.238   4.826  0.1595 -0.2038 -0.6670
 9450WAT    EPW39607   7.350   5.305   4.785 -0.4861  0.4764 -0.1996
 9451WAT      O39608  10.586   4.192   7.873 -0.1204 -0.1029  1.1477
 9451WAT     H139609  10.651   4.261   7.887  1.0973 -1.3007  1.5963
 9451WAT     H239610  10.591   4.138   7.952 -2.0761  0.0669  1.4432
 9451WAT    EPW39611  10.595   4.194   7.885 -0.2174 -0.2387  1.2457
 9452WAT      O39612   5.562   5.869   5.517  0.8052 -0.3945  0.3067
 9452WAT     H139613   5.645   5.906   5.489 -0.1257  1.2900 -0.3123
 9452WAT     H239614   5.565   5.873   5.613  1.6642 -0.9315  0.3125
 9452WAT    EPW39615   5.573   5.874   5.526  0.7958 -0.2429  0.2258
 9453WAT      O39616   5.986   5.712   8.841 -0.0592 -0.2577  0.4448
 9453WAT     H139617   6.075   5.737   8.818 -0.4882 -1.4213 -3.2027
 9453WAT     H239618   5.953   5.784   8.894  1.0740  3.4638 -3.3499
 9453WAT    EPW39619   5.993   5.724   8.845  0.0336  0.0801 -0.5374
 9454WAT      O39620   6.995   8.656   6.331  0.2464 -0.4434 -0.1313
 9454WAT     H139621   6.904   8.680   6.312  0.4348  1.7203  1.3252
 9454WAT     H239622   7.037   8.653   6.245 -1.3101 -2.2371 -0.9041
 9454WAT    EPW39623   6.988   8.659   6.317  0.0658 -0.3943 -0.0408
 9455WAT      O39624   6.180   5.789   5.126  0.2086 -0.0820  0.6844
 9455WAT     H139625   6.160   5.698   5.147 -0.6987 -0.0739 -0.1058
 9455WAT     H239626   6.125   5.810   5.051  1.3020  0.7520  0.0765
 9455WAT    EPW39627   6.170   5.780   5.119  0.2332  0.0288  0.5002
 9456WAT      O39628   5.931   3.588   6.943  0.3884 -0.1675  0.0981
 9456WAT     H139629   5.859   3.650   6.933  0.4722 -0.1988 -0.7330
 9456WAT     H239630   5.986   3.625   7.012  0.6346  0.8730 -0.6433
 9456WAT    EPW39631   5.929   3.601   6.951  0.4318 -0.0345 -0.1094
 9457WAT      O39632   4.964   6.995   4.911 -0.6509 -0.0708  0.3627
 9457WAT     H139633   4.911   6.960   4.840 -1.3869 -0.4220  1.0685
 9457WAT     H239634   4.947   6.937   4.985 -0.4727  0.7092  1.0318
 9457WAT    EPW39635   4.955   6.983   4.912 -0.7243 -0.0141  0.5441
 9458WAT      O39636   6.441   4.980   6.644  0.4044 -0.3583  0.6393
 9458WAT     H139637   6.477   5.005   6.729 -3.1590  3.7951  1.2453
 9458WAT     H239638   6.359   4.935   6.666 -1.8862  2.9943 -0.2974
 9458WAT    EPW39639   6.435   4.977   6.658 -0.3676  0.6316  0.5958
 9459WAT      O39640   6.322   6.256   6.209 -0.4916  0.4953  0.4486
 9459WAT     H139641   6.336   6.229   6.300 -0.9399  2.1398  1.0216
 9459WAT     H239642   6.373   6.192   6.158  0.5742  0.1408  1.8930
 9459WAT    EPW39643   6.331   6.244   6.214 -0.4101  0.6654  0.7145
 9460WAT      O39644   9.558   5.318   6.943 -0.4722  0.4506 -0.3235
 9460WAT     H139645   9.567   5.226   6.968 -0.4296  0.8126  1.0728
 9460WAT     H239646   9.491   5.318   6.875  0.3857 -0.7336 -1.2056
 9460WAT    EPW39647   9.550   5.306   6.937 -0.3543  0.3421 -0.2556
 9461WAT      O39648   9.904   5.807   6.067 -0.0666  0.6016 -1.0838
 9461WAT     H139649   9.826   5.762   6.099 -0.9828  1.8096 -1.5311
 9461WAT     H239650   9.913   5.779   5.976  1.5744 -1.5421 -0.3493
 9461WAT    EPW39651   9.895   5.797   6.059  0.0291  0.4783 -1.0459
 9462WAT      O39652   7.528   4.766   7.820 -0.0797  0.5246  0.2880
 9462WAT     H139653   7.584   4.696   7.855  0.3202  0.2710 -0.8213
 9462WAT     H239654   7.490   4.807   7.897 -0.5617 -1.1215  0.9738
 9462WAT    EPW39655   7.531   4.762   7.835 -0.0906  0.2739  0.2322
 9463WAT      O39656   8.991   5.212   5.375 -0.1544  0.1225  0.1223
 9463WAT     H139657   9.033   5.128   5.389  1.2137  0.8337  0.4457
 9463WAT     H239658   8.951   5.234   5.459 -1.8756 -0.8896 -0.3811
 9463WAT    EPW39659   8.991   5.204   5.388 -0.2012  0.0827  0.0987
 9464WAT      O39660   6.945   7.732   4.678  1.1936  0.2796  0.3605
 9464WAT     H139661   6.968   7.730   4.585 -0.2351  2.5346 -0.1012
 9464WAT     H239662   6.894   7.811   4.689  1.2837  0.0609  3.1031
 9464WAT    EPW39663   6.942   7.742   4.667  1.0171  0.5484  0.6614
 9465WAT      O39664  10.292   6.407   3.237 -0.0667  0.5750  0.1531
 9465WAT     H139665  10.342   6.388   3.158 -1.7718  1.3110 -1.1526
 9465WAT     H239666  10.285   6.502   3.240 -0.6544  0.5264  0.7785
 9465WAT    EPW39667  10.298   6.417   3.227 -0.3695  0.6654  0.0633
 9466WAT      O39668   4.016   5.617   7.542  0.5752 -0.2805 -0.0379
 9466WAT     H139669   4.016   5.581   7.454  1.4946  2.9151 -1.5206
 9466WAT     H239670   3.933   5.664   7.549  0.8422  0.1252  0.4864
 9466WAT    EPW39671   4.005   5.619   7.531  0.7315  0.1945 -0.1645
 9467WAT      O39672   5.422   5.981   7.317  0.2943 -0.5641  0.3079
 9467WAT     H139673   5.476   6.043   7.367  0.0951 -1.5416  1.7832
 9467WAT     H239674   5.444   5.895   7.354 -0.0720 -1.2978 -1.1212
 9467WAT    EPW39675   5.432   5.978   7.329  0.2196 -0.7899  0.3140
 9468WAT      O39676   0.388   9.280   0.348 -1.1808 -0.4926  0.3539
 9468WAT     H139677   0.420   9.330   0.272 -0.2439  0.8470  1.5763
 9468WAT     H239678   0.308   9.238   0.317  0.2007 -1.6497 -1.9910
 9468WAT    EPW39679   0.382   9.281   0.334 -0.8750 -0.4687  0.2058
 9469WAT      O39680   6.350   6.262   5.847  0.0240  0.7195 -0.9606
 9469WAT     H139681   6.269   6.268   5.898  0.4478  2.4656 -0.4292
 9469WAT     H239682   6.418   6.293   5.907  0.8309  0.9633 -1.9702
 9469WAT    EPW39683   6.348   6.267   5.862  0.1862  0.9820 -1.0238
 9470WAT      O39684  10.783   9.067   8.427 -0.4422 -0.2826  0.0315
 9470WAT     H139685  10.712   9.009   8.401 -0.1469  0.3346 -2.4519
 9470WAT     H239686  10.862   9.023   8.394 -0.0905  0.8732 -0.6990
 9470WAT    EPW39687  10.784   9.053   8.419 -0.3572 -0.0482 -0.3924
 9471WAT      O39688   5.375   4.305   7.310 -0.2719  0.8894  0.3405
 9471WAT     H139689   5.372   4.332   7.219  0.6057  0.3446  0.1415
 9471WAT     H239690   5.286   4.321   7.342 -0.0063  3.3320  0.0716
 9471WAT    EPW39691   5.363   4.311   7.302 -0.1211  1.1396  0.2787
 9472WAT      O39692   7.066   6.213   5.223 -0.3726  0.5935  0.2937
 9472WAT     H139693   7.114   6.135   5.194  0.7094  0.1084  3.0570
 9472WAT     H239694   6.987   6.178   5.265 -0.2710  1.0337  0.8614
 9472WAT    EPW39695   7.062   6.198   5.225 -0.2167  0.5875  0.7331
 9473WAT      O39696   5.482   2.130   1.841 -0.2861 -0.5425  0.4373
 9473WAT     H139697   5.395   2.160   1.870 -0.8837 -1.3030 -0.5151
 9473WAT     H239698   5.466   2.043   1.804 -0.1168  1.2822 -4.6105
 9473WAT    EPW39699   5.468   2.123   1.840 -0.3424 -0.4022 -0.3541
 9474WAT      O39700   4.780   5.042   6.384 -0.7347  0.4262  0.2534
 9474WAT     H139701   4.800   5.097   6.308  0.7252  0.4831  0.6354
 9474WAT     H239702   4.686   5.050   6.396 -1.1066 -0.0922 -1.9391
 9474WAT    EPW39703   4.770   5.050   6.376 -0.5908  0.3653  0.0145
 9475WAT      O39704   7.522   5.358   5.091  0.4624  0.0195 -0.2841
 9475WAT     H139705   7.527   5.394   5.002  0.7597 -0.3755 -0.4289
 9475WAT     H239706   7.501   5.433   5.146  4.3596  1.1816 -0.0850
 9475WAT    EPW39707   7.520   5.372   5.086  1.0157  0.1209 -0.2768
 9476WAT      O39708   4.362   3.210   0.325  0.1545 -0.2497 -0.2748
 9476WAT     H139709   4.403   3.125   0.343 -0.6977 -0.9779 -1.5753
 9476WAT     H239710   4.389   3.231   0.236 -1.1200 -0.0514 -0.6311
 9476WAT    EPW39711   4.371   3.201   0.316 -0.1256 -0.3197 -0.4933
 9477WAT      O39712   6.130   4.847   5.355 -0.1359  0.2931 -0.6058
 9477WAT     H139713   6.071   4.771   5.356  2.4541 -1.8775 -1.0694
 9477WAT     H239714   6.115   4.890   5.439 -1.8039 -0.5894 -0.3980
 9477WAT    EPW39715   6.120   4.843   5.366 -0.0141 -0.1097 -0.6394
 9478WAT      O39716   5.501   5.833   5.838 -0.2775  0.3296 -0.1921
 9478WAT     H139717   5.424   5.821   5.893 -0.5417  0.4754 -0.5212
 9478WAT     H239718   5.543   5.912   5.873 -0.5047  0.4851 -0.2650
 9478WAT    EPW39719   5.497   5.842   5.850 -0.3424  0.3693 -0.2453
 9479WAT      O39720   8.528   3.718   4.709 -0.1880  0.2643 -0.1696
 9479WAT     H139721   8.445   3.759   4.683 -0.4350 -0.8529 -1.2095
 9479WAT     H239722   8.592   3.788   4.697 -1.0346  1.3519  1.2876
 9479WAT    EPW39723   8.525   3.733   4.704 -0.3319  0.2605 -0.1147
 9480WAT      O39724  10.248   7.135   5.015 -0.2439 -0.1097 -0.5294
 9480WAT     H139725  10.334   7.156   4.979  1.0516 -1.7287  1.4416
 9480WAT     H239726  10.231   7.206   5.078 -0.4892  0.3400 -1.0915
 9480WAT    EPW39727  10.257   7.147   5.019 -0.1049 -0.2639 -0.3438
 9481WAT      O39728   9.647  10.158   0.575 -0.4194 -0.5703  0.2160
 9481WAT     H139729   9.627  10.175   0.667  2.0471 -0.3532  0.7856
 9481WAT     H239730   9.576  10.200   0.527 -1.9610 -0.9722  1.9890
 9481WAT    EPW39731   9.635  10.165   0.581 -0.2971 -0.5946  0.5250
 9482WAT      O39732   7.977   5.028   3.698 -0.0861 -0.4278  0.7100
 9482WAT     H139733   7.952   5.102   3.753 -0.1225 -0.0369  0.1840
 9482WAT     H239734   8.058   5.056   3.656 -1.9095  0.9186 -2.3293
 9482WAT    EPW39735   7.984   5.042   3.700 -0.3314 -0.1986  0.2397
 9483WAT      O39736  10.098   8.965   2.153  0.4477 -0.0221 -0.0294
 9483WAT     H139737  10.112   8.978   2.246 -1.2856 -2.2639  0.6408
 9483WAT     H239738  10.002   8.962   2.144  0.5960 -1.2745 -1.6250
 9483WAT    EPW39739  10.087   8.966   2.164  0.2389 -0.4826 -0.1515
 9484WAT      O39740   8.793   5.625   4.892  0.4501 -0.3141 -0.2346
 9484WAT     H139741   8.857   5.609   4.822  0.0960  1.7938 -1.1057
 9484WAT     H239742   8.811   5.714   4.921 -2.4158  0.6239 -0.9487
 9484WAT    EPW39743   8.804   5.634   4.886  0.0253  0.0877 -0.4437
 9485WAT      O39744   5.674   4.143   8.910 -0.1256  0.2672 -0.4637
 9485WAT     H139745   5.583   4.149   8.939 -0.1250  1.4100 -0.6241
 9485WAT     H239746   5.685   4.053   8.879 -0.7525 -0.3269  0.9980
 9485WAT    EPW39747   5.664   4.132   8.910 -0.2084  0.3395 -0.2918
 9486WAT      O39748   0.115  10.261   0.353  0.0046 -0.4093 -0.2642
 9486WAT     H139749   0.074  10.257   0.266  0.8915 -1.6129 -0.6580
 9486WAT     H239750   0.052  10.307   0.407 -1.1180 -0.7157 -1.2661
 9486WAT    EPW39751   0.101  10.266   0.348 -0.0265 -0.6084 -0.4483
 9487WAT      O39752   7.475   6.081   7.633 -0.3667  0.7901  0.5078
 9487WAT     H139753   7.469   6.016   7.563 -1.9996 -1.9868  2.9908
 9487WAT     H239754   7.561   6.121   7.621 -0.1638 -0.2770 -2.4258
 9487WAT    EPW39755   7.485   6.078   7.622 -0.5553  0.2832  0.4480
 9488WAT      O39756   4.890   6.038   7.445 -0.0389 -0.1231 -0.1482
 9488WAT     H139757   4.887   5.971   7.376 -0.6803 -0.7432  0.4664
 9488WAT     H239758   4.798   6.061   7.459  0.0278 -0.4833  0.9592
 9488WAT    EPW39759   4.877   6.032   7.437 -0.1149 -0.2525  0.0792
 9489WAT      O39760   1.850   0.592   0.282 -0.0328 -0.1841 -0.8100
 9489WAT     H139761   1.798   0.646   0.341 -0.2179 -0.5828 -0.6083
 9489WAT     H239762   1.807   0.507   0.282 -0.2586 -0.0908 -1.8072
 9489WAT    EPW39763   1.838   0.588   0.290 -0.0870 -0.2244 -0.9149
 9490WAT      O39764   9.322   8.227   5.680 -0.0167 -0.7372  0.4857
 9490WAT     H139765   9.326   8.265   5.767  2.8106 -1.1825  0.6551
 9490WAT     H239766   9.290   8.298   5.624 -0.0501  0.1449  1.5922
 9490WAT    EPW39767   9.318   8.242   5.684  0.3514 -0.6795  0.6540
 9491WAT      O39768   5.756   4.453   7.064 -0.2478  0.4772  0.1344
 9491WAT     H139769   5.803   4.370   7.056 -3.0738 -1.1056 -2.0686
 9491WAT     H239770   5.821   4.519   7.044  2.0391 -1.1666  1.6222
 9491WAT    EPW39771   5.771   4.450   7.060 -0.3190  0.0515  0.0401
 9492WAT      O39772   6.340   5.614   7.446  1.0477 -0.0254 -0.1664
 9492WAT     H139773   6.375   5.599   7.533  1.3234 -1.0274 -0.4362
 9492WAT     H239774   6.278   5.686   7.457  0.5746 -0.5839  0.9753
 9492WAT    EPW39775   6.337   5.621   7.459  1.0216 -0.2313 -0.0513
 9493WAT      O39776   7.555   4.966   6.161 -0.3963 -0.2660 -0.1869
 9493WAT     H139777   7.613   4.949   6.086 -1.2264  2.7780 -1.7142
 9493WAT     H239778   7.537   5.060   6.155 -1.8230 -0.2350  2.9497
 9493WAT    EPW39779   7.560   4.976   6.150 -0.6940  0.1397  0.0253
 9494WAT      O39780   5.960   5.471   5.401  0.2297 -0.3372 -0.2400
 9494WAT     H139781   5.988   5.381   5.417  0.6598  0.0519  1.3487
 9494WAT     H239782   5.870   5.474   5.433  0.2437 -0.1811 -0.2137
 9494WAT    EPW39783   5.952   5.460   5.407  0.2885 -0.2651 -0.0272
 9495WAT      O39784   7.524   6.624   8.240  0.3130 -0.2877 -0.2393
 9495WAT     H139785   7.478   6.540   8.242 -0.5916  0.1349 -1.5563
 9495WAT     H239786   7.479   6.678   8.305 -1.3667  0.2289 -1.7347
 9495WAT    EPW39787   7.512   6.620   8.249 -0.0277 -0.1640 -0.6099
 9496WAT      O39788   6.504   7.786   8.573  0.0016 -0.5461  0.1514
 9496WAT     H139789   6.496   7.702   8.528  0.8068 -0.5093 -0.0752
 9496WAT     H239790   6.586   7.780   8.622  0.5159  0.4130 -0.5476
 9496WAT    EPW39791   6.513   7.774   8.574  0.1755 -0.4146  0.0296
 9497WAT      O39792  10.489   5.934   5.433 -0.0884  0.1712  0.2992
 9497WAT     H139793  10.503   5.937   5.338 -0.1680  2.4714  0.3057
 9497WAT     H239794  10.399   5.904   5.443  0.1892 -0.9132 -0.3045
 9497WAT    EPW39795  10.479   5.931   5.422 -0.0620  0.3316  0.2208
 9498WAT      O39796   6.720   5.428   5.186  0.1157 -0.5978 -0.1885
 9498WAT     H139797   6.776   5.504   5.201 -0.5847 -0.6536  3.4401
 9498WAT     H239798   6.780   5.353   5.185  0.4728 -0.3144 -0.5578
 9498WAT    EPW39799   6.735   5.428   5.188  0.0703 -0.5679  0.2410
 9499WAT      O39800   5.129   7.140   6.314  0.4853 -0.8841 -0.8057
 9499WAT     H139801   5.094   7.225   6.340 -0.8444 -1.3743 -0.9157
 9499WAT     H239802   5.114   7.083   6.390  1.0302 -1.1234 -0.8667
 9499WAT    EPW39803   5.123   7.144   6.327  0.3822 -0.9804 -0.8283
 9500WAT      O39804   4.401   3.584   0.325  0.1333 -0.1076 -0.5532
 9500WAT     H139805   4.368   3.537   0.249  0.8514 -2.0062  0.2125
 9500WAT     H239806   4.344   3.556   0.397  1.1170 -0.5613  0.0833
 9500WAT    EPW39807   4.389   3.574   0.325  0.3576 -0.4179 -0.3683
 9501WAT      O39808   6.035   7.406   7.138 -0.6098 -0.1490 -0.2968
 9501WAT     H139809   6.071   7.344   7.201  0.7050  0.1315 -0.7533
 9501WAT     H239810   6.038   7.490   7.183 -1.9925 -0.3149  0.1608
 9501WAT    EPW39811   6.040   7.409   7.152 -0.6187 -0.1340 -0.2971
 9502WAT      O39812   7.265   5.044   6.838 -0.9296 -0.1383 -0.7048
 9502WAT     H139813   7.299   4.957   6.817 -1.8016 -1.0822  1.5105
 9502WAT     H239814   7.178   5.028   6.874 -2.0491  1.8736 -2.2813
 9502WAT    EPW39815   7.258   5.030   6.840 -1.1926  0.0026 -0.6206
 9503WAT      O39816   9.528   4.606   6.669 -0.6049  0.3742 -0.9295
 9503WAT     H139817   9.541   4.632   6.578  2.8718 -1.9857 -1.2965
 9503WAT     H239818   9.488   4.519   6.662  1.4886 -0.6826 -0.3575
 9503WAT    EPW39819   9.524   4.598   6.656  0.1292 -0.0763 -0.9024
 9504WAT      O39820   6.468   5.624   7.688 -0.5100  0.0152  0.1972
 9504WAT     H139821   6.445   5.712   7.715 -0.3605  0.3524 -0.7493
 9504WAT     H239822   6.412   5.567   7.741 -1.4209  0.7091 -0.0075
 9504WAT    EPW39823   6.458   5.628   7.699 -0.6108  0.1514  0.0453
 9505WAT      O39824   4.532   0.682   0.043  0.2167 -0.2419 -0.2393
 9505WAT     H139825   4.457   0.741   0.055 -0.6082 -1.1896 -0.5920
 9505WAT     H239826   4.494   0.602   0.006  1.3563 -0.8781 -0.0842
 9505WAT    EPW39827   4.517   0.679   0.039  0.2582 -0.4508 -0.2654
 9506WAT      O39828   6.092   4.934   8.975 -0.6284  0.7783 -0.5185
 9506WAT     H139829   6.013   4.883   8.988 -0.2423  0.5237  0.9776
 9506WAT     H239830   6.061   5.023   8.961 -1.2027  1.5642  4.1858
 9506WAT    EPW39831   6.078   4.939   8.974 -0.6537  0.8488  0.2993
 9507WAT      O39832   7.604   5.844   8.122  0.2021  0.3656  0.5921
 9507WAT     H139833   7.545   5.901   8.172 -2.2794 -1.2384 -0.3148
 9507WAT     H239834   7.622   5.893   8.042  0.8374  1.2330  1.2505
 9507WAT    EPW39835   7.599   5.858   8.118 -0.0415  0.2687  0.5589
 9508WAT      O39836   9.661   4.412   6.220  0.4292 -0.0708  0.1496
 9508WAT     H139837   9.567   4.394   6.224  0.3290  0.4941  0.3138
 9508WAT     H239838   9.699   4.350   6.282  0.2683 -0.9496 -0.5979
 9508WAT    EPW39839   9.654   4.401   6.228  0.3948 -0.1121  0.0727
 9509WAT      O39840  10.585   5.938   5.182  0.3609 -0.1857  0.4343
 9509WAT     H139841  10.560   5.957   5.091 -2.1670  1.9263  1.4209
 9509WAT     H239842  10.567   5.844   5.192  0.8291 -0.4921 -1.2706
 9509WAT    EPW39843  10.579   5.928   5.171  0.0896  0.0525  0.3395
 9510WAT      O39844   2.503   1.648   0.320 -0.8232  0.1661  0.1242
 9510WAT     H139845   2.533   1.620   0.406 -0.3958  3.1082  1.0537
 9510WAT     H239846   2.416   1.685   0.336 -2.0300 -1.8604 -1.2945
 9510WAT    EPW39847   2.495   1.649   0.333 -0.9260  0.2869  0.0597
 9511WAT      O39848   9.013   4.814   7.108 -0.1158  0.7774  0.1601
 9511WAT     H139849   8.937   4.766   7.142  0.3824 -0.2858 -0.1754
 9511WAT     H239850   9.087   4.783   7.161 -0.0156  2.4149  1.0417
 9511WAT    EPW39851   9.013   4.804   7.120 -0.0372  0.8531  0.2322
 9512WAT      O39852   8.695   8.045   6.805  0.3094  0.0520 -0.0966
 9512WAT     H139853   8.607   8.075   6.784  0.7753  1.8044  0.2516
 9512WAT     H239854   8.714   8.086   6.890  2.2314  1.5148 -1.1512
 9512WAT    EPW39855   8.686   8.054   6.813  0.6242  0.4764 -0.1900
 9513WAT      O39856   0.510   3.879   6.622 -1.0719 -0.2743 -0.1214
 9513WAT     H139857   0.431   3.922   6.655 -0.8730 -0.4231  0.5724
 9513WAT     H239858   0.512   3.795   6.667 -0.8273 -0.5218 -0.5818
 9513WAT    EPW39859   0.500   3.873   6.632 -1.0134 -0.3266 -0.0906
 9514WAT      O39860   8.833   7.157   5.358 -0.1057  0.7448  0.0015
 9514WAT     H139861   8.744   7.171   5.391 -0.3257  0.5160 -0.4769
 9514WAT     H239862   8.887   7.218   5.408 -0.6604  1.5033 -0.3083
 9514WAT    EPW39863   8.828   7.167   5.369 -0.2079  0.8149 -0.1025
 9515WAT      O39864   5.801   5.364   6.192 -0.0935 -0.7906 -0.2905
 9515WAT     H139865   5.762   5.389   6.276  0.0774  0.9148 -0.6883
 9515WAT     H239866   5.884   5.322   6.216  1.0795  1.7198  0.4024
 9515WAT    EPW39867   5.807   5.361   6.207  0.0837 -0.2346 -0.2515
 9516WAT      O39868   9.554   9.905   1.680 -0.4497 -0.0782 -0.8098
 9516WAT     H139869   9.553   9.826   1.734 -1.0862 -0.1990 -0.9912
 9516WAT     H239870   9.637   9.948   1.702 -0.4687 -0.3849 -0.1132
 9516WAT    EPW39871   9.565   9.900   1.690 -0.5360 -0.1345 -0.7419
 9517WAT      O39872   5.997   6.918   8.043 -0.1044 -0.0142  0.1044
 9517WAT     H139873   5.903   6.899   8.035 -0.2072  1.0840 -2.0187
 9517WAT     H239874   6.026   6.931   7.953  2.2294 -0.8396  0.6785
 9517WAT    EPW39875   5.988   6.917   8.030  0.1898  0.0222 -0.0997
 9518WAT      O39876   2.720   9.971   1.109 -0.0350  0.3605  0.1787
 9518WAT     H139877   2.647   9.912   1.090 -0.8242  1.7429 -1.3599
 9518WAT     H239878   2.798   9.916   1.105 -0.9534 -1.2571  2.3241
 9518WAT    EPW39879   2.720   9.956   1.106 -0.2602  0.3295  0.2587
 9519WAT      O39880   9.121   5.727   6.099 -0.1955  0.5692 -0.8783
 9519WAT     H139881   9.178   5.759   6.029 -0.1952  2.3340 -0.1084
 9519WAT     H239882   9.172   5.658   6.141 -0.0751 -0.3155 -2.3876
 9519WAT    EPW39883   9.135   5.722   6.095 -0.1798  0.6857 -0.9758
 9520WAT      O39884   5.171   7.421   6.690 -0.0980 -0.5304  0.0617
 9520WAT     H139885   5.078   7.405   6.679  0.1076 -0.3541 -2.5279
 9520WAT     H239886   5.209   7.334   6.706 -0.4024 -1.1026 -1.9749
 9520WAT    EPW39887   5.164   7.407   6.691 -0.1109 -0.5827 -0.5484
 9521WAT      O39888   8.219   5.540   8.257  1.2463 -0.6255 -0.1716
 9521WAT     H139889   8.178   5.532   8.343  1.7530  0.6981  0.2106
 9521WAT     H239890   8.313   5.539   8.275  1.4075 -2.3942 -0.9232
 9521WAT    EPW39891   8.226   5.539   8.271  1.3342 -0.6840 -0.2203
 9522WAT      O39892   1.026   9.137   4.923 -0.3106 -0.5376 -0.2176
 9522WAT     H139893   0.982   9.215   4.888 -0.4198  0.0746  1.2148
 9522WAT     H239894   1.118   9.163   4.931 -0.1806 -0.8747 -0.5889
 9522WAT    EPW39895   1.032   9.151   4.920 -0.3079 -0.5016 -0.0777
 9523WAT      O39896  10.321   6.647   7.490  0.4216 -0.2025  0.2368
 9523WAT     H139897  10.239   6.680   7.455  1.1117  0.0020 -1.2769
 9523WAT     H239898  10.297   6.568   7.537 -0.8715  0.8443  1.4507
 9523WAT    EPW39899  10.307   6.641   7.491  0.3419 -0.0377  0.1972
 9524WAT      O39900   5.233   3.793   8.295  0.4155 -0.0963 -0.6411
 9524WAT     H139901   5.312   3.765   8.250  1.1841  2.4624 -1.0183
 9524WAT     H239902   5.196   3.861   8.239  0.0020  1.3699  1.3083
 9524WAT    EPW39903   5.238   3.799   8.282  0.4621  0.4345 -0.4334
 9525WAT      O39904   4.533   3.900   6.390 -0.6266  0.2638 -0.7525
 9525WAT     H139905   4.507   3.809   6.404  0.5445 -0.0587 -0.5976
 9525WAT     H239906   4.544   3.907   6.295 -0.0671  0.0560 -0.7053
 9525WAT    EPW39907   4.531   3.889   6.380 -0.3984  0.1940 -0.7260
 9526WAT      O39908   7.617   4.637   6.526 -0.5773 -0.0998  0.2266
 9526WAT     H139909   7.628   4.732   6.519  3.3040 -0.4894 -1.2516
 9526WAT     H239910   7.660   4.614   6.609 -1.5481 -0.5934  0.6055
 9526WAT    EPW39911   7.624   4.647   6.536 -0.1936 -0.2162  0.0820
 9527WAT      O39912   8.787   3.697   7.815 -0.3066 -0.9850 -0.3736
 9527WAT     H139913   8.760   3.719   7.905 -1.0242 -2.4135 -0.2133
 9527WAT     H239914   8.704   3.680   7.770 -0.1117  1.4294 -1.8376
 9527WAT    EPW39915   8.772   3.698   7.821 -0.3757 -0.8551 -0.5457
 9528WAT      O39916   8.271   6.053   6.360  0.8744  0.2803 -0.5550
 9528WAT     H139917   8.322   5.973   6.365  0.4004 -0.0051 -0.1770
 9528WAT     H239918   8.331   6.118   6.325  2.5978  0.8402  3.0388
 9528WAT    EPW39919   8.285   6.051   6.356  1.0390  0.3164 -0.0310
 9529WAT      O39920   8.680   6.089   2.275  0.7432 -0.2057 -0.4997
 9529WAT     H139921   8.641   6.022   2.331 -0.2413  1.8268  1.4184
 9529WAT     H239922   8.769   6.100   2.309  1.2556 -1.1844 -1.4680
 9529WAT    EPW39923   8.687   6.082   2.287  0.6804 -0.0665 -0.3746
 9530WAT      O39924   6.560   4.501   5.406  0.5151  0.7270 -0.9802
 9530WAT     H139925   6.558   4.596   5.401  1.0713  0.7059 -2.0552
 9530WAT     H239926   6.540   4.481   5.497 -0.3793  1.8350 -0.9117
 9530WAT    EPW39927   6.557   4.511   5.417  0.4704  0.8702 -1.1129
 9531WAT      O39928   6.924   5.228   5.138 -0.5298  0.0215  0.2180
 9531WAT     H139929   6.859   5.160   5.118 -3.1081  2.2935  0.3034
 9531WAT     H239930   6.960   5.251   5.052  0.5186 -1.4974  0.2034
 9531WAT    EPW39931   6.920   5.222   5.124 -0.7315  0.1206  0.2275
 9532WAT      O39932   9.174   7.596   4.894 -0.0344 -0.3629  0.1105
 9532WAT     H139933   9.136   7.561   4.974  1.6774 -1.0241  0.6679
 9532WAT     H239934   9.205   7.683   4.919 -1.1989  0.2134 -0.3682
 9532WAT    EPW39935   9.173   7.603   4.908  0.0377 -0.3743  0.1209
 9533WAT      O39936   0.012   7.028   5.493  0.0655  0.5795  0.0572
 9533WAT     H139937   0.052   6.995   5.573  0.4362 -0.1973 -0.4366
 9533WAT     H239938   0.076   7.008   5.424 -0.0667  1.5957 -0.3762
 9533WAT    EPW39939   0.025   7.021   5.494  0.0968  0.6108 -0.0648
 9534WAT      O39940   4.840   7.223   7.466  0.3319  0.7417 -0.4120
 9534WAT     H139941   4.883   7.175   7.395  0.7658 -1.5519  1.2813
 9534WAT     H239942   4.821   7.157   7.532  0.4066  2.8341  1.8603
 9534WAT    EPW39943   4.843   7.208   7.465  0.3991  0.7153  0.1109
 9535WAT      O39944   2.967   8.768   7.322 -0.1301  0.2617  0.3875
 9535WAT     H139945   2.882   8.763   7.277  0.5098 -0.2585 -0.8027
 9535WAT     H239946   3.011   8.686   7.299  0.0547 -0.2595  2.3729
 9535WAT    EPW39947   2.961   8.756   7.313 -0.0215  0.1249  0.4926
 9536WAT      O39948   0.979   4.355   6.553 -0.1022  0.2886 -0.7675
 9536WAT     H139949   0.906   4.411   6.527 -0.9657  0.3560  1.5926
 9536WAT     H239950   0.946   4.305   6.627  1.8624 -0.6216 -0.4404
 9536WAT    EPW39951   0.965   4.356   6.559  0.0429  0.1774 -0.4129
 9537WAT      O39952   8.893   7.106   5.976 -0.2534  0.6080  0.6598
 9537WAT     H139953   8.802   7.124   5.953  0.8434  3.8379 -1.8554
 9537WAT     H239954   8.928   7.060   5.900  0.7539  1.4859  0.5700
 9537WAT    EPW39955   8.886   7.102   5.963  0.0238  1.1499  0.3161
 9538WAT      O39956   6.197   5.669   6.844 -0.2646 -0.9634 -0.0786
 9538WAT     H139957   6.137   5.708   6.781 -0.3396 -1.5656 -0.3853
 9538WAT     H239958   6.171   5.577   6.849  0.6275 -1.2327 -0.2133
 9538WAT    EPW39959   6.186   5.662   6.836 -0.1566 -1.0784 -0.1369
 9539WAT      O39960   2.841   5.293   8.774 -0.3960  0.0105  0.3483
 9539WAT     H139961   2.815   5.243   8.697 -1.6071 -0.7405  1.2119
 9539WAT     H239962   2.770   5.280   8.837  1.9623 -2.0714  2.8460
 9539WAT    EPW39963   2.829   5.285   8.772 -0.2447 -0.3631  0.7920
 9540WAT      O39964   6.975   4.665   5.829 -0.3332  1.0952 -0.0381
 9540WAT     H139965   6.930   4.612   5.762 -0.0219  1.1606 -0.3035
 9540WAT     H239966   7.064   4.631   5.830 -0.2104  1.4160  0.0021
 9540WAT    EPW39967   6.981   4.653   5.820 -0.2761  1.1463 -0.0677
 9541WAT      O39968   6.696   7.347   8.411 -0.2833 -0.4412  0.1001
 9541WAT     H139969   6.628   7.334   8.346 -0.2471 -1.0181  0.1771
 9541WAT     H239970   6.655   7.399   8.480 -0.0030  1.1773 -0.9056
 9541WAT    EPW39971   6.682   7.352   8.411 -0.2413 -0.3035 -0.0219
 9542WAT      O39972   6.663   4.832   5.547 -0.2653  0.2532  0.4901
 9542WAT     H139973   6.663   4.925   5.528  2.9781  0.0567 -1.1110
 9542WAT     H239974   6.721   4.822   5.622  0.8516 -0.5640 -0.4360
 9542WAT    EPW39975   6.670   4.843   5.554  0.3095  0.1194  0.1569
 9543WAT      O39976   0.490   5.645   8.656 -0.2201 -0.4577  0.0829
 9543WAT     H139977   0.518   5.644   8.564 -0.5347  3.2063 -0.1808
 9543WAT     H239978   0.395   5.635   8.652 -0.5957  2.5096 -0.3325
 9543WAT    EPW39979   0.482   5.643   8.643 -0.3111  0.4172 -0.0067
 9544WAT      O39980   5.765   7.811   5.967 -0.5765  0.3725 -0.0317
 9544WAT     H139981   5.694   7.799   5.904 -0.3840 -0.7925 -0.0542
 9544WAT     H239982   5.827   7.741   5.946  0.0583  0.7072  0.6859
 9544WAT    EPW39983   5.764   7.800   5.956 -0.4673  0.2630  0.0601
 9545WAT      O39984   5.793   7.857   4.960  0.0482  0.4543 -0.7523
 9545WAT     H139985   5.728   7.787   4.973 -0.4965  1.0247 -0.3250
 9545WAT     H239986   5.820   7.881   5.049 -0.6811  1.6202 -0.8316
 9545WAT    EPW39987   5.788   7.851   4.973 -0.1197  0.6833 -0.7064
 9546WAT      O39988   8.242   6.899   6.071  0.5286 -0.6447 -0.1311
 9546WAT     H139989   8.275   6.812   6.092  1.8331  0.5225  3.3784
 9546WAT     H239990   8.219   6.937   6.156 -1.9342  1.7517 -1.7085
 9546WAT    EPW39991   8.244   6.893   6.085  0.3762 -0.1748  0.1240
 9547WAT      O39992   5.088   4.505   4.665 -0.3891  0.0793  0.1158
 9547WAT     H139993   5.059   4.419   4.696 -2.3189  0.0546 -1.5021
 9547WAT     H239994   5.007   4.551   4.645  0.6498  1.5310 -0.9372
 9547WAT    EPW39995   5.073   4.499   4.666 -0.5064  0.2675 -0.2365
 9548WAT      O39996   4.859   8.953   4.748  0.4282  0.5488  0.8467
 9548WAT     H139997   4.932   8.986   4.696  0.3212 -0.4509  0.0008
 9548WAT     H239998   4.898   8.927   4.831  0.7181  1.6177  1.0535
 9548WAT    EPW39999   4.873   8.954   4.752  0.4523  0.5584  0.7625
 9549WAT      O40000   7.373   3.749   8.119  0.3582 -0.4839  0.2560
 9549WAT     H140001   7.378   3.804   8.198  2.5100 -0.5394  0.2315
 9549WAT     H240002   7.463   3.717   8.107 -0.3228 -2.0001 -1.1634
 9549WAT    EPW40003   7.386   3.752   8.128  0.5522 -0.6911  0.0658
 9550WAT      O40004   8.825   6.073   6.341  0.0335 -0.2404  0.2630
 9550WAT     H140005   8.800   6.013   6.270  2.1247 -1.2840  0.3195
 9550WAT     H240006   8.921   6.071   6.340  0.1104  0.9234  2.1342
 9550WAT    EPW40007   8.834   6.065   6.331  0.3190 -0.2246  0.5174
 9551WAT      O40008   9.352   7.785   7.160  0.2148  0.1846 -0.5964
 9551WAT     H140009   9.300   7.717   7.203  0.9779 -0.7124 -1.0572
 9551WAT     H240010   9.356   7.855   7.224 -2.6785  0.8797 -1.0373
 9551WAT    EPW40011   9.345   7.785   7.174 -0.0663  0.1581 -0.7153
 9552WAT      O40012   2.871   1.647   0.956 -0.0381 -0.7121  0.5310
 9552WAT     H140013   2.950   1.701   0.953 -0.8433  0.5038  0.7196
 9552WAT     H240014   2.903   1.558   0.940  1.6054 -0.5030  2.2137
 9552WAT    EPW40015   2.886   1.642   0.953  0.0725 -0.5242  0.7778
 9553WAT      O40016   4.023   5.950   7.682  0.2705  0.9478 -0.1118
 9553WAT     H140017   3.933   5.920   7.696  1.0008 -0.8509  1.1844
 9553WAT     H240018   4.042   5.925   7.592  0.6729 -2.3355  0.7534
 9553WAT    EPW40019   4.014   5.943   7.672  0.4201  0.2775  0.1731
 9554WAT      O40020   7.452   6.500   5.968 -0.4719  0.5400  0.6849
 9554WAT     H140021   7.422   6.412   5.945  2.1170 -1.1036  2.9245
 9554WAT     H240022   7.507   6.526   5.894 -0.0192 -0.4309  0.6620
 9554WAT    EPW40023   7.455   6.492   5.955 -0.0706  0.1953  0.9773
 9555WAT      O40024   9.068   9.999   0.942  0.4289  0.7852  0.3245
 9555WAT     H140025   9.017  10.079   0.950 -0.4122  0.1659  1.3778
 9555WAT     H240026   9.043   9.946   1.018  2.4447  0.3384  0.7573
 9555WAT    EPW40027   9.058  10.002   0.953  0.5841  0.6452  0.5205
 9556WAT      O40028   6.403   3.168   6.292 -0.2333 -0.1832  0.3209
 9556WAT     H140029   6.444   3.091   6.330 -1.6150 -1.4978 -0.7398
 9556WAT     H240030   6.315   3.139   6.267 -1.4451  2.2174  1.4627
 9556WAT    EPW40031   6.397   3.154   6.293 -0.5753 -0.0399  0.3319
 9557WAT      O40032   2.918   2.084   1.313 -0.1988  0.3665  0.1738
 9557WAT     H140033   2.992   2.024   1.320  0.3955  1.1948  1.6516
 9557WAT     H240034   2.843   2.035   1.345 -0.2316 -0.3572 -0.9701
 9557WAT    EPW40035   2.918   2.070   1.318 -0.1247  0.3803  0.2178
 9558WAT      O40036   7.804   4.018   5.889 -0.4439  0.0048  0.0976
 9558WAT     H140037   7.857   4.002   5.967  0.9397  0.3239 -0.7444
 9558WAT     H240038   7.716   3.990   5.913  0.6318 -3.4280  0.6081
 9558WAT    EPW40039   7.799   4.012   5.902 -0.1194 -0.4060  0.0539
 9559WAT      O40040   7.181   4.529   5.365  0.2901 -0.2003 -0.7668
 9559WAT     H140041   7.215   4.596   5.424 -1.1614 -0.6341  0.6540
 9559WAT     H240042   7.165   4.575   5.282  0.5329  0.9071 -0.2136
 9559WAT    EPW40043   7.183   4.544   5.362  0.1309 -0.1116 -0.5064
 9560WAT      O40044   8.556   4.889   5.680 -0.1940 -0.2783 -0.3769
 9560WAT     H140045   8.650   4.884   5.698 -0.2897 -1.8877 -0.2583
 9560WAT     H240046   8.519   4.811   5.720 -1.6790  0.5732  0.0087
 9560WAT    EPW40047   8.564   4.878   5.687 -0.4029 -0.3786 -0.3107
 9561WAT      O40048   2.562   1.914   0.188  0.0253 -0.3566 -0.5360
 9561WAT     H140049   2.555   1.827   0.226 -3.0334  0.5623  1.3263
 9561WAT     H240050   2.531   1.904   0.098  2.8903 -1.6659 -1.5362
 9561WAT    EPW40051   2.557   1.901   0.181 -0.0002 -0.4080 -0.4223
 9562WAT      O40052  10.122   6.027   6.449  0.4875 -0.0970  0.0575
 9562WAT     H140053  10.079   5.944   6.428 -1.0688  1.1524 -2.1716
 9562WAT     H240054  10.106   6.039   6.543 -1.4188 -1.1722 -0.0755
 9562WAT    EPW40055  10.114   6.018   6.459  0.0305 -0.0739 -0.2542
 9563WAT      O40056   7.794   5.978   7.361 -0.2377  0.6461  0.1195
 9563WAT     H140057   7.837   6.061   7.380  1.3115 -0.5996  2.4652
 9563WAT     H240058   7.859   5.911   7.384 -0.5546 -1.3060 -3.7673
 9563WAT    EPW40059   7.808   5.980   7.366 -0.0753  0.2244 -0.0834
 9564WAT      O40060   8.620   4.415   7.199  0.1880 -0.1788 -0.6537
 9564WAT     H140061   8.661   4.355   7.137  1.6638  0.2385 -0.1413
 9564WAT     H240062   8.586   4.358   7.268  1.4670 -0.4670 -0.2287
 9564WAT    EPW40063   8.621   4.400   7.200  0.5512 -0.1614 -0.5298
 9565WAT      O40064   9.500   7.447   0.032 -0.1980  0.0148  0.3559
 9565WAT     H140065   9.504   7.354   0.053 -1.5725 -0.1655 -0.0769
 9565WAT     H240066   9.558   7.489   0.095  1.8773 -1.3039 -0.5899
 9565WAT    EPW40067   9.508   7.441   0.043 -0.1054 -0.1829  0.1741
 9566WAT      O40068   7.013   6.601   6.132  0.1945  0.0707  0.2050
 9566WAT     H140069   7.078   6.629   6.067 -0.1950  1.1663  0.2684
 9566WAT     H240070   6.975   6.683   6.164 -2.2365 -0.5374 -0.8890
 9566WAT    EPW40071   7.016   6.616   6.127 -0.1771  0.1349  0.0689
 9567WAT      O40072   5.985   4.083   7.911 -0.2313 -0.2467 -0.1967
 9567WAT     H140073   5.924   4.129   7.969 -2.5597 -1.0503 -1.8582
 9567WAT     H240074   5.957   4.107   7.823  1.8933 -0.6686 -1.0418
 9567WAT    EPW40075   5.973   4.092   7.907 -0.2582 -0.4084 -0.5274
 9568WAT      O40076   5.679   7.490   4.614  0.2432  0.4511  0.3010
 9568WAT     H140077   5.747   7.554   4.596  0.3867 -0.2972 -2.0537
 9568WAT     H240078   5.687   7.425   4.545 -1.7137 -0.6293  0.9933
 9568WAT    EPW40079   5.689   7.490   4.603  0.0038  0.2098  0.0818
 9569WAT      O40080   7.089   5.140   7.268 -0.5132  0.4259  0.4056
 9569WAT     H140081   7.084   5.222   7.219 -1.1329 -0.4877 -1.1372
 9569WAT     H240082   7.177   5.107   7.251 -0.7450  0.0846 -0.1461
 9569WAT    EPW40083   7.100   5.146   7.260 -0.6254  0.2601  0.1292
 9570WAT      O40084   6.059   7.282   4.269 -0.1042  0.1774 -0.4260
 9570WAT     H140085   6.113   7.360   4.262  0.7609 -0.3387  0.2045
 9570WAT     H240086   6.073   7.251   4.359  1.6407 -2.1100 -1.3606
 9570WAT    EPW40087   6.068   7.288   4.280  0.2398 -0.1924 -0.4661
 9571WAT      O40088   3.049   1.144   0.938 -0.2072  0.7636 -0.0199
 9571WAT     H140089   3.099   1.225   0.949 -0.4167  0.8197  0.5779
 9571WAT     H240090   3.076   1.089   1.012  0.5314 -0.0363 -0.8568
 9571WAT    EPW40091   3.060   1.147   0.949 -0.1374  0.6655 -0.0515
 9572WAT      O40092   4.866   2.726   0.519  0.2688 -0.0884 -0.0320
 9572WAT     H140093   4.835   2.783   0.590  0.4144 -1.1783  0.9430
 9572WAT     H240094   4.874   2.640   0.560 -1.2927 -1.1481 -1.7752
 9572WAT    EPW40095   4.863   2.722   0.534  0.0820 -0.3719 -0.1333
 9573WAT      O40096   8.678   5.523   3.032  0.1397  0.7329 -0.7690
 9573WAT     H140097   8.621   5.561   2.965  0.6794  1.2929 -0.9264
 9573WAT     H240098   8.759   5.574   3.025  0.0707  1.0492  0.5559
 9573WAT    EPW40099   8.681   5.535   3.022  0.2017  0.8483 -0.6151
 9574WAT      O40100   4.797   3.757   7.532 -0.0927 -0.1561 -0.2057
 9574WAT     H140101   4.818   3.850   7.533  0.6346 -0.2797 -1.7093
 9574WAT     H240102   4.883   3.714   7.530 -0.4354 -0.8301 -0.6835
 9574WAT    EPW40103   4.811   3.763   7.532 -0.0417 -0.2614 -0.4671
 9575WAT      O40104   6.486   5.453   6.168  0.5913  0.0044  0.3168
 9575WAT     H140105   6.436   5.450   6.250  0.0924 -1.8952 -0.0111
 9575WAT     H240106   6.560   5.395   6.184 -0.0026 -1.1222 -0.8541
 9575WAT    EPW40107   6.489   5.444   6.181  0.4470 -0.3948  0.1187
 9576WAT      O40108  10.020   8.756   8.642 -0.0408  0.2945 -0.5151
 9576WAT     H140109  10.022   8.660   8.637 -0.5968  0.3314 -1.8518
 9576WAT     H240110  10.084   8.777   8.710 -0.6672 -1.0627  0.5724
 9576WAT    EPW40111  10.028   8.746   8.650 -0.1969  0.1202 -0.5479
 9577WAT      O40112   8.256   6.125   5.413  0.4873  0.7731  0.1114
 9577WAT     H140113   8.241   6.031   5.421 -1.1250  1.0121  0.1498
 9577WAT     H240114   8.308   6.147   5.491  2.0109 -0.2634 -0.5557
 9577WAT    EPW40115   8.261   6.116   5.424  0.4754  0.6683  0.0281
 9578WAT      O40116   7.895   5.322   7.837 -0.0531 -0.4233 -0.3833
 9578WAT     H140117   7.819   5.277   7.872 -1.2306  0.4842 -1.6575
 9578WAT     H240118   7.969   5.263   7.855 -1.0383 -1.3104  0.8924
 9578WAT    EPW40119   7.895   5.308   7.844 -0.3383 -0.4208 -0.3831
 9579WAT      O40120  10.237   5.792   6.696 -0.0801 -0.0060 -0.1028
 9579WAT     H140121  10.166   5.727   6.694 -1.2275  1.1040  1.6968
 9579WAT     H240122  10.293   5.768   6.622 -1.9182 -1.3904 -1.1473
 9579WAT    EPW40123  10.235   5.780   6.686 -0.4745 -0.0422 -0.0033
 9580WAT      O40124   7.391   4.093   5.120 -0.5842 -0.4960  0.2843
 9580WAT     H140125   7.317   4.034   5.107 -0.3346 -0.6585 -0.4372
 9580WAT     H240126   7.353   4.180   5.122 -0.6276 -0.3830 -2.1598
 9580WAT    EPW40127   7.376   4.097   5.119 -0.5572 -0.5026 -0.1333
 9581WAT      O40128   8.450   7.030   5.211  0.7523  0.3128 -0.1737
 9581WAT     H140129   8.524   7.065   5.162  0.6344 -1.2939 -1.5595
 9581WAT     H240130   8.382   7.097   5.202  0.4174 -0.2964 -3.0525
 9581WAT    EPW40131   8.451   7.044   5.203  0.6924  0.0205 -0.7362
 9582WAT      O40132   1.032   8.514   0.342 -0.3232 -0.1676  0.1577
 9582WAT     H140133   1.053   8.561   0.423 -0.4434 -0.4763  0.3719
 9582WAT     H240134   1.112   8.466   0.321  0.6791  2.0980 -1.4617
 9582WAT    EPW40135   1.045   8.514   0.350 -0.2069  0.0901 -0.0276
 9583WAT      O40136   6.599   6.285   8.879 -0.1819 -0.6976 -0.6543
 9583WAT     H140137   6.678   6.291   8.825 -0.4797 -0.9414 -1.1320
 9583WAT     H240138   6.529   6.262   8.816 -0.2909 -2.3713  0.0307
 9583WAT    EPW40139   6.600   6.283   8.863 -0.2358 -0.9506 -0.6275
 9584WAT      O40140   9.989   5.474   4.965 -0.2349  0.1088 -0.7748
 9584WAT     H140141  10.074   5.432   4.975 -0.2785  0.2039  0.0846
 9584WAT     H240142   9.934   5.408   4.922  0.1299 -0.1409 -0.8565
 9584WAT    EPW40143   9.993   5.459   4.961 -0.1926  0.0885 -0.6723
 9585WAT      O40144   6.928   7.183   8.933  0.0373 -0.4484 -0.8494
 9585WAT     H140145   7.022   7.167   8.928 -0.0865 -1.3877 -0.4713
 9585WAT     H240146   6.907   7.171   9.026 -0.3156  0.6229 -0.7817
 9585WAT    EPW40147   6.937   7.179   8.945 -0.0255 -0.4311 -0.7906
 9586WAT      O40148   8.020   2.772   6.683  0.7945  0.0963 -0.9724
 9586WAT     H140149   8.037   2.840   6.618  1.2754 -2.1269 -3.2825
 9586WAT     H240150   8.073   2.698   6.656 -0.2685 -1.5076  1.0271
 9586WAT    EPW40151   8.029   2.771   6.671  0.7176 -0.4083 -1.0133
 9587WAT      O40152  10.149   9.738   1.604 -0.1002 -0.7239  0.8027
 9587WAT     H140153  10.172   9.831   1.596 -0.2900 -0.6939  0.5700
 9587WAT     H240154  10.077   9.738   1.668  0.3498 -0.7855  1.3082
 9587WAT    EPW40155  10.142   9.750   1.612 -0.0663 -0.7281  0.8386
 9588WAT      O40156   6.953   4.806   4.311  0.1702 -0.3453  0.0882
 9588WAT     H140157   7.034   4.824   4.264  1.2487 -1.8224  1.2529
 9588WAT     H240158   6.925   4.720   4.279 -0.0491 -0.5617  0.8331
 9588WAT    EPW40159   6.960   4.797   4.301  0.2832 -0.5689  0.3400
 9589WAT      O40160   9.394   3.420   3.583  0.7171 -0.2346 -0.0674
 9589WAT     H140161   9.436   3.486   3.528 -0.1318  1.2393  0.9873
 9589WAT     H240162   9.459   3.397   3.649 -0.0882  2.1773  1.6788
 9589WAT    EPW40163   9.408   3.426   3.584  0.4983  0.2780  0.3021
 9590WAT      O40164   6.185   3.749   7.430 -0.5639  0.2735 -0.0814
 9590WAT     H140165   6.222   3.784   7.511  1.6134 -0.4799 -0.6836
 9590WAT     H240166   6.192   3.654   7.439 -2.7999  0.0504 -0.0818
 9590WAT    EPW40167   6.191   3.741   7.442 -0.5717  0.1447 -0.1609
 9591WAT      O40168   9.185   7.995   5.418 -0.3376 -0.2359  0.3690
 9591WAT     H140169   9.139   8.031   5.493 -0.2053  0.7945 -0.0275
 9591WAT     H240170   9.259   8.055   5.404  1.0996 -1.7927  0.9311
 9591WAT    EPW40171   9.189   8.008   5.426 -0.1302 -0.3052  0.3910
 9592WAT      O40172   5.149   7.883   7.716  0.2485  0.3932 -0.4458
 9592WAT     H140173   5.133   7.856   7.807  0.0329  0.3463 -0.4982
 9592WAT     H240174   5.186   7.805   7.674 -1.8493 -0.3714 -1.0188
 9592WAT    EPW40175   5.152   7.869   7.723 -0.0565  0.2861 -0.5281
 9593WAT      O40176   8.418   9.940   6.041  0.2637  0.7886  0.0979
 9593WAT     H140177   8.374  10.024   6.027 -1.8838 -0.0813  1.1241
 9593WAT     H240178   8.486   9.959   6.105 -2.8438  1.1382  3.6443
 9593WAT    EPW40179   8.421   9.954   6.048 -0.4296  0.7200  0.7007
 9594WAT      O40180   5.125   6.565   4.724  0.2925  0.5054  0.0251
 9594WAT     H140181   5.183   6.635   4.751  2.9844 -2.2274  1.9865
 9594WAT     H240182   5.169   6.524   4.650 -0.8939  0.4267 -0.6661
 9594WAT    EPW40183   5.138   6.569   4.718  0.4909  0.1345  0.1926
 9595WAT      O40184   6.093   6.896   6.605 -0.3280  0.2183 -0.0452
 9595WAT     H140185   6.099   6.826   6.541  0.3608 -0.0613  0.3164
 9595WAT     H240186   6.175   6.945   6.596  0.7573 -1.0709  2.0162
 9595WAT    EPW40187   6.105   6.893   6.596 -0.0939  0.0114  0.2747
 9596WAT      O40188   8.618   6.837   4.534 -0.1516  0.4017  0.0630
 9596WAT     H140189   8.540   6.864   4.487  1.0294 -0.6169 -2.6694
 9596WAT     H240190   8.585   6.789   4.610 -2.1362  2.5000  0.6371
 9596WAT    EPW40191   8.604   6.834   4.538 -0.2580  0.5438 -0.2217
 9597WAT      O40192   8.905   5.376   4.421 -0.1397  0.0632 -0.0660
 9597WAT     H140193   8.943   5.448   4.370 -0.8668  0.1018 -0.5708
 9597WAT     H240194   8.841   5.337   4.362  1.4667 -2.1612 -0.4978
 9597WAT    EPW40195   8.902   5.380   4.407 -0.0238 -0.2248 -0.1895
 9598WAT      O40196   6.102  10.092   7.230  0.2356 -0.5329 -0.1130
 9598WAT     H140197   6.022  10.054   7.267  0.4411  0.9310  2.0635
 9598WAT     H240198   6.076  10.181   7.205  0.9444 -0.3879 -0.3363
 9598WAT    EPW40199   6.088  10.099   7.232  0.3562 -0.3214  0.1447
 9599WAT      O40200   4.755   1.726   0.091 -0.4769  0.3019 -0.8950
 9599WAT     H140201   4.717   1.675   0.019 -0.8996 -0.2565 -0.2929
 9599WAT     H240202   4.775   1.661   0.158 -1.4169  0.9757  0.0623
 9599WAT    EPW40203   4.753   1.711   0.090 -0.6564  0.3172 -0.6893
 9600WAT      O40204   5.484   4.211   1.246  0.2061 -0.6640  0.1949
 9600WAT     H140205   5.434   4.252   1.316 -1.1295  2.4908 -2.3539
 9600WAT     H240206   5.563   4.264   1.238  1.3192 -2.2107  0.5368
 9600WAT    EPW40207   5.488   4.223   1.254  0.1767 -0.4520 -0.0963
 9601WAT      O40208   9.453   5.294   4.016 -0.3843 -0.4163  0.3873
 9601WAT     H140209   9.464   5.256   4.103  1.2676 -1.0932 -0.0725
 9601WAT     H240210   9.397   5.231   3.969 -1.5473  0.1144  1.0343
 9601WAT    EPW40211   9.447   5.280   4.021 -0.3195 -0.4354  0.4120
 9602WAT      O40212   5.706   6.932   8.078  0.8253 -0.1546 -0.4403
 9602WAT     H140213   5.628   6.980   8.107  0.8795 -0.6037  0.4977
 9602WAT     H240214   5.731   6.880   8.154  1.3000 -0.9828 -1.1483
 9602WAT    EPW40215   5.699   6.931   8.092  0.8950 -0.3228 -0.4101
 9603WAT      O40216   6.867   8.035   8.169 -0.1930 -0.5049  0.7503
 9603WAT     H140217   6.856   8.000   8.080 -0.4837  0.1406  0.5233
 9603WAT     H240218   6.959   8.019   8.190 -0.2528 -1.1545  0.5517
 9603WAT    EPW40219   6.878   8.028   8.160 -0.2394 -0.5059  0.6938
 9604WAT      O40220   7.859   1.889   0.737 -0.2740  0.2011  0.4284
 9604WAT     H140221   7.818   1.961   0.784 -2.5870 -0.0853 -0.9904
 9604WAT     H240222   7.788   1.827   0.721  0.8071 -0.5944 -1.7459
 9604WAT    EPW40223   7.844   1.890   0.741 -0.4363  0.0584 -0.0456
 9605WAT      O40224  10.132   8.870   8.393  0.3281 -0.0065 -0.0604
 9605WAT     H140225  10.125   8.819   8.474  2.2420  0.2515  0.3209
 9605WAT     H240226  10.091   8.954   8.414  0.2925 -0.1511  0.4606
 9605WAT    EPW40227  10.126   8.874   8.406  0.5760  0.0086  0.0582
 9606WAT      O40228   8.197   6.702   5.076 -0.1859  0.6703 -0.0439
 9606WAT     H140229   8.103   6.683   5.090 -0.6741  0.0075 -3.4473
 9606WAT     H240230   8.198   6.767   5.006  1.8317 -1.6299 -2.3515
 9606WAT    EPW40231   8.184   6.708   5.069  0.0157  0.2794 -0.7970
 9607WAT      O40232   0.035   9.838   4.789 -0.3010  0.5128 -0.7666
 9607WAT     H140233   0.032   9.903   4.859 -0.8036  0.9938 -1.2163
 9607WAT     H240234  -0.057   9.823   4.767 -0.1875 -0.4303 -0.6048
 9607WAT    EPW40235   0.022   9.845   4.795 -0.3523  0.4516 -0.8044
 9608WAT      O40236   8.275   4.593   7.489  0.3333  0.2997  0.0114
 9608WAT     H140237   8.261   4.673   7.541 -0.4300 -1.0804  2.0716
 9608WAT     H240238   8.369   4.578   7.492  0.2071 -0.3872  2.1158
 9608WAT    EPW40239   8.285   4.602   7.496  0.2155  0.0272  0.5608
 9609WAT      O40240   7.656   8.602   8.418  0.1744 -0.2564 -0.0710
 9609WAT     H140241   7.654   8.602   8.322 -2.4788  0.2465 -0.0936
 9609WAT     H240242   7.746   8.624   8.440  0.8249 -0.2519 -2.4446
 9609WAT    EPW40243   7.668   8.605   8.408 -0.0899 -0.1893 -0.3872
 9610WAT      O40244   0.313   9.269   6.307  0.5398 -0.6548 -0.6169
 9610WAT     H140245   0.291   9.227   6.390  0.8872  1.4662  0.6340
 9610WAT     H240246   0.399   9.234   6.284  0.3213 -1.4579 -0.2265
 9610WAT    EPW40247   0.321   9.259   6.315  0.5568 -0.4811 -0.4003
 9611WAT      O40248   5.628   6.460   7.295  0.0646  0.4072  0.5753
 9611WAT     H140249   5.606   6.370   7.274  0.2797  0.2108  1.1709
 9611WAT     H240250   5.708   6.478   7.246  1.4305 -0.5394  2.3295
 9611WAT    EPW40251   5.636   6.451   7.286  0.2732  0.2563  0.8850
 9612WAT      O40252   9.024   6.330   3.483  0.6707 -0.6055  0.9304
 9612WAT     H140253   9.106   6.288   3.456  0.9665 -1.9723  3.6140
 9612WAT     H240254   8.982   6.266   3.540 -1.9846  0.3490  0.1943
 9612WAT    EPW40255   9.030   6.316   3.487  0.3600 -0.6602  1.1871
 9613WAT      O40256   6.716   7.447   7.264 -0.3294 -0.7685  0.2863
 9613WAT     H140257   6.652   7.378   7.246  0.8762 -1.8774  0.1131
 9613WAT     H240258   6.752   7.469   7.178 -1.7212  1.1714  0.1199
 9613WAT    EPW40259   6.713   7.441   7.250 -0.3538 -0.6588  0.2415
 9614WAT      O40260   4.862   2.769   1.529 -0.6945 -0.6999  0.3360
 9614WAT     H140261   4.957   2.784   1.534 -0.7475 -0.5677  1.1434
 9614WAT     H240262   4.830   2.839   1.474 -0.2200 -1.2332 -0.6409
 9614WAT    EPW40263   4.870   2.780   1.523 -0.6387 -0.7529  0.3136
 9615WAT      O40264  10.600   8.176   3.063 -0.4487 -0.0060  0.3167
 9615WAT     H140265  10.570   8.197   3.151  1.1509  0.4114  0.7936
 9615WAT     H240266  10.585   8.082   3.054 -2.0187  0.2039  0.4394
 9615WAT    EPW40267  10.594   8.167   3.073 -0.4454  0.0768  0.3958
 9616WAT      O40268   6.173   6.090   2.271  0.2499 -0.2072 -0.0534
 9616WAT     H140269   6.181   6.185   2.278  0.3971 -0.0723 -1.7714
 9616WAT     H240270   6.102   6.076   2.208  0.6783 -1.2308 -0.3265
 9616WAT    EPW40271   6.164   6.100   2.264  0.3257 -0.3242 -0.3160
 9617WAT      O40272   9.206   5.303   4.303 -0.4070  0.4568 -0.5350
 9617WAT     H140273   9.275   5.366   4.323  1.8130 -1.8599 -0.3412
 9617WAT     H240274   9.173   5.329   4.217  2.4858  0.2413 -1.7970
 9617WAT    EPW40275   9.210   5.315   4.294  0.2675  0.1230 -0.6759
 9618WAT      O40276   9.345   7.361   3.857 -0.7159  0.2244  0.1761
 9618WAT     H140277   9.276   7.299   3.836  1.6405 -3.5295  2.3542
 9618WAT     H240278   9.394   7.371   3.775 -0.4771 -1.8672  0.0136
 9618WAT    EPW40279   9.343   7.354   3.844 -0.3738 -0.5465  0.4420
 9619WAT      O40280   0.560   8.528   7.329  0.1699  0.2767  0.4177
 9619WAT     H140281   0.611   8.524   7.410 -0.9132 -0.1381  1.0980
 9619WAT     H240282   0.469   8.525   7.358 -0.2561  1.0921 -0.7692
 9619WAT    EPW40283   0.555   8.527   7.344 -0.0291  0.3290  0.3510
 9620WAT      O40284   7.122   6.292   8.118 -0.3709  0.2850 -0.3654
 9620WAT     H140285   7.120   6.226   8.049 -1.8250  0.9083 -0.9434
 9620WAT     H240286   7.170   6.366   8.079  3.1437 -1.0537  0.9601
 9620WAT    EPW40287   7.128   6.293   8.104 -0.0994  0.1905 -0.2670
 9621WAT      O40288   4.554  10.299   8.396  0.4238  0.5173 -0.1852
 9621WAT     H140289   4.521  10.363   8.333 -0.8714  1.3236  1.2433
 9621WAT     H240290   4.519  10.328   8.480 -0.7389 -2.3603  0.4601
 9621WAT    EPW40291   4.545  10.311   8.398  0.0997  0.2437  0.0887
 9622WAT      O40292  10.397   5.795   6.417  0.4090  0.1923  0.4583
 9622WAT     H140293  10.415   5.803   6.324 -0.8728 -0.2973  0.1345
 9622WAT     H240294  10.441   5.714   6.443  0.6662  0.2657  0.2524
 9622WAT    EPW40295  10.405   5.785   6.408  0.2737  0.1376  0.3884
 9623WAT      O40296   4.741   4.035   0.103 -0.0950  0.0723 -0.2090
 9623WAT     H140297   4.733   4.048   0.198  1.9490 -0.2021  0.0615
 9623WAT     H240298   4.752   3.940   0.093  4.2494  0.3276 -0.1222
 9623WAT    EPW40299   4.742   4.024   0.114  0.7474  0.0696 -0.1619
 9624WAT      O40300   4.664   2.255   1.263  0.1306  0.1761  0.3101
 9624WAT     H140301   4.633   2.222   1.348 -4.1252  2.5356 -0.0614
 9624WAT     H240302   4.608   2.212   1.199 -1.5923  3.4801 -0.6119
 9624WAT    EPW40303   4.653   2.245   1.266 -0.6583  0.9233  0.1395
 9625WAT      O40304   9.806   7.828   5.473  0.5485  0.0886 -0.3231
 9625WAT     H140305   9.753   7.869   5.404 -0.1406  1.2264  0.8441
 9625WAT     H240306   9.791   7.734   5.462 -1.1519  0.3410 -0.4865
 9625WAT    EPW40307   9.797   7.821   5.462  0.2337  0.2716 -0.1910
 9626WAT      O40308   4.864   8.648   6.661 -0.7030  0.6974 -0.4838
 9626WAT     H140309   4.923   8.700   6.716 -1.1998  1.0037 -0.2305
 9626WAT     H240310   4.779   8.692   6.669 -0.9511  0.3037 -0.9001
 9626WAT    EPW40311   4.861   8.661   6.669 -0.8011  0.6857 -0.5052
 9627WAT      O40312   4.599   9.698   6.847 -0.2416 -0.6146  0.1168
 9627WAT     H140313   4.564   9.687   6.936 -0.6553  2.0486  0.3502
 9627WAT     H240314   4.525   9.731   6.796  0.6296  0.2998 -0.5860
 9627WAT    EPW40315   4.585   9.701   6.852 -0.1812 -0.1421  0.0548
 9628WAT      O40316   1.317   2.944   0.304  0.0173  0.0002 -0.2514
 9628WAT     H140317   1.409   2.924   0.287 -0.2527  0.0257 -1.9315
 9628WAT     H240318   1.310   3.038   0.293 -0.0880  0.0843  0.5237
 9628WAT    EPW40319   1.328   2.954   0.300 -0.0322  0.0147 -0.3708
 9629WAT      O40320   7.993   9.159   7.281 -0.6535 -0.1079  0.3431
 9629WAT     H140321   7.952   9.224   7.224  0.5003 -1.7260 -2.5562
 9629WAT     H240322   8.087   9.166   7.261 -0.0896 -0.3041  2.6194
 9629WAT    EPW40323   8.000   9.169   7.271 -0.4272 -0.3471  0.2611
 9630WAT      O40324   4.608   1.882   0.306 -0.4083 -0.4096  0.4191
 9630WAT     H140325   4.677   1.846   0.251  1.0286  0.7324  1.4099
 9630WAT     H240326   4.600   1.973   0.278 -0.5828 -0.1748  1.1995
 9630WAT    EPW40327   4.616   1.889   0.295 -0.2418 -0.2280  0.6527
 9631WAT      O40328  10.636   6.768   8.006 -0.7931 -0.1838 -0.0187
 9631WAT     H140329  10.554   6.753   8.052  0.0598 -0.2659  1.5527
 9631WAT     H240330  10.695   6.803   8.073  0.2761  0.4572 -1.2457
 9631WAT    EPW40331  10.633   6.770   8.021 -0.5398 -0.1101  0.0272
 9632WAT      O40332   7.953   5.794   6.813  0.6662  0.5140 -0.4682
 9632WAT     H140333   7.900   5.859   6.766 -1.3841 -0.1601  0.7778
 9632WAT     H240334   7.938   5.814   6.905 -1.0879 -2.4366  0.0025
 9632WAT    EPW40335   7.944   5.806   6.819  0.1645  0.0362 -0.2420
 9633WAT      O40336  10.027   7.128   6.648 -0.2317 -0.3466  0.2040
 9633WAT     H140337  10.033   7.181   6.569  1.4207  1.5768  1.5189
 9633WAT     H240338  10.054   7.041   6.620 -0.2517  0.1402 -1.4491
 9633WAT    EPW40339  10.031   7.123   6.634 -0.0167 -0.0284  0.1590
 9634WAT      O40340   5.882   3.636   0.619  0.2068  0.5865  0.1274
 9634WAT     H140341   5.857   3.710   0.674 -0.6131  0.6347 -0.2928
 9634WAT     H240342   5.803   3.615   0.569  0.0861 -1.2462  0.9899
 9634WAT    EPW40343   5.868   3.643   0.620  0.0827  0.3513  0.1858
 9635WAT      O40344   1.553   5.100   7.877 -0.3019 -0.4439  0.4252
 9635WAT     H140345   1.528   5.162   7.809  0.9368  1.5192  1.6464
 9635WAT     H240346   1.478   5.041   7.885 -1.1461  0.3110 -1.4274
 9635WAT    EPW40347   1.540   5.100   7.869 -0.2499 -0.0856  0.3421
 9636WAT      O40348   6.822   8.734   8.378  0.0158 -0.4006 -0.4227
 9636WAT     H140349   6.871   8.705   8.300  0.4868  1.4408 -0.8444
 9636WAT     H240350   6.884   8.789   8.426 -1.1804  0.7651 -0.1873
 9636WAT    EPW40351   6.837   8.737   8.374 -0.0794 -0.0043 -0.4478
 9637WAT      O40352   9.820   5.984   6.872 -0.4033  0.1823 -1.0503
 9637WAT     H140353   9.762   5.907   6.866  0.6953 -0.5746 -2.6181
 9637WAT     H240354   9.882   5.961   6.941 -0.5909  0.0285 -0.9303
 9637WAT    EPW40355   9.820   5.971   6.881 -0.2832  0.0622 -1.2412
 9638WAT      O40356   8.610   8.494   3.772  0.8899  0.2548  0.1442
 9638WAT     H140357   8.525   8.463   3.741 -0.1258  0.9614  2.0322
 9638WAT     H240358   8.638   8.429   3.836 -1.0520  2.6762  3.8099
 9638WAT    EPW40359   8.603   8.481   3.777  0.4997  0.6671  0.8767
 9639WAT      O40360   0.654   7.783   4.566 -0.0802  0.6089  0.3449
 9639WAT     H140361   0.676   7.772   4.474 -1.7298 -2.3550  0.1812
 9639WAT     H240362   0.561   7.807   4.566 -0.3866 -0.4486  1.1972
 9639WAT    EPW40363   0.645   7.785   4.554 -0.3382  0.0787  0.4356
 9640WAT      O40364   9.592   8.152   5.600  0.5866 -0.1786 -0.3065
 9640WAT     H140365   9.515   8.196   5.635  1.3728  0.9505  0.0558
 9640WAT     H240366   9.639   8.120   5.677  0.7852 -0.3511 -0.4970
 9640WAT    EPW40367   9.588   8.153   5.615  0.7167 -0.0525 -0.2840
 9641WAT      O40368   8.891   8.786   5.043  0.3823  0.0146 -0.0394
 9641WAT     H140369   8.971   8.771   4.992  0.2924  0.7185 -0.3978
 9641WAT     H240370   8.873   8.880   5.033 -0.1465 -0.0193  0.5425
 9641WAT    EPW40371   8.899   8.797   5.035  0.3014  0.1030 -0.0100
 9642WAT      O40372   1.574   9.140   8.093 -0.1088 -0.2061 -0.1755
 9642WAT     H140373   1.633   9.068   8.116 -0.0004 -0.0228  0.1304
 9642WAT     H240374   1.622   9.219   8.119 -1.3710 -0.1312  2.1831
 9642WAT    EPW40375   1.588   9.141   8.100 -0.2609 -0.1717  0.1755
 9643WAT      O40376   8.877   4.772   4.880  0.4771 -0.2354  0.2035
 9643WAT     H140377   8.970   4.765   4.904  0.6708 -0.2948 -0.5473
 9643WAT     H240378   8.877   4.771   4.784 -0.4212 -2.2324  0.1676
 9643WAT    EPW40379   8.889   4.771   4.870  0.3839 -0.5066  0.0994
 9644WAT      O40380   8.183   4.762   0.528  0.2823 -0.7552  0.4201
 9644WAT     H140381   8.194   4.829   0.460  0.4674 -1.2332 -0.0339
 9644WAT     H240382   8.109   4.709   0.498 -1.9414  1.0867  2.3467
 9644WAT    EPW40383   8.175   4.764   0.515  0.0134 -0.5753  0.6144
 9645WAT      O40384   0.299   2.219   5.798 -0.2269 -0.0436  0.4776
 9645WAT     H140385   0.314   2.289   5.734 -2.4615 -0.1547 -0.2549
 9645WAT     H240386   0.254   2.262   5.870 -0.0844 -0.4140  0.7888
 9645WAT    EPW40387   0.295   2.234   5.799 -0.5028 -0.1069  0.4220
 9646WAT      O40388   2.473   0.356   6.460 -0.7444 -0.0466 -0.2859
 9646WAT     H140389   2.495   0.298   6.533 -0.6951 -1.7627 -1.6074
 9646WAT     H240390   2.552   0.360   6.407 -1.1435  0.2066 -0.8823
 9646WAT    EPW40391   2.486   0.349   6.463 -0.7906 -0.2396 -0.5391
 9647WAT      O40392  10.932   7.521   6.062 -0.1534  0.0494  0.2926
 9647WAT     H140393  11.019   7.497   6.031 -0.6451 -1.9598  0.3289
 9647WAT     H240394  10.923   7.614   6.041  1.2660 -0.1638 -1.4415
 9647WAT    EPW40395  10.942   7.530   6.055 -0.0310 -0.2439  0.0687
 9648WAT      O40396   9.590   6.267   4.000  0.4562 -0.7932 -0.2552
 9648WAT     H140397   9.597   6.345   3.945  1.6951  0.0422  1.0325
 9648WAT     H240398   9.644   6.202   3.956 -0.7047 -1.0199 -1.4186
 9648WAT    EPW40399   9.598   6.269   3.987  0.4663 -0.7131 -0.2389
 9649WAT      O40400   9.892   8.707   5.614  1.2878  0.3033  0.4174
 9649WAT     H140401   9.855   8.623   5.586  3.6140 -0.5509 -0.3804
 9649WAT     H240402   9.834   8.773   5.575  0.0327 -0.9225  0.1404
 9649WAT    EPW40403   9.879   8.705   5.605  1.4291  0.0291  0.2754
 9650WAT      O40404  10.212   7.024   3.600 -0.2286 -0.6443 -0.4499
 9650WAT     H140405  10.238   7.098   3.655 -0.8550 -0.5158 -0.3246
 9650WAT     H240406  10.294   6.995   3.559  0.1207 -0.2774 -0.0196
 9650WAT    EPW40407  10.226   7.030   3.602 -0.2651 -0.5789 -0.3765
 9651WAT      O40408   6.762   8.206   8.362  0.7456 -0.0829  0.0302
 9651WAT     H140409   6.842   8.232   8.407  0.7474 -0.7219  0.4139
 9651WAT     H240410   6.793   8.162   8.283  0.7775 -0.3528  0.1914
 9651WAT    EPW40411   6.777   8.204   8.358  0.7501 -0.2031  0.1025
 9652WAT      O40412  10.260   8.245   7.641 -0.1482 -0.2330  0.2113
 9652WAT     H140413  10.301   8.309   7.583  0.3857 -0.7010  0.0648
 9652WAT     H240414  10.274   8.279   7.729  0.1432 -0.1522  0.1338
 9652WAT    EPW40415  10.267   8.258   7.645 -0.0391 -0.2842  0.1817
 9653WAT      O40416   8.925   9.265   6.328 -0.3776 -0.5568  0.1710
 9653WAT     H140417   8.836   9.232   6.325  0.5575 -3.6931  2.3798
 9653WAT     H240418   8.980   9.190   6.305  1.7741  0.7460  0.6883
 9653WAT    EPW40419   8.921   9.251   6.324  0.0296 -0.7987  0.5307
 9654WAT      O40420  10.791   7.273   6.032 -0.4574  0.2024  0.8919
 9654WAT     H140421  10.836   7.352   6.063 -1.4288  0.7042  1.0553
 9654WAT     H240422  10.787   7.217   6.110  0.8723 -0.3351  0.6031
 9654WAT    EPW40423  10.796   7.276   6.047 -0.4106  0.1979  0.8757
 9655WAT      O40424   0.241   7.459   5.913  0.7993 -0.5414  0.3111
 9655WAT     H140425   0.308   7.442   5.847 -0.0713 -2.8790 -0.0755
 9655WAT     H240426   0.221   7.372   5.949 -0.2368  0.4196  2.1764
 9655WAT    EPW40427   0.247   7.445   5.909  0.5478 -0.7226  0.5062
 9656WAT      O40428   9.087   7.132   7.367  0.3702  0.3284  0.3078
 9656WAT     H140429   9.011   7.078   7.392 -0.3188  1.0078 -0.2660
 9656WAT     H240430   9.127   7.157   7.451  0.0353 -0.1365  0.6149
 9656WAT    EPW40431   9.082   7.128   7.382  0.2356  0.3564  0.2725
 9657WAT      O40432   6.942   6.891   7.987  0.1000  0.3701 -0.1163
 9657WAT     H140433   6.896   6.808   7.972 -0.6848  1.0012 -1.2807
 9657WAT     H240434   6.884   6.940   8.046  1.7941 -0.9055  2.8603
 9657WAT    EPW40435   6.929   6.886   7.993  0.2201  0.2851  0.1228
 9658WAT      O40436   5.555   3.248   1.259 -0.2575 -0.5940 -0.9186
 9658WAT     H140437   5.467   3.268   1.292 -0.1417 -1.8569  0.2540
 9658WAT     H240438   5.566   3.306   1.184 -2.0843 -0.3707 -1.0707
 9658WAT    EPW40439   5.545   3.258   1.253 -0.4830 -0.7310 -0.7840
 9659WAT      O40440   8.556   5.860   6.223 -0.8153  0.1216 -0.5031
 9659WAT     H140441   8.533   5.897   6.309 -2.6157  0.9632 -1.2911
 9659WAT     H240442   8.651   5.846   6.228 -0.5989  1.7048  1.0547
 9659WAT    EPW40443   8.566   5.863   6.235 -1.0247  0.4413 -0.4015
 9660WAT      O40444   1.887   0.072   4.901  0.0222  0.5681 -0.1546
 9660WAT     H140445   1.904   0.074   4.806  0.2678  1.0862 -0.1025
 9660WAT     H240446   1.800   0.112   4.910  0.5643  1.7858 -0.0516
 9660WAT    EPW40447   1.878   0.078   4.889  0.1261  0.7971 -0.1342
 9661WAT      O40448   7.929   5.294   6.666 -0.1193 -0.2528 -0.1932
 9661WAT     H140449   7.886   5.316   6.583 -0.9786  1.5346  0.6600
 9661WAT     H240450   7.993   5.227   6.643  0.7421  1.2551 -2.5890
 9661WAT    EPW40451   7.932   5.288   6.652 -0.1190  0.1822 -0.3967
 9662WAT      O40452   9.432   6.707   3.226 -0.1314 -0.4714 -0.9179
 9662WAT     H140453   9.490   6.749   3.163  2.2734 -1.4125  0.5476
 9662WAT     H240454   9.391   6.636   3.176  0.8312 -0.4807 -1.7371
 9662WAT    EPW40455   9.434   6.703   3.211  0.3133 -0.5968 -0.8326
 9663WAT      O40456   8.131   7.103   2.110 -0.6209  0.5262 -0.2440
 9663WAT     H140457   8.098   7.193   2.110  0.4570  0.9477  0.4346
 9663WAT     H240458   8.114   7.070   2.022 -2.4508  0.8398 -0.0473
 9663WAT    EPW40459   8.124   7.110   2.099 -0.7200  0.6230 -0.1286
 9664WAT      O40460   4.038   3.630   0.461 -0.0683  0.7118  0.1233
 9664WAT     H140461   4.126   3.629   0.497  0.5998 -3.9834 -1.0156
 9664WAT     H240462   3.980   3.631   0.537  1.2275 -4.0712  1.4769
 9664WAT    EPW40463   4.042   3.630   0.476  0.1905 -0.5383  0.1516
 9665WAT      O40464   5.482   7.109   8.138 -0.0752 -0.3985  0.2101
 9665WAT     H140465   5.448   7.052   8.207 -1.8402 -0.2019 -0.4454
 9665WAT     H240466   5.502   7.191   8.182 -0.2924 -0.5808  0.6577
 9665WAT    EPW40467   5.480   7.112   8.153 -0.3364 -0.3967  0.1831
 9666WAT      O40468   9.130   8.113   4.336 -0.0684  0.6303  0.3841
 9666WAT     H140469   9.163   8.066   4.260  0.8460  0.0783  1.0949
 9666WAT     H240470   9.036   8.119   4.322 -0.3306 -1.9996  0.5563
 9666WAT    EPW40471   9.122   8.107   4.324  0.0181  0.2103  0.5004
 9667WAT      O40472   2.552   2.801   0.827 -0.3120  0.0367  0.5130
 9667WAT     H140473   2.539   2.756   0.911  0.9157  0.5454  0.9904
 9667WAT     H240474   2.646   2.798   0.813 -0.5510 -0.5311 -1.1445
 9667WAT    EPW40475   2.563   2.794   0.837 -0.1817  0.0290  0.3573
 9668WAT      O40476   8.957   6.497   2.602  0.6534  0.1016  0.1512
 9668WAT     H140477   8.911   6.414   2.589 -1.1942  0.8073  1.7268
 9668WAT     H240478   8.937   6.549   2.525 -1.6353  0.5361  0.9689
 9668WAT    EPW40479   8.948   6.493   2.590  0.1078  0.2520  0.4668
 9669WAT      O40480   2.664   4.894   0.003  0.3565  0.1660 -0.4707
 9669WAT     H140481   2.694   4.956   0.069 -1.7939  1.5282 -0.7024
 9669WAT     H240482   2.619   4.826   0.052 -0.5139  0.7431 -0.4539
 9669WAT    EPW40483   2.662   4.893   0.018 -0.0420  0.4220 -0.4988
 9670WAT      O40484   7.774   5.290   6.104  0.5548  0.1507  0.2217
 9670WAT     H140485   7.816   5.208   6.127 -0.0291  0.4605  2.6486
 9670WAT     H240486   7.846   5.350   6.086  1.0338 -0.3765  0.3644
 9670WAT    EPW40487   7.789   5.287   6.104  0.5410  0.1221  0.5605
 9671WAT      O40488   2.514   6.092   5.397  0.5082 -0.0497 -0.2797
 9671WAT     H140489   2.492   6.011   5.443 -0.7500 -1.8392 -3.6501
 9671WAT     H240490   2.496   6.161   5.459  0.1511 -2.2629  2.2584
 9671WAT    EPW40491   2.509   6.090   5.411  0.2950 -0.5774 -0.3896
 9672WAT      O40492   3.251   9.035   5.298 -0.4957 -0.1567  0.3469
 9672WAT     H140493   3.329   8.994   5.337 -0.2226 -1.2921 -1.2923
 9672WAT     H240494   3.211   9.083   5.371 -0.1351 -2.3109  2.0933
 9672WAT    EPW40495   3.256   9.036   5.313 -0.4121 -0.5908  0.3612
 9673WAT      O40496   7.250   7.996   6.912  0.1705  0.2506  0.5324
 9673WAT     H140497   7.253   8.045   6.994  1.8074 -2.8286  2.4908
 9673WAT     H240498   7.301   8.050   6.851  0.1487  1.9371  1.9163
 9673WAT    EPW40499   7.257   8.010   6.915  0.3836  0.0668  0.9730
 9674WAT      O40500   9.066   4.186   6.021  0.4505  0.5590  0.0284
 9674WAT     H140501   9.033   4.190   5.931 -0.0609 -0.3005  0.1648
 9674WAT     H240502   9.054   4.275   6.055 -3.6893 -0.0195  0.7060
 9674WAT    EPW40503   9.060   4.199   6.014 -0.1631  0.3693  0.1361
 9675WAT      O40504   6.502   8.333   6.729  0.4523  0.4109 -0.0342
 9675WAT     H140505   6.484   8.410   6.783  0.5915 -0.5888  1.5138
 9675WAT     H240506   6.596   8.337   6.711  1.0614 -0.7507  2.3883
 9675WAT    EPW40507   6.512   8.343   6.734  0.5510  0.1264  0.4892
 9676WAT      O40508   6.850   6.244   8.776 -0.2419 -0.2599  0.4873
 9676WAT     H140509   6.859   6.195   8.694 -0.7867 -1.4805  1.1280
 9676WAT     H240510   6.855   6.177   8.844 -0.8114  0.6083  1.4082
 9676WAT    EPW40511   6.852   6.229   8.774 -0.3889 -0.3066  0.6933
 9677WAT      O40512  10.315   2.530   7.442 -0.2865  0.0467 -0.2604
 9677WAT     H140513  10.345   2.441   7.457 -0.6007 -0.4102 -2.0387
 9677WAT     H240514  10.373   2.585   7.495  0.0002 -1.1887  0.7440
 9677WAT    EPW40515  10.326   2.526   7.451 -0.2904 -0.1765 -0.3624
 9678WAT      O40516   7.778   7.092   1.339 -0.3785 -0.4884 -0.4042
 9678WAT     H140517   7.687   7.099   1.368  0.0548 -1.5276  1.3308
 9678WAT     H240518   7.801   7.181   1.311 -2.0625 -0.3177 -1.4313
 9678WAT    EPW40519   7.769   7.105   1.339 -0.5436 -0.6030 -0.3109
 9679WAT      O40520   0.414   8.322   6.709  0.4432  0.4087  0.0113
 9679WAT     H140521   0.411   8.249   6.771  1.3275  1.2155  1.0531
 9679WAT     H240522   0.323   8.349   6.700  0.1662 -0.4729  0.0290
 9679WAT    EPW40523   0.402   8.316   6.716  0.5233  0.3986  0.1514
 9680WAT      O40524   6.578   6.745   6.521  0.2659 -0.5386  0.9091
 9680WAT     H140525   6.507   6.688   6.547 -0.6053  0.6192  1.1611
 9680WAT     H240526   6.550   6.783   6.437 -0.7153  1.9503  2.2445
 9680WAT    EPW40527   6.565   6.743   6.513  0.0217 -0.0577  1.1189
 9681WAT      O40528   5.121   2.163   1.273 -0.8285  0.0060  0.1650
 9681WAT     H140529   5.177   2.159   1.196 -0.2705 -0.3690  0.5796
 9681WAT     H240530   5.150   2.090   1.328 -2.1399 -0.5941  0.1153
 9681WAT    EPW40531   5.132   2.153   1.270 -0.9279 -0.1227  0.2131
 9682WAT      O40532   8.143   2.947   0.320 -0.0317  0.5306 -0.8050
 9682WAT     H140533   8.191   2.935   0.238  3.0444  0.8717  0.8150
 9682WAT     H240534   8.168   2.872   0.374 -0.7827  1.1006  0.3781
 9682WAT    EPW40535   8.153   2.936   0.316  0.2747  0.6508 -0.4353
 9683WAT      O40536   1.289   7.406   7.826 -0.0292  0.3322 -0.2063
 9683WAT     H140537   1.270   7.414   7.919  0.0990  1.1524 -0.2484
 9683WAT     H240538   1.263   7.490   7.788  0.6951  0.3164 -0.7723
 9683WAT    EPW40539   1.283   7.418   7.833  0.0833  0.4380 -0.2863
 9684WAT      O40540   8.219   7.145   5.922 -0.3593 -0.2100 -0.1183
 9684WAT     H140541   8.133   7.142   5.881 -1.2851  1.1554  1.5576
 9684WAT     H240542   8.232   7.057   5.958 -1.0982 -0.3966 -0.2973
 9684WAT    EPW40543   8.209   7.133   5.922 -0.5794 -0.0544  0.0789
 9685WAT      O40544   6.432   6.856   6.807 -0.6966 -0.2381 -0.1398
 9685WAT     H140545   6.424   6.779   6.751  0.3274 -1.8321  1.7736
 9685WAT     H240546   6.513   6.898   6.779  0.1022 -1.3336  0.4214
 9685WAT    EPW40547   6.442   6.851   6.796 -0.4561 -0.5929  0.1867
 9686WAT      O40548   0.302   7.733   8.412  0.5921  0.6128  0.3298
 9686WAT     H140549   0.275   7.742   8.321  1.0968  0.8926  0.2093
 9686WAT     H240550   0.249   7.797   8.459 -1.0168 -0.7840  0.5209
 9686WAT    EPW40551   0.291   7.742   8.406  0.4465  0.4659  0.3390
 9687WAT      O40552   7.869   8.254   6.996  0.3703  0.0826 -0.2478
 9687WAT     H140553   7.783   8.212   7.000 -0.7360  2.1615 -0.8497
 9687WAT     H240554   7.918   8.202   6.932 -0.3509 -1.2308  0.2252
 9687WAT    EPW40555   7.864   8.242   6.988  0.1292  0.1836 -0.2646
 9688WAT      O40556   7.620   5.926   6.748  0.9031 -0.3367  0.1710
 9688WAT     H140557   7.555   5.932   6.678 -0.6695  0.6627  1.6315
 9688WAT     H240558   7.691   5.984   6.721 -0.1148  0.7731 -0.1962
 9688WAT    EPW40559   7.620   5.934   6.736  0.5612 -0.0587  0.3152
 9689WAT      O40560   6.098   7.109   6.852 -0.1123 -0.1583 -0.7980
 9689WAT     H140561   6.098   7.045   6.923 -2.0005  0.1736 -0.4630
 9689WAT     H240562   6.099   7.055   6.772  3.0897 -0.5396 -0.6497
 9689WAT    EPW40563   6.098   7.093   6.851  0.0608 -0.1650 -0.7346
 9690WAT      O40564   8.953   3.326   7.067  0.3871 -0.0863 -0.6634
 9690WAT     H140565   8.980   3.283   6.985  2.0827 -2.6605  1.0833
 9690WAT     H240566   8.892   3.264   7.107  0.0228  0.8682  0.2992
 9690WAT    EPW40567   8.948   3.312   7.061  0.5627 -0.3000 -0.3059
 9691WAT      O40568   6.350   6.495   7.865  0.0353  0.3600 -0.2576
 9691WAT     H140569   6.381   6.424   7.810 -1.0413  1.0585 -1.8571
 9691WAT     H240570   6.355   6.573   7.809  0.9376  1.5424  1.3459
 9691WAT    EPW40571   6.355   6.496   7.851  0.0124  0.6077 -0.2573
 9692WAT      O40572   5.783   7.337   5.442  0.0605  0.0750 -0.1992
 9692WAT     H140573   5.758   7.250   5.473 -2.1041 -0.8162 -3.7939
 9692WAT     H240574   5.848   7.320   5.374 -1.1325  1.0780 -1.6570
 9692WAT    EPW40575   5.788   7.323   5.437 -0.3824  0.0899 -0.8659
 9693WAT      O40576   9.121   8.590   7.324 -0.1525 -0.0329 -0.6297
 9693WAT     H140577   9.152   8.667   7.371 -2.3751  0.9431 -0.6461
 9693WAT     H240578   9.192   8.568   7.263  0.4190  2.1663 -0.8188
 9693WAT    EPW40579   9.135   8.597   7.322 -0.3700  0.3858 -0.6568
 9694WAT      O40580   7.518   9.157   6.306  0.2180 -0.0741  0.7887
 9694WAT     H140581   7.548   9.167   6.215  0.3383 -1.8900  0.5783
 9694WAT     H240582   7.543   9.067   6.329  0.2211  0.3660  2.6520
 9694WAT    EPW40583   7.525   9.146   6.297  0.2341 -0.2556  1.0068
 9695WAT      O40584   7.819   1.288   8.287 -0.1118 -0.3447 -0.1011
 9695WAT     H140585   7.773   1.213   8.250  0.4346 -1.3679  1.2312
 9695WAT     H240586   7.883   1.250   8.347 -0.0559  1.1986  0.8732
 9695WAT    EPW40587   7.822   1.274   8.290 -0.0322 -0.2761  0.2031
 9696WAT      O40588   3.561   1.195   1.707  0.0956 -1.3445  0.5703
 9696WAT     H140589   3.519   1.210   1.791  1.9152  1.9740  1.0828
 9696WAT     H240590   3.567   1.283   1.667  1.1293 -2.5009 -2.0946
 9696WAT    EPW40591   3.556   1.209   1.713  0.4718 -1.0594  0.2865
 9697WAT      O40592   8.935   6.125   6.720  0.2190 -0.3321 -0.5316
 9697WAT     H140593   8.902   6.164   6.801  1.3430 -2.0862  0.8689
 9697WAT     H240594   9.018   6.169   6.704  0.6647 -0.9228  0.0865
 9697WAT    EPW40595   8.941   6.136   6.729  0.4258 -0.6418 -0.2654
 9698WAT      O40596   9.051   6.094   7.193  0.2816  0.0590 -0.1759
 9698WAT     H140597   8.986   6.164   7.199 -0.8300 -0.6789 -2.2993
 9698WAT     H240598   8.999   6.013   7.194  0.9568 -0.5360 -2.8311
 9698WAT    EPW40599   9.035   6.092   7.194  0.2236 -0.1168 -0.8063
 9699WAT      O40600   9.414   5.290   6.462 -0.5503 -0.1625 -0.3064
 9699WAT     H140601   9.460   5.374   6.468 -1.4496  0.3194  0.0033
 9699WAT     H240602   9.384   5.286   6.371  0.4668 -0.6860 -0.6334
 9699WAT    EPW40603   9.416   5.300   6.451 -0.5350 -0.1681 -0.3088
 9700WAT      O40604   5.534   4.592   2.219 -0.7598 -0.3016  0.0892
 9700WAT     H140605   5.486   4.567   2.140 -2.6724 -1.7468  1.6276
 9700WAT     H240606   5.473   4.576   2.291  1.5977 -0.9995  2.0743
 9700WAT    EPW40607   5.520   4.587   2.218 -0.7010 -0.5841  0.5540
 9701WAT      O40608   6.445   8.982   7.129 -0.1193 -0.3152 -0.2061
 9701WAT     H140609   6.460   8.942   7.043  0.3044  1.2607 -0.8994
 9701WAT     H240610   6.351   8.974   7.143 -0.5272  1.1257 -1.7454
 9701WAT    EPW40611   6.435   8.975   7.119 -0.1173  0.0825 -0.5004
 9702WAT      O40612  10.968   6.241   7.776 -0.2639 -0.4165 -0.1579
 9702WAT     H140613  11.056   6.276   7.764  0.1514 -0.1072  2.9640
 9702WAT     H240614  10.972   6.192   7.858 -2.2163 -3.2827 -1.5648
 9702WAT    EPW40615  10.980   6.239   7.785 -0.4667 -0.7539  0.0684
 9703WAT      O40616  10.335   7.271   5.301  0.1158 -0.2056  0.1822
 9703WAT     H140617  10.422   7.282   5.339 -0.8957  0.0724  2.5318
 9703WAT     H240618  10.305   7.360   5.283 -0.7474 -0.0789  2.0133
 9703WAT    EPW40619  10.343   7.284   5.303 -0.1316 -0.1521  0.7334
 9704WAT      O40620   2.299   2.381   2.487  0.1335 -0.4328 -0.5443
 9704WAT     H140621   2.355   2.459   2.486 -0.7090  0.2226  0.6508
 9704WAT     H240622   2.352   2.314   2.529  0.3639 -0.0997 -0.2956
 9704WAT    EPW40623   2.313   2.382   2.492  0.0527 -0.3024 -0.3538
 9705WAT      O40624   6.862   7.377   8.745 -0.1013  0.3339 -0.0571
 9705WAT     H140625   6.898   7.309   8.801  0.3816 -0.2761 -1.0849
 9705WAT     H240626   6.835   7.446   8.806  1.7234  0.3115  0.8457
 9705WAT    EPW40627   6.863   7.377   8.760  0.2029  0.2503 -0.0734
 9706WAT      O40628   7.007   6.690   4.329  1.1919 -0.4930 -0.2635
 9706WAT     H140629   6.916   6.665   4.312  1.0405  0.3581 -0.7593
 9706WAT     H240630   7.003   6.746   4.406  0.9679  1.4838 -1.6425
 9706WAT    EPW40631   6.994   6.694   4.337  1.1425 -0.1202 -0.5107
 9707WAT      O40632   4.421   1.886   0.020  0.5974  0.0908  0.3567
 9707WAT     H140633   4.393   1.977   0.009 -2.7107 -0.8728 -0.1611
 9707WAT     H240634   4.490   1.891   0.086  1.0239  3.0239 -0.1623
 9707WAT    EPW40635   4.426   1.899   0.027  0.2174  0.3506  0.2199
 9708WAT      O40636   9.134   5.938   4.430  0.0633 -0.2022  0.1454
 9708WAT     H140637   9.158   5.862   4.378 -0.2378 -0.1622 -0.0569
 9708WAT     H240638   9.179   6.011   4.387  0.2764 -0.2492  0.2848
 9708WAT    EPW40639   9.143   5.938   4.417  0.0510 -0.2031  0.1371
 9709WAT      O40640   8.860   6.243   7.319  1.0130  0.4342 -0.1195
 9709WAT     H140641   8.923   6.312   7.339  1.6635 -0.3192  0.4931
 9709WAT     H240642   8.855   6.191   7.399 -1.4166  1.2348  0.3408
 9709WAT    EPW40643   8.868   6.245   7.332  0.7787  0.4404  0.0219
 9710WAT      O40644   9.142   9.387   7.992  0.1028 -0.5108 -0.0428
 9710WAT     H140645   9.161   9.395   8.085 -0.6711 -1.1834  0.1855
 9710WAT     H240646   9.212   9.330   7.958  0.3716 -0.2843  0.1290
 9710WAT    EPW40647   9.154   9.380   8.000  0.0358 -0.5698  0.0103
 9711WAT      O40648   8.949   5.920   5.757  0.3498  0.0872 -0.3831
 9711WAT     H140649   8.927   5.877   5.675  1.7044  2.5893 -2.2058
 9711WAT     H240650   8.944   6.013   5.738  0.1501  0.7913  2.5763
 9711WAT    EPW40651   8.946   5.927   5.744  0.5021  0.5102 -0.2332
 9712WAT      O40652   7.082   6.048   5.833 -0.1929 -0.1180  0.1187
 9712WAT     H140653   7.041   5.963   5.822 -2.2857  0.6961  1.1562
 9712WAT     H240654   7.058   6.097   5.755  2.0463 -0.8059 -1.0787
 9712WAT    EPW40655   7.074   6.043   5.822 -0.1736 -0.1013  0.0975
 9713WAT      O40656   5.709   5.042   0.786  0.6214  0.3542  0.0731
 9713WAT     H140657   5.750   5.040   0.699  1.8292  0.7115  0.6208
 9713WAT     H240658   5.619   5.012   0.770  1.0932 -0.4967 -1.1525
 9713WAT    EPW40659   5.702   5.038   0.772  0.8430  0.2890 -0.0163
 9714WAT      O40660   6.150   9.323   8.335 -0.0190 -0.2885  0.5521
 9714WAT     H140661   6.062   9.285   8.342 -0.0956  0.1260  2.2335
 9714WAT     H240662   6.136   9.411   8.300 -0.1941 -0.4472  0.2122
 9714WAT    EPW40663   6.137   9.329   8.331 -0.0525 -0.2546  0.7291
 9715WAT      O40664   7.608   8.987   7.779  0.3230 -0.0107  0.8899
 9715WAT     H140665   7.636   9.044   7.707 -0.3758 -1.0663 -0.2608
 9715WAT     H240666   7.674   8.917   7.782 -0.4523 -0.7961  0.2387
 9715WAT    EPW40667   7.621   8.985   7.770  0.1283 -0.2542  0.6523
 9716WAT      O40668   5.879   7.992   7.444  0.0869  0.2167 -1.2058
 9716WAT     H140669   5.821   8.021   7.515  0.2555 -0.9184 -0.5702
 9716WAT     H240670   5.820   7.950   7.382  0.2432 -1.5092 -0.2566
 9716WAT    EPW40671   5.863   7.990   7.445  0.1297 -0.1609 -0.9968
 9717WAT      O40672   9.005   8.972   5.418  0.4430  0.0026  0.0388
 9717WAT     H140673   8.985   9.013   5.502 -0.4804  1.1100 -0.6758
 9717WAT     H240674   8.941   8.902   5.410  0.0162  0.3947 -0.0630
 9717WAT    EPW40675   8.994   8.968   5.428  0.2646  0.2003 -0.0687
 9718WAT      O40676  10.968   9.369   8.633 -0.4634 -0.2126 -0.5300
 9718WAT     H140677  10.951   9.278   8.611 -0.8843 -0.6666  1.4443
 9718WAT     H240678  11.062   9.380   8.623 -0.0994 -1.4698  1.0653
 9718WAT    EPW40679  10.978   9.359   8.629 -0.4709 -0.4387 -0.0591
 9719WAT      O40680   7.328   8.800   5.390  0.2281 -0.8432  0.5747
 9719WAT     H140681   7.286   8.875   5.348  1.4203  0.0517  0.9213
 9719WAT     H240682   7.357   8.745   5.317  2.7668  0.9558  0.0783
 9719WAT    EPW40683   7.326   8.803   5.375  0.7200 -0.4878  0.5550
 9720WAT      O40684   8.862   7.652   7.008  0.2160  0.5411 -0.2017
 9720WAT     H140685   8.950   7.664   6.970 -0.4173  0.5864 -1.7340
 9720WAT     H240686   8.849   7.557   7.009 -0.0095  0.5628 -0.7085
 9720WAT    EPW40687   8.872   7.641   7.003  0.1025  0.5498 -0.4704
 9721WAT      O40688   2.182   1.194   8.312 -0.3904  0.2086 -0.2644
 9721WAT     H140689   2.210   1.280   8.341 -2.9639  0.7860  0.7585
 9721WAT     H240690   2.262   1.141   8.312  0.6580  1.5723  2.8644
 9721WAT    EPW40691   2.196   1.198   8.316 -0.5918  0.4646  0.2837
 9722WAT      O40692   7.237   5.479   7.369 -0.4774  0.2968  0.4011
 9722WAT     H140693   7.283   5.417   7.313 -2.5421 -0.1904 -0.8863
 9722WAT     H240694   7.191   5.425   7.433 -0.8688  0.6157  0.3956
 9722WAT    EPW40695   7.237   5.464   7.370 -0.8013  0.2744  0.2306
 9723WAT      O40696   8.777   9.192   7.926  0.0110 -0.4097 -0.0721
 9723WAT     H140697   8.829   9.182   8.006  1.2553  1.1746 -0.6318
 9723WAT     H240698   8.786   9.107   7.882 -0.2236 -1.1134  1.1655
 9723WAT    EPW40699   8.785   9.179   7.931  0.1445 -0.2937  0.0174
 9724WAT      O40700   7.514   7.604   6.924  0.5782 -0.6336 -0.2836
 9724WAT     H140701   7.436   7.569   6.881 -0.2457  0.3358  0.3730
 9724WAT     H240702   7.524   7.552   7.004  0.2467 -0.3786 -0.0725
 9724WAT    EPW40703   7.505   7.593   6.929  0.4258 -0.4721 -0.1690
 9725WAT      O40704  10.118   6.469   3.519  0.4059  0.1742  0.1997
 9725WAT     H140705  10.212   6.477   3.537  0.6030  0.7015 -0.9743
 9725WAT     H240706  10.084   6.558   3.533  0.0183 -0.0804  0.9151
 9725WAT    EPW40707  10.126   6.482   3.523  0.3810  0.2100  0.1391
 9726WAT      O40708   7.327   7.944   5.259 -0.3954  0.6227  0.1638
 9726WAT     H140709   7.335   7.870   5.199 -1.4369  0.0627  0.6969
 9726WAT     H240710   7.312   8.019   5.201 -0.5113  0.2315 -0.3249
 9726WAT    EPW40711   7.326   7.944   5.243 -0.5481  0.4973  0.1698
 9727WAT      O40712   8.628   4.487   6.568 -0.2868 -0.6336 -0.4559
 9727WAT     H140713   8.658   4.399   6.548 -0.3563 -1.1132  1.3757
 9727WAT     H240714   8.636   4.494   6.663  0.0344  1.4505 -0.5852
 9727WAT    EPW40715   8.633   4.477   6.578 -0.2537 -0.4220 -0.2315
 9728WAT      O40716  10.631   5.611   1.815  0.0814  0.1754 -0.3311
 9728WAT     H140717  10.587   5.692   1.787  0.9394  0.8694  0.2850
 9728WAT     H240718  10.594   5.544   1.758 -1.2598  0.8513 -0.3156
 9728WAT    EPW40719  10.620   5.613   1.804  0.0176  0.3560 -0.2479
 9729WAT      O40720   5.915   6.154   1.512 -0.1057  0.1223 -0.6123
 9729WAT     H140721   5.995   6.146   1.460  0.3412  0.8475 -0.0598
 9729WAT     H240722   5.947   6.168   1.602 -0.8590 -0.1106 -0.3037
 9729WAT    EPW40723   5.930   6.155   1.517 -0.1464  0.1876 -0.4987
 9730WAT      O40724   1.285   3.886   1.246  0.1740 -0.2461  0.2049
 9730WAT     H140725   1.300   3.936   1.165 -2.4932 -0.2859 -0.4029
 9730WAT     H240726   1.289   3.795   1.218  2.6064 -0.4103  0.8502
 9730WAT    EPW40727   1.287   3.881   1.231  0.1431 -0.2730  0.2098
 9731WAT      O40728   6.592  10.119   4.008 -0.4843 -0.5178 -0.4178
 9731WAT     H140729   6.656  10.109   4.079 -2.1125 -0.2951  1.1668
 9731WAT     H240730   6.509  10.092   4.048 -1.3708 -0.9227 -2.4409
 9731WAT    EPW40731   6.590  10.114   4.023 -0.8159 -0.5417 -0.4756
 9732WAT      O40732   5.189   9.228   5.960  0.3963  0.2248 -0.4005
 9732WAT     H140733   5.216   9.320   5.961 -1.8477  0.9420 -0.9895
 9732WAT     H240734   5.250   9.186   5.900  1.5444  1.2636 -0.0155
 9732WAT    EPW40735   5.201   9.235   5.953  0.2520  0.4563 -0.4272
 9733WAT      O40736   8.485   7.177   7.593 -0.1845  0.7769 -0.4567
 9733WAT     H140737   8.475   7.250   7.655 -0.7434 -0.1924  0.6238
 9733WAT     H240738   8.507   7.102   7.648  0.7801  0.1978 -1.6044
 9733WAT    EPW40739   8.487   7.177   7.609 -0.1307  0.5727 -0.4656
 9734WAT      O40740   0.159   9.325   8.923  0.0478 -0.6818  0.5143
 9734WAT     H140741   0.070   9.295   8.938 -0.3263  0.3227  0.3609
 9734WAT     H240742   0.203   9.313   9.007 -0.3552 -0.7563  0.7124
 9734WAT    EPW40743   0.153   9.320   8.936 -0.0547 -0.5593  0.5198
 9735WAT      O40744   6.080   4.336   7.392  0.1758 -0.0637 -0.7046
 9735WAT     H140745   5.989   4.314   7.409 -0.0768 -0.7916 -2.7567
 9735WAT     H240746   6.076   4.413   7.335  0.9386  1.5039  1.2353
 9735WAT    EPW40747   6.068   4.343   7.387  0.2429  0.0470 -0.7195
 9736WAT      O40748  10.757   4.655   6.271 -0.2841  0.5781  0.3743
 9736WAT     H140749  10.719   4.634   6.186 -0.1686  2.2612 -0.1408
 9736WAT     H240750  10.715   4.596   6.332  0.5801 -1.5848 -1.0166
 9736WAT    EPW40751  10.747   4.645   6.268 -0.1550  0.5147  0.1230
 9737WAT      O40752   9.795   7.417   4.106 -0.7514  0.0723 -0.1603
 9737WAT     H140753   9.782   7.336   4.056 -3.0116  0.4692 -0.3293
 9737WAT     H240754   9.872   7.399   4.161  1.7761 -0.4682 -3.5153
 9737WAT    EPW40755   9.804   7.404   4.107 -0.7162  0.0532 -0.6251
 9738WAT      O40756   5.140   9.293   8.887  0.0312  0.8053 -0.0756
 9738WAT     H140757   5.044   9.283   8.894  0.0248  1.5212  1.0567
 9738WAT     H240758   5.152   9.379   8.849  0.1997 -1.0915 -5.1149
 9738WAT    EPW40759   5.129   9.303   8.883  0.0527  0.6495 -0.5913
 9739WAT      O40760   7.864   7.281   3.462 -0.5973 -0.3261 -0.7646
 9739WAT     H140761   7.901   7.197   3.435 -0.4571 -0.0666 -1.3965
 9739WAT     H240762   7.884   7.340   3.390  0.8669  0.7158  0.4352
 9739WAT    EPW40763   7.871   7.277   3.449 -0.3855 -0.1545 -0.6897
 9740WAT      O40764   8.919   4.267   6.340 -0.3238  0.2986 -0.0319
 9740WAT     H140765   8.877   4.206   6.279 -1.2417  2.4229 -1.6765
 9740WAT     H240766   8.951   4.338   6.284  1.1236  1.1084  1.7396
 9740WAT    EPW40767   8.918   4.269   6.324 -0.2537  0.6857 -0.0153
 9741WAT      O40768   7.337   7.663   5.293 -0.1824  0.4221 -0.0276
 9741WAT     H140769   7.300   7.639   5.378 -0.2820  1.1988  0.1597
 9741WAT     H240770   7.332   7.583   5.241  2.2490 -0.8622  1.4808
 9741WAT    EPW40771   7.332   7.649   5.298  0.1252  0.3548  0.1960
 9742WAT      O40772   2.773   3.154   2.190  0.4368 -0.3147  0.6680
 9742WAT     H140773   2.727   3.232   2.158  1.9009 -0.5810 -2.4891
 9742WAT     H240774   2.845   3.189   2.242  0.6868  0.4445 -0.1644
 9742WAT    EPW40775   2.777   3.169   2.193  0.6628 -0.2496  0.1419
 9743WAT      O40776   5.179   7.574   6.149 -0.1475  0.0311 -0.2788
 9743WAT     H140777   5.095   7.614   6.126 -1.4966 -1.6859  1.4063
 9743WAT     H240778   5.184   7.496   6.093  0.4134  0.1837 -0.4528
 9743WAT    EPW40779   5.169   7.569   6.138 -0.2518 -0.1755 -0.0794
 9744WAT      O40780   1.269  10.155   7.644 -0.1407  0.1954 -0.1726
 9744WAT     H140781   1.201  10.207   7.687  0.5314  0.8288  0.1363
 9744WAT     H240782   1.286  10.200   7.562 -0.4163 -0.2266 -0.4667
 9744WAT    EPW40783   1.262  10.168   7.639 -0.0884  0.2232 -0.1705
 9745WAT      O40784   9.182   6.902   3.137  0.2276  0.2267 -0.3226
 9745WAT     H140785   9.268   6.917   3.098  0.1555 -0.3124 -0.7000
 9745WAT     H240786   9.136   6.848   3.073 -0.5782  0.9424 -0.3719
 9745WAT    EPW40787   9.187   6.897   3.123  0.1121  0.2501 -0.3788
 9746WAT      O40788   1.284   5.239   6.894  0.0162 -0.7453  0.2406
 9746WAT     H140789   1.302   5.225   6.801 -1.0168 -2.2769  0.2422
 9746WAT     H240790   1.370   5.257   6.932  0.4473 -0.0023 -1.0078
 9746WAT    EPW40791   1.298   5.240   6.886 -0.0632 -0.8492  0.0763
 9747WAT      O40792   8.468   2.156   2.606  0.4468 -0.0487 -0.3239
 9747WAT     H140793   8.509   2.131   2.523  0.4753  1.8945 -0.9450
 9747WAT     H240794   8.387   2.105   2.609 -0.1873  0.7543 -2.1950
 9747WAT    EPW40795   8.462   2.146   2.595  0.3672  0.3134 -0.6526
 9748WAT      O40796   3.473   3.990   0.377 -0.3513  0.2779  0.5551
 9748WAT     H140797   3.485   3.966   0.469  0.5371  3.6287  1.4621
 9748WAT     H240798   3.562   4.001   0.343 -0.6805 -0.4906 -0.6137
 9748WAT    EPW40799   3.486   3.988   0.384 -0.2774  0.6186  0.5205
 9749WAT      O40800   8.938   8.440   8.164 -0.3180  0.4353 -0.1591
 9749WAT     H140801   8.959   8.530   8.138  0.4050  0.1226 -0.6972
 9749WAT     H240802   8.889   8.450   8.246  0.6555  1.2826  0.3486
 9749WAT    EPW40803   8.935   8.453   8.171 -0.0939  0.5059 -0.1636
 9750WAT      O40804   7.773   7.361   2.094  0.0931 -0.2880 -0.6120
 9750WAT     H140805   7.808   7.314   2.170 -0.4134 -1.0453 -0.8312
 9750WAT     H240806   7.711   7.299   2.055 -0.6427  0.6006 -0.8741
 9750WAT    EPW40807   7.769   7.346   2.099 -0.0708 -0.2708 -0.6756
 9751WAT      O40808   6.566   7.149   7.483  0.4769 -0.4826  0.1807
 9751WAT     H140809   6.657   7.179   7.474  0.1838  1.2443  2.2051
 9751WAT     H240810   6.541   7.124   7.394  3.2287 -2.0559 -0.2711
 9751WAT    EPW40811   6.575   7.150   7.470  0.8011 -0.4623  0.3881
 9752WAT      O40812   8.571   9.558   4.441  0.4655 -0.4028  0.4198
 9752WAT     H140813   8.586   9.531   4.350 -2.3871  0.5177 -0.4454
 9752WAT     H240814   8.589   9.480   4.493  1.8548 -1.0425 -0.9485
 9752WAT    EPW40815   8.576   9.544   4.436  0.2723 -0.3657  0.1254
 9753WAT      O40816   0.324   8.554   8.204 -0.1371  0.0347  0.8191
 9753WAT     H140817   0.264   8.627   8.191  0.1311  0.3293  1.1910
 9753WAT     H240818   0.411   8.593   8.200  0.0392 -0.4189  0.1058
 9753WAT    EPW40819   0.328   8.569   8.202 -0.0785  0.0143  0.7739
 9754WAT      O40820   1.075   8.875   6.056  0.2221 -0.0913  0.4139
 9754WAT     H140821   1.003   8.937   6.068  0.4049  0.4232 -1.0000
 9754WAT     H240822   1.137   8.898   6.126 -0.6219 -0.0354  1.1642
 9754WAT    EPW40823   1.074   8.887   6.067  0.1348 -0.0162  0.3264
 9755WAT      O40824   7.216   7.229   7.775  0.3525 -0.4873  0.3131
 9755WAT     H140825   7.255   7.224   7.687 -2.0424 -4.6946 -0.8075
 9755WAT     H240826   7.136   7.281   7.762 -0.5047 -1.8897 -0.3781
 9755WAT    EPW40827   7.210   7.235   7.761 -0.0765 -1.2271  0.0741
 9756WAT      O40828   8.739   8.714   4.836 -0.4972  0.0553 -0.3942
 9756WAT     H140829   8.720   8.621   4.849  0.8689 -0.2244 -0.2052
 9756WAT     H240830   8.787   8.739   4.915  0.6216  0.4823 -1.1902
 9756WAT    EPW40831   8.743   8.705   4.849 -0.1698  0.0744 -0.4740
 9757WAT      O40832   0.502   6.666   5.360 -0.4720 -0.0522  0.0581
 9757WAT     H140833   0.506   6.643   5.267 -1.9655 -1.9160  0.3870
 9757WAT     H240834   0.420   6.716   5.369 -0.6393 -0.3910  0.4554
 9757WAT    EPW40835   0.492   6.669   5.349 -0.6911 -0.3426  0.1540
 9758WAT      O40836   9.707   6.349   6.266 -0.5741  1.0730  0.1851
 9758WAT     H140837   9.748   6.264   6.247 -1.2814  0.9723 -0.9723
 9758WAT     H240838   9.762   6.387   6.334  0.7029  0.3810 -0.4205
 9758WAT    EPW40839   9.720   6.343   6.273 -0.4997  0.9685 -0.0474
 9759WAT      O40840   6.888   7.829   7.123 -0.5921 -0.1262  0.2907
 9759WAT     H140841   6.795   7.837   7.144 -0.6758 -0.3621  0.0116
 9759WAT     H240842   6.921   7.764   7.185 -1.6511 -3.7949 -2.6658
 9759WAT    EPW40843   6.880   7.822   7.134 -0.7427 -0.6411 -0.1357
 9760WAT      O40844   9.465  10.020   7.189  0.4982  0.3963  0.7511
 9760WAT     H140845   9.498  10.047   7.275  0.3659  0.5909  0.7416
 9760WAT     H240846   9.371  10.007   7.202  0.7808 -1.4873  1.1089
 9760WAT    EPW40847   9.457  10.022   7.202  0.5178  0.1736  0.7968
 9761WAT      O40848   2.933   0.768   0.424 -0.3453  0.1327 -1.2228
 9761WAT     H140849   2.875   0.830   0.381 -2.5389  0.0484  1.2956
 9761WAT     H240850   2.881   0.735   0.498  2.8259 -0.2052  1.0577
 9761WAT    EPW40851   2.918   0.772   0.428 -0.2164  0.0771 -0.5899
 9762WAT      O40852   7.179   6.003   5.071 -0.2189  0.3713  0.5489
 9762WAT     H140853   7.124   6.005   4.992 -0.1130  1.1841  0.4889
 9762WAT     H240854   7.267   5.983   5.038 -0.5066 -1.2449  0.6772
 9762WAT    EPW40855   7.184   6.001   5.056 -0.2427  0.2654  0.5581
 9763WAT      O40856   8.702   7.523   4.814 -0.5204 -0.2236 -0.8172
 9763WAT     H140857   8.750   7.448   4.848 -1.4331  0.4829  2.3645
 9763WAT     H240858   8.614   7.488   4.796 -0.4055 -0.3149 -1.2105
 9763WAT    EPW40859   8.697   7.509   4.816 -0.6256 -0.1423 -0.4489
 9764WAT      O40860   0.629   0.509   8.229  0.3138  0.8972 -0.0974
 9764WAT     H140861   0.663   0.584   8.180 -0.5851 -0.4097 -2.9904
 9764WAT     H240862   0.540   0.535   8.252  0.1199  0.8962 -0.8002
 9764WAT    EPW40863   0.621   0.522   8.225  0.1697  0.7247 -0.5713
 9765WAT      O40864   5.779   7.525   7.904  0.5330  0.4879  0.2643
 9765WAT     H140865   5.870   7.506   7.881 -0.0047 -4.1784  0.9824
 9765WAT     H240866   5.769   7.492   7.993 -2.2575 -1.0649 -0.4964
 9765WAT    EPW40867   5.790   7.518   7.912  0.0939 -0.3321  0.2589
 9766WAT      O40868   6.222   7.458   8.397  0.2758  0.8167  0.0626
 9766WAT     H140869   6.247   7.528   8.337 -0.5311  0.2206 -1.0149
 9766WAT     H240870   6.162   7.403   8.346 -1.0481  0.6964  1.6475
 9766WAT    EPW40871   6.217   7.460   8.382 -0.0055  0.7222  0.1297
 9767WAT      O40872   9.181   6.480   7.989  0.5950  0.1458  0.4073
 9767WAT     H140873   9.255   6.466   8.047  1.7539 -1.8676 -1.4269
 9767WAT     H240874   9.121   6.407   8.007  0.2113  0.3988  0.1838
 9767WAT    EPW40875   9.183   6.469   7.999  0.6976 -0.0865  0.1361
 9768WAT      O40876   8.543   6.857   7.644 -0.1556 -0.2075  0.1658
 9768WAT     H140877   8.475   6.880   7.707 -1.9098 -0.4359 -1.5356
 9768WAT     H240878   8.524   6.766   7.620 -0.7459  0.4265 -2.0343
 9768WAT    EPW40879   8.532   6.848   7.649 -0.4654 -0.1540 -0.3486
 9769WAT      O40880   6.694   2.101   0.129 -0.0248  0.9532 -0.1901
 9769WAT     H140881   6.710   2.136   0.042  0.3589 -0.6257 -0.7869
 9769WAT     H240882   6.776   2.058   0.153 -0.2517  1.0454  0.8037
 9769WAT    EPW40883   6.707   2.100   0.121 -0.0043  0.7571 -0.1378
 9770WAT      O40884   8.711   7.326   4.515 -0.3869  0.0012 -0.4488
 9770WAT     H140885   8.761   7.248   4.540 -2.0112 -0.6393  1.0116
 9770WAT     H240886   8.685   7.366   4.598  0.6019  2.2878 -1.1511
 9770WAT    EPW40887   8.714   7.321   4.529 -0.4706  0.2186 -0.3490
 9771WAT      O40888   9.567   0.976   8.274 -0.4330  0.0198 -0.1470
 9771WAT     H140889   9.538   0.898   8.227 -2.4599  0.5818  0.0580
 9771WAT     H240890   9.524   0.968   8.360 -1.4823  1.8208 -0.4714
 9771WAT    EPW40891   9.558   0.965   8.279 -0.8383  0.3314 -0.1636
 9772WAT      O40892   8.299   6.388   7.686 -0.7924 -0.8492  0.7568
 9772WAT     H140893   8.330   6.359   7.772 -0.2973  0.7109  1.1394
 9772WAT     H240894   8.334   6.324   7.625  0.9852 -0.6117  1.4643
 9772WAT    EPW40895   8.307   6.376   7.690 -0.4926 -0.6123  0.9010
 9773WAT      O40896   6.748   8.739   7.049 -0.0432  0.2005  0.3014
 9773WAT     H140897   6.731   8.834   7.048 -0.6112  0.1228  1.3206
 9773WAT     H240898   6.830   8.730   7.000  0.1978  1.2607  0.4659
 9773WAT    EPW40899   6.757   8.751   7.043 -0.0863  0.3304  0.4575
 9774WAT      O40900   4.938   0.943   0.831  0.4333 -0.2245  0.5033
 9774WAT     H140901   4.957   1.007   0.762 -0.8121 -1.0235 -0.6296
 9774WAT     H240902   4.996   0.968   0.902  0.3027  1.9088 -0.0482
 9774WAT    EPW40903   4.948   0.955   0.831  0.2515 -0.0485  0.2812
 9775WAT      O40904   3.712   4.147   5.656  0.8640  0.3099  0.1332
 9775WAT     H140905   3.694   4.230   5.701 -3.0056 -0.3800  0.1936
 9775WAT     H240906   3.683   4.162   5.566 -0.9641 -1.1866  0.4026
 9775WAT    EPW40907   3.706   4.160   5.650  0.1127  0.0215  0.1767
 9776WAT      O40908   6.232   9.754   5.135 -0.1295  0.5919 -0.4263
 9776WAT     H140909   6.305   9.814   5.120  0.1471  0.1693 -0.7443
 9776WAT     H240910   6.210   9.768   5.228 -1.1816  2.4309 -0.8933
 9776WAT    EPW40911   6.238   9.764   5.146 -0.2317  0.7782 -0.5302
 9777WAT      O40912   7.218   6.185   7.380 -0.7498 -0.1694 -0.2488
 9777WAT     H140913   7.257   6.112   7.429 -1.0044 -1.0175 -1.2873
 9777WAT     H240914   7.277   6.198   7.306 -0.0213  1.5312  0.5580
 9777WAT    EPW40915   7.231   6.178   7.377 -0.6871 -0.0570 -0.2794
 9778WAT      O40916   8.838   7.355   5.036 -0.4000  0.0467  1.1202
 9778WAT     H140917   8.926   7.329   5.063 -0.3219  0.4019  1.2022
 9778WAT     H240918   8.785   7.276   5.051  0.6971 -1.7585 -3.0137
 9778WAT    EPW40919   8.842   7.341   5.041 -0.2456 -0.1445  0.5856
 9779WAT      O40920   7.499   5.422   6.653  0.0669  0.0135  0.2886
 9779WAT     H140921   7.555   5.355   6.613  0.3472  1.2971 -1.6052
 9779WAT     H240922   7.542   5.505   6.632 -2.5133  1.0760 -1.3765
 9779WAT    EPW40923   7.512   5.424   6.645 -0.2365  0.3231 -0.1807
 9780WAT      O40924   7.986   4.705   5.905  0.3725  0.2693  0.0532
 9780WAT     H140925   7.904   4.655   5.911  0.7677 -0.4055 -0.1572
 9780WAT     H240926   8.013   4.694   5.814  1.1064 -0.1557  0.3194
 9780WAT    EPW40927   7.978   4.697   5.894  0.5214  0.1242  0.0608
 9781WAT      O40928   7.973   7.131   5.731  0.3697 -0.2471  0.0043
 9781WAT     H140929   7.893   7.156   5.777  0.4097 -0.5412  0.2377
 9781WAT     H240930   7.944   7.077   5.658  0.3591 -0.3733  0.1032
 9781WAT    EPW40931   7.959   7.127   5.728  0.3738 -0.3026  0.0484
 9782WAT      O40932   1.104   0.438   7.510  0.1797 -0.2424  0.3384
 9782WAT     H140933   1.136   0.497   7.577 -1.7786 -2.3538  3.3969
 9782WAT     H240934   1.179   0.422   7.453  1.7276  2.2254  1.5510
 9782WAT    EPW40935   1.118   0.443   7.511  0.1255 -0.1954  0.9019
 9783WAT      O40936   7.557   7.973   5.433  0.7524  0.2182  0.1189
 9783WAT     H140937   7.543   7.916   5.509 -0.6220  0.1978 -0.1240
 9783WAT     H240938   7.488   7.948   5.371  1.8788  0.1926 -1.1777
 9783WAT    EPW40939   7.546   7.962   5.435  0.7200  0.2122 -0.0842
 9784WAT      O40940   2.920   5.186   0.406  0.5027 -0.2437 -0.5538
 9784WAT     H140941   3.001   5.155   0.447  1.2485  1.5272 -0.6099
 9784WAT     H240942   2.864   5.210   0.480  0.8709  0.5581 -0.5278
 9784WAT    EPW40943   2.924   5.185   0.421  0.6496  0.0956 -0.5578
 9785WAT      O40944  10.157   6.201   8.682 -0.1025  0.2254  0.0703
 9785WAT     H140945  10.198   6.233   8.602 -1.5402 -0.1643 -0.8698
 9785WAT     H240946  10.084   6.261   8.697 -1.5684 -1.3355 -0.5545
 9785WAT    EPW40947  10.153   6.213   8.673 -0.4859 -0.0319 -0.1359
 9786WAT      O40948   0.215   6.474   5.891  0.0551  0.2781 -0.4907
 9786WAT     H140949   0.194   6.381   5.900  2.0188 -0.1276  0.4560
 9786WAT     H240950   0.284   6.478   5.825 -1.1706  1.2955 -1.7855
 9786WAT    EPW40951   0.222   6.462   5.884  0.1524  0.3586 -0.5364
 9787WAT      O40952   5.468   3.065   2.120 -0.2351  1.3872  0.5054
 9787WAT     H140953   5.439   3.004   2.053  1.7329  1.7256 -0.7146
 9787WAT     H240954   5.509   3.010   2.187  0.8677  1.2685 -0.2402
 9787WAT    EPW40955   5.470   3.050   2.120  0.1698  1.4161  0.2460
 9788WAT      O40956   7.875   3.435   8.786  1.1048 -0.5376  0.1492
 9788WAT     H140957   7.794   3.484   8.768 -0.1980 -1.9728  1.8291
 9788WAT     H240958   7.885   3.378   8.710  1.3156  0.5772 -0.6946
 9788WAT    EPW40959   7.865   3.434   8.774  0.9611 -0.5800  0.2594
 9789WAT      O40960   4.323   1.155   0.464 -0.2532 -0.6848 -0.4270
 9789WAT     H140961   4.391   1.213   0.500  0.5582 -2.9690  2.0817
 9789WAT     H240962   4.338   1.156   0.370 -0.4751  3.2824 -0.6146
 9789WAT    EPW40963   4.334   1.163   0.457 -0.1752 -0.4628 -0.1208
 9790WAT      O40964   8.037   5.661   8.860 -0.0586 -0.6003  0.1015
 9790WAT     H140965   7.995   5.583   8.824 -2.2624  0.1320  0.8576
 9790WAT     H240966   8.038   5.724   8.788 -0.7664 -0.4656  0.1989
 9790WAT    EPW40967   8.031   5.659   8.846 -0.4435 -0.4859  0.2146
 9791WAT      O40968   5.367   4.950   5.074 -0.6887 -0.0872 -0.2584
 9791WAT     H140969   5.297   4.990   5.021 -0.7399 -0.8001 -0.7305
 9791WAT     H240970   5.389   5.018   5.139 -1.9319  0.0887  0.0048
 9791WAT    EPW40971   5.361   4.964   5.076 -0.8593 -0.1581 -0.2859
 9792WAT      O40972   9.325   7.955   3.267 -0.3857  0.7646 -0.5898
 9792WAT     H140973   9.399   7.996   3.222  0.7840 -0.0981  0.4479
 9792WAT     H240974   9.344   7.861   3.263 -1.4775  0.5151 -0.3471
 9792WAT    EPW40975   9.337   7.948   3.260 -0.3753  0.6180 -0.4210
 9793WAT      O40976   7.587   8.775   6.879 -0.8529 -0.3583  0.1976
 9793WAT     H140977   7.677   8.759   6.907 -0.6859 -0.6645 -0.4805
 9793WAT     H240978   7.565   8.860   6.916 -0.2546 -0.2437  0.3096
 9793WAT    EPW40979   7.596   8.784   6.887 -0.7517 -0.3829  0.1230
 9794WAT      O40980   5.842   8.023   6.158 -0.6165  0.6504 -0.5081
 9794WAT     H140981   5.844   7.983   6.245  0.6316  3.4242  0.8725
 9794WAT     H240982   5.933   8.049   6.142 -0.0651 -2.5975 -4.2119
 9794WAT    EPW40983   5.854   8.021   6.168 -0.3793  0.5879 -0.8144
 9795WAT      O40984   0.980   7.638   6.961  0.1222  0.3711 -0.0737
 9795WAT     H140985   1.069   7.616   6.932  0.2826  1.3154 -0.3154
 9795WAT     H240986   0.957   7.717   6.912 -0.7531  0.2902  0.1851
 9795WAT    EPW40987   0.989   7.645   6.951  0.0279  0.4852 -0.0713
 9796WAT      O40988   8.084   6.972   6.817 -0.1526  0.0995 -0.7525
 9796WAT     H140989   8.000   6.989   6.774  0.7681 -1.8332 -3.6188
 9796WAT     H240990   8.149   7.015   6.761  1.0840 -2.1900 -1.1949
 9796WAT    EPW40991   8.082   6.980   6.804  0.1326 -0.4575 -1.1890
 9797WAT      O40992   8.827   5.797   3.900  0.3901 -0.3954  0.2620
 9797WAT     H140993   8.787   5.768   3.818 -2.5228 -1.4562  1.8995
 9797WAT     H240994   8.812   5.891   3.901 -0.9614 -0.5844  0.2131
 9797WAT    EPW40995   8.820   5.805   3.889 -0.1721 -0.5600  0.4716
 9798WAT      O40996   7.744  10.307   6.794 -0.5527 -0.0190 -0.1370
 9798WAT     H140997   7.796  10.352   6.727  0.0316 -0.2747  0.1342
 9798WAT     H240998   7.808  10.252   6.840 -0.7391  0.9058  1.2880
 9798WAT    EPW40999   7.759  10.306   6.791 -0.5002  0.0696  0.0865
 9799WAT      O41000   7.056   8.849   7.580 -0.5992 -0.2161  0.4300
 9799WAT     H141001   7.044   8.774   7.523  1.3192  1.0028 -1.7453
 9799WAT     H241002   6.968   8.884   7.593 -1.5631 -2.7746  1.5789
 9799WAT    EPW41003   7.043   8.844   7.574 -0.4735 -0.3929  0.2947
 9800WAT      O41004   8.601   7.297   8.853  0.2267 -1.2366  0.4474
 9800WAT     H141005   8.556   7.277   8.770 -2.4054 -2.8965  2.1237
 9800WAT     H241006   8.601   7.392   8.858  0.5416 -1.0948 -1.4893
 9800WAT    EPW41007   8.595   7.307   8.843 -0.0787 -1.4369  0.4129
 9801WAT      O41008   9.555  10.202   3.808 -0.2235 -0.3783  0.4773
 9801WAT     H141009   9.623  10.259   3.843  0.4068 -0.2205 -0.9260
 9801WAT     H241010   9.482  10.261   3.789  0.1419 -0.1449 -0.2443
 9801WAT    EPW41011   9.554  10.218   3.810 -0.0920 -0.3271  0.1971
 9802WAT      O41012   6.545   7.862   6.368 -0.2154 -0.1519 -0.1918
 9802WAT     H141013   6.461   7.820   6.385  0.2468 -0.5527  1.2353
 9802WAT     H241014   6.525   7.956   6.364 -0.7871 -0.2785 -0.2773
 9802WAT    EPW41015   6.531   7.869   6.369 -0.2298 -0.2215 -0.0148
 9803WAT      O41016   9.897   7.537   6.597 -0.2153  0.6703  0.6682
 9803WAT     H141017   9.834   7.595   6.554 -0.0308  0.4890  0.1495
 9803WAT     H241018   9.845   7.460   6.622 -0.0083  0.0468 -0.7118
 9803WAT    EPW41019   9.882   7.534   6.595 -0.1631  0.5643  0.4177
 9804WAT      O41020   1.205   6.543   5.728 -0.2556  0.4651  0.5747
 9804WAT     H141021   1.119   6.581   5.746 -0.4633  0.5237 -0.4537
 9804WAT     H241022   1.233   6.506   5.811 -2.9053 -2.8100  0.2039
 9804WAT    EPW41023   1.198   6.543   5.741 -0.6324  0.0410  0.3901
 9805WAT      O41024   8.009   1.230   0.698  0.5610 -0.1512 -0.3471
 9805WAT     H141025   7.927   1.270   0.667  0.7414  0.2000 -0.3778
 9805WAT     H241026   8.055   1.204   0.618  0.0558 -1.2188 -0.3050
 9805WAT    EPW41027   8.004   1.232   0.684  0.5178 -0.2457 -0.3456
 9806WAT      O41028   1.328   1.903   2.176  0.0635  0.0423  0.8145
 9806WAT     H141029   1.261   1.839   2.200  0.0634  0.6896  2.7017
 9806WAT     H241030   1.282   1.986   2.175  0.8142  0.5143  2.2466
 9806WAT    EPW41031   1.313   1.905   2.179  0.1624  0.1900  1.2523
 9807WAT      O41032   9.061   8.780   3.630  0.2464 -0.1167 -0.4883
 9807WAT     H141033   9.034   8.691   3.651  2.5463 -0.4013  1.7007
 9807WAT     H241034   8.993   8.811   3.569 -1.0560 -3.0347 -0.7302
 9807WAT    EPW41035   9.048   8.772   3.625  0.3772 -0.5393 -0.2315
 9808WAT      O41036   1.580   5.552   0.677 -0.3957 -0.5867 -0.2465
 9808WAT     H141037   1.612   5.464   0.697 -1.1975 -0.5960  1.1448
 9808WAT     H241038   1.653   5.594   0.632  0.7609 -1.3238  0.8452
 9808WAT    EPW41039   1.594   5.546   0.674 -0.3489 -0.6855  0.0810
 9809WAT      O41040  10.273  10.145   6.788 -0.1177 -0.5591 -0.1267
 9809WAT     H141041  10.359  10.150   6.746  0.7853  0.2939  1.6944
 9809WAT     H241042  10.219  10.094   6.727  1.2106  0.2198 -2.0584
 9809WAT    EPW41043  10.277  10.139   6.774  0.1764 -0.3443 -0.1414
 9810WAT      O41044  10.870   6.809   4.869  0.4226 -0.7726  0.6388
 9810WAT     H141045  10.807   6.875   4.899  1.3379 -0.2193  1.4033
 9810WAT     H241046  10.837   6.782   4.783  0.2692  1.0200  0.0940
 9810WAT    EPW41047  10.857   6.814   4.862  0.5231 -0.4632  0.6678
 9811WAT      O41048   9.066   8.376   7.505 -0.1874  0.1402  0.7304
 9811WAT     H141049   9.005   8.309   7.476 -2.5597  2.1101  0.9196
 9811WAT     H241050   9.079   8.432   7.429  0.6504  0.2929  0.9721
 9811WAT    EPW41051   9.060   8.374   7.491 -0.3896  0.4206  0.7873
 9812WAT      O41052   0.183   7.610   5.611  0.4047  0.1716  0.7398
 9812WAT     H141053   0.197   7.671   5.538 -2.8921 -0.8649 -0.9557
 9812WAT     H241054   0.266   7.564   5.620  2.0692  2.8173  0.1596
 9812WAT    EPW41055   0.195   7.612   5.603  0.1894  0.3836  0.4399
 9813WAT      O41056   9.005   9.820   6.361 -0.3443 -0.4647 -0.7407
 9813WAT     H141057   9.068   9.841   6.430 -1.7469  1.5856  0.0226
 9813WAT     H241058   9.032   9.734   6.328  0.9008 -1.0937  1.7393
 9813WAT    EPW41059   9.017   9.811   6.365 -0.3653 -0.2775 -0.3130
 9814WAT      O41060   5.254   6.675   1.810 -0.5540 -0.3301 -0.2807
 9814WAT     H141061   5.343   6.665   1.776 -0.0151 -0.0232  0.9872
 9814WAT     H241062   5.217   6.587   1.804  0.5772 -0.9559  1.1266
 9814WAT    EPW41063   5.261   6.662   1.805 -0.3338 -0.3722  0.0722
 9815WAT      O41064   1.463   7.285   4.810 -0.1933  0.0927 -0.4358
 9815WAT     H141065   1.476   7.334   4.891 -1.1343 -0.5787  0.1502
 9815WAT     H241066   1.544   7.235   4.800 -1.7440 -3.6334  2.8498
 9815WAT    EPW41067   1.475   7.285   4.820 -0.5220 -0.4871  0.0749
 9816WAT      O41068   7.035   7.150   8.534  0.4711 -0.1388 -0.5807
 9816WAT     H141069   7.032   7.118   8.624  1.1961  1.1590 -0.0669
 9816WAT     H241070   7.093   7.089   8.489 -0.0540 -0.9142 -0.2375
 9816WAT    EPW41071   7.042   7.138   8.540  0.4973 -0.0699 -0.4673
 9817WAT      O41072   0.409   9.120   7.218 -0.2109  0.3624  0.2572
 9817WAT     H141073   0.360   9.158   7.291 -0.9564 -0.2634  0.0999
 9817WAT     H241074   0.450   9.194   7.174 -0.3790  0.8167  0.8613
 9817WAT    EPW41075   0.408   9.135   7.222 -0.3314  0.3395  0.3161
 9818WAT      O41076   5.488   8.987   3.717 -0.1384 -0.0036  0.4135
 9818WAT     H141077   5.554   8.970   3.784 -0.9945  1.6236  1.7629
 9818WAT     H241078   5.509   9.075   3.685  0.1698 -0.7037 -1.3935
 9818WAT    EPW41079   5.499   8.997   3.722 -0.2110  0.1192  0.3531
 9819WAT      O41080   5.782   8.807   6.209  0.4356 -0.2226 -0.1242
 9819WAT     H141081   5.779   8.715   6.181  1.1265 -0.2204 -0.2157
 9819WAT     H241082   5.756   8.804   6.301 -1.4818 -0.2673 -0.6237
 9819WAT    EPW41083   5.778   8.794   6.217  0.2737 -0.2275 -0.2022
 9820WAT      O41084   0.714   7.742   8.198  0.7180 -0.6125  0.5723
 9820WAT     H141085   0.795   7.790   8.183 -0.5129  0.4842 -4.0040
 9820WAT     H241086   0.645   7.808   8.192 -0.7522 -2.1551 -0.7172
 9820WAT    EPW41087   0.716   7.757   8.196  0.3617 -0.6714 -0.2012
 9821WAT      O41088  10.006   8.348   8.071 -0.2583  0.2070  0.7996
 9821WAT     H141089  10.016   8.315   8.161 -1.1949 -0.6604  0.6127
 9821WAT     H241090   9.997   8.443   8.081  2.5882  0.4960  1.3643
 9821WAT    EPW41091  10.006   8.356   8.084 -0.0062  0.1307  0.8492
 9822WAT      O41092   9.285  10.136   7.454 -0.1421 -0.3180 -0.1520
 9822WAT     H141093   9.269  10.212   7.398 -0.6673  0.2690  0.7667
 9822WAT     H241094   9.343  10.168   7.523 -0.6761 -0.6260  0.4624
 9822WAT    EPW41095   9.290  10.150   7.456 -0.2818 -0.2813  0.0501
 9823WAT      O41096   8.456   7.412   7.737  0.7016 -0.0953 -0.3012
 9823WAT     H141097   8.548   7.430   7.754  0.7363 -2.3549  2.5481
 9823WAT     H241098   8.413   7.428   7.821 -1.0795 -1.5769 -0.8844
 9823WAT    EPW41099   8.462   7.417   7.750  0.4706 -0.5887 -0.0024
 9824WAT      O41100   5.265   4.353   2.040 -0.3425  0.4731 -0.0768
 9824WAT     H141101   5.254   4.366   2.134  0.2101 -1.4815  0.3075
 9824WAT     H241102   5.229   4.266   2.024 -0.4406  0.7841 -1.6986
 9824WAT    EPW41103   5.259   4.344   2.051 -0.2828  0.2563 -0.2400
 9825WAT      O41104   9.776   8.575   7.112 -0.2684 -0.2185  0.4120
 9825WAT     H141105   9.813   8.657   7.078 -1.0376  0.3832  1.0074
 9825WAT     H241106   9.704   8.555   7.051  0.4235 -0.9012 -0.2078
 9825WAT    EPW41107   9.772   8.583   7.099 -0.2785 -0.2289  0.4091
 9826WAT      O41108   6.519   6.830   5.842  0.0844 -0.3375  0.4388
 9826WAT     H141109   6.461   6.755   5.838 -1.4463  0.7549  1.1090
 9826WAT     H241110   6.490   6.880   5.919  0.1514  1.6213 -0.7257
 9826WAT    EPW41111   6.508   6.827   5.852 -0.1090  0.0648  0.3734
 9827WAT      O41112   9.676   8.741   2.559 -0.3363 -0.0591 -0.5701
 9827WAT     H141113   9.641   8.652   2.547 -1.2836  0.1019  0.7092
 9827WAT     H241114   9.604   8.798   2.535 -0.1021  0.3337 -0.3514
 9827WAT    EPW41115   9.662   8.737   2.555 -0.4301  0.0138 -0.3725
 9828WAT      O41116   0.948   8.513   6.720  0.3419 -0.0418 -0.3834
 9828WAT     H141117   0.931   8.597   6.679  1.7984 -0.0919 -1.1645
 9828WAT     H241118   0.989   8.460   6.651 -3.0420 -2.3917 -0.8211
 9828WAT    EPW41119   0.951   8.517   6.705  0.0877 -0.3581 -0.5441
 9829WAT      O41120   7.600   4.645   0.533 -0.1356 -0.4015  0.6761
 9829WAT     H141121   7.564   4.730   0.508  1.1319  0.1136  0.5461
 9829WAT     H241122   7.641   4.612   0.454 -1.5195 -1.6521  0.4247
 9829WAT    EPW41123   7.600   4.652   0.520 -0.1509 -0.4985  0.6258
 9830WAT      O41124   3.296   6.307   0.115  0.3668  0.5167 -0.4443
 9830WAT     H141125   3.385   6.340   0.125  0.1802  0.4396  2.7172
 9830WAT     H241126   3.248   6.348   0.187 -0.3176 -4.9420  2.7521
 9830WAT    EPW41127   3.302   6.317   0.126  0.2520 -0.2131  0.3942
 9831WAT      O41128   8.278   4.405   0.449  1.2570 -0.0787 -0.4471
 9831WAT     H141129   8.250   4.497   0.451 -0.9630 -0.7270  0.7641
 9831WAT     H241130   8.321   4.392   0.534 -4.4915 -1.7331  2.7669
 9831WAT    EPW41131   8.280   4.416   0.461  0.2065 -0.3822  0.1365
 9832WAT      O41132  10.123   6.835   7.175 -0.1657 -0.2068 -0.3708
 9832WAT     H141133  10.184   6.838   7.101 -0.7165 -2.6497 -1.0286
 9832WAT     H241134  10.110   6.741   7.190  0.6401  0.1575  3.4619
 9832WAT    EPW41135  10.129   6.823   7.167 -0.1321 -0.4811  0.0479
 9833WAT      O41136   8.788   8.366   3.110  0.4701  0.4385 -0.2221
 9833WAT     H141137   8.754   8.344   3.196 -1.0743  1.3195 -0.5825
 9833WAT     H241138   8.881   8.384   3.125  0.1857  0.7442  1.2794
 9833WAT    EPW41139   8.796   8.366   3.123  0.2289  0.5956 -0.0715
 9834WAT      O41140   8.390   6.451   4.383  0.0006  0.3966 -0.1433
 9834WAT     H141141   8.484   6.437   4.388  0.0302  0.8302  0.7400
 9834WAT     H241142   8.377   6.501   4.303  0.8884  2.9539  1.1953
 9834WAT    EPW41143   8.401   6.456   4.373  0.1221  0.7908  0.1500
 9835WAT      O41144   5.437   6.379   6.934  0.5190 -0.3839  0.6727
 9835WAT     H141145   5.523   6.341   6.916  1.0216  0.9956  0.0819
 9835WAT     H241146   5.455   6.458   6.985 -0.3928  0.0014  0.4195
 9835WAT    EPW41147   5.451   6.384   6.939  0.4649 -0.1512  0.5615
 9836WAT      O41148   4.593   8.522   7.401  0.1110  0.1545 -0.3819
 9836WAT     H141149   4.632   8.498   7.317  0.3921 -0.9472  0.0436
 9836WAT     H241150   4.527   8.454   7.417  1.3235 -0.7181  1.1480
 9836WAT    EPW41151   4.589   8.510   7.392  0.3080 -0.1059 -0.1240
 9837WAT      O41152   7.727   0.533   2.772 -0.0409  0.4187  0.6006
 9837WAT     H141153   7.632   0.517   2.768  0.0933 -1.1362  2.4327
 9837WAT     H241154   7.735   0.615   2.820 -0.4567  1.5672 -1.1711
 9837WAT    EPW41155   7.715   0.542   2.778 -0.0780  0.3651  0.6086
 9838WAT      O41156   2.245   3.236   1.284  0.4406  0.2612 -0.0334
 9838WAT     H141157   2.168   3.268   1.237  1.7834 -0.2436 -2.7652
 9838WAT     H241158   2.253   3.144   1.258  0.8658 -0.2707  1.8138
 9838WAT    EPW41159   2.236   3.228   1.274  0.6739  0.1243 -0.1501
 9839WAT      O41160   7.548   7.499   7.400  0.6927  0.2602 -0.1370
 9839WAT     H141161   7.632   7.485   7.443  0.1639  0.0437  0.8459
 9839WAT     H241162   7.486   7.510   7.472 -0.8001 -3.2388 -0.7072
 9839WAT    EPW41163   7.551   7.499   7.415  0.4261 -0.2296 -0.0830
 9840WAT      O41164   9.151   9.383   8.268 -0.2745  0.2630 -0.1853
 9840WAT     H141165   9.229   9.438   8.259 -0.6966  0.7551 -1.0388
 9840WAT     H241166   9.185   9.295   8.284  0.4283  0.6210  0.3349
 9840WAT    EPW41167   9.165   9.378   8.269 -0.2375  0.3753 -0.2294
 9841WAT      O41168   9.898   8.905   6.464 -0.1258  0.0140  0.3782
 9841WAT     H141169   9.950   8.829   6.441 -1.3154 -0.7849  0.2592
 9841WAT     H241170   9.873   8.944   6.380 -0.4286 -0.1020  0.4134
 9841WAT    EPW41171   9.901   8.900   6.450 -0.3223 -0.1063  0.3669
 9842WAT      O41172   3.451   6.204   0.875  0.2657  0.1703  0.3960
 9842WAT     H141173   3.511   6.269   0.913  0.3922  1.1067 -1.3078
 9842WAT     H241174   3.418   6.246   0.796 -0.5296 -1.4249 -0.1481
 9842WAT    EPW41175   3.455   6.218   0.870  0.1775  0.0837  0.0995
 9843WAT      O41176   5.912   4.697   6.960 -0.2057 -0.3764  0.2951
 9843WAT     H141177   5.919   4.768   6.896 -1.1527 -1.6063 -1.2406
 9843WAT     H241178   5.920   4.740   7.045  0.5284  1.3825 -0.6250
 9843WAT    EPW41179   5.914   4.712   6.963 -0.2339 -0.3066 -0.0288
 9844WAT      O41180   8.025   5.052   5.625 -0.1733 -0.6026  0.1919
 9844WAT     H141181   7.968   5.096   5.562  0.9592 -0.0158 -0.4662
 9844WAT     H241182   7.998   5.087   5.710 -1.2851 -0.9141 -0.0109
 9844WAT    EPW41183   8.014   5.063   5.628 -0.1707 -0.5662  0.0780
 9845WAT      O41184   4.199   0.256   7.790  0.0331  0.5268  0.1538
 9845WAT     H141185   4.181   0.188   7.725 -0.6597  0.9147 -0.0659
 9845WAT     H241186   4.121   0.259   7.845 -0.0939  1.3937 -0.0624
 9845WAT    EPW41187   4.187   0.247   7.789 -0.0749  0.6923  0.0966
 9846WAT      O41188   7.137   6.064   6.728  0.1450 -0.4300 -0.4361
 9846WAT     H141189   7.092   6.052   6.812  1.9116 -1.5944  0.3966
 9846WAT     H241190   7.066   6.062   6.663 -1.0482 -2.0447  0.8222
 9846WAT    EPW41191   7.122   6.062   6.731  0.2210 -0.7968 -0.1602
 9847WAT      O41192   0.359   5.717   4.138  0.1594 -0.6096 -0.2357
 9847WAT     H141193   0.265   5.718   4.125  0.2036 -0.6839 -0.5798
 9847WAT     H241194   0.391   5.794   4.091  0.4373 -1.4915 -1.5676
 9847WAT    EPW41195   0.351   5.727   4.130  0.2019 -0.7355 -0.4566
 9848WAT      O41196   2.398   0.479   7.775  0.7735  0.3672 -0.5799
 9848WAT     H141197   2.338   0.421   7.822  1.8617 -1.6323 -1.5397
 9848WAT     H241198   2.478   0.478   7.827  0.5830  1.6256 -0.2300
 9848WAT    EPW41199   2.400   0.471   7.788  0.8918  0.2695 -0.6604
 9849WAT      O41200   4.779   9.681   7.296  0.3113 -0.1017 -0.6339
 9849WAT     H141201   4.776   9.663   7.390 -1.8022 -0.3278 -0.6990
 9849WAT     H241202   4.847   9.623   7.263 -0.7764 -2.0820  0.3730
 9849WAT    EPW41203   4.788   9.671   7.304 -0.1111 -0.3929 -0.5097
 9850WAT      O41204  10.892   8.553   8.228  0.2696  0.1426 -0.0347
 9850WAT     H141205  10.897   8.463   8.259 -1.2594 -0.0103 -0.1516
 9850WAT     H241206  10.819   8.591   8.278 -0.8416  0.5145 -1.8358
 9850WAT    EPW41207  10.883   8.546   8.239 -0.0782  0.1712 -0.2875
 9851WAT      O41208   0.228   7.364   4.558 -0.7729  0.1928  0.7076
 9851WAT     H141209   0.284   7.441   4.570 -0.9114  0.3953  0.0762
 9851WAT     H241210   0.142   7.400   4.535 -0.7739 -0.1557  0.1567
 9851WAT    EPW41211   0.224   7.379   4.557 -0.7913  0.1738  0.5517
 9852WAT      O41212   7.343   8.154   7.454 -0.2830 -0.4120 -0.0052
 9852WAT     H141213   7.282   8.190   7.519  0.6541 -0.4370  0.9194
 9852WAT     H241214   7.367   8.069   7.489 -1.6632 -1.5446 -1.6512
 9852WAT    EPW41215   7.338   8.148   7.467 -0.3414 -0.5651 -0.1001
 9853WAT      O41216  10.967   9.172   6.499  0.5675  0.0427  0.0471
 9853WAT     H141217  10.933   9.097   6.547  0.6036 -0.3593 -0.5399
 9853WAT     H241218  11.062   9.166   6.510  0.6480 -0.6706 -0.9600
 9853WAT    EPW41219  10.975   9.162   6.507  0.5827 -0.1044 -0.1633
 9854WAT      O41220   5.359   6.417   2.578 -0.0444  0.0896 -0.6843
 9854WAT     H141221   5.387   6.354   2.512  0.6345 -2.7235  2.0549
 9854WAT     H241222   5.265   6.426   2.565 -0.2830 -2.1104 -0.7126
 9854WAT    EPW41223   5.350   6.410   2.568  0.0138 -0.5720 -0.3266
 9855WAT      O41224  10.971   5.028   8.658 -0.1061  0.6825  0.2072
 9855WAT     H141225  10.982   5.114   8.618  0.8754  1.8360  2.7620
 9855WAT     H241226  10.971   5.044   8.752 -1.7626 -1.9335  0.7736
 9855WAT    EPW41227  10.972   5.041   8.665 -0.1955  0.4895  0.6185
 9856WAT      O41228   7.781   8.676   3.797  0.4826 -1.0757 -0.5323
 9856WAT     H141229   7.727   8.738   3.847  2.3061  0.1233  0.0683
 9856WAT     H241230   7.759   8.693   3.706 -1.2779 -1.7368 -0.2671
 9856WAT    EPW41231   7.771   8.686   3.792  0.4909 -1.0047 -0.4179
 9857WAT      O41232   5.908   0.230   7.733 -0.2851 -0.0843  0.8111
 9857WAT     H141233   5.962   0.204   7.807 -1.0701  1.8317  2.1321
 9857WAT     H241234   5.826   0.182   7.745 -0.0812 -0.5008  0.6064
 9857WAT    EPW41235   5.904   0.220   7.744 -0.3619  0.1135  0.9584
 9858WAT      O41236   8.321   8.566   7.874 -0.1959  0.1046  0.4740
 9858WAT     H141237   8.342   8.486   7.922 -0.4529 -1.3069 -1.6236
 9858WAT     H241238   8.359   8.637   7.926 -0.8026 -1.2692  2.8908
 9858WAT    EPW41239   8.329   8.565   7.887 -0.3099 -0.2627  0.5162
 9859WAT      O41240   1.602   7.074   7.632 -0.0211  0.1311 -0.3007
 9859WAT     H141241   1.694   7.097   7.628 -0.1539  0.5162 -2.3671
 9859WAT     H241242   1.559   7.135   7.572 -1.5822 -0.2417  0.3734
 9859WAT    EPW41243   1.608   7.085   7.623 -0.2445  0.1326 -0.4842
 9860WAT      O41244   7.801   3.571   1.596 -0.1779  0.0327  0.0133
 9860WAT     H141245   7.784   3.518   1.519 -0.5458  0.0652  0.0701
 9860WAT     H241246   7.833   3.655   1.562  0.6185 -0.2974 -0.0697
 9860WAT    EPW41247   7.803   3.575   1.582 -0.1214 -0.0067  0.0098
 9861WAT      O41248   7.331   2.565   1.220 -0.0461  0.0074 -0.4285
 9861WAT     H141249   7.299   2.548   1.309  2.6111  0.5900  0.7226
 9861WAT     H241250   7.404   2.625   1.233  0.2001  0.3573 -3.0751
 9861WAT    EPW41251   7.336   2.571   1.234  0.3366  0.1303 -0.6257
 9862WAT      O41252   1.103   7.852   6.773  0.3543  0.2991 -0.4523
 9862WAT     H141253   1.156   7.931   6.758 -0.6218  0.8155 -1.3081
 9862WAT     H241254   1.168   7.782   6.784  1.2282  1.0866 -0.4300
 9862WAT    EPW41255   1.119   7.853   6.772  0.3409  0.4714 -0.5622
 9863WAT      O41256   9.343   9.499   8.485  0.1596  0.7826 -0.4882
 9863WAT     H141257   9.401   9.574   8.475  1.7775 -0.2087  0.9059
 9863WAT     H241258   9.392   9.437   8.539 -2.1484 -0.1816  0.6525
 9863WAT    EPW41259   9.357   9.500   8.491  0.0687  0.5245 -0.1545
 9864WAT      O41260   9.557   8.868   3.711 -0.8122  0.0191  0.5872
 9864WAT     H141261   9.630   8.809   3.692 -0.1766 -0.0092  2.7628
 9864WAT     H241262   9.592   8.928   3.777 -1.8937  1.9256 -0.4853
 9864WAT    EPW41263   9.571   8.868   3.717 -0.8712  0.2670  0.7329
 9865WAT      O41264   7.330   9.317   0.278 -0.2766  0.1825 -0.4137
 9865WAT     H141265   7.259   9.377   0.299  0.2855  0.2565  1.3983
 9865WAT     H241266   7.348   9.270   0.359  0.2649 -1.4311 -1.4117
 9865WAT    EPW41267   7.323   9.319   0.291 -0.1311 -0.0200 -0.3063
 9866WAT      O41268   0.434   9.111   8.459 -0.4516  0.1845  0.7484
 9866WAT     H141269   0.364   9.165   8.421  2.6692  2.3943 -2.5047
 9866WAT     H241270   0.388   9.046   8.512 -4.7173  4.0012  2.3661
 9866WAT    EPW41271   0.419   9.110   8.461 -0.6026  0.9794  0.5326
 9867WAT      O41272   7.861   6.247   7.369 -0.0409  0.0458  0.0732
 9867WAT     H141273   7.851   6.228   7.463  0.2715 -2.7344 -0.3938
 9867WAT     H241274   7.829   6.337   7.360  0.5202  0.6276  2.9337
 9867WAT    EPW41275   7.855   6.256   7.381  0.0744 -0.2441  0.3889
 9868WAT      O41276   2.651   9.966   2.790 -0.3611  0.4994  0.2659
 9868WAT     H141277   2.714   9.979   2.719  0.9643 -0.6948  1.1696
 9868WAT     H241278   2.616   9.878   2.774 -1.0929  0.7757  0.3249
 9868WAT    EPW41279   2.655   9.956   2.778 -0.2828  0.3786  0.3929
 9869WAT      O41280   3.385   2.429   0.419 -0.7966  0.0295  0.0142
 9869WAT     H141281   3.367   2.503   0.361  3.0645 -0.2545 -1.8343
 9869WAT     H241282   3.369   2.352   0.364 -0.4950 -0.3643  0.4793
 9869WAT    EPW41283   3.380   2.429   0.404 -0.2477 -0.0598 -0.1682
 9870WAT      O41284   5.217   5.774   0.736  0.0034  0.4887  0.3231
 9870WAT     H141285   5.192   5.708   0.671 -1.0578  1.2893 -0.1117
 9870WAT     H241286   5.264   5.840   0.685  0.5372  0.3764  0.6582
 9870WAT    EPW41287   5.220   5.774   0.721 -0.0660  0.5794  0.3100
 9871WAT      O41288   6.486   8.404   8.439 -0.3291  0.2486 -0.3090
 9871WAT     H141289   6.516   8.343   8.505  1.5916  0.7968 -0.6124
 9871WAT     H241290   6.533   8.486   8.459 -1.2757  1.0175 -1.1226
 9871WAT    EPW41291   6.496   8.407   8.450 -0.2005  0.4215 -0.4563
 9872WAT      O41292  10.067   9.777   4.991  0.1468 -0.3378  0.2144
 9872WAT     H141293  10.138   9.774   4.928 -1.5208 -0.5743 -1.7731
 9872WAT     H241294  10.098   9.726   5.066  2.3007  0.1822 -0.2826
 9872WAT    EPW41295  10.080   9.770   4.993  0.2108 -0.3004 -0.1132
 9873WAT      O41296   9.406   7.900   6.725  0.3757  0.3879  0.1746
 9873WAT     H141297   9.461   7.833   6.766  1.6626  0.3081 -1.5578
 9873WAT     H241298   9.348   7.930   6.795  3.2656  1.1785  2.3933
 9873WAT    EPW41299   9.406   7.895   6.740  0.9265  0.4818  0.2389
 9874WAT      O41300   6.707   6.963   6.688 -0.1964 -0.2119  0.4420
 9874WAT     H141301   6.739   7.052   6.698 -0.2408 -0.3240  1.7592
 9874WAT     H241302   6.722   6.942   6.595 -1.2541  1.5590 -0.1879
 9874WAT    EPW41303   6.713   6.972   6.677 -0.3417  0.0072  0.5326
 9875WAT      O41304   8.878   8.581   6.346 -0.2725 -0.0526  0.2878
 9875WAT     H141305   8.969   8.585   6.318 -0.2510 -0.2370  0.3338
 9875WAT     H241306   8.866   8.661   6.398 -1.0410  1.7258 -2.4088
 9875WAT    EPW41307   8.888   8.592   6.349 -0.3715  0.1574 -0.0618
 9876WAT      O41308   9.786  10.235   6.477  0.6771  0.1628  0.3949
 9876WAT     H141309   9.809  10.327   6.471 -0.8534  0.9867  4.2370
 9876WAT     H241310   9.692  10.235   6.498  0.9164 -2.1276  1.9032
 9876WAT    EPW41311   9.777  10.247   6.479  0.5064 -0.0305  1.1005
 9877WAT      O41312   2.163   1.950   4.779  0.0474  0.2924 -0.3129
 9877WAT     H141313   2.158   2.045   4.780  1.9066  0.4168  0.5487
 9877WAT     H241314   2.181   1.925   4.869  1.7145 -0.6899 -0.8618
 9877WAT    EPW41315   2.165   1.959   4.791  0.5125  0.1792 -0.2720
 9878WAT      O41316   6.958   1.154   6.890  0.4840  0.1941  0.4483
 9878WAT     H141317   7.034   1.118   6.844 -1.3319 -3.3708 -0.2107
 9878WAT     H241318   6.937   1.088   6.957 -3.0220 -0.0704 -0.6545
 9878WAT    EPW41319   6.965   1.140   6.893 -0.2179 -0.3109  0.2158
 9879WAT      O41320   8.513   6.468   8.966  0.3527 -0.6465  0.0286
 9879WAT     H141321   8.488   6.536   8.903  1.6218 -1.8223 -1.8529
 9879WAT     H241322   8.430   6.425   8.988 -0.2054  0.1887 -0.3555
 9879WAT    EPW41323   8.498   6.471   8.960  0.4468 -0.6914 -0.2704
 9880WAT      O41324   8.153   7.903   7.023  0.8070 -0.2133  0.3380
 9880WAT     H141325   8.179   7.985   7.063 -2.1432  1.0237 -0.0281
 9880WAT     H241326   8.158   7.839   7.094  0.6287  0.8371  1.3244
 9880WAT    EPW41327   8.157   7.905   7.038  0.3943  0.0885  0.4199
 9881WAT      O41328   6.282   5.207   0.278  0.8702  0.5230  0.3199
 9881WAT     H141329   6.325   5.233   0.197 -0.3060  0.1669 -0.4327
 9881WAT     H241330   6.230   5.131   0.255 -0.8370  1.4257  0.9868
 9881WAT    EPW41331   6.281   5.201   0.265  0.4897  0.5951  0.3086
 9882WAT      O41332   0.680   0.220   7.429  1.0497  0.9317  0.6720
 9882WAT     H141333   0.629   0.190   7.504 -0.7062  1.2141 -0.3582
 9882WAT     H241334   0.624   0.285   7.386  1.9075  0.6263 -0.9840
 9882WAT    EPW41335   0.666   0.224   7.433  0.9313  0.9286  0.3178
 9883WAT      O41336   3.017   5.540   1.284  0.6922 -0.7789  0.0615
 9883WAT     H141337   2.969   5.622   1.278  0.3716 -0.7348  2.2575
 9883WAT     H241338   3.009   5.501   1.197  1.8057  1.9787 -1.4110
 9883WAT    EPW41339   3.010   5.545   1.272  0.7968 -0.4094  0.1569
 9884WAT      O41340   5.743   5.671   6.808  0.3526  0.3373  1.4723
 9884WAT     H141341   5.799   5.695   6.734  0.3215 -0.3927  1.2068
 9884WAT     H241342   5.679   5.742   6.814 -1.1273 -0.7136 -0.6989
 9884WAT    EPW41343   5.742   5.683   6.799  0.1533  0.1023  1.1508
 9885WAT      O41344   6.065   5.809   0.150 -0.9601  0.2354  0.0614
 9885WAT     H141345   6.155   5.802   0.120 -0.8784 -0.3812  0.4137
 9885WAT     H241346   6.017   5.845   0.076 -0.2709  1.4476  0.1779
 9885WAT    EPW41347   6.070   5.813   0.136 -0.8585  0.3140  0.1232
 9886WAT      O41348  10.410   8.694   4.020 -0.2947  0.3175  0.2102
 9886WAT     H141349  10.439   8.749   3.947 -1.9881  0.0627 -0.7137
 9886WAT     H241350  10.490   8.673   4.067  0.7780  1.0110 -1.2153
 9886WAT    EPW41351  10.424   8.699   4.017 -0.3767  0.3757 -0.0997
 9887WAT      O41352   9.962   7.254   3.660  0.5959 -0.1245 -0.1954
 9887WAT     H141353   9.969   7.235   3.754 -1.9469 -1.3860 -0.1843
 9887WAT     H241354  10.007   7.181   3.618 -0.5673 -0.9895  0.0251
 9887WAT    EPW41355   9.969   7.242   3.667  0.1068 -0.4053 -0.1649
 9888WAT      O41356   8.929   6.631   7.877  0.2651  0.2329 -0.2926
 9888WAT     H141357   9.014   6.590   7.889  0.5273 -0.1736 -2.8288
 9888WAT     H241358   8.940   6.721   7.907  1.2661 -0.1174  0.4115
 9888WAT    EPW41359   8.941   6.637   7.882  0.4320  0.1330 -0.5343
 9889WAT      O41360   8.132   7.968   7.374 -0.2440 -0.1729  0.0368
 9889WAT     H141361   8.187   7.932   7.304  0.8484  0.2986  0.6161
 9889WAT     H241362   8.139   8.063   7.363 -2.4310 -0.0757 -0.9720
 9889WAT    EPW41363   8.140   7.976   7.363 -0.3886 -0.0980 -0.0196
 9890WAT      O41364   7.923   4.323   0.222 -0.5303 -0.0400  0.2273
 9890WAT     H141365   7.862   4.397   0.224 -3.0443 -1.9572 -0.4262
 9890WAT     H241366   7.949   4.317   0.130 -1.2413 -0.6329  0.0575
 9890WAT    EPW41367   7.919   4.332   0.210 -0.9558 -0.3710  0.1187
 9891WAT      O41368   9.940   8.278   6.685 -0.3064  0.0594  0.0810
 9891WAT     H141369   9.855   8.255   6.723 -0.3255  1.1213  0.6933
 9891WAT     H241370  10.004   8.239   6.744 -0.3027 -2.9923 -1.7315
 9891WAT    EPW41371   9.937   8.270   6.697 -0.3080 -0.2027 -0.0772
 9892WAT      O41372   9.179   6.208   4.961  0.4425  0.6724 -0.0415
 9892WAT     H141373   9.268   6.221   4.929  1.1038 -3.4268 -0.5231
 9892WAT     H241374   9.128   6.185   4.882 -0.4413  0.6730  0.5126
 9892WAT    EPW41375   9.184   6.206   4.946  0.4134  0.1318 -0.0319
 9893WAT      O41376   9.292   9.120   6.249  0.5707 -0.6911  0.2693
 9893WAT     H141377   9.336   9.154   6.327  4.3194 -4.3982  0.1173
 9893WAT     H241378   9.333   9.166   6.176 -0.8186  0.6453  0.2756
 9893WAT    EPW41379   9.303   9.130   6.250  0.8821 -1.0042  0.2499
 9894WAT      O41380   8.531   7.862   6.216  0.1853 -0.4620 -0.1779
 9894WAT     H141381   8.575   7.875   6.301  2.4380 -1.1191 -1.1720
 9894WAT     H241382   8.532   7.949   6.176  1.0955 -0.5812 -0.4215
 9894WAT    EPW41383   8.537   7.875   6.222  0.6022 -0.5643 -0.3414
 9895WAT      O41384   7.721   7.414   5.965  0.3247  0.4905 -0.2216
 9895WAT     H141385   7.698   7.321   5.965 -1.2188  0.8364  1.0320
 9895WAT     H241386   7.722   7.439   5.873  1.8255 -0.9886 -0.6559
 9895WAT    EPW41387   7.718   7.405   5.953  0.3190  0.3409 -0.1137
 9896WAT      O41388   7.498   8.435   5.945  0.7095 -0.4461  0.1148
 9896WAT     H141389   7.428   8.401   6.002  0.8453  0.8307  1.0876
 9896WAT     H241390   7.576   8.387   5.973  0.3565 -1.4612 -0.5800
 9896WAT    EPW41391   7.499   8.424   5.957  0.6809 -0.4115  0.1514
 9897WAT      O41392   8.334   6.039   7.230 -0.1526 -0.4747 -0.6675
 9897WAT     H141393   8.419   6.041   7.185 -1.7103 -2.5458 -4.1353
 9897WAT     H241394   8.280   6.100   7.180 -2.0267 -3.0118 -1.9870
 9897WAT    EPW41395   8.338   6.047   7.217 -0.6051 -1.0822 -1.2989
 9898WAT      O41396   4.623   5.682   1.880 -0.1258 -0.0622  0.7848
 9898WAT     H141397   4.539   5.709   1.842  0.7218  0.8912 -0.5140
 9898WAT     H241398   4.661   5.622   1.815  0.9935  0.9617  0.4486
 9898WAT    EPW41399   4.617   5.678   1.866  0.1338  0.1984  0.5691
 9899WAT      O41400   8.165   7.991   6.306  0.0566  0.0728 -0.0049
 9899WAT     H141401   8.165   8.015   6.398 -2.5345 -0.5651  0.2400
 9899WAT     H241402   8.216   7.910   6.302 -2.2472 -1.5569  1.4445
 9899WAT    EPW41403   8.172   7.983   6.317 -0.5894 -0.2263  0.2182
 9900WAT      O41404   0.009   7.440   6.352  0.0398 -0.2898 -1.1518
 9900WAT     H141405  -0.011   7.486   6.270  1.1573  0.6290 -0.9396
 9900WAT     H241406  -0.003   7.348   6.331 -0.8596  0.0036 -2.0094
 9900WAT    EPW41407   0.005   7.434   6.338  0.0687 -0.1299 -1.2367
 9901WAT      O41408   9.931   6.711   4.912  0.3533  0.7513 -0.4879
 9901WAT     H141409   9.894   6.636   4.959 -0.9286  1.1709 -0.7697
 9901WAT     H241410   9.866   6.780   4.923  2.1188  2.2910  0.9166
 9901WAT    EPW41411   9.917   6.710   4.920  0.4172  1.0099 -0.3397
 9902WAT      O41412   8.968   8.513   5.731 -0.3372  1.0011  0.6458
 9902WAT     H141413   8.896   8.481   5.785 -0.2624  0.2044  0.2956
 9902WAT     H241414   8.948   8.480   5.643  0.7354  0.2812  0.6510
 9902WAT    EPW41415   8.956   8.505   5.726 -0.1860  0.8016  0.6001
 9903WAT      O41416  10.626   7.772   7.778  0.1697  0.4396  0.3759
 9903WAT     H141417  10.574   7.692   7.766 -2.1780  2.0335 -1.1471
 9903WAT     H241418  10.713   7.750   7.745 -0.5901 -1.3487 -0.5616
 9903WAT    EPW41419  10.630   7.759   7.772 -0.2394  0.4139  0.0513
 9904WAT      O41420  10.488   7.896   6.668  0.0622  0.1209  0.3664
 9904WAT     H141421  10.480   7.890   6.573 -1.6941 -1.7285  0.5631
 9904WAT     H241422  10.397   7.901   6.700  0.6024  0.5399  1.9505
 9904WAT    EPW41423  10.475   7.896   6.660 -0.0978 -0.0679  0.6013
 9905WAT      O41424   7.748   8.741   6.178 -0.2516  0.1070  0.7981
 9905WAT     H141425   7.685   8.719   6.110  1.4584 -1.9303 -0.2817
 9905WAT     H241426   7.698   8.786   6.245 -2.7629 -1.1378 -0.1332
 9905WAT    EPW41427   7.733   8.744   6.177 -0.3574 -0.3266  0.5331
 9906WAT      O41428   8.387   7.364   7.152 -0.4218  0.1188  0.1202
 9906WAT     H141429   8.456   7.305   7.183 -1.1584 -0.4687  0.7015
 9906WAT     H241430   8.353   7.322   7.073  2.2300  2.1897 -2.3207
 9906WAT    EPW41431   8.392   7.351   7.145 -0.1693  0.3145 -0.1254
 9907WAT      O41432   8.353   7.807   8.138  0.0841  0.2526 -0.1351
 9907WAT     H141433   8.408   7.883   8.117  0.0056  0.4910  0.5056
 9907WAT     H241434   8.392   7.735   8.088  0.2704  0.6717 -0.6030
 9907WAT    EPW41435   8.365   7.808   8.129  0.0982  0.3393 -0.1121
 9908WAT      O41436   8.864   9.204   5.319 -0.0001  0.9697 -0.1764
 9908WAT     H141437   8.921   9.258   5.265 -0.1096  1.0423 -0.2191
 9908WAT     H241438   8.912   9.122   5.330  0.1035  1.0239 -0.2292
 9908WAT    EPW41439   8.878   9.200   5.313 -0.0010  0.9871 -0.1891
 9909WAT      O41440   6.740   9.696   4.669  0.1062  0.0581  0.3798
 9909WAT     H141441   6.652   9.693   4.707  0.0975 -0.0839  0.3481
 9909WAT     H241442   6.783   9.618   4.701  0.2796  0.2182  0.5355
 9909WAT    EPW41443   6.734   9.685   4.678  0.1280  0.0610  0.3960
 9910WAT      O41444   2.107   0.217   7.470  0.3895  0.9946 -0.2852
 9910WAT     H141445   2.189   0.170   7.488 -0.8090 -0.9237  0.4980
 9910WAT     H241446   2.125   0.268   7.391  3.0401  2.5019  1.1394
 9910WAT    EPW41447   2.120   0.218   7.462  0.5810  0.9404  0.0062
 9911WAT      O41448  10.063  10.039   6.586 -0.2529  0.0491  0.1707
 9911WAT     H141449   9.978  10.058   6.627 -1.1227  0.0620 -1.5366
 9911WAT     H241450  10.064   9.944   6.578 -0.9877  0.1504 -1.5048
 9911WAT    EPW41451  10.052  10.029   6.591 -0.4649  0.0639 -0.2754
 9912WAT      O41452  10.445   8.830   5.557 -0.0287  0.2717 -0.1252
 9912WAT     H141453  10.379   8.834   5.626 -0.0226  0.5421 -0.1336
 9912WAT     H241454  10.395   8.840   5.476  0.1025  1.3464 -0.0939
 9912WAT    EPW41455  10.429   8.832   5.555 -0.0105  0.4497 -0.1225
 9913WAT      O41456   7.185   5.777   7.731  0.4359 -0.4505  0.1029
 9913WAT     H141457   7.109   5.792   7.787 -0.6568 -1.7615 -0.9490
 9913WAT     H241458   7.246   5.726   7.785 -0.6903 -1.8736  0.0906
 9913WAT    EPW41459   7.183   5.772   7.745  0.1435 -0.8111 -0.0374
 9914WAT      O41460   8.223   1.512   7.379 -0.0405 -0.4758  0.4514
 9914WAT     H141461   8.280   1.512   7.456 -0.9786 -0.6306  1.1621
 9914WAT     H241462   8.148   1.459   7.404 -0.0729 -1.0665 -0.8048
 9914WAT    EPW41463   8.220   1.505   7.392 -0.1683 -0.5741  0.3796
 9915WAT      O41464   0.362   5.380   7.465 -0.9467 -0.0404  0.7670
 9915WAT     H141465   0.286   5.437   7.461 -1.2193 -0.4864 -1.0366
 9915WAT     H241466   0.334   5.300   7.421  1.1169  0.4519 -1.6257
 9915WAT    EPW41467   0.348   5.377   7.459 -0.7105 -0.0341  0.2136
 9916WAT      O41468   4.809   3.528   0.507  0.0991  0.1748 -0.2200
 9916WAT     H141469   4.748   3.494   0.572 -1.1552 -0.1586 -1.5105
 9916WAT     H241470   4.896   3.515   0.546 -0.5605 -0.8096  0.9925
 9916WAT    EPW41471   4.813   3.522   0.521 -0.1533  0.0010 -0.2303
 9917WAT      O41472   4.205   0.946   4.814  0.0854  0.0725  0.2807
 9917WAT     H141473   4.237   1.016   4.871 -1.0274  1.5991 -0.8975
 9917WAT     H241474   4.155   0.991   4.746 -0.4835 -1.8623 -0.6532
 9917WAT    EPW41475   4.203   0.961   4.813 -0.1364  0.0187  0.0021
 9918WAT      O41476   5.221   5.535   1.530 -0.1858  0.2743  0.6651
 9918WAT     H141477   5.165   5.613   1.530 -0.4260  0.1829  3.0641
 9918WAT     H241478   5.305   5.565   1.496 -0.1590  1.6971  1.9298
 9918WAT    EPW41479   5.224   5.549   1.525 -0.2139  0.4499  1.1483
 9919WAT      O41480   4.769   8.292   6.928 -0.0870  0.4694 -0.8469
 9919WAT     H141481   4.843   8.352   6.915  0.2505 -0.1666 -2.0594
 9919WAT     H241482   4.810   8.206   6.935 -0.6654  0.2078 -0.6554
 9919WAT    EPW41483   4.784   8.289   6.927 -0.1190  0.3510 -0.9816
 9920WAT      O41484   9.147   8.339   8.592 -0.0909  0.5153 -0.4460
 9920WAT     H141485   9.057   8.373   8.589  0.0836  1.0340  0.0452
 9920WAT     H241486   9.137   8.245   8.606 -0.5459  0.7262  0.7305
 9920WAT    EPW41487   9.134   8.331   8.594 -0.1283  0.6118 -0.2260
 9921WAT      O41488   5.084   6.769   1.193  0.3167 -0.4616  0.1107
 9921WAT     H141489   5.032   6.689   1.182  0.3708 -0.5897  0.7535
 9921WAT     H241490   5.035   6.822   1.255  0.7813 -0.4327  0.4576
 9921WAT    EPW41491   5.071   6.765   1.200  0.3850 -0.4745  0.2413
 9922WAT      O41492   9.513   0.472   5.045  0.1461  0.1555  0.0164
 9922WAT     H141493   9.561   0.396   5.079  0.8592  1.0103  0.9848
 9922WAT     H241494   9.565   0.548   5.072 -1.5115  1.1003  0.7374
 9922WAT    EPW41495   9.526   0.472   5.053  0.0215  0.3928  0.2391
 9923WAT      O41496   1.412   0.735   8.772 -0.1929 -0.4606 -0.1651
 9923WAT     H141497   1.395   0.793   8.847 -0.7117 -0.9262  0.0837
 9923WAT     H241498   1.504   0.709   8.782  0.1683  0.6242 -0.4999
 9923WAT    EPW41499   1.422   0.740   8.784 -0.2138 -0.3789 -0.1760
 9924WAT      O41500   5.551   8.097   8.154  0.1123 -0.8923  0.1302
 9924WAT     H141501   5.638   8.081   8.191  1.2993  0.1504 -2.0049
 9924WAT     H241502   5.517   8.011   8.131  0.3153 -1.3495  1.4911
 9924WAT    EPW41503   5.558   8.084   8.156  0.2959 -0.8149  0.0291
 9925WAT      O41504   9.735   9.675   4.558  0.6944  0.3908  0.3093
 9925WAT     H141505   9.639   9.671   4.555  0.6246  0.3150  1.8294
 9925WAT     H241506   9.760   9.596   4.606  1.5209  0.4205 -0.0669
 9925WAT    EPW41507   9.725   9.664   4.564  0.7939  0.3843  0.4601
 9926WAT      O41508   4.477   0.970   6.337 -0.3893 -0.2372  0.1284
 9926WAT     H141509   4.472   1.027   6.261 -2.8506  0.2538  0.5778
 9926WAT     H241510   4.556   0.917   6.322 -0.4347  0.2837 -2.4220
 9926WAT    EPW41511   4.487   0.970   6.325 -0.7198 -0.1038 -0.1485
 9927WAT      O41512   9.798   8.478   5.519 -0.0424 -0.1315 -0.4748
 9927WAT     H141513   9.823   8.465   5.428  0.2272  2.1370 -0.7797
 9927WAT     H241514   9.703   8.493   5.515  0.2874  2.3638 -0.7678
 9927WAT    EPW41515   9.789   8.479   5.506  0.0362  0.4969 -0.5534
 9928WAT      O41516   9.283   9.541   7.075  0.0337  0.0207 -0.4063
 9928WAT     H141517   9.343   9.608   7.043 -1.3780  1.4117 -0.2461
 9928WAT     H241518   9.331   9.458   7.064  1.6610  1.0004 -0.9731
 9928WAT    EPW41519   9.297   9.539   7.069  0.0625  0.3338 -0.4601
 9929WAT      O41520   5.395   8.236   6.057 -0.3363 -0.8618  0.1598
 9929WAT     H141521   5.456   8.168   6.029  1.5615  0.7344  0.1880
 9929WAT     H241522   5.352   8.265   5.977  1.6549  0.4851 -0.4742
 9929WAT    EPW41523   5.397   8.231   6.043  0.1767 -0.4735  0.0801
 9930WAT      O41524   6.622  10.027   5.671 -0.3756 -0.0761 -0.3001
 9930WAT     H141525   6.585   9.943   5.698 -0.3798 -0.2416 -0.8103
 9930WAT     H241526   6.551  10.070   5.622 -1.3902  1.4633  2.3247
 9930WAT    EPW41527   6.608  10.022   5.668 -0.5100  0.1054 -0.0212
 9931WAT      O41528   9.430   6.549   7.187  0.1636  0.2634  0.4073
 9931WAT     H141529   9.342   6.548   7.222  0.3700 -0.8228  0.9193
 9931WAT     H241530   9.474   6.475   7.228 -0.0544 -2.1481 -3.2799
 9931WAT    EPW41531   9.424   6.539   7.197  0.1626 -0.1979 -0.0110
 9932WAT      O41532   8.615   9.628   8.372  0.9542  0.0929 -0.1337
 9932WAT     H141533   8.638   9.601   8.461  2.8990 -0.4269 -0.7336
 9932WAT     H241534   8.647   9.557   8.316 -0.0426  0.5079 -1.2828
 9932WAT    EPW41535   8.622   9.615   8.376  1.0796  0.0792 -0.3643
 9933WAT      O41536   4.312   2.117   7.523 -0.5691 -0.0255  0.5814
 9933WAT     H141537   4.382   2.178   7.549 -1.7042  2.2394 -1.3550
 9933WAT     H241538   4.255   2.113   7.600 -0.2912  1.1215  0.8674
 9933WAT    EPW41539   4.314   2.125   7.537 -0.6821  0.4245  0.3638
 9934WAT      O41540   8.034   7.806   7.925  0.2171  0.1059 -0.8668
 9934WAT     H141541   8.056   7.713   7.917 -0.7510 -0.0680 -1.6745
 9934WAT     H241542   7.996   7.829   7.841 -2.3329  0.4665  0.2826
 9934WAT    EPW41543   8.032   7.797   7.913 -0.2465  0.1304 -0.8216
 9935WAT      O41544   1.063   0.176   1.181  1.0333  0.2467 -0.0649
 9935WAT     H141545   1.049   0.195   1.274  0.1352  2.0488 -0.5081
 9935WAT     H241546   1.137   0.116   1.179 -0.2884 -1.5880  1.9188
 9935WAT    EPW41547   1.071   0.171   1.193  0.7405  0.2424  0.1383
 9936WAT      O41548   7.429   2.311   0.824 -0.4732 -0.3168  0.5440
 9936WAT     H141549   7.478   2.392   0.810 -0.2310 -0.9669 -3.6528
 9936WAT     H241550   7.338   2.341   0.837 -0.5844  0.7528 -2.0187
 9936WAT    EPW41551   7.423   2.326   0.824 -0.4561 -0.2615 -0.3476
 9937WAT      O41552   9.686   0.167   5.846  0.1859 -0.3176  0.5527
 9937WAT     H141553   9.729   0.209   5.920 -1.6537  0.8715  1.0117
 9937WAT     H241554   9.609   0.124   5.884 -1.4757  1.3386 -0.7721
 9937WAT    EPW41555   9.681   0.167   5.861 -0.2756  0.0577  0.4385
 9938WAT      O41556   8.499   9.820   4.492  0.0504 -0.1686  0.1331
 9938WAT     H141557   8.462   9.825   4.580  0.7226 -0.9682  0.4756
 9938WAT     H241558   8.524   9.728   4.482  1.2464  0.1859 -0.3589
 9938WAT    EPW41559   8.497   9.809   4.502  0.2971 -0.2275  0.1132
 9939WAT      O41560   6.069   3.253   0.620  0.7314  0.3578 -0.0143
 9939WAT     H141561   6.053   3.288   0.533 -0.2029  1.2512  0.4918
 9939WAT     H241562   6.121   3.320   0.664  2.9510 -0.9509 -0.4751
 9939WAT    EPW41563   6.074   3.266   0.614  0.9010  0.3029 -0.0083
 9940WAT      O41564   5.369   8.653   6.833  0.6394 -0.2352 -0.0139
 9940WAT     H141565   5.403   8.742   6.830  2.0715 -0.7538  0.2088
 9940WAT     H241566   5.427   8.603   6.776 -0.9536 -0.7872 -1.2038
 9940WAT    EPW41567   5.381   8.658   6.825  0.6185 -0.3767 -0.1419
 9941WAT      O41568   1.398   9.048   6.918 -0.2259  0.5106  0.0527
 9941WAT     H141569   1.408   9.130   6.966 -0.2138 -0.5792  2.0446
 9941WAT     H241570   1.447   9.061   6.837  0.0430  2.3332  0.4615
 9941WAT    EPW41571   1.406   9.060   6.914 -0.1888  0.6075  0.3691
 9942WAT      O41572   5.826   9.039   7.112  0.0703  0.2446 -0.8148
 9942WAT     H141573   5.869   9.100   7.172  0.0627 -0.0140 -0.5444
 9942WAT     H241574   5.834   9.080   7.027 -1.1031  1.2750 -0.4519
 9942WAT    EPW41575   5.833   9.052   7.109 -0.0854  0.3462 -0.7312
 9943WAT      O41576   1.312   8.383   7.399 -0.5784 -0.7720  0.6208
 9943WAT     H141577   1.345   8.304   7.355 -1.0362 -0.5125 -0.2089
 9943WAT     H241578   1.363   8.454   7.362 -0.4099 -0.6300  1.1146
 9943WAT    EPW41579   1.323   8.382   7.389 -0.6165 -0.7191  0.5765
 9944WAT      O41580   8.364   8.889   6.502  0.2717  0.3591  0.1944
 9944WAT     H141581   8.421   8.962   6.525  0.6849  1.3925 -3.4805
 9944WAT     H241582   8.317   8.918   6.425  0.6978 -3.3165 -1.6892
 9944WAT    EPW41583   8.366   8.902   6.495  0.3819  0.0105 -0.5388
 9945WAT      O41584  10.648   9.001   7.499  0.6076  1.0958  0.4260
 9945WAT     H141585  10.743   8.997   7.505  0.5111 -0.2200  1.7026
 9945WAT     H241586  10.619   8.999   7.591 -0.7134 -3.0456  0.1378
 9945WAT    EPW41587  10.657   9.000   7.512  0.4201  0.3767  0.5562
 9946WAT      O41588   8.818   5.549   8.228 -0.2289  0.1587 -0.2094
 9946WAT     H141589   8.762   5.502   8.289  2.2549 -0.6740  1.5389
 9946WAT     H241590   8.871   5.606   8.283 -0.5652  2.3237 -1.9726
 9946WAT    EPW41591   8.818   5.551   8.243  0.0544  0.3343 -0.2117
 9947WAT      O41592   0.553   0.418   7.277 -0.5093  0.5917 -1.2474
 9947WAT     H141593   0.495   0.479   7.322  1.5289  0.0742  2.4731
 9947WAT     H241594   0.636   0.465   7.268  0.8962 -1.2183  1.0711
 9947WAT    EPW41595   0.556   0.432   7.282 -0.0551  0.2847 -0.4511
 9948WAT      O41596   8.232   4.975   5.002  0.4908  0.4194  0.5951
 9948WAT     H141597   8.264   4.929   5.080  1.3218  0.6813  0.4226
 9948WAT     H241598   8.263   4.923   4.928  0.5028  0.6668  0.4229
 9948WAT    EPW41599   8.240   4.962   5.003  0.6018  0.4869  0.5498
 9949WAT      O41600   1.019   7.726   5.934  0.5855 -0.5264 -0.1348
 9949WAT     H141601   0.998   7.796   5.997 -5.4884 -0.0637 -2.0002
 9949WAT     H241602   1.045   7.773   5.855  2.0575 -0.7631  0.1935
 9949WAT    EPW41603   1.019   7.742   5.932 -0.0215 -0.4966 -0.3374
 9950WAT      O41604  10.152   9.526   4.484  0.3167 -0.1495  0.1223
 9950WAT     H141605  10.220   9.578   4.442 -1.2826  1.1326 -1.0103
 9950WAT     H241606  10.120   9.581   4.556 -0.0234 -0.4261  0.1859
 9950WAT    EPW41607  10.156   9.540   4.488  0.0606 -0.0172 -0.0188
 9951WAT      O41608   9.826   7.114   8.785 -0.0138  0.6072  0.0400
 9951WAT     H141609   9.752   7.142   8.731  0.2624  0.1522 -0.5846
 9951WAT     H241610   9.891   7.182   8.772 -0.9910  2.0193  2.0878
 9951WAT    EPW41611   9.824   7.126   8.776 -0.1063  0.7336  0.2279
 9952WAT      O41612   0.467   0.214   6.961  0.4770  0.1391  0.3790
 9952WAT     H141613   0.426   0.157   7.027  0.5499  0.3637  0.6231
 9952WAT     H241614   0.401   0.221   6.892 -0.3969  1.4326  1.3003
 9952WAT    EPW41615   0.453   0.207   6.961  0.3714  0.3393  0.5329
 9953WAT      O41616   8.671   7.453   5.937 -0.6380 -0.0925 -0.5767
 9953WAT     H141617   8.674   7.483   6.028 -0.1668 -3.7254  0.8043
 9953WAT     H241618   8.596   7.394   5.935 -1.1915  0.6158 -2.8692
 9953WAT    EPW41619   8.661   7.449   5.949 -0.6490 -0.4783 -0.6969
 9954WAT      O41620   7.254   7.519   6.875 -0.1779 -0.0661  0.0256
 9954WAT     H141621   7.184   7.525   6.811  0.0163  0.4844 -0.1372
 9954WAT     H241622   7.219   7.559   6.954  0.2883  1.1074 -0.3495
 9954WAT    EPW41623   7.240   7.525   6.877 -0.0911  0.1614 -0.0455
 9955WAT      O41624   6.238   7.107   3.824 -0.4755 -0.0196 -0.1360
 9955WAT     H141625   6.187   7.044   3.774  1.4975 -3.0181  1.2745
 9955WAT     H241626   6.202   7.101   3.913 -0.9266  1.7000 -0.1783
 9955WAT    EPW41627   6.227   7.098   3.829 -0.2749 -0.1884  0.0443
 9956WAT      O41628   1.469   6.312   5.886 -0.5258  0.5415  0.1711
 9956WAT     H141629   1.391   6.259   5.903  0.6072 -0.9570  0.9165
 9956WAT     H241630   1.511   6.269   5.812  0.8462 -0.1527  1.3102
 9956WAT    EPW41631   1.464   6.300   5.878 -0.1954  0.2520  0.4196
 9957WAT      O41632   2.659   0.043   8.665 -0.8485  0.4468  0.1567
 9957WAT     H141633   2.616   0.043   8.750 -0.0522 -0.0439  0.5696
 9957WAT     H241634   2.637   0.128   8.627 -2.5216  0.0509  0.1597
 9957WAT    EPW41635   2.651   0.054   8.671 -0.9642  0.3298  0.2117
 9958WAT      O41636   0.384   7.038   6.364  0.5029 -0.4279 -0.3126
 9958WAT     H141637   0.356   7.063   6.276 -0.3991 -1.3941 -0.3242
 9958WAT     H241638   0.335   6.957   6.382  0.6818 -0.2449  1.0686
 9958WAT    EPW41639   0.374   7.030   6.355  0.4075 -0.5314 -0.1318
 9959WAT      O41640   8.159   8.438   6.108 -0.1596 -0.4152 -0.3715
 9959WAT     H141641   8.122   8.524   6.125 -0.0805 -0.5704  0.6166
 9959WAT     H241642   8.242   8.456   6.064 -0.9674 -0.0481 -1.8374
 9959WAT    EPW41643   8.165   8.452   6.104 -0.2556 -0.3877 -0.4344
 9960WAT      O41644   9.907   8.039   6.338 -0.0686  0.3755  0.1998
 9960WAT     H141645   9.895   8.085   6.421  0.2886  4.1382 -1.6482
 9960WAT     H241646   9.956   8.100   6.283 -0.8195 -1.6826 -3.0272
 9960WAT    EPW41647   9.912   8.053   6.342 -0.1206  0.6003 -0.4694
 9961WAT      O41648   3.525   7.821   2.256 -0.9345 -0.7410 -0.6481
 9961WAT     H141649   3.520   7.779   2.341  0.3169 -0.7227 -0.5363
 9961WAT     H241650   3.611   7.796   2.222 -0.6908  0.6467 -1.1455
 9961WAT    EPW41651   3.536   7.813   2.262 -0.7373 -0.5555 -0.6989
 9962WAT      O41652   1.262   0.233   8.136 -0.1865 -0.0840 -0.4635
 9962WAT     H141653   1.207   0.167   8.178 -0.6464  0.2560 -0.5196
 9962WAT     H241654   1.204   0.309   8.125 -0.5472 -0.6565 -3.0890
 9962WAT    EPW41655   1.247   0.234   8.140 -0.2947 -0.1147 -0.8173
 9963WAT      O41656   6.959   8.939   8.114  0.0284 -0.4184 -0.1639
 9963WAT     H141657   7.032   8.959   8.172  0.0405  0.5947 -0.5013
 9963WAT     H241658   6.992   8.871   8.056  0.1621 -1.1109  0.7099
 9963WAT    EPW41659   6.973   8.933   8.114  0.0477 -0.3762 -0.0930
 9964WAT      O41660   8.116   6.740   7.945 -0.0690 -0.1090 -0.7703
 9964WAT     H141661   8.082   6.814   7.895  0.0966 -1.1180 -2.4626
 9964WAT     H241662   8.079   6.663   7.902 -0.9986 -1.0166  1.5292
 9964WAT    EPW41663   8.107   6.740   7.933 -0.1693 -0.3619 -0.6902
 9965WAT      O41664   0.097   9.836   5.168  0.1172 -0.3495  0.1654
 9965WAT     H141665   0.146   9.889   5.105 -1.0501  0.2911 -0.2318
 9965WAT     H241666   0.110   9.880   5.252  1.0842 -0.7955  0.2631
 9965WAT    EPW41667   0.105   9.849   5.170  0.0907 -0.3238  0.1259
 9966WAT      O41668   1.175   7.088   6.229  0.3535  0.1661  0.8408
 9966WAT     H141669   1.175   7.176   6.193  1.4641  0.6601  1.9748
 9966WAT     H241670   1.266   7.060   6.225 -0.4256 -2.8724 -3.8526
 9966WAT    EPW41671   1.187   7.096   6.224  0.3972 -0.1698  0.3715
 9967WAT      O41672   9.753   8.223   7.657  0.2337  0.5291  0.5839
 9967WAT     H141673   9.731   8.183   7.741 -0.7891  1.6042  0.8506
 9967WAT     H241674   9.689   8.186   7.596  1.0317 -0.3199  0.2376
 9967WAT    EPW41675   9.741   8.213   7.660  0.2041  0.5584  0.5736
 9968WAT      O41676   6.739   3.588   0.429 -0.4093 -0.5895  0.3875
 9968WAT     H141677   6.740   3.599   0.524  1.9056 -0.0784  0.3822
 9968WAT     H241678   6.759   3.674   0.394 -1.1442 -0.7905 -0.5779
 9968WAT    EPW41679   6.742   3.601   0.437 -0.2010 -0.5487  0.2595
 9969WAT      O41680   9.160   8.934   6.487  0.1738 -0.0509 -0.0170
 9969WAT     H141681   9.095   8.895   6.545  0.1980  1.7909  1.3321
 9969WAT     H241682   9.113   8.948   6.404 -0.6597 -0.2548  0.4092
 9969WAT    EPW41683   9.145   8.931   6.484  0.0668  0.1655  0.2174
 9970WAT      O41684   7.800   6.382   5.753  0.5758 -0.3664  0.0902
 9970WAT     H141685   7.870   6.422   5.702 -0.2578 -0.8702 -1.5139
 9970WAT     H241686   7.721   6.430   5.728  0.0944 -0.8210  0.6917
 9970WAT    EPW41687   7.799   6.393   5.743  0.4025 -0.4928 -0.0422
 9971WAT      O41688   7.969   8.521   8.381 -0.0385  0.9408  0.6298
 9971WAT     H141689   7.941   8.470   8.305  1.2043 -0.1672  0.8814
 9971WAT     H241690   8.014   8.597   8.345  0.9623  0.1779  0.2441
 9971WAT    EPW41691   7.971   8.524   8.366  0.2575  0.6938  0.6113
 9972WAT      O41692   8.725   8.403   7.328  0.0877  0.0251 -0.2146
 9972WAT     H141693   8.656   8.393   7.262 -0.4695 -0.5686  0.4384
 9972WAT     H241694   8.740   8.498   7.332  2.0296 -0.0407 -3.0531
 9972WAT    EPW41695   8.718   8.414   7.320  0.2704 -0.0620 -0.5026
 9973WAT      O41696   5.217   1.238   6.375  0.4325  0.3902  0.4034
 9973WAT     H141697   5.257   1.160   6.337  1.5377  1.8351 -1.6447
 9973WAT     H241698   5.193   1.291   6.299 -0.9346  1.7262  1.7133
 9973WAT    EPW41699   5.219   1.235   6.360  0.3982  0.7569  0.3061
 9974WAT      O41700   4.053   3.967   0.434 -0.3950 -0.1339  0.6072
 9974WAT     H141701   4.059   3.872   0.442  2.3827 -0.0822  0.2909
 9974WAT     H241702   4.045   3.983   0.340  1.1241 -0.0647  0.4628
 9974WAT    EPW41703   4.053   3.956   0.423  0.1719 -0.1178  0.5465
 9975WAT      O41704   4.519   3.868   0.408  1.3181 -0.6744  0.5975
 9975WAT     H141705   4.484   3.936   0.350  2.0913  0.4572  1.4173
 9975WAT     H241706   4.503   3.786   0.361  0.7615  0.1041 -0.6178
 9975WAT    EPW41707   4.512   3.866   0.394  1.3468 -0.4226  0.5453
 9976WAT      O41708  10.068   6.721   6.041 -0.3353 -0.0101 -0.3410
 9976WAT     H141709  10.156   6.684   6.037  1.0330  2.3327  3.0309
 9976WAT     H241710  10.061   6.775   5.962  1.9073  0.8670 -0.0178
 9976WAT    EPW41711  10.078   6.723   6.030  0.1407  0.4148  0.1464
 9977WAT      O41712   9.431   9.462   6.742 -0.4225  0.1071 -0.7351
 9977WAT     H141713   9.419   9.412   6.822  2.5825 -0.9552 -0.7967
 9977WAT     H241714   9.455   9.550   6.771 -0.1525 -0.0515 -0.4760
 9977WAT    EPW41715   9.433   9.467   6.756  0.0095 -0.0539 -0.7093
 9978WAT      O41716  10.268   8.422   5.878 -0.0769  0.6265 -0.3889
 9978WAT     H141717  10.359   8.395   5.879 -0.3658 -0.4063  0.9432
 9978WAT     H241718  10.220   8.344   5.849 -0.6176  0.8596 -0.1514
 9978WAT    EPW41719  10.273   8.408   5.874 -0.1860  0.5212 -0.1819
 9979WAT      O41720   0.629   0.387   5.096 -0.3464 -0.1457 -0.3884
 9979WAT     H141721   0.645   0.292   5.090 -0.7571 -0.1926 -0.7726
 9979WAT     H241722   0.709   0.422   5.133 -0.1452 -0.6336 -0.3498
 9979WAT    EPW41723   0.641   0.379   5.100 -0.3741 -0.2162 -0.4339
 9980WAT      O41724   7.663   9.231   6.676  0.4363  0.1189  0.0415
 9980WAT     H141725   7.734   9.274   6.724  1.4600 -3.0018  1.5903
 9980WAT     H241726   7.670   9.138   6.699 -1.8317 -0.9312 -2.7417
 9980WAT    EPW41727   7.673   9.224   6.685  0.2723 -0.4311 -0.1214
 9981WAT      O41728   5.237   3.310   1.288  0.2470  0.2116  0.0353
 9981WAT     H141729   5.167   3.253   1.321  1.2275 -0.6216  0.7747
 9981WAT     H241730   5.248   3.376   1.357  0.1029  0.4173 -0.1389
 9981WAT    EPW41731   5.229   3.311   1.302  0.3572  0.1287  0.1099
 9982WAT      O41732   5.467   7.942   6.298  0.0234 -0.3444 -0.9466
 9982WAT     H141733   5.483   8.000   6.224  2.9573  2.2903  1.4940
 9982WAT     H241734   5.532   7.872   6.288 -1.1036 -1.2898 -1.9666
 9982WAT    EPW41735   5.478   7.940   6.287  0.2615 -0.1216 -0.7591
 9983WAT      O41736   0.220  10.262   8.305  0.4515  0.2682  0.1895
 9983WAT     H141737   0.274  10.321   8.253  1.6503 -1.5270 -0.7276
 9983WAT     H241738   0.142  10.246   8.251  1.8643 -1.8898 -1.3555
 9983WAT    EPW41739   0.217  10.268   8.291  0.7960 -0.2532 -0.1349
 9984WAT      O41740   5.682   7.259   7.072 -0.1477 -0.5276  0.4909
 9984WAT     H141741   5.733   7.242   7.150  1.3567  0.6224 -0.1958
 9984WAT     H241742   5.614   7.320   7.100 -2.8029 -3.7847  1.9426
 9984WAT    EPW41743   5.680   7.265   7.086 -0.2995 -0.8054  0.5920
 9985WAT      O41744  10.785   7.723   8.931 -0.1773 -0.0702 -0.2079
 9985WAT     H141745  10.874   7.688   8.923  0.5315  1.2635  1.3005
 9985WAT     H241746  10.755   7.733   8.841 -0.1708 -3.7486 -0.7691
 9985WAT    EPW41747  10.793   7.720   8.918 -0.0825 -0.3793 -0.0825
 9986WAT      O41748   9.681   9.139   8.220 -0.4334  0.2553  0.0425
 9986WAT     H141749   9.682   9.050   8.184 -0.7512 -0.5169  1.8169
 9986WAT     H241750   9.763   9.178   8.191 -0.9809 -0.0300 -2.0715
 9986WAT    EPW41751   9.692   9.132   8.211 -0.5474  0.1159 -0.0024
 9987WAT      O41752   0.970   0.494   4.996 -0.3105 -0.5096 -0.1010
 9987WAT     H141753   1.062   0.514   4.978 -0.8993  1.2871 -1.4213
 9987WAT     H241754   0.952   0.417   4.941 -0.0798  0.3383 -1.4163
 9987WAT    EPW41755   0.980   0.486   4.986 -0.3577 -0.1608 -0.4485
 9988WAT      O41756   8.341   4.002   0.787 -0.0277 -0.4355  0.6557
 9988WAT     H141757   8.246   4.007   0.772  0.1646 -4.0523 -5.0647
 9988WAT     H241758   8.376   4.078   0.739 -0.0406 -0.9887 -0.2666
 9988WAT    EPW41759   8.333   4.013   0.778 -0.0043 -0.9854 -0.2204
 9989WAT      O41760   1.990  10.164   3.771  0.6283 -0.6836  0.8198
 9989WAT     H141761   2.055  10.209   3.718  1.2199 -1.6837  0.6726
 9989WAT     H241762   1.990  10.211   3.854  1.1882 -0.3713  0.6479
 9989WAT    EPW41763   1.998  10.176   3.775  0.7802 -0.7739  0.7776
 9990WAT      O41764   5.460   0.569   6.505 -0.0043  0.1826 -0.1564
 9990WAT     H141765   5.518   0.576   6.430 -0.0173  2.6830 -0.0130
 9990WAT     H241766   5.512   0.523   6.571  1.9512  2.4658  0.0219
 9990WAT    EPW41767   5.474   0.564   6.504  0.2518  0.8135 -0.1137
 9991WAT      O41768   8.770   8.784   5.286 -0.9028  0.5443  0.1630
 9991WAT     H141769   8.816   8.745   5.212 -0.2469 -0.1373  0.9105
 9991WAT     H241770   8.725   8.860   5.249  0.1831  0.7666 -0.7528
 9991WAT    EPW41771   8.771   8.789   5.271 -0.6728  0.4840  0.1411
 9992WAT      O41772   7.227   6.449   4.722 -1.0207  0.0987 -0.6091
 9992WAT     H141773   7.313   6.450   4.680  0.4592 -0.2896  2.1635
 9992WAT     H241774   7.223   6.533   4.769 -2.4596  0.3803 -1.1836
 9992WAT    EPW41775   7.238   6.461   4.723 -1.0152  0.0849 -0.3192
 9993WAT      O41776   4.994   2.006   3.478  0.4958  0.4279  0.0806
 9993WAT     H141777   5.072   1.955   3.455  1.9587  2.5030  0.2313
 9993WAT     H241778   5.006   2.090   3.433  0.1316  2.1298  2.9457
 9993WAT    EPW41779   5.006   2.010   3.469  0.6406  0.9260  0.4784
 9994WAT      O41780   5.381   5.137   3.005 -0.8494 -0.0205 -0.1842
 9994WAT     H141781   5.401   5.055   2.961  0.5566 -0.2369  0.8160
 9994WAT     H241782   5.423   5.130   3.090 -1.8457  1.1967  0.4465
 9994WAT    EPW41783   5.389   5.126   3.010 -0.7956  0.1116  0.0308
 9995WAT      O41784  10.183   8.501   5.632 -0.0420 -0.1880  0.2805
 9995WAT     H141785  10.228   8.507   5.716  4.5888 -2.5489 -1.6528
 9995WAT     H241786  10.172   8.592   5.604  0.6747  0.5709  2.3006
 9995WAT    EPW41787  10.187   8.513   5.639  0.6633 -0.4001  0.2918
 9996WAT      O41788   0.456   0.375   3.034 -0.0488  0.7482 -0.3633
 9996WAT     H141789   0.482   0.313   3.102  0.5192  0.4336 -0.8534
 9996WAT     H241790   0.362   0.361   3.023 -0.1472  0.8147  0.3605
 9996WAT    EPW41791   0.447   0.365   3.041  0.0131  0.7155 -0.3324
 9997WAT      O41792  10.412  10.277   3.642 -0.1824 -0.1465  0.1671
 9997WAT     H141793  10.457  10.207   3.688  2.2607  0.9124 -0.4586
 9997WAT     H241794  10.400  10.244   3.553 -1.3395 -0.6808  0.4960
 9997WAT    EPW41795  10.416  10.264   3.636 -0.0129 -0.0777  0.1280
 9998WAT      O41796   8.567   8.956   5.182 -0.2471 -0.0321 -0.2860
 9998WAT     H141797   8.502   8.964   5.251  0.3380 -1.2184  0.4336
 9998WAT     H241798   8.607   9.043   5.176  0.3765 -0.1464  1.5724
 9998WAT    EPW41799   8.564   8.968   5.190 -0.0882 -0.2036  0.0539
 9999WAT      O41800   8.047   3.488   1.666 -0.4900 -0.2641  0.2382
 9999WAT     H141801   8.056   3.553   1.736 -0.0530 -2.6983  2.6335
 9999WAT     H241802   7.955   3.492   1.641 -0.0436  2.7639 -1.3734
 9999WAT    EPW41803   8.036   3.497   1.672 -0.3729 -0.1857  0.3415
10000WAT      O41804   3.027   1.409   8.320  0.1678  1.0534 -0.0072
10000WAT     H141805   3.009   1.402   8.414 -0.6700  3.0222  0.0283
10000WAT     H241806   2.942   1.431   8.281  0.4120 -0.1241 -1.3234
10000WAT    EPW41807   3.013   1.411   8.327  0.0895  1.1577 -0.1764
10001WAT      O41808   5.308   1.345   3.255 -0.0658 -0.3801  0.2834
10001WAT     H141809   5.283   1.434   3.229  0.3398 -0.1149  0.7745
10001WAT     H241810   5.402   1.341   3.239 -0.1867 -0.9383 -0.3306
10001WAT    EPW41811   5.317   1.356   3.250 -0.0284 -0.4188  0.2671
10002WAT      O41812   6.320   0.073   2.356  0.0653 -0.6152  0.3553
10002WAT     H141813   6.239   0.123   2.344 -0.9051 -1.9548  1.0618
10002WAT     H241814   6.309  -0.004   2.300 -0.8185 -2.6678  3.1484
10002WAT    EPW41815   6.308   0.070   2.347 -0.1793 -1.0626  0.8169
10003WAT      O41816   1.780   6.221   3.521  0.2794  0.2743 -0.0191
10003WAT     H141817   1.734   6.157   3.574  0.6251  0.7676  0.9011
10003WAT     H241818   1.712   6.284   3.495  0.0893 -0.0303 -0.2657
10003WAT    EPW41819   1.765   6.221   3.524  0.2999  0.2995  0.0697
10004WAT      O41820   4.844   0.356   3.112 -0.7632  0.2603 -0.0767
10004WAT     H141821   4.847   0.415   3.037 -3.0539 -0.4833 -0.8485
10004WAT     H241822   4.845   0.268   3.073  0.3630 -0.1934  0.9153
10004WAT    EPW41823   4.844   0.352   3.097 -0.9167  0.1024 -0.0477
10005WAT      O41824   1.678   8.430   5.713 -0.5883 -0.3556  0.1348
10005WAT     H141825   1.733   8.471   5.780  1.0580 -0.2017 -1.2498
10005WAT     H241826   1.590   8.432   5.750  0.1627  0.3377  1.9936
10005WAT    EPW41827   1.674   8.436   5.727 -0.2722 -0.2437  0.1974
10006WAT      O41828   4.522   1.286   3.775  0.0475 -0.1650  0.7979
10006WAT     H141829   4.610   1.296   3.811  0.4936  0.3650 -0.4037
10006WAT     H241830   4.532   1.222   3.705 -0.2295  0.8839 -0.2389
10006WAT    EPW41831   4.535   1.279   3.771  0.0699  0.0433  0.5027
10007WAT      O41832  10.810   9.619   6.352  0.6270 -0.2028 -0.0761
10007WAT     H141833  10.855   9.555   6.296  2.7646  0.8606  0.3249
10007WAT     H241834  10.865   9.626   6.430  0.4926  2.1305 -0.1122
10007WAT    EPW41835  10.823   9.611   6.355  0.8917  0.2456 -0.0279
10008WAT      O41836   4.248   3.571   5.491  0.0740  0.2498 -0.3895
10008WAT     H141837   4.200   3.561   5.573 -1.1491 -1.0695 -1.2181
10008WAT     H241838   4.314   3.502   5.493 -1.4523 -1.3292 -1.4611
10008WAT    EPW41839   4.250   3.561   5.502 -0.2887 -0.1324 -0.6399
10009WAT      O41840   4.615   2.698   5.434  0.0656  0.2882 -0.3088
10009WAT     H141841   4.620   2.634   5.506 -1.0945 -1.1784 -1.4610
10009WAT     H241842   4.665   2.773   5.466  0.2466 -0.6074  1.7115
10009WAT    EPW41843   4.623   2.699   5.448 -0.0637 -0.0234 -0.1943
10010WAT      O41844   3.324   7.641   4.856 -0.5475 -0.0909 -1.4984
10010WAT     H141845   3.306   7.714   4.915 -0.0902 -0.8276 -0.4106
10010WAT     H241846   3.281   7.566   4.896  0.7683 -0.8540 -1.4546
10010WAT    EPW41847   3.316   7.640   4.869 -0.3135 -0.2887 -1.3490
10011WAT      O41848  10.727   6.849   5.265 -0.5637 -0.0870  0.1619
10011WAT     H141849  10.641   6.808   5.261 -0.5852 -0.3203  1.9799
10011WAT     H241850  10.746   6.855   5.359  0.2282  2.4356 -0.0712
10011WAT    EPW41851  10.718   6.845   5.277 -0.4625  0.2151  0.3707
10012WAT      O41852   3.420   0.165   3.103 -0.1483 -0.3998 -0.0733
10012WAT     H141853   3.513   0.183   3.086  0.2355 -0.9789  1.3367
10012WAT     H241854   3.379   0.170   3.016  1.2928 -0.7000 -0.8025
10012WAT    EPW41855   3.427   0.168   3.089  0.0924 -0.5157  0.0166
10013WAT      O41856   3.176   0.092   5.485  0.2460  0.0612  0.0991
10013WAT     H141857   3.174   0.084   5.581  0.4722  1.2463  0.2154
10013WAT     H241858   3.113   0.161   5.465  2.7350  2.4280 -0.2602
10013WAT    EPW41859   3.167   0.100   5.495  0.6040  0.5297  0.0670
10014WAT      O41860   8.363  10.262   1.549 -0.7873 -0.5921 -0.7095
10014WAT     H141861   8.336  10.170   1.554  1.9740 -1.4879 -0.2430
10014WAT     H241862   8.387  10.275   1.457  1.9155 -1.4574 -0.2406
10014WAT    EPW41863   8.363  10.251   1.538 -0.0668 -0.8245 -0.5862
10015WAT      O41864   1.273   9.863   6.022 -1.1635  0.4780 -0.4584
10015WAT     H141865   1.282   9.771   6.048  1.2718  0.3469 -1.4923
10015WAT     H241866   1.258   9.910   6.104  0.1486 -0.5890  0.4451
10015WAT    EPW41867   1.272   9.857   6.037 -0.6692  0.3195 -0.4754
10016WAT      O41868   2.723   3.787   2.949  0.1520  0.3703 -0.2128
10016WAT     H141869   2.678   3.817   3.028  1.6519  1.6153  0.2286
10016WAT     H241870   2.815   3.781   2.976  0.6912  0.8183 -1.8724
10016WAT    EPW41871   2.729   3.790   2.963  0.4210  0.5935 -0.3734
10017WAT      O41872   2.593   2.191   6.240  0.0962  0.2616 -0.6828
10017WAT     H141873   2.530   2.226   6.177  0.6548  1.7564 -0.4598
10017WAT     H241874   2.672   2.244   6.226  0.2253  0.6352  1.2709
10017WAT    EPW41875   2.596   2.203   6.229  0.1869  0.5080 -0.3955
10018WAT      O41876  10.731  10.193   6.959  0.7611 -0.1964  0.7783
10018WAT     H141877  10.739  10.272   6.904  1.6074 -1.5211 -1.1058
10018WAT     H241878  10.654  10.210   7.014 -2.4212 -0.1084 -3.2182
10018WAT    EPW41879  10.722  10.206   6.959  0.4525 -0.3600  0.0029
10019WAT      O41880   4.721  10.333   4.137 -0.2385 -0.3066 -0.3712
10019WAT     H141881   4.699  10.311   4.228  2.2145  0.5747  0.5136
10019WAT     H241882   4.781  10.407   4.144 -1.4499  1.0198 -2.8540
10019WAT    EPW41883   4.726  10.340   4.150 -0.0746 -0.0157 -0.5817
10020WAT      O41884   5.149   0.806   2.353  0.1365  0.4558 -0.3564
10020WAT     H141885   5.176   0.729   2.304  1.8576 -0.5323  1.9551
10020WAT     H241886   5.080   0.846   2.300 -0.7539 -2.5891 -1.6859
10020WAT    EPW41887   5.144   0.801   2.340  0.2460 -0.0762 -0.2269
10021WAT      O41888   9.605   9.964   4.987 -0.4508  0.2272  0.0796
10021WAT     H141889   9.689   9.943   4.945 -0.0865  0.1605  0.8277
10021WAT     H241890   9.628   9.980   5.078 -1.1821  0.7536  0.1713
10021WAT    EPW41891   9.619   9.963   4.993 -0.4992  0.2880  0.1905
10022WAT      O41892   9.070   9.414   5.539  0.8437 -0.5258  0.2503
10022WAT     H141893   9.104   9.494   5.498 -0.1665 -0.6068 -0.8231
10022WAT     H241894   8.999   9.386   5.480 -1.7289  0.1601  2.8094
10022WAT    EPW41895   9.065   9.421   5.526  0.3715 -0.4458  0.4461
10023WAT      O41896   3.456   0.052   4.875 -0.3374  0.0967 -0.2074
10023WAT     H141897   3.535   0.048   4.822 -0.5424 -3.5759 -0.4566
10023WAT     H241898   3.463   0.136   4.921  2.8208  0.6700 -1.4425
10023WAT    EPW41899   3.467   0.063   4.874  0.0520 -0.3121 -0.4034
10024WAT      O41900   2.769   4.797   3.282 -0.2957  0.5089 -0.0514
10024WAT     H141901   2.674   4.788   3.294 -0.1452 -1.4549  0.0366
10024WAT     H241902   2.807   4.734   3.344  0.9583 -0.5374 -1.7799
10024WAT    EPW41903   2.761   4.787   3.292 -0.1103  0.1121 -0.2676
10025WAT      O41904   1.268   9.197   6.114  0.2374 -0.0488 -0.5847
10025WAT     H141905   1.262   9.288   6.086 -2.0763 -0.2472 -0.8850
10025WAT     H241906   1.343   9.195   6.174 -1.5957  2.7614  2.0620
10025WAT    EPW41907   1.277   9.209   6.118 -0.3095  0.2956 -0.2754
10026WAT      O41908   0.911   7.007   1.766  0.0292 -0.6304 -0.0368
10026WAT     H141909   0.924   7.097   1.736  0.6824  0.3150  2.7312
10026WAT     H241910   0.821   6.987   1.743 -0.8970  1.6518  1.2767
10026WAT    EPW41911   0.901   7.017   1.759 -0.0068 -0.2048  0.5014
10027WAT      O41912   1.140   9.533   4.590 -0.2401  0.3454 -0.2217
10027WAT     H141913   1.126   9.439   4.600 -1.6791  0.4920 -0.5871
10027WAT     H241914   1.207   9.554   4.655 -0.6686 -0.7496  0.6154
10027WAT    EPW41915   1.147   9.523   4.600 -0.4866  0.2208 -0.1595
10028WAT      O41916   5.714   2.085   4.068  0.3325 -1.1199 -0.3927
10028WAT     H141917   5.641   2.096   4.008  1.4469 -1.4206 -1.8647
10028WAT     H241918   5.715   1.991   4.087  0.6508 -1.2044 -0.8093
10028WAT    EPW41919   5.705   2.074   4.063  0.5214 -1.1706 -0.6418
10029WAT      O41920  10.704  10.155   1.521 -0.1431  0.0490  0.2376
10029WAT     H141921  10.785  10.182   1.565 -0.3588  0.3600  0.4463
10029WAT     H241922  10.665  10.237   1.490  0.5874 -0.2285 -1.5741
10029WAT    EPW41923  10.710  10.169   1.522 -0.0749  0.0534  0.0262
10030WAT      O41924   3.346   1.729   4.337 -0.1426 -0.2843 -0.5149
10030WAT     H141925   3.341   1.815   4.378 -2.0622  0.0756 -1.3659
10030WAT     H241926   3.439   1.707   4.337  0.3019  1.4419  0.3981
10030WAT    EPW41927   3.357   1.737   4.342 -0.3371 -0.0092 -0.5066
10031WAT      O41928   3.099   1.764   6.311  0.1177 -0.3175  0.3483
10031WAT     H141929   3.147   1.817   6.247  0.1434 -0.1606  0.4977
10031WAT     H241930   3.149   1.683   6.316  1.2694  0.4389  1.6638
10031WAT    EPW41931   3.112   1.761   6.303  0.2731 -0.1971  0.5414
10032WAT      O41932   1.569   5.722   1.090 -1.2920  0.0850 -0.0834
10032WAT     H141933   1.543   5.806   1.127 -0.7951 -0.3389  1.2989
10032WAT     H241934   1.514   5.712   1.013 -0.8584  2.0027 -0.7076
10032WAT    EPW41935   1.559   5.732   1.085 -1.1692  0.2820  0.0166
10033WAT      O41936   2.908   1.511   5.191 -0.2176 -0.6954  0.8243
10033WAT     H141937   2.908   1.450   5.264 -0.2723 -0.1636  1.2690
10033WAT     H241938   3.000   1.525   5.170 -0.1985 -0.7066  0.9030
10033WAT    EPW41939   2.920   1.505   5.198 -0.2223 -0.6267  0.8936
10034WAT      O41940   4.453   0.725   5.972  0.3880  0.8615 -0.0687
10034WAT     H141941   4.532   0.711   6.025 -1.1057 -2.2669  1.5913
10034WAT     H241942   4.384   0.741   6.036 -1.1694 -1.3257 -1.0796
10034WAT    EPW41943   4.455   0.725   5.987 -0.0143  0.1604  0.0167
10035WAT      O41944   5.199   6.432   2.050 -0.0820 -0.8178 -0.5718
10035WAT     H141945   5.292   6.418   2.066 -0.3410 -1.1254  0.8410
10035WAT     H241946   5.181   6.388   1.968  0.6315 -2.4919  0.1277
10035WAT    EPW41947   5.209   6.425   2.042 -0.0222 -1.0791 -0.2934
10036WAT      O41948   2.010   8.637   4.712 -0.2321  0.2743  0.7565
10036WAT     H141949   2.016   8.575   4.640 -0.3906  2.1449 -0.9766
10036WAT     H241950   1.938   8.695   4.687  0.2752  1.5078  2.0009
10036WAT    EPW41951   2.001   8.637   4.699 -0.1858  0.6838  0.6921
10037WAT      O41952  10.353   8.595   6.065 -0.4986  0.0115  0.5058
10037WAT     H141953  10.337   8.516   6.014  0.6465  0.0916 -0.0052
10037WAT     H241954  10.418   8.569   6.130  0.0186  0.5677  0.2217
10037WAT    EPW41955  10.359   8.582   6.067 -0.2799  0.0949  0.4013
10038WAT      O41956   0.524   0.844   5.581  0.2202  0.0867 -0.1440
10038WAT     H141957   0.520   0.793   5.663  2.1576  0.7195  0.3855
10038WAT     H241958   0.539   0.934   5.609 -1.4170  0.7210 -1.1486
10038WAT    EPW41959   0.526   0.849   5.596  0.2598  0.2538 -0.2067
10039WAT      O41960   1.099   7.421   4.851  0.1810  0.2377 -0.0920
10039WAT     H141961   1.015   7.376   4.862  0.1640 -0.0939 -1.4519
10039WAT     H241962   1.156   7.355   4.812  1.2485  0.3045  1.2831
10039WAT    EPW41963   1.095   7.406   4.848  0.3195  0.2031 -0.0899
10040WAT      O41964   7.753   7.670   6.632 -0.9480 -0.5232 -0.0402
10040WAT     H141965   7.668   7.688   6.672 -0.3287  0.6826  0.7758
10040WAT     H241966   7.817   7.706   6.694  0.2256 -2.3802 -0.0867
10040WAT    EPW41967   7.750   7.677   6.645 -0.7114 -0.6092  0.0613
10041WAT      O41968   5.767   7.858   3.474 -0.2465 -0.6809  0.3904
10041WAT     H141969   5.717   7.776   3.479 -4.8147  1.7271 -0.5015
10041WAT     H241970   5.779   7.873   3.380 -1.8095  0.8202  0.3810
10041WAT    EPW41971   5.762   7.849   3.462 -1.0550 -0.1652  0.2716
10042WAT      O41972   6.547   1.172   5.398  0.3544 -0.0300 -0.0284
10042WAT     H141973   6.588   1.220   5.326  0.7717 -0.2725  0.0413
10042WAT     H241974   6.615   1.167   5.465  0.8948 -2.0654 -0.6487
10042WAT    EPW41975   6.561   1.177   5.397  0.4809 -0.3305 -0.1009
10043WAT      O41976   0.820   9.932   5.743 -0.1096  0.1660  0.9477
10043WAT     H141977   0.805  10.019   5.781  0.8007 -0.0210  1.7688
10043WAT     H241978   0.891   9.895   5.795  0.2746 -0.6335 -0.1104
10043WAT    EPW41979   0.828   9.939   5.755  0.0611  0.0353  0.9165
10044WAT      O41980  10.861   7.732   7.627  0.9358  0.2023 -0.6150
10044WAT     H141981  10.798   7.774   7.568  3.3344  1.3326 -2.4963
10044WAT     H241982  10.946   7.749   7.589  2.8212  1.9504  3.6940
10044WAT    EPW41983  10.864   7.740   7.614  1.5006  0.5820 -0.2947
10045WAT      O41984   8.870   4.253   8.899  0.2648 -0.0569 -0.8831
10045WAT     H141985   8.851   4.192   8.828 -0.0919  0.1687 -0.9803
10045WAT     H241986   8.796   4.314   8.900 -1.2015 -1.7413  1.5349
10045WAT    EPW41987   8.858   4.253   8.890  0.0243 -0.2494 -0.5774
10046WAT      O41988   3.638   2.263   4.210  0.1425 -0.1058  0.4350
10046WAT     H141989   3.683   2.230   4.287  1.2799  0.9614  0.2467
10046WAT     H241990   3.620   2.355   4.230  0.7018  0.2539 -0.6780
10046WAT    EPW41991   3.642   2.270   4.223  0.3662  0.0825  0.2632
10047WAT      O41992  10.891   7.656   6.804  0.1674  0.0478  0.1715
10047WAT     H141993  10.850   7.676   6.888 -1.8560  2.0181 -1.1720
10047WAT     H241994  10.973   7.706   6.804  1.2952 -1.6784  1.7572
10047WAT    EPW41995  10.897   7.665   6.815  0.0491  0.0799  0.2034
10048WAT      O41996   5.495   9.606   6.436 -0.4477  0.3675  0.2494
10048WAT     H141997   5.556   9.535   6.413  0.3958  0.9230  0.7186
10048WAT     H241998   5.539   9.653   6.507 -0.5053  2.0276 -0.7782
10048WAT    EPW41999   5.509   9.603   6.443 -0.3443  0.6599  0.1755
10049WAT      O42000   2.368   0.786   5.107 -0.0419  0.2488 -0.0328
10049WAT     H142001   2.388   0.694   5.128 -1.9063 -0.1717  0.1289
10049WAT     H242002   2.380   0.792   5.013 -0.2471 -0.2609 -0.0965
10049WAT    EPW42003   2.372   0.775   5.098 -0.3150  0.1261 -0.0198
10050WAT      O42004   1.272  10.343   4.384 -0.0915 -0.0293  0.0559
10050WAT     H142005   1.297  10.425   4.341 -0.4761  0.5471  0.9153
10050WAT     H242006   1.182  10.328   4.357 -0.0733 -0.0828  0.0265
10050WAT    EPW42007   1.263  10.352   4.375 -0.1395  0.0397  0.1650
10051WAT      O42008   6.899   0.148   5.365 -0.4250 -0.7670 -0.2869
10051WAT     H142009   6.908   0.241   5.385  0.4610 -1.0107  0.4860
10051WAT     H242010   6.988   0.113   5.368 -0.2308 -1.0323 -3.9101
10051WAT    EPW42011   6.912   0.156   5.368 -0.2823 -0.8342 -0.6626
10052WAT      O42012   1.283   9.315   2.604  0.2657  0.1132 -0.4678
10052WAT     H142013   1.369   9.346   2.572 -0.0639  1.3155 -0.2336
10052WAT     H242014   1.291   9.220   2.604  1.4797  0.1927 -0.8096
10052WAT    EPW42015   1.296   9.307   2.599  0.3824  0.2823 -0.4820
10053WAT      O42016   8.350   8.202   6.198  0.3009 -0.5092  0.4996
10053WAT     H142017   8.290   8.128   6.208  0.4913 -0.9560 -1.3494
10053WAT     H242018   8.302   8.277   6.232 -1.2562 -0.8897 -0.7492
10053WAT    EPW42019   8.336   8.202   6.204  0.1211 -0.6180  0.0908
10054WAT      O42020   8.606   7.281   7.341  0.5437  0.3748 -0.1848
10054WAT     H142021   8.623   7.194   7.306 -1.2386 -1.1061  2.3363
10054WAT     H242022   8.597   7.268   7.435  2.6236  3.7055  0.6541
10054WAT    EPW42023   8.607   7.268   7.349  0.5832  0.6187  0.2584
10055WAT      O42024   1.312   7.657   3.916  0.2593 -0.0478  0.5345
10055WAT     H142025   1.388   7.715   3.918  0.5953 -0.4402 -0.3640
10055WAT     H242026   1.239   7.713   3.890  0.0003  0.5575  2.4126
10055WAT    EPW42027   1.312   7.672   3.913  0.2694 -0.0198  0.6636
10056WAT      O42028   9.440   9.055   7.141 -0.1072 -0.4114 -0.1114
10056WAT     H142029   9.525   9.012   7.128 -0.5702 -1.2920 -0.3478
10056WAT     H242030   9.419   9.094   7.057  0.1095 -0.1116 -0.0257
10056WAT    EPW42031   9.448   9.054   7.128 -0.1397 -0.4883 -0.1316
10057WAT      O42032   8.922   8.505   2.398  0.0442 -0.1533  0.2619
10057WAT     H142033   8.864   8.487   2.324 -0.6052  0.7473  0.5266
10057WAT     H242034   8.869   8.559   2.457  0.4943 -0.9801  1.4632
10057WAT    EPW42035   8.907   8.510   2.396  0.0181 -0.1435  0.4553
10058WAT      O42036   8.057   8.315   4.399  1.3196  0.3371  0.0595
10058WAT     H142037   8.070   8.408   4.383  0.2055  0.5020  0.0773
10058WAT     H242038   7.970   8.309   4.439  1.5611 -0.6666  0.4695
10058WAT    EPW42039   8.047   8.326   4.403  1.2040  0.2265  0.1159
10059WAT      O42040   4.940   1.009   4.227  0.5182  0.1297  0.0951
10059WAT     H142041   4.976   0.921   4.213  0.3392 -0.1121  1.0553
10059WAT     H242042   4.845   0.996   4.228  0.3131  0.7975 -2.6554
10059WAT    EPW42043   4.932   0.996   4.226  0.4678  0.1859 -0.1411
10060WAT      O42044  10.087   6.803   3.701  0.3736 -0.7722 -0.0865
10060WAT     H142045   9.995   6.817   3.677  0.1495  0.6969  1.4761
10060WAT     H242046  10.132   6.881   3.668  0.4307  0.1941  2.0991
10060WAT    EPW42047  10.081   6.815   3.693  0.3514 -0.4508  0.4078
10061WAT      O42048   4.860   9.216   3.675 -0.3649  0.3154  0.2521
10061WAT     H142049   4.905   9.159   3.611  1.5867  0.2923  1.5605
10061WAT     H242050   4.833   9.157   3.745  1.0241  0.8427  1.2743
10061WAT    EPW42051   4.863   9.200   3.676  0.0758  0.3819  0.5596
10062WAT      O42052   9.671   7.917   5.255  0.0054  0.1855  0.2754
10062WAT     H142053   9.691   8.006   5.284  0.2974 -0.2242  1.3692
10062WAT     H242054   9.716   7.909   5.170 -1.1257  1.5074 -0.4896
10062WAT    EPW42055   9.680   7.928   5.247 -0.1054  0.3059  0.3188
10063WAT      O42056   2.228   8.759   6.486 -0.3176 -0.5155 -0.6566
10063WAT     H142057   2.304   8.745   6.429 -0.7070 -0.2031 -1.2701
10063WAT     H242058   2.253   8.834   6.540  0.0172 -0.7505 -0.4808
10063WAT    EPW42059   2.242   8.767   6.485 -0.3248 -0.5059 -0.7145
10064WAT      O42060   0.176  10.247   2.044 -0.1926  0.0137  0.1228
10064WAT     H142061   0.144  10.314   2.104 -2.2388  0.7221 -1.5987
10064WAT     H242062   0.143  10.165   2.080 -2.5629  0.5541 -0.6148
10064WAT    EPW42063   0.168  10.245   2.056 -0.7751  0.1783 -0.2016
10065WAT      O42064   4.763   8.343   3.532 -0.4069  0.4417 -0.2871
10065WAT     H142065   4.768   8.328   3.627  0.4361  2.9450  0.1380
10065WAT     H242066   4.846   8.384   3.510 -0.5325 -0.2366 -2.1854
10065WAT    EPW42067   4.775   8.346   3.542 -0.3121  0.6824 -0.4814
10066WAT      O42068   0.605   5.948   6.293 -0.1076  0.6406  0.2164
10066WAT     H142069   0.548   5.998   6.350  1.3038  2.3860  0.2000
10066WAT     H242070   0.637   5.876   6.348 -3.9252 -1.8090 -0.4031
10066WAT    EPW42071   0.602   5.945   6.308 -0.4250  0.5476  0.1326
10067WAT      O42072   3.219   8.946   6.424  0.1287  0.2066  0.1537
10067WAT     H142073   3.192   8.977   6.510 -0.6410  1.7815 -0.6219
10067WAT     H242074   3.308   8.914   6.436  0.8154  2.3266  1.1310
10067WAT    EPW42075   3.227   8.946   6.437  0.1178  0.6938  0.1800
10068WAT      O42076   4.402   1.525   5.113 -0.2008  0.4065  0.3249
10068WAT     H142077   4.428   1.513   5.022 -2.5243 -1.2473 -0.2153
10068WAT     H242078   4.480   1.499   5.163  0.7893  0.3937 -1.1548
10068WAT    EPW42079   4.416   1.520   5.108 -0.3767  0.1866  0.0584
10069WAT      O42080   1.542   1.222   0.979  0.8962  0.4710  0.3319
10069WAT     H142081   1.577   1.133   0.978 -3.8295 -1.7098  1.2554
10069WAT     H242082   1.558   1.254   1.068 -0.5988 -1.0853  1.2174
10069WAT    EPW42083   1.549   1.215   0.990  0.0757 -0.0219  0.5705
10070WAT      O42084   1.539   0.550   7.019  0.4919  0.6134 -0.6490
10070WAT     H142085   1.615   0.557   6.961  0.7365  0.2472 -0.3756
10070WAT     H242086   1.576   0.543   7.107  0.1432  0.4206 -0.5139
10070WAT    EPW42087   1.554   0.550   7.023  0.4781  0.5397 -0.5951
10071WAT      O42088   2.961   2.766   2.889  0.0796  0.0283 -0.0196
10071WAT     H142089   3.022   2.693   2.882  0.8839  0.6065  0.7731
10071WAT     H242090   3.000   2.837   2.838  0.2365  0.4931  0.7178
10071WAT    EPW42091   2.974   2.766   2.882  0.2064  0.1657  0.1822
10072WAT      O42092   7.195   3.851   4.000  0.1179 -0.5084  0.5118
10072WAT     H142093   7.230   3.851   4.089  0.6856 -0.5122  0.2913
10072WAT     H242094   7.182   3.944   3.979 -1.1490 -0.5499  1.0291
10072WAT    EPW42095   7.198   3.863   4.009  0.0255 -0.5143  0.5507
10073WAT      O42096   2.702  10.225   4.849 -0.3006 -0.2315  0.1901
10073WAT     H142097   2.783  10.277   4.842  0.0483 -0.9046 -0.9654
10073WAT     H242098   2.637  10.275   4.799  0.2361 -1.2483 -1.6020
10073WAT    EPW42099   2.704  10.238   4.842 -0.1838 -0.4554 -0.1984
10074WAT      O42100   3.949   1.399   6.777  0.2482 -0.3282  0.4627
10074WAT     H142101   3.966   1.490   6.753 -0.4934 -0.6284 -1.3219
10074WAT     H242102   4.034   1.356   6.768  0.2247 -0.1829 -0.5267
10074WAT    EPW42103   3.963   1.406   6.773  0.1473 -0.3486  0.0968
10075WAT      O42104  10.062   6.857   3.185 -0.0150  0.5324 -0.5466
10075WAT     H142105  10.005   6.788   3.151  1.3461 -0.9596  0.0595
10075WAT     H242106  10.006   6.934   3.191 -1.8246 -0.7405 -0.4009
10075WAT    EPW42107  10.047   6.858   3.181 -0.0744  0.1676 -0.4474
10076WAT      O42108   1.628   0.625   2.475 -0.2861  0.0516  0.3103
10076WAT     H142109   1.550   0.594   2.520 -1.3106  3.0802  0.8418
10076WAT     H242110   1.691   0.644   2.545  0.7444 -1.6920 -0.0729
10076WAT    EPW42111   1.626   0.623   2.490 -0.2853  0.2211  0.3299
10077WAT      O42112   2.669   9.437   6.661  0.2525 -0.3106  0.1017
10077WAT     H142113   2.636   9.374   6.596 -2.1851  0.0753  0.8767
10077WAT     H242114   2.597   9.447   6.723  2.3539 -0.4077  2.7386
10077WAT    EPW42115   2.655   9.430   6.661  0.2083 -0.2728  0.5517
10078WAT      O42116   0.926   9.877   1.050 -0.3739  0.1404  0.3181
10078WAT     H142117   0.999   9.862   0.990  0.0706 -0.9127  1.1016
10078WAT     H242118   0.867   9.803   1.034 -1.2494  0.9420 -0.2588
10078WAT    EPW42119   0.928   9.866   1.040 -0.4307  0.1073  0.3452
10079WAT      O42120   0.306   0.855   5.883  0.6630 -1.3574  0.0149
10079WAT     H142121   0.281   0.899   5.964  0.5748 -1.2173 -0.0885
10079WAT     H242122   0.393   0.818   5.902  2.2893  1.6326 -0.9215
10079WAT    EPW42123   0.315   0.856   5.896  0.8659 -0.9446 -0.1223
10080WAT      O42124   4.231   7.438   1.550 -0.1586  0.2276  0.3187
10080WAT     H142125   4.180   7.493   1.609  1.0211  0.4410  1.1756
10080WAT     H242126   4.188   7.353   1.553 -2.0738  1.0652 -1.1005
10080WAT    EPW42127   4.219   7.434   1.558 -0.2553  0.3662  0.2445
10081WAT      O42128   3.012  10.209   6.990  1.0577 -0.2571  0.5093
10081WAT     H142129   2.946  10.144   7.015  0.7282 -0.5634 -1.0411
10081WAT     H242130   3.096  10.164   7.000  0.9922 -0.1375  1.6888
10081WAT    EPW42131   3.014  10.194   6.995  1.0056 -0.2818  0.4601
10082WAT      O42132   7.659   3.067   1.154  0.3014 -1.0056 -0.1098
10082WAT     H142133   7.739   3.094   1.198  0.0847  0.9120 -0.8029
10082WAT     H242134   7.682   2.985   1.110  1.8460 -0.5415 -0.2162
10082WAT    EPW42135   7.672   3.060   1.154  0.4766 -0.6914 -0.2152
10083WAT      O42136   8.903   9.882   8.167  0.2104  0.1171  0.0347
10083WAT     H142137   8.958   9.953   8.200 -1.3815  1.3252  0.2098
10083WAT     H242138   8.845   9.924   8.104 -0.6729 -1.0773  0.0193
10083WAT    EPW42139   8.903   9.897   8.163 -0.1154  0.1192  0.0563
10084WAT      O42140   2.172   6.868   4.761  0.3381  0.1196  0.2732
10084WAT     H142141   2.085   6.906   4.766  1.6709  4.2259 -2.7610
10084WAT     H242142   2.166   6.804   4.690 -0.0694  0.8227 -0.3302
10084WAT    EPW42143   2.160   6.864   4.752  0.4601  0.7541 -0.2062
10085WAT      O42144   0.810   8.244   5.291  0.5656 -0.3040  0.1441
10085WAT     H142145   0.842   8.278   5.375 -1.5965 -0.3116  1.0412
10085WAT     H242146   0.736   8.189   5.315  0.0863 -0.5504 -1.7770
10085WAT    EPW42147   0.805   8.241   5.305  0.2172 -0.3371  0.0091
10086WAT      O42148   3.961   0.241   6.936  0.0236 -0.1093 -0.4597
10086WAT     H142149   4.034   0.214   6.992  0.9657  2.0233 -0.5643
10086WAT     H242150   3.897   0.280   6.996 -1.7888 -3.1779 -0.1745
10086WAT    EPW42151   3.962   0.243   6.951 -0.0913 -0.2328 -0.4358
10087WAT      O42152  10.737   7.782   4.622  0.0281  0.1831 -0.1138
10087WAT     H142153  10.701   7.832   4.695 -1.1469  0.1071 -0.6248
10087WAT     H242154  10.695   7.819   4.544 -0.9008 -1.5966 -0.5140
10087WAT    EPW42155  10.727   7.794   4.621 -0.2494 -0.0618 -0.2341
10088WAT      O42156   1.974   5.773   3.108 -0.3982 -0.1135  0.0894
10088WAT     H142157   1.942   5.753   3.020  0.6874 -3.0971  0.2232
10088WAT     H242158   1.927   5.712   3.165  0.0887  0.6412  1.3388
10088WAT    EPW42159   1.964   5.762   3.104 -0.1909 -0.4075  0.2718
10089WAT      O42160   0.055   9.900   4.457  0.1530 -0.8241 -0.8155
10089WAT     H142161   0.042   9.994   4.456  1.5302 -0.6044 -2.4930
10089WAT     H242162   0.132   9.887   4.513 -0.2016 -1.0007 -0.3569
10089WAT    EPW42163   0.064   9.911   4.464  0.2879 -0.8183 -0.9761
10090WAT      O42164   1.982   1.331   1.856  0.0204  0.6914 -0.6961
10090WAT     H142165   1.933   1.262   1.901 -0.3825  0.2713 -1.7444
10090WAT     H242166   2.035   1.371   1.925 -1.3599  0.7864  0.3633
10090WAT    EPW42167   1.982   1.327   1.871 -0.2148  0.6485 -0.6947
10091WAT      O42168   6.023   0.965   7.030 -0.1245 -0.3893 -1.2789
10091WAT     H142169   6.039   0.886   7.082  0.4556  2.1212  2.7366
10091WAT     H242170   5.931   0.958   7.003 -0.4768 -1.8128  0.1691
10091WAT    EPW42171   6.013   0.954   7.033 -0.0944 -0.2460 -0.5584
10092WAT      O42172   3.691   1.470   3.898  0.5652  0.0149  0.5678
10092WAT     H142173   3.770   1.493   3.848  0.3039  0.2114  0.2454
10092WAT     H242174   3.628   1.538   3.877  0.3107 -0.1343  0.8385
10092WAT    EPW42175   3.693   1.482   3.888  0.4971  0.0211  0.5610
10093WAT      O42176   2.066   7.811   6.840 -0.5058  0.2012 -0.0693
10093WAT     H142177   2.110   7.728   6.822  0.5014  0.2285  2.0173
10093WAT     H242178   2.137   7.871   6.864 -1.0603  2.0917 -2.7365
10093WAT    EPW42179   2.081   7.808   6.841 -0.4460  0.4542 -0.1462
10094WAT      O42180   3.483   2.472   5.336  0.0596  0.2302  0.3012
10094WAT     H142181   3.531   2.551   5.360 -0.2980  0.0120  1.8060
10094WAT     H242182   3.487   2.416   5.413 -3.3463  0.5745  0.9079
10094WAT    EPW42183   3.490   2.475   5.349 -0.4368  0.2468  0.5796
10095WAT      O42184   0.161   7.417   5.168  0.1755  0.2056 -0.2517
10095WAT     H142185   0.153   7.505   5.132 -0.9506  0.6045  0.9121
10095WAT     H242186   0.104   7.417   5.245 -1.5044 -2.1674 -1.3753
10095WAT    EPW42187   0.153   7.429   5.173 -0.1946 -0.0546 -0.2468
10096WAT      O42188   4.743   0.283   4.024 -0.3041 -0.4504  0.0257
10096WAT     H142189   4.787   0.289   3.939  1.7455 -0.9533  1.0004
10096WAT     H242190   4.769   0.363   4.070  0.9474 -1.4748  1.1904
10096WAT    EPW42191   4.752   0.294   4.019  0.1311 -0.6518  0.3078
10097WAT      O42192   2.102   9.813   3.493 -0.0088 -0.2786 -0.0177
10097WAT     H142193   2.007   9.807   3.501 -0.2017  0.4737 -1.4543
10097WAT     H242194   2.120   9.907   3.490  0.7815 -0.4173  0.1085
10097WAT    EPW42195   2.092   9.824   3.494  0.0700 -0.1974 -0.1906
10098WAT      O42196   3.473   0.515   4.822 -0.4680 -0.3015  0.3305
10098WAT     H142197   3.558   0.514   4.779 -0.1707  0.4845  0.8680
10098WAT     H242198   3.440   0.604   4.808 -3.0617 -1.6149 -3.3423
10098WAT    EPW42199   3.480   0.527   4.815 -0.7709 -0.3710 -0.0827
10099WAT      O42200   6.373   1.276   2.322 -0.0869  0.2293 -0.3172
10099WAT     H142201   6.282   1.252   2.339 -0.0505  0.0177 -0.4200
10099WAT     H242202   6.367   1.362   2.280 -0.1585  0.9463  1.0954
10099WAT    EPW42203   6.360   1.284   2.318 -0.0916  0.2959 -0.1444
10100WAT      O42204   8.817   8.915   7.825 -0.3043  0.4251 -0.8738
10100WAT     H142205   8.739   8.868   7.794 -2.2763  3.9878 -1.8076
10100WAT     H242206   8.879   8.906   7.753 -0.0171 -1.8291 -0.4332
10100WAT    EPW42207   8.815   8.907   7.811 -0.5264  0.5970 -0.9387
10101WAT      O42208   3.119   1.609   5.455 -0.0880  0.7899  0.3025
10101WAT     H142209   3.139   1.623   5.362  1.1194 -5.5707 -0.8319
10101WAT     H242210   3.026   1.587   5.456 -0.4610  2.2778  0.9541
10101WAT    EPW42211   3.109   1.608   5.443  0.0221  0.1472  0.2391
10102WAT      O42212   2.679   0.940   4.160 -0.0151  1.2719  0.2109
10102WAT     H142213   2.591   0.975   4.147 -0.7619 -0.2880  0.9073
10102WAT     H242214   2.698   0.892   4.079 -0.0421  1.1161  0.2967
10102WAT    EPW42215   2.670   0.938   4.147 -0.1171  1.0456  0.3140
10103WAT      O42216   4.128   5.058   3.263 -0.5240  0.4578  0.1063
10103WAT     H142217   4.142   4.967   3.236  1.3984  0.6293  0.4069
10103WAT     H242218   4.211   5.085   3.303 -1.4337  1.9879  1.0855
10103WAT    EPW42219   4.141   5.050   3.265 -0.3905  0.6824  0.2750
10104WAT      O42220   4.061   1.235   5.128 -0.1337  0.3577 -0.4629
10104WAT     H142221   4.099   1.290   5.196  1.7049  1.5172 -2.3361
10104WAT     H242222   4.135   1.206   5.075 -1.4216 -1.1173 -1.5603
10104WAT    EPW42223   4.075   1.239   5.130 -0.0610  0.3161 -0.8547
10105WAT      O42224   2.266   8.849   5.648  0.3220 -0.6595  0.6957
10105WAT     H142225   2.338   8.891   5.600  0.3283  0.5294  1.7089
10105WAT     H242226   2.301   8.834   5.736 -0.5354 -0.4593  1.0749
10105WAT    EPW42227   2.280   8.853   5.653  0.2098 -0.4759  0.8795
10106WAT      O42228   2.597   0.363   5.771  0.2075  0.1798  0.3597
10106WAT     H142229   2.667   0.413   5.814  1.8276 -1.7561  0.1232
10106WAT     H242230   2.591   0.282   5.821 -0.7968 -0.3487 -0.5751
10106WAT    EPW42231   2.606   0.359   5.783  0.2885 -0.1452  0.2053
10107WAT      O42232   3.115   2.869   3.243 -0.7716 -0.0721  0.1613
10107WAT     H142233   3.029   2.834   3.221 -1.2141  0.6637  0.6812
10107WAT     H242234   3.116   2.956   3.204  0.2928 -0.6026 -1.0603
10107WAT    EPW42235   3.104   2.876   3.235 -0.6894 -0.0449  0.0688
10108WAT      O42236   5.210   1.188   6.043  0.4338  0.2132 -0.3856
10108WAT     H142237   5.124   1.175   6.005 -0.6635  1.5824  1.4408
10108WAT     H242238   5.238   1.100   6.070 -0.0911 -0.3299 -1.5404
10108WAT    EPW42239   5.203   1.175   6.042  0.2201  0.3222 -0.2971
10109WAT      O42240   0.698   9.928   3.948  0.1557  0.2740  0.1164
10109WAT     H142241   0.669   9.841   3.975 -0.3536  0.6533  0.8242
10109WAT     H242242   0.749   9.913   3.868  0.6919 -0.7497  0.6373
10109WAT    EPW42243   0.701   9.915   3.941  0.1593  0.1888  0.2785
10110WAT      O42244   1.657   7.244   6.748  0.2879 -0.1596  0.8844
10110WAT     H142245   1.641   7.301   6.673  3.3358  2.7265  2.1658
10110WAT     H242246   1.729   7.188   6.719  0.1581 -0.3960  1.0202
10110WAT    EPW42247   1.665   7.244   6.734  0.6728  0.1900  1.0712
10111WAT      O42248   6.314   1.975   6.533 -0.2968 -0.1289 -0.6229
10111WAT     H142249   6.379   2.025   6.583 -1.8953  2.5173 -1.0361
10111WAT     H242250   6.335   1.993   6.441 -0.7228 -0.4807 -0.7928
10111WAT    EPW42251   6.325   1.984   6.527 -0.5641  0.1737 -0.7000
10112WAT      O42252   1.625   8.775   5.221  0.1013  0.5256 -0.2460
10112WAT     H142253   1.663   8.756   5.306  1.5309 -1.6505 -1.2855
10112WAT     H242254   1.644   8.698   5.168  0.3450  2.2773 -2.9151
10112WAT    EPW42255   1.632   8.762   5.225  0.3220  0.4697 -0.7348
10113WAT      O42256   3.396  10.043   3.370 -0.3214  0.0974  0.3317
10113WAT     H142257   3.313  10.059   3.324 -0.4348  0.9217  0.7868
10113WAT     H242258   3.448   9.991   3.309 -1.4006 -0.9741  0.2852
10113WAT    EPW42259   3.392  10.039   3.356 -0.4787  0.0648  0.3859
10114WAT      O42260   7.566   4.453   4.555  0.3686  0.2162 -0.2555
10114WAT     H142261   7.579   4.539   4.594  3.6441 -0.0532 -0.4634
10114WAT     H242262   7.569   4.469   4.460 -2.6964  0.2289 -0.4678
10114WAT    EPW42263   7.568   4.466   4.547  0.3963  0.1824 -0.3109
10115WAT      O42264   1.837   2.980   6.500  0.3152  0.1397  0.4395
10115WAT     H142265   1.784   2.956   6.577  1.8832 -0.4541  1.3904
10115WAT     H242266   1.785   3.046   6.454 -2.4576 -2.2774 -0.1633
10115WAT    EPW42267   1.823   2.986   6.504  0.1563 -0.2575  0.4857
10116WAT      O42268   4.182   2.473   6.959 -0.2868  0.0683  0.6806
10116WAT     H142269   4.159   2.559   6.924 -2.7227 -1.1736 -1.0108
10116WAT     H242270   4.277   2.470   6.955 -0.1914  2.3732  0.0699
10116WAT    EPW42271   4.191   2.484   6.954 -0.5958  0.2085  0.3772
10117WAT      O42272   4.052   1.484   2.560 -0.2210  0.0863  0.2916
10117WAT     H142273   4.084   1.497   2.649  0.0410  2.1802 -0.0681
10117WAT     H242274   3.957   1.477   2.569 -0.0708 -1.4279  0.8838
10117WAT    EPW42275   4.044   1.485   2.573 -0.1667  0.1627  0.3223
10118WAT      O42276   7.609   1.191   3.517  0.2214  0.0620 -0.0151
10118WAT     H142277   7.675   1.254   3.489 -0.0160  0.4170  0.2241
10118WAT     H242278   7.610   1.124   3.449 -1.2144  1.5317 -1.5610
10118WAT    EPW42279   7.618   1.191   3.505  0.0007  0.3027 -0.1874
10119WAT      O42280   4.448   9.334   5.710 -0.1178  0.3889 -0.4905
10119WAT     H142281   4.522   9.298   5.759 -1.3234 -1.7224 -0.1323
10119WAT     H242282   4.489   9.374   5.632  1.4412 -0.2217 -0.0283
10119WAT    EPW42283   4.463   9.334   5.706 -0.0710  0.0300 -0.3822
10120WAT      O42284   5.264   0.809   3.695 -0.3486  0.2994  0.2097
10120WAT     H142285   5.243   0.771   3.780 -2.5296 -0.3680 -0.5492
10120WAT     H242286   5.307   0.738   3.647 -0.1294  0.3195  0.3744
10120WAT    EPW42287   5.267   0.794   3.700 -0.6075  0.2140  0.1315
10121WAT      O42288   6.521   0.676   6.003  0.8904 -0.1123 -0.2983
10121WAT     H142289   6.494   0.685   5.911 -0.0305  0.7632  0.0483
10121WAT     H242290   6.519   0.581   6.019  2.9103 -0.4754 -1.7009
10121WAT    EPW42291   6.517   0.665   5.993  1.0355 -0.0447 -0.4375
10122WAT      O42292   2.856   0.680   8.793  0.4257 -0.0603  0.3091
10122WAT     H142293   2.784   0.687   8.730  0.3046  1.6251  0.5729
10122WAT     H242294   2.814   0.658   8.876  0.0810  1.6660  0.6262
10122WAT    EPW42295   2.841   0.678   8.795  0.3643  0.3896  0.3858
10123WAT      O42296   7.231   1.393   4.879  0.1089  0.5293 -0.1285
10123WAT     H142297   7.304   1.391   4.818  0.9128  0.3723  0.8114
10123WAT     H242298   7.209   1.485   4.889  0.2659  0.5855 -0.3117
10123WAT    EPW42299   7.238   1.405   4.873  0.2356  0.5160 -0.0291
10124WAT      O42300   3.461   1.082   3.903 -0.5588  0.1299 -0.2314
10124WAT     H142301   3.493   1.143   3.837  1.2130  0.0041  0.4572
10124WAT     H242302   3.493   1.117   3.986 -0.5526 -1.0713  0.2954
10124WAT    EPW42303   3.470   1.095   3.905 -0.3245 -0.0451 -0.0712
10125WAT      O42304   4.386   0.036   3.610 -0.1274  0.2813  0.8897
10125WAT     H142305   4.441  -0.037   3.583  0.3716  1.0526 -0.3064
10125WAT     H242306   4.408   0.051   3.701 -1.0711 -1.7550  1.5014
10125WAT    EPW42307   4.396   0.029   3.618 -0.1861  0.1140  0.8126
10126WAT      O42308   0.560   9.137   6.188 -0.4116 -0.4778  0.0983
10126WAT     H142309   0.630   9.093   6.140  0.1258 -0.6199  0.9876
10126WAT     H242310   0.557   9.225   6.151 -0.8583 -0.9573 -1.0458
10126WAT    EPW42311   0.568   9.143   6.177 -0.3996 -0.5598  0.0646
10127WAT      O42312   8.929   1.998   6.384 -0.1992 -0.2668  0.3932
10127WAT     H142313   8.879   2.073   6.351  0.6803  1.4293  2.6594
10127WAT     H242314   8.992   2.037   6.444  1.6788 -2.6690  0.0985
10127WAT    EPW42315   8.931   2.013   6.387  0.1640 -0.3599  0.6530
10128WAT      O42316   9.852  10.228   7.947 -0.3862  0.2539 -0.2891
10128WAT     H142317   9.912  10.299   7.967  0.1150 -0.0450 -0.7236
10128WAT     H242318   9.879  10.197   7.861 -1.4577  0.4206 -0.6976
10128WAT    EPW42319   9.863  10.233   7.939 -0.4616  0.2360 -0.4003
10129WAT      O42320   3.914   2.780   5.751 -0.0102  0.3756 -0.0768
10129WAT     H142321   4.001   2.756   5.719 -0.3357 -1.0301  0.0333
10129WAT     H242322   3.887   2.706   5.806 -2.1050 -0.1955 -1.7347
10129WAT    EPW42323   3.922   2.767   5.754 -0.3295  0.1149 -0.2809
10130WAT      O42324   5.478   1.179   2.606  0.3175 -0.3870 -0.3723
10130WAT     H142325   5.463   1.084   2.604  2.6794 -0.9861  2.4550
10130WAT     H242326   5.501   1.197   2.697  2.1879  2.5057 -1.2874
10130WAT    EPW42327   5.479   1.169   2.618  0.8759 -0.0846 -0.1200
10131WAT      O42328   4.642   2.292   3.475 -0.5955 -0.3267  0.3650
10131WAT     H142329   4.616   2.229   3.408 -1.1823  0.6939 -0.3971
10131WAT     H242330   4.736   2.278   3.485 -0.1887  0.4499 -1.7666
10131WAT    EPW42331   4.651   2.282   3.467 -0.6192 -0.0895 -0.0167
10132WAT      O42332   5.440   0.290   6.830 -0.5414 -0.0558  0.4762
10132WAT     H142333   5.417   0.207   6.788 -0.8153 -1.3481  2.9738
10132WAT     H242334   5.460   0.266   6.921  0.1867  2.5234  1.0774
10132WAT    EPW42335   5.439   0.276   6.837 -0.4814  0.1139  0.8848
10133WAT      O42336   5.200   0.563   2.865  0.8725  0.1852 -0.1736
10133WAT     H142337   5.164   0.650   2.848  0.5836  0.4639  1.6436
10133WAT     H242338   5.293   0.578   2.883  1.4477 -0.2465 -2.5038
10133WAT    EPW42339   5.208   0.576   2.865  0.9103  0.1650 -0.2413
10134WAT      O42340   4.036   1.036   5.329 -0.0902 -0.7475 -0.1379
10134WAT     H142341   4.112   0.979   5.317  0.2542 -0.6714  1.4623
10134WAT     H242342   4.048   1.106   5.264  2.1063  0.1596  1.1528
10134WAT    EPW42343   4.047   1.037   5.319  0.2449 -0.6178  0.2434
10135WAT      O42344   7.607   8.220   6.715 -0.4575 -0.2945 -0.0296
10135WAT     H142345   7.529   8.239   6.662 -0.4645 -0.3288 -0.0318
10135WAT     H242346   7.678   8.214   6.651 -0.4262 -0.1112 -0.0113
10135WAT    EPW42347   7.606   8.221   6.699 -0.4539 -0.2747 -0.0274
10136WAT      O42348   8.051   9.144   6.048  0.1515 -0.1181 -0.0967
10136WAT     H142349   8.103   9.098   6.115 -2.4305 -2.3286  0.5805
10136WAT     H242350   8.116   9.189   5.994  2.9955 -4.0122 -0.3905
10136WAT    EPW42351   8.066   9.144   6.050  0.1855 -0.9241 -0.0463
10137WAT      O42352   5.028   0.512   3.457 -0.8558 -0.1653 -0.5192
10137WAT     H142353   5.083   0.499   3.379 -2.1057 -1.1589 -1.2786
10137WAT     H242354   4.963   0.441   3.452 -0.1866 -1.0804  2.1372
10137WAT    EPW42355   5.027   0.501   3.446 -0.9327 -0.4170 -0.2689
10138WAT      O42356   6.483   1.379   3.432  0.1530 -0.5424  0.3202
10138WAT     H142357   6.450   1.463   3.463 -2.7083 -0.6699 -1.8895
10138WAT     H242358   6.525   1.400   3.348 -2.3531 -1.4265 -1.2548
10138WAT    EPW42359   6.485   1.393   3.425 -0.5548 -0.6758 -0.1788
10139WAT      O42360   7.154   6.699   0.837 -0.1146 -0.0922 -0.7993
10139WAT     H142361   7.115   6.784   0.859 -3.7201 -1.3520 -1.6746
10139WAT     H242362   7.169   6.705   0.742 -0.3484 -0.4161 -0.8562
10139WAT    EPW42363   7.151   6.711   0.827 -0.6211 -0.3009 -0.9223
10140WAT      O42364   1.661   8.215   5.284  0.6876 -0.0452  0.0093
10140WAT     H142365   1.674   8.200   5.378 -0.7582  0.1440  0.2617
10140WAT     H242366   1.573   8.183   5.267  0.8125  0.2296 -1.2342
10140WAT    EPW42367   1.651   8.209   5.294  0.5134  0.0157 -0.1214
10141WAT      O42368   7.912   2.971   7.079  0.2991 -0.7183 -0.2110
10141WAT     H142369   8.004   2.943   7.081  0.5786  0.0259 -1.5842
10141WAT     H242370   7.872   2.916   7.011 -0.2912 -1.0490  0.3935
10141WAT    EPW42371   7.919   2.960   7.070  0.2582 -0.6636 -0.3123
10142WAT      O42372   6.799   1.960   5.495  0.4286 -0.3518  0.0971
10142WAT     H142373   6.781   2.051   5.519 -0.0423 -0.0829 -1.1892
10142WAT     H242374   6.870   1.967   5.431 -0.6052 -0.7518 -1.1287
10142WAT    EPW42375   6.806   1.973   5.489  0.2298 -0.3691 -0.2344
10143WAT      O42376   1.200   9.849   4.305  0.9879 -0.7899  0.5098
10143WAT     H142377   1.279   9.801   4.329  0.8962 -0.7366  0.9254
10143WAT     H242378   1.231   9.929   4.264  1.1452 -0.9707  0.2739
10143WAT    EPW42379   1.214   9.853   4.303  0.9966 -0.8068  0.5338
10144WAT      O42380   4.540   2.300   5.258 -0.1335  0.2976  0.6593
10144WAT     H142381   4.553   2.381   5.209 -0.4693  1.0717  1.8087
10144WAT     H242382   4.448   2.276   5.241  0.2741 -0.4902 -0.5870
10144WAT    EPW42383   4.529   2.307   5.249 -0.1240  0.2959  0.6466
10145WAT      O42384   4.449   0.023   3.256 -0.4833  0.4268 -0.4229
10145WAT     H142385   4.397   0.088   3.304  1.2124  1.9673 -0.5576
10145WAT     H242386   4.538   0.035   3.289  0.3116 -0.0923 -2.2686
10145WAT    EPW42387   4.454   0.033   3.267 -0.1550  0.5615 -0.6841
10146WAT      O42388   3.587   0.077   6.218  0.6286 -0.8275 -0.4401
10146WAT     H142389   3.607   0.107   6.129  2.7196 -0.6630  0.0497
10146WAT     H242390   3.576   0.157   6.269 -0.5926 -0.9220 -0.5283
10146WAT    EPW42391   3.588   0.091   6.213  0.7435 -0.8183 -0.3872
10147WAT      O42392   3.940   1.407   5.597 -0.1160 -0.0454 -0.3324
10147WAT     H142393   3.877   1.339   5.622  0.1354 -0.8646 -1.7771
10147WAT     H242394   3.951   1.396   5.502  0.7023  1.3724 -0.4345
10147WAT    EPW42395   3.933   1.396   5.587  0.0252  0.0335 -0.5362
10148WAT      O42396   7.027   0.624   1.993 -0.2563 -0.2462 -0.2867
10148WAT     H142397   7.076   0.630   2.074 -1.9169 -1.4210  0.8822
10148WAT     H242398   7.038   0.709   1.951 -0.1101  0.7262  1.6184
10148WAT    EPW42399   7.035   0.636   1.998 -0.4556 -0.2728  0.1187
10149WAT      O42400   4.322   7.090   7.772  0.2567  0.1383 -0.1957
10149WAT     H142401   4.350   7.061   7.859  0.8802 -0.8087 -0.6998
10149WAT     H242402   4.384   7.049   7.712 -1.3602 -0.8741 -1.2508
10149WAT    EPW42403   4.334   7.081   7.776  0.1254 -0.1202 -0.4015
10150WAT      O42404   1.643  10.192   4.509 -0.2047  0.7044 -0.1652
10150WAT     H142405   1.677  10.194   4.598 -0.6470  3.3119  0.0180
10150WAT     H242406   1.551  10.216   4.518 -0.3640  0.5867 -1.2980
10150WAT    EPW42407   1.635  10.195   4.522 -0.2840  1.0333 -0.2904
10151WAT      O42408   4.554   9.855   3.468 -0.3832 -0.3621 -0.1168
10151WAT     H142409   4.530   9.929   3.411  0.3839 -1.8399 -2.4918
10151WAT     H242410   4.598   9.793   3.410  1.4801 -1.5188  2.3464
10151WAT    EPW42411   4.556   9.857   3.452 -0.0360 -0.7095 -0.1053
10152WAT      O42412   2.588   2.354   5.394  0.7768 -0.3780 -0.4338
10152WAT     H142413   2.567   2.445   5.412 -0.8184 -0.8744  0.4440
10152WAT     H242414   2.682   2.347   5.408  0.4493  0.4040  2.9336
10152WAT    EPW42415   2.597   2.365   5.398  0.5232 -0.3403  0.1259
10153WAT      O42416   6.815   1.840   2.675 -0.0380  0.2949 -0.3553
10153WAT     H142417   6.756   1.893   2.729  1.1419 -0.2001  1.5267
10153WAT     H242418   6.878   1.804   2.738  0.4433 -1.6434 -1.8719
10153WAT    EPW42419   6.815   1.842   2.691  0.1807 -0.0260 -0.3072
10154WAT      O42420   6.943   1.530   5.542  0.0945 -0.0238 -0.7728
10154WAT     H142421   6.853   1.536   5.510  0.3583 -0.4896 -1.6305
10154WAT     H242422   6.958   1.614   5.586  0.4138  1.6575 -3.8102
10154WAT    EPW42423   6.933   1.542   5.544  0.1717  0.1366 -1.2865
10155WAT      O42424   6.280   1.392   4.267  0.2195  0.2169  0.0382
10155WAT     H142425   6.299   1.355   4.353 -1.7779 -0.4932  0.2115
10155WAT     H242426   6.202   1.347   4.237  0.6608  0.6956 -2.0255
10155WAT    EPW42427   6.272   1.381   4.274  0.0143  0.1864 -0.2110
10156WAT      O42428   5.328   7.701   3.195  0.3894  1.4755 -0.1827
10156WAT     H142429   5.323   7.672   3.286 -3.9024 -1.5098 -1.0608
10156WAT     H242430   5.378   7.633   3.150 -0.9451  0.7418 -0.6141
10156WAT    EPW42431   5.334   7.689   3.201 -0.3526  0.9849 -0.3555
10157WAT      O42432   6.744   3.982   4.457  0.5329  0.3821  0.1468
10157WAT     H142433   6.726   4.073   4.432 -1.6220  0.0215  0.2059
10157WAT     H242434   6.838   3.971   4.443  0.7725  2.5186 -0.1705
10157WAT    EPW42435   6.754   3.992   4.452  0.2801  0.6162  0.1125
10158WAT      O42436   6.298   0.441   7.097 -0.4363 -0.6700  0.1348
10158WAT     H142437   6.311   0.466   7.189 -0.7106 -1.3568  0.3696
10158WAT     H242438   6.254   0.516   7.058 -2.8507 -1.4102  1.2535
10158WAT    EPW42439   6.294   0.454   7.104 -0.7908 -0.8582  0.3135
10159WAT      O42440   8.581   0.654   6.444 -0.1739 -0.1166 -0.8951
10159WAT     H142441   8.612   0.743   6.425 -0.9020  0.0392 -1.4279
10159WAT     H242442   8.561   0.655   6.537  0.9721 -0.0855 -0.6453
10159WAT    EPW42443   8.582   0.666   6.454 -0.1192 -0.0920 -0.9327
10160WAT      O42444   9.136   7.913   0.318 -0.2287 -0.5654  0.0963
10160WAT     H142445   9.204   7.931   0.252 -0.9125  0.2966 -0.3919
10160WAT     H242446   9.083   7.844   0.278 -2.7341  2.2631 -1.9168
10160WAT    EPW42447   9.138   7.906   0.304 -0.6495 -0.0784 -0.2336
10161WAT      O42448   6.173   8.597   8.467 -0.0489 -0.4688 -0.1261
10161WAT     H142449   6.202   8.522   8.518  3.0721  0.4956 -0.3108
10161WAT     H242450   6.081   8.609   8.492 -0.0368 -3.0091  1.4735
10161WAT    EPW42451   6.164   8.589   8.477  0.3643 -0.6771  0.0606
10162WAT      O42452   8.919   0.203   3.334  0.1944  0.6509 -0.6961
10162WAT     H142453   8.905   0.187   3.240  0.8528  1.5882 -0.9651
10162WAT     H242454   8.913   0.116   3.374  1.7295 -0.0469 -1.8526
10162WAT    EPW42455   8.917   0.189   3.327  0.4840  0.6825 -0.8839
10163WAT      O42456   9.762   2.022   3.961  0.3191  0.4726  0.1217
10163WAT     H142457   9.822   1.986   4.027 -0.5264  0.4519  0.9023
10163WAT     H242458   9.697   2.070   4.012 -1.5797 -1.2717 -0.5087
10163WAT    EPW42459   9.761   2.024   3.977 -0.0429  0.2397  0.1415
10164WAT      O42460   9.479   2.616   5.824  0.5911  0.0514 -0.1807
10164WAT     H142461   9.507   2.543   5.878  0.4801 -0.2254 -0.4910
10164WAT     H242462   9.399   2.648   5.865 -0.2116 -0.9847 -0.9049
10164WAT    EPW42463   9.472   2.611   5.836  0.4702 -0.1217 -0.3173
10165WAT      O42464   3.572   1.301   4.649 -0.8481 -0.0311  0.0267
10165WAT     H142465   3.649   1.333   4.696 -2.1751  0.2558  2.1430
10165WAT     H242466   3.557   1.213   4.684 -1.8677  0.1879  0.1845
10165WAT    EPW42467   3.580   1.293   4.660 -1.1575  0.0356  0.3266
10166WAT      O42468   5.906   0.494   4.178 -1.2461  0.2420 -0.1224
10166WAT     H142469   5.979   0.442   4.145 -0.9266  0.2148  0.5955
10166WAT     H242470   5.836   0.431   4.191 -0.8351 -0.0489  0.8175
10166WAT    EPW42471   5.907   0.479   4.175 -1.1499  0.2001  0.0963
10167WAT      O42472  10.683   7.154   7.003  0.8218  0.6416  0.6623
10167WAT     H142473  10.723   7.234   6.970 -2.2716  1.9680 -0.2346
10167WAT     H242474  10.731   7.135   7.084  1.6180  3.4576  0.9603
10167WAT    EPW42475  10.695   7.162   7.009  0.5198  1.1878  0.5834
10168WAT      O42476   5.442   0.889   4.231  0.2201 -0.3576 -0.2716
10168WAT     H142477   5.446   0.912   4.324 -0.2678  1.7983 -0.7298
10168WAT     H242478   5.533   0.888   4.202  0.2473  1.8689 -0.3811
10168WAT    EPW42479   5.454   0.892   4.239  0.1593  0.2204 -0.3467
10169WAT      O42480   9.359   1.204   3.749 -0.0220  0.1185 -0.0644
10169WAT     H142481   9.382   1.288   3.788  0.6730  0.7634 -1.7659
10169WAT     H242482   9.296   1.226   3.680 -0.5687 -0.8827  0.0990
10169WAT    EPW42483   9.354   1.218   3.745 -0.0029  0.0715 -0.2671
10170WAT      O42484   1.648   6.458   3.485 -0.0044 -0.5058 -0.1904
10170WAT     H142485   1.741   6.473   3.469 -0.4894  3.3979 -0.1487
10170WAT     H242486   1.640   6.459   3.580 -0.4018  2.3291 -0.1922
10170WAT    EPW42487   1.659   6.460   3.495 -0.1208  0.3829 -0.1851
10171WAT      O42488   9.000   0.174   4.725 -0.5737 -0.1596  0.2738
10171WAT     H142489   8.987   0.261   4.687 -1.1285 -0.3818 -0.0544
10171WAT     H242490   9.042   0.191   4.809 -2.0918  0.5513  0.9378
10171WAT    EPW42491   9.003   0.188   4.731 -0.8464 -0.0951  0.3181
10172WAT      O42492   3.679   2.174   4.475 -0.4219  0.4260 -0.2216
10172WAT     H142493   3.719   2.095   4.512 -1.5907 -0.3737 -0.5753
10172WAT     H242494   3.703   2.244   4.536 -1.9832 -0.7675  1.9238
10172WAT    EPW42495   3.687   2.173   4.488 -0.7820  0.1630  0.0145
10173WAT      O42496   8.263   7.747   0.546 -0.0159 -0.1660  1.2858
10173WAT     H142497   8.260   7.808   0.620 -1.1069  2.3825 -0.6872
10173WAT     H242498   8.325   7.788   0.485 -3.0271  0.7713 -1.4318
10173WAT    EPW42499   8.271   7.761   0.548 -0.5569  0.2942  0.6671
10174WAT      O42500   5.941   0.972   5.455 -0.2525 -0.1544  0.8030
10174WAT     H142501   5.956   0.897   5.512  1.9202  2.1185  3.5921
10174WAT     H242502   5.931   1.046   5.516  4.0646  2.8581 -1.5777
10174WAT    EPW42503   5.942   0.972   5.471  0.6034  0.5427  0.8569
10175WAT      O42504   4.381   1.500   4.830 -0.1635 -0.2713  0.0606
10175WAT     H142505   4.323   1.531   4.760  0.0618 -1.3222 -0.6243
10175WAT     H242506   4.402   1.410   4.804  2.0001  0.1542  0.1371
10175WAT    EPW42507   4.376   1.492   4.817  0.1516 -0.3538 -0.0198
10176WAT      O42508   4.131   1.041   6.162  0.0473 -0.0353  0.3689
10176WAT     H142509   4.040   1.014   6.165 -0.6165  1.8088 -1.4549
10176WAT     H242510   4.139   1.106   6.232 -0.3242  0.6053 -0.1831
10176WAT    EPW42511   4.120   1.046   6.172 -0.0892  0.2925  0.0558
10177WAT      O42512   6.358   1.762   4.912  0.8013 -0.2971 -0.2334
10177WAT     H142513   6.323   1.674   4.899  1.1558 -0.4112 -0.4509
10177WAT     H242514   6.323   1.813   4.838  0.4086 -0.1969  0.0217
10177WAT    EPW42515   6.349   1.757   4.900  0.7963 -0.2989 -0.2284
10178WAT      O42516   3.199   9.268   3.189 -1.1054 -0.4702  0.4572
10178WAT     H142517   3.171   9.345   3.238  1.1944  0.9994 -0.3726
10178WAT     H242518   3.144   9.197   3.222 -2.3668  1.2381  2.2437
10178WAT    EPW42519   3.188   9.269   3.200 -0.9683 -0.0501  0.5834
10179WAT      O42520   0.718  10.370   6.720  0.3516  0.5947 -0.1421
10179WAT     H142521   0.655  10.325   6.776 -0.6407 -0.6962 -2.1585
10179WAT     H242522   0.665  10.403   6.647  1.9259 -0.3222 -1.7788
10179WAT    EPW42523   0.702  10.368   6.718  0.4284  0.3033 -0.6242
10180WAT      O42524   6.722   2.161   5.802  0.6196 -0.4730 -0.4046
10180WAT     H142525   6.752   2.079   5.842 -2.5668 -1.1543  0.8261
10180WAT     H242526   6.788   2.225   5.829  2.2156 -2.2308  0.1595
10180WAT    EPW42527   6.735   2.158   5.811  0.4096 -0.7948 -0.1681
10181WAT      O42528   1.389   8.173   5.242 -0.3211  0.2789 -0.7638
10181WAT     H142529   1.356   8.213   5.323  1.8049  0.3130  0.1600
10181WAT     H242530   1.360   8.082   5.247  0.4911  0.0647  0.4912
10181WAT    EPW42531   1.381   8.166   5.254  0.0665  0.2556 -0.4764
10182WAT      O42532   6.822   3.673   7.271 -0.2532 -0.2308  0.3096
10182WAT     H142533   6.889   3.701   7.333 -0.7340  1.7817 -0.0321
10182WAT     H242534   6.834   3.730   7.195 -1.9674 -0.2329  0.0040
10182WAT    EPW42535   6.833   3.684   7.269 -0.5429  0.0343  0.2241
10183WAT      O42536   4.733   1.262   4.740 -0.2908  0.0616  0.5074
10183WAT     H142537   4.764   1.201   4.672  0.6185  0.7762  0.2498
10183WAT     H242538   4.774   1.345   4.716 -0.7919  0.5597  1.3636
10183WAT    EPW42539   4.742   1.265   4.728 -0.2372  0.2216  0.5865
10184WAT      O42540   4.343   0.534   4.592  0.0376  0.1275 -0.5159
10184WAT     H142541   4.289   0.572   4.660  0.3166 -1.8735  0.9136
10184WAT     H242542   4.286   0.470   4.548  0.0836  0.8522 -1.6816
10184WAT    EPW42543   4.329   0.530   4.595  0.0806 -0.0409 -0.4814
10185WAT      O42544   5.682   8.970   5.813 -0.2354  0.6324  0.5287
10185WAT     H142545   5.651   9.006   5.896  1.6921  3.5784  0.1230
10185WAT     H242546   5.764   8.926   5.836 -1.0072 -0.8610  0.5276
10185WAT    EPW42547   5.689   8.969   5.827 -0.0830  0.8240  0.4749
10186WAT      O42548  10.269   2.640   2.092 -0.4490  0.1262 -0.1870
10186WAT     H142549  10.349   2.602   2.058 -0.7048  0.1027 -0.7735
10186WAT     H242550  10.289   2.733   2.106 -1.0643  0.7555 -2.8734
10186WAT    EPW42551  10.282   2.647   2.089 -0.5641  0.2061 -0.6186
10187WAT      O42552   5.238   0.978   7.150  0.7983  0.0406 -0.4708
10187WAT     H142553   5.279   0.920   7.214 -1.0551 -0.7643  0.0659
10187WAT     H242554   5.211   1.054   7.202  0.3745 -0.0684 -0.5281
10187WAT    EPW42555   5.240   0.980   7.165  0.4981 -0.0799 -0.4077
10188WAT      O42556   6.075   0.247   4.054 -0.2144 -0.6617 -0.6887
10188WAT     H142557   6.144   0.181   4.047  0.4850 -0.3819  2.1663
10188WAT     H242558   6.000   0.209   4.007  1.4466 -1.5335 -2.7725
10188WAT    EPW42559   6.074   0.233   4.047  0.0966 -0.7398 -0.5865
10189WAT      O42560   4.064   0.483   7.151 -0.2525 -0.2814 -0.0660
10189WAT     H142561   4.134   0.470   7.086 -1.2240  0.3063 -1.2815
10189WAT     H242562   4.061   0.578   7.163 -1.5591 -0.1855 -0.9008
10189WAT    EPW42563   4.073   0.494   7.144 -0.5529 -0.1912 -0.3364
10190WAT      O42564   6.820   2.541   6.238 -0.5117  0.6387  0.0135
10190WAT     H142565   6.913   2.546   6.259 -0.1047 -0.3545 -1.3872
10190WAT     H242566   6.793   2.454   6.268 -0.9512  0.8480  0.2405
10190WAT    EPW42567   6.829   2.530   6.245 -0.5157  0.5352 -0.1416
10191WAT      O42568   6.233   1.088   3.954 -0.1216 -0.0746  0.0694
10191WAT     H142569   6.187   1.140   4.019 -1.2265 -1.4557  0.4456
10191WAT     H242570   6.178   1.093   3.876  0.0859 -0.1681 -0.0838
10191WAT    EPW42571   6.220   1.096   3.952 -0.2398 -0.2691  0.0988
10192WAT      O42572   2.281   1.168   6.887  0.0891  0.0959 -0.3864
10192WAT     H142573   2.280   1.165   6.982 -2.1721  0.7381 -0.3350
10192WAT     H242574   2.312   1.256   6.866  0.7305 -0.0971 -0.2584
10192WAT    EPW42575   2.285   1.179   6.896 -0.1246  0.1551 -0.3626
10193WAT      O42576   6.491   0.474   5.175  0.1279 -0.0830  0.5867
10193WAT     H142577   6.495   0.408   5.244 -0.9707  0.5211  1.2606
10193WAT     H242578   6.404   0.514   5.185  0.4573  0.9084 -0.3139
10193WAT    EPW42579   6.480   0.471   5.185  0.0265  0.1274  0.5567
10194WAT      O42580   6.674   2.376   3.341  0.0839 -0.4310 -0.1208
10194WAT     H142581   6.601   2.377   3.403 -0.9519 -0.6972 -1.3011
10194WAT     H242582   6.717   2.292   3.355  0.6909  0.0661  1.1489
10194WAT    EPW42583   6.670   2.365   3.351  0.0274 -0.4007 -0.1090
10195WAT      O42584   3.835   0.664   3.384 -0.9170 -0.1974 -0.5050
10195WAT     H142585   3.801   0.753   3.372 -2.3956 -0.4352  1.3384
10195WAT     H242586   3.832   0.651   3.479 -0.8002 -2.2284 -0.7463
10195WAT    EPW42587   3.830   0.674   3.395 -1.0966 -0.4966 -0.2937
10196WAT      O42588   5.494   1.363   4.870 -0.2485  0.3403  0.3258
10196WAT     H142589   5.411   1.405   4.845  0.9823  1.7623 -1.7287
10196WAT     H242590   5.537   1.427   4.928 -0.5154 -0.3337  1.2784
10196WAT    EPW42591   5.489   1.377   4.874 -0.1216  0.4389  0.1805
10197WAT      O42592   7.410   1.406   5.852  0.4139  0.7517 -0.5406
10197WAT     H142593   7.388   1.499   5.851 -0.2595  0.6020 -2.1940
10197WAT     H242594   7.494   1.402   5.897 -0.4323  1.9276  1.2514
10197WAT    EPW42595   7.418   1.417   5.858  0.2131  0.8871 -0.5224
10198WAT      O42596   6.286   0.786   6.108 -0.1331  0.1784 -0.4766
10198WAT     H142597   6.283   0.750   6.196 -0.6816  0.7213 -0.2695
10198WAT     H242598   6.366   0.748   6.070 -0.8216 -1.4597 -0.3751
10198WAT    EPW42599   6.296   0.776   6.114 -0.2964  0.0339 -0.4358
10199WAT      O42600   8.735   0.859   3.469  0.4175  0.5100  0.6453
10199WAT     H142601   8.761   0.768   3.457  2.0231  0.8262  1.4963
10199WAT     H242602   8.811   0.910   3.442  0.6571  1.4819  2.8976
10199WAT    EPW42603   8.748   0.853   3.464  0.6609  0.6799  1.0546
10200WAT      O42604   5.491   3.986   4.622  0.1100 -0.8085 -0.1847
10200WAT     H142605   5.553   3.950   4.685 -0.8222 -0.3514  1.0333
10200WAT     H242606   5.451   3.909   4.581 -2.3322 -1.3603  2.8538
10200WAT    EPW42607   5.494   3.971   4.625 -0.3350 -0.8209  0.3767
10201WAT      O42608   5.652   2.813   5.670  0.0620 -0.4849 -0.0218
10201WAT     H142609   5.567   2.815   5.627  0.6463  0.4431 -1.1880
10201WAT     H242610   5.690   2.728   5.646 -0.6451 -1.0297  0.7548
10201WAT    EPW42611   5.646   2.802   5.661  0.0458 -0.4345 -0.0734
10202WAT      O42612   3.175   4.298   3.725 -0.1151 -0.3886  0.1301
10202WAT     H142613   3.201   4.222   3.776  0.9344 -0.3946 -0.4015
10202WAT     H242614   3.220   4.372   3.767 -1.3045 -0.0041  0.7835
10202WAT    EPW42615   3.184   4.298   3.737 -0.1335 -0.3388  0.1462
10203WAT      O42616   4.173   1.523   6.313 -0.2910 -0.5009  0.4404
10203WAT     H142617   4.110   1.594   6.312  0.1157 -0.1388 -1.3501
10203WAT     H242618   4.241   1.553   6.374  0.6598  1.3908 -1.4376
10203WAT    EPW42619   4.174   1.536   6.321 -0.1121 -0.2035 -0.0434
10204WAT      O42620   5.431   2.749   2.093  0.3576 -0.0105  0.1929
10204WAT     H142621   5.443   2.782   2.182  1.0898 -1.3486  0.6126
10204WAT     H242622   5.517   2.758   2.052  0.7835 -1.9751  0.5489
10204WAT    EPW42623   5.444   2.755   2.099  0.5105 -0.4462  0.2953
10205WAT      O42624   5.004   1.371   5.685  1.0416  0.4409 -0.3171
10205WAT     H142625   5.091   1.398   5.715  1.4183 -1.9053  0.9254
10205WAT     H242626   4.948   1.383   5.762  0.8390 -0.5006 -0.3093
10205WAT    EPW42627   5.008   1.376   5.699  1.0648  0.0073 -0.1523
10206WAT      O42628   2.921   0.936   3.390  0.0976  0.5169  0.7213
10206WAT     H142629   3.003   0.923   3.438  0.5097 -1.5799 -0.4086
10206WAT     H242630   2.930   1.021   3.348  1.0059  1.0149  1.8911
10206WAT    EPW42631   2.933   0.945   3.391  0.2717  0.3060  0.7266
10207WAT      O42632   3.352   4.662   4.326 -0.5708  0.3275 -0.4856
10207WAT     H142633   3.389   4.576   4.310  1.3797  1.2294 -1.1818
10207WAT     H242634   3.317   4.690   4.242  0.0487  0.7574 -0.6070
10207WAT    EPW42635   3.352   4.655   4.313 -0.2320  0.5028 -0.5934
10208WAT      O42636   9.705   2.621   1.890 -0.1735 -0.3202  1.0215
10208WAT     H142637   9.696   2.556   1.821 -0.2008  0.3285  0.4053
10208WAT     H242638   9.741   2.573   1.965 -1.0271 -1.2199  0.8611
10208WAT    EPW42639   9.709   2.606   1.891 -0.2899 -0.3532  0.9191
10209WAT      O42640   3.525   8.576   7.074 -0.1511  0.0746  0.4512
10209WAT     H142641   3.501   8.582   7.166 -2.3111  1.2947 -0.1337
10209WAT     H242642   3.481   8.497   7.043  0.3735 -0.1996  0.3920
10209WAT    EPW42643   3.516   8.566   7.082 -0.3669  0.1998  0.3660
10210WAT      O42644   5.740   9.882   2.955 -0.6344 -0.1110  0.0707
10210WAT     H142645   5.689   9.960   2.977 -2.3121 -0.7560 -1.3764
10210WAT     H242646   5.713   9.817   3.020  0.5183  0.3474  1.0672
10210WAT    EPW42647   5.730   9.884   2.967 -0.7038 -0.1354  0.0113
10211WAT      O42648   4.599   0.278   5.258  0.2582 -1.2261 -0.2749
10211WAT     H142649   4.593   0.337   5.333  1.4460 -1.2500 -0.1404
10211WAT     H242650   4.516   0.290   5.211  0.0877 -0.1595  0.2658
10211WAT    EPW42651   4.587   0.287   5.262  0.3927 -1.0885 -0.1860
10212WAT      O42652   6.358   1.314   7.545 -0.0381 -0.7361  0.3910
10212WAT     H142653   6.348   1.404   7.515  2.4193  0.0293  1.5631
10212WAT     H242654   6.314   1.313   7.631 -1.3473 -1.0987 -0.2642
10212WAT    EPW42655   6.351   1.326   7.553  0.1132 -0.6829  0.4590
10213WAT      O42656   5.596   1.498   5.116 -0.1755 -0.8613  0.0900
10213WAT     H142657   5.504   1.510   5.139 -0.2649 -0.7147 -0.3248
10213WAT     H242658   5.631   1.443   5.185 -0.2446  0.1853  0.9812
10213WAT    EPW42659   5.588   1.493   5.128 -0.1965 -0.7039  0.1528
10214WAT      O42660   6.150   9.453   2.094  0.0282 -0.8093 -0.1142
10214WAT     H142661   6.242   9.478   2.095 -0.2793  0.4985  2.4088
10214WAT     H242662   6.149   9.365   2.132  0.3060 -1.2852 -1.1736
10214WAT    EPW42663   6.162   9.444   2.099  0.0243 -0.6990  0.0787
10215WAT      O42664   5.511   3.091   8.390  0.2910  0.3072 -0.1784
10215WAT     H142665   5.569   3.019   8.365  1.0215  1.0471 -0.6737
10215WAT     H242666   5.459   3.056   8.463  2.0729 -0.0553  0.9852
10215WAT    EPW42667   5.511   3.077   8.396  0.6225  0.3570 -0.0901
10216WAT      O42668   5.982   0.151   3.796  0.2724  0.7381 -0.6272
10216WAT     H142669   5.993   0.072   3.849 -1.1713 -0.1582 -1.6102
10216WAT     H242670   6.070   0.169   3.762  0.8220  0.1746  0.4251
10216WAT    EPW42671   5.995   0.143   3.799  0.1545  0.5455 -0.6180
10217WAT      O42672   7.906   1.329   5.975  0.1931 -0.0656  0.1205
10217WAT     H142673   7.956   1.247   5.978 -1.5033 -1.1266  0.9581
10217WAT     H242674   7.890   1.351   6.067  3.9134  3.4228  0.1776
10217WAT    EPW42675   7.910   1.321   5.988  0.4599  0.2546  0.2387
10218WAT      O42676   4.458  10.283   4.700 -0.4607  0.9551 -0.6162
10218WAT     H142677   4.476  10.375   4.680  1.5599  1.7286  3.6781
10218WAT     H242678   4.415  10.285   4.786 -0.1427 -2.1523 -0.2621
10218WAT    EPW42679   4.454  10.295   4.709 -0.1523  0.6471 -0.0031
10219WAT      O42680   5.807   2.861   8.041  0.0151  0.2577  0.5677
10219WAT     H142681   5.772   2.787   7.991 -1.0323  2.7952 -2.8885
10219WAT     H242682   5.899   2.840   8.054  0.1587 -0.9513 -1.8292
10219WAT    EPW42683   5.814   2.848   8.036 -0.1042  0.4330 -0.2046
10220WAT      O42684   4.206   1.878   6.540 -0.0774 -0.5837 -0.4755
10220WAT     H142685   4.174   1.963   6.569 -0.1004  0.2405 -2.7545
10220WAT     H242686   4.264   1.849   6.611  0.2982  1.5345  0.1550
10220WAT    EPW42687   4.210   1.885   6.553 -0.0310 -0.1957 -0.6931
10221WAT      O42688   6.459   7.022   0.173 -0.1654 -0.5727 -0.9215
10221WAT     H142689   6.409   7.070   0.106 -1.1583  1.6440  1.2454
10221WAT     H242690   6.443   6.930   0.153 -2.4318  0.0395 -2.3170
10221WAT    EPW42691   6.450   7.016   0.161 -0.5953 -0.1996 -0.8197
10222WAT      O42692   4.747   3.150   6.122  0.5679  0.4441 -0.5036
10222WAT     H142693   4.827   3.123   6.077  0.4328 -0.4693 -0.2216
10222WAT     H242694   4.678   3.141   6.055  0.2194 -1.7781  0.0626
10222WAT    EPW42695   4.748   3.145   6.107  0.5043  0.0304 -0.3917
10223WAT      O42696   0.319   4.694   0.388 -0.0308 -0.2911  0.3102
10223WAT     H142697   0.257   4.628   0.420  0.0795 -1.3696 -1.5205
10223WAT     H242698   0.270   4.741   0.321  0.1099  1.0846  1.1483
10223WAT    EPW42699   0.304   4.691   0.383  0.0023 -0.2518  0.1793
10224WAT      O42700   4.285   0.046   4.642  0.3727  0.1002  0.1488
10224WAT     H142701   4.241   0.036   4.726  0.8093 -0.0284  0.3645
10224WAT     H242702   4.365  -0.005   4.651  0.6170  0.4185 -0.2048
10224WAT    EPW42703   4.289   0.038   4.654  0.4625  0.1259  0.1307
10225WAT      O42704  10.344   9.344   7.723  0.4597  0.2314  0.1690
10225WAT     H142705  10.270   9.404   7.713  0.4584  0.0971 -0.6910
10225WAT     H242706  10.410   9.396   7.769  0.4152  0.8617 -0.4572
10225WAT    EPW42707  10.343   9.359   7.727  0.4539  0.2975 -0.0272
10226WAT      O42708   3.449   2.373   4.534  0.2255  0.0988 -0.2485
10226WAT     H142709   3.481   2.307   4.473 -0.2263  0.1123 -0.5080
10226WAT     H242710   3.382   2.420   4.485  1.9815  2.1552 -0.8226
10226WAT    EPW42711   3.444   2.370   4.520  0.3976  0.3718 -0.3586
10227WAT      O42712   4.890   1.699   6.700  0.4064  0.3098 -0.5504
10227WAT     H142713   4.932   1.652   6.627  1.5558  0.9967 -0.3520
10227WAT     H242714   4.916   1.790   6.688 -1.1418  0.7834 -0.4696
10227WAT    EPW42715   4.899   1.705   6.689  0.3541  0.4628 -0.5136
10228WAT      O42716  10.437   8.721   2.271 -0.3019 -0.3187 -0.0175
10228WAT     H142717  10.492   8.719   2.193 -1.0438  1.2952 -0.6278
10228WAT     H242718  10.423   8.814   2.289  0.0089 -0.6293  2.1722
10228WAT    EPW42719  10.442   8.733   2.263 -0.3591 -0.1464  0.1907
10229WAT      O42720   3.341   4.085   6.291 -0.6165 -0.1568  0.1923
10229WAT     H142721   3.246   4.072   6.285 -0.5611  0.0663 -1.9578
10229WAT     H242722   3.367   4.110   6.203  1.5863 -1.0878  0.5118
10229WAT    EPW42723   3.332   4.087   6.279 -0.3185 -0.2501 -0.0491
10230WAT      O42724   4.762   2.332   4.386 -0.1565 -0.1616 -0.2461
10230WAT     H142725   4.839   2.375   4.348 -0.9613  2.2013  0.6226
10230WAT     H242726   4.773   2.344   4.480 -0.1893 -2.3916  0.0907
10230WAT    EPW42727   4.774   2.340   4.393 -0.2670 -0.1440 -0.0870
10231WAT      O42728   2.767   0.536   5.910  0.2071  0.0250  0.2891
10231WAT     H142729   2.768   0.625   5.946  1.7108 -0.7210  2.3386
10231WAT     H242730   2.852   0.499   5.935  0.0510 -1.6594 -1.4250
10231WAT    EPW42731   2.778   0.542   5.918  0.3848 -0.2956  0.3331
10232WAT      O42732   7.263   0.801   2.589 -0.4099 -0.3643 -0.0290
10232WAT     H142733   7.196   0.740   2.558 -1.5947  1.1572 -0.6388
10232WAT     H242734   7.268   0.786   2.683  0.1744 -2.1579 -0.3089
10232WAT    EPW42735   7.255   0.791   2.597 -0.4892 -0.4002 -0.1462
10233WAT      O42736   5.946   1.921   2.665  0.2030  0.9081 -0.8694
10233WAT     H142737   5.890   1.976   2.611 -0.8656 -0.9209 -1.7258
10233WAT     H242738   5.907   1.925   2.753 -0.6682  0.4821 -1.2278
10233WAT    EPW42739   5.934   1.929   2.670 -0.0527  0.6106 -1.0296
10234WAT      O42740   9.160   5.372   6.599  0.5099  0.7980 -0.4810
10234WAT     H142741   9.240   5.330   6.567  0.3794  0.3190 -0.1973
10234WAT     H242742   9.180   5.465   6.599  1.8666  0.5745  1.6576
10234WAT    EPW42743   9.173   5.379   6.595  0.6714  0.7055 -0.1614
10235WAT      O42744   2.500   2.407   3.549 -0.3171  0.1209 -0.3387
10235WAT     H142745   2.488   2.437   3.639 -2.2218 -0.2775 -0.4265
10235WAT     H242746   2.488   2.485   3.496 -2.2732 -0.1759 -0.3924
10235WAT    EPW42747   2.497   2.421   3.554 -0.8264  0.0292 -0.3574
10236WAT      O42748   4.033   2.940   3.923  0.1941  0.1269 -0.2042
10236WAT     H142749   3.969   2.894   3.868 -0.2101  2.1594 -1.5686
10236WAT     H242750   4.016   2.908   4.011 -3.4372  1.2651 -0.3176
10236WAT    EPW42751   4.022   2.929   3.927 -0.3381  0.5450 -0.3991
10237WAT      O42752   3.366   8.855   4.157  0.2091  0.3199  0.4420
10237WAT     H142753   3.280   8.821   4.181  0.2837 -2.9530 -2.9687
10237WAT     H242754   3.425   8.822   4.224 -0.4162 -2.8392 -0.4102
10237WAT    EPW42755   3.362   8.846   4.169  0.1365 -0.5293 -0.1199
10238WAT      O42756   1.656  10.231   5.697  0.8157 -0.3702  0.5029
10238WAT     H142757   1.653  10.168   5.625  1.8266  0.6504 -0.4821
10238WAT     H242758   1.568  10.267   5.702  0.5305 -1.0304  0.3213
10238WAT    EPW42759   1.644  10.228   5.689  0.9115 -0.3233  0.3493
10239WAT      O42760   4.688   0.915   4.078 -0.5978  0.3742 -0.4011
10239WAT     H142761   4.760   0.924   4.016 -0.0415  0.4798  0.2586
10239WAT     H242762   4.666   0.822   4.076  2.0972 -0.4558  2.1950
10239WAT    EPW42763   4.694   0.904   4.069 -0.1688  0.2787  0.0281
10240WAT      O42764   7.710   2.719   6.651 -0.2221  0.0307  0.2424
10240WAT     H142765   7.724   2.649   6.588  2.4483  2.0522 -1.5982
10240WAT     H242766   7.778   2.705   6.717 -0.1311  0.4778  0.2445
10240WAT    EPW42767   7.721   2.708   6.652  0.1419  0.3563  0.0000
10241WAT      O42768   6.223   2.653   8.259 -0.3111 -0.0423  0.1355
10241WAT     H142769   6.168   2.603   8.199  1.7984 -1.3582 -0.8454
10241WAT     H242770   6.203   2.745   8.240 -1.6745 -0.4659 -0.5875
10241WAT    EPW42771   6.213   2.658   8.249 -0.2129 -0.2717 -0.0892
10242WAT      O42772   7.639   0.445   3.173  0.1594 -0.6781  0.0140
10242WAT     H142773   7.734   0.436   3.179  0.1511 -2.6293 -1.6622
10242WAT     H242774   7.605   0.391   3.244  0.1737  2.6737  2.8932
10242WAT    EPW42775   7.647   0.437   3.184  0.1605 -0.4934  0.1727
10243WAT      O42776   3.710   0.866   4.196  0.5058 -0.4699 -0.0086
10243WAT     H142777   3.702   0.961   4.200 -0.5096 -0.5683  0.6094
10243WAT     H242778   3.801   0.851   4.169 -0.0764  0.7088 -2.9854
10243WAT    EPW42779   3.721   0.877   4.193  0.2952 -0.3274 -0.3197
10244WAT      O42780   7.696   0.380   5.092 -0.2292  0.2284 -0.5886
10244WAT     H142781   7.750   0.400   5.015  0.4715 -0.3903 -0.2705
10244WAT     H242782   7.665   0.291   5.076  1.0950 -0.4538  0.4952
10244WAT    EPW42783   7.699   0.371   5.080  0.0379  0.0568 -0.4034
10245WAT      O42784   3.520   2.049   6.674  0.4837  0.6102  0.8166
10245WAT     H142785   3.591   2.029   6.735  0.2567 -0.6749  0.6907
10245WAT     H242786   3.547   2.007   6.592 -0.2281  0.4482  0.6574
10245WAT    EPW42787   3.533   2.041   6.671  0.3598  0.4194  0.7789
10246WAT      O42788   4.686   2.515   1.178  0.0390 -0.3045 -0.0536
10246WAT     H142789   4.779   2.536   1.182  0.1001 -0.4963 -0.4317
10246WAT     H242790   4.678   2.430   1.222  0.1763 -0.7066 -0.7951
10246WAT    EPW42791   4.697   2.507   1.184  0.0653 -0.3830 -0.2013
10247WAT      O42792   3.670   2.023   6.878  0.1964 -0.2675  0.0232
10247WAT     H142793   3.710   1.939   6.902 -1.3671 -0.7480  1.1509
10247WAT     H242794   3.673   2.075   6.958  0.7314  0.5992 -0.5431
10247WAT    EPW42795   3.676   2.019   6.892  0.0608 -0.2167  0.0970
10248WAT      O42796   5.541   1.892   2.258 -0.2037 -0.0658 -0.0253
10248WAT     H142797   5.488   1.968   2.281  0.4080  0.8330 -1.4891
10248WAT     H242798   5.479   1.818   2.260 -1.5715  0.9601 -1.8123
10248WAT    EPW42799   5.526   1.892   2.262 -0.3033  0.1881 -0.4539
10249WAT      O42800   1.873  10.235   2.420  0.4010  0.0087 -0.2797
10249WAT     H142801   1.920  10.313   2.451  2.4580 -2.0404  2.2454
10249WAT     H242802   1.817  10.211   2.493  1.1449 -1.8419 -0.2690
10249WAT    EPW42803   1.872  10.242   2.434  0.7704 -0.5059  0.0547
10250WAT      O42804   2.812   0.346   4.054  0.2744  0.1308 -0.4958
10250WAT     H142805   2.896   0.300   4.050 -0.2190 -0.7581 -0.8689
10250WAT     H242806   2.769   0.310   4.131  0.1376  0.4159 -0.4394
10250WAT    EPW42807   2.818   0.336   4.063  0.1913  0.0512 -0.5379
10251WAT      O42808  10.783   5.465   3.389 -0.6959 -0.7974  0.3139
10251WAT     H142809  10.714   5.477   3.324 -0.6822 -1.4466  0.1740
10251WAT     H242810  10.848   5.532   3.367 -1.2786 -0.1758  0.4546
10251WAT    EPW42811  10.783   5.475   3.378 -0.7701 -0.8011  0.3140
10252WAT      O42812   6.027   1.718   6.238  0.3562 -0.2710 -0.1495
10252WAT     H142813   6.120   1.739   6.235  0.8076 -1.8659  1.4249
10252WAT     H242814   5.983   1.803   6.234  1.7914  0.4635 -2.0441
10252WAT    EPW42815   6.033   1.732   6.237  0.6049 -0.3844 -0.1917
10253WAT      O42816   8.154   1.926   4.945  0.1494 -0.1254 -0.5380
10253WAT     H142817   8.241   1.889   4.960 -0.4153 -0.4302  2.8679
10253WAT     H242818   8.096   1.877   5.004 -2.0485  1.1477 -1.4751
10253WAT    EPW42819   8.158   1.915   4.955 -0.2146  0.0023 -0.2122
10254WAT      O42820   2.117   1.929   6.193 -0.3945  0.5668 -0.3585
10254WAT     H142821   2.138   2.003   6.136  0.8379  0.9450  0.5384
10254WAT     H242822   2.176   1.860   6.165 -1.1996  0.0632 -0.8621
10254WAT    EPW42823   2.127   1.930   6.182 -0.3382  0.5503 -0.3066
10255WAT      O42824   7.989   2.676   5.029  0.1522 -0.1164  0.0091
10255WAT     H142825   8.084   2.674   5.042  0.0100  2.0093  2.2224
10255WAT     H242826   7.959   2.746   5.087 -2.7017 -0.1647 -1.2544
10255WAT    EPW42827   7.998   2.685   5.039 -0.2429  0.1577  0.1345
10256WAT      O42828   3.134   2.267   5.821  0.2334 -1.1289  0.0450
10256WAT     H142829   3.198   2.260   5.892  1.1558  0.7955 -0.5151
10256WAT     H242830   3.051   2.286   5.866  0.9069  0.6196  0.6577
10256WAT    EPW42831   3.131   2.269   5.836  0.4438 -0.6446  0.0520
10257WAT      O42832   4.608   1.998   4.000  0.1641  0.7761  0.5277
10257WAT     H142833   4.630   2.023   4.090  1.9167 -0.3946  0.4654
10257WAT     H242834   4.542   1.930   4.010  0.1516  0.8424  0.9084
10257WAT    EPW42835   4.602   1.992   4.013  0.3936  0.6304  0.5693
10258WAT      O42836   6.582   4.665   6.028 -0.4737  0.3586 -0.2087
10258WAT     H142837   6.552   4.650   5.938  0.6019 -1.2409 -0.3485
10258WAT     H242838   6.674   4.638   6.028 -0.0130  1.7985  1.0272
10258WAT    EPW42839   6.590   4.659   6.016 -0.2711  0.3376 -0.0646
10259WAT      O42840   3.287   8.900   8.202  0.1070  0.7114 -0.1795
10259WAT     H142841   3.291   8.938   8.115  1.1018 -3.1784 -2.0321
10259WAT     H242842   3.195   8.876   8.214  0.5956 -2.9171 -2.3566
10259WAT    EPW42843   3.275   8.902   8.192  0.3027 -0.2804 -0.7110
10260WAT      O42844   5.230   1.779   5.376  0.3361  0.0544  0.1868
10260WAT     H142845   5.311   1.747   5.336  0.9455 -0.1008  1.5100
10260WAT     H242846   5.164   1.772   5.306  1.1720 -1.0464 -0.5086
10260WAT    EPW42847   5.232   1.774   5.361  0.5269 -0.1113  0.2697
10261WAT      O42848  10.967   3.462   3.975 -0.4467  0.2751 -0.5830
10261WAT     H142849  10.995   3.552   3.956  0.6248  0.6114  2.1344
10261WAT     H242850  10.882   3.454   3.932  0.6975  1.5546 -3.3624
10261WAT    EPW42851  10.959   3.473   3.966 -0.1550  0.4882 -0.5912
10262WAT      O42852   4.310   0.010   4.170  0.0683 -0.2635 -0.7149
10262WAT     H142853   4.392   0.055   4.191  0.7501 -1.9394  0.3641
10262WAT     H242854   4.294  -0.048   4.244 -0.7799 -1.7858 -2.0136
10262WAT    EPW42855   4.318   0.008   4.182  0.0465 -0.6853 -0.7439
10263WAT      O42856   4.239   0.651   7.452 -0.2521 -0.6315 -0.3603
10263WAT     H142857   4.261   0.576   7.508 -1.5660  0.4268  1.7005
10263WAT     H242858   4.301   0.719   7.478 -0.4435 -0.3324 -0.6834
10263WAT    EPW42859   4.250   0.650   7.463 -0.4506 -0.4525 -0.1309
10264WAT      O42860   8.450   0.630   2.580 -0.3839  0.3823 -0.5055
10264WAT     H142861   8.495   0.593   2.504 -0.6162  1.1443 -1.0336
10264WAT     H242862   8.422   0.554   2.631  1.4272 -0.1011 -0.1892
10264WAT    EPW42863   8.452   0.615   2.577 -0.1755  0.4190 -0.5335
10265WAT      O42864   9.301   9.279   5.995 -0.4530  0.1257  0.0778
10265WAT     H142865   9.229   9.237   5.947  0.5450  0.1037 -1.5020
10265WAT     H242866   9.296   9.371   5.969  1.6189 -0.3029 -2.2391
10265WAT    EPW42867   9.291   9.285   5.985 -0.0482  0.0668 -0.4363
10266WAT      O42868   2.272   8.779   3.400 -0.8408 -0.1313 -0.3619
10266WAT     H142869   2.184   8.778   3.361 -1.3127  0.6997  0.6053
10266WAT     H242870   2.331   8.788   3.326 -1.2644 -4.1125 -1.4128
10266WAT    EPW42871   2.268   8.780   3.385 -0.9590 -0.5469 -0.3730
10267WAT      O42872   9.161   0.140   2.031  0.2976  0.1187  0.6599
10267WAT     H142873   9.078   0.123   2.076  0.3790  0.5684  0.9841
10267WAT     H242874   9.187   0.227   2.061  2.2725 -1.0672  2.7219
10267WAT    EPW42875   9.153   0.149   2.041  0.5693  0.0216  0.9748
10268WAT      O42876   0.433  10.273   4.463 -0.0273  0.0159 -0.1594
10268WAT     H142877   0.399  10.186   4.482 -0.6336  0.7204  2.4061
10268WAT     H242878   0.500  10.288   4.530  1.0147  1.0236 -1.3817
10268WAT    EPW42879   0.437  10.264   4.475  0.0302  0.2422  0.0179
10269WAT      O42880   4.548   9.935   3.092  0.6696  0.8064  0.0956
10269WAT     H142881   4.504   9.851   3.084 -1.1256  1.4403  2.2871
10269WAT     H242882   4.615   9.921   3.158  0.5326  1.0084  0.2814
10269WAT    EPW42883   4.551   9.922   3.100  0.4148  0.9170  0.4092
10270WAT      O42884   6.017   1.993   5.301 -0.8307  0.7142 -0.7286
10270WAT     H142885   6.006   1.930   5.373 -2.8287  1.5147 -0.2699
10270WAT     H242886   5.955   1.964   5.234  2.0147 -0.9176 -2.9485
10270WAT    EPW42887   6.008   1.981   5.302 -0.7188  0.6046 -0.9608
10271WAT      O42888   5.553   1.821   4.552 -0.2906  0.2024 -0.1670
10271WAT     H142889   5.569   1.795   4.642 -2.1193 -0.2622  0.0628
10271WAT     H242890   5.638   1.813   4.509  0.6155  0.4593  1.5006
10271WAT    EPW42891   5.566   1.816   4.558 -0.4125  0.1750  0.0834
10272WAT      O42892   5.323   0.179   5.492 -0.2598  0.0444 -0.0816
10272WAT     H142893   5.327   0.204   5.400 -3.3183 -1.0092 -0.6349
10272WAT     H242894   5.405   0.134   5.509  1.7877  3.0380 -1.3091
10272WAT    EPW42895   5.334   0.176   5.482 -0.3932  0.3003 -0.3164
10273WAT      O42896   4.316   5.532   4.915  0.6429 -1.0592 -0.2032
10273WAT     H142897   4.302   5.599   4.982  0.4123  0.5046 -1.7456
10273WAT     H242898   4.227   5.505   4.890  0.7224 -1.2551 -0.2763
10273WAT    EPW42899   4.302   5.537   4.921  0.6230 -0.8790 -0.4163
10274WAT      O42900   5.660   1.664   3.942  0.1787 -0.6191  0.3283
10274WAT     H142901   5.646   1.684   3.850 -0.7710  0.3710  0.6653
10274WAT     H242902   5.739   1.609   3.944 -0.5195 -1.7200 -1.1769
10274WAT    EPW42903   5.669   1.659   3.930 -0.0386 -0.6338  0.1742
10275WAT      O42904   0.909   7.151   4.079  0.0938  0.4932  0.7550
10275WAT     H142905   0.865   7.082   4.028 -0.2759 -0.1429  1.8887
10275WAT     H242906   0.999   7.149   4.048 -0.7349  2.3662 -2.2061
10275WAT    EPW42907   0.915   7.142   4.068 -0.0643  0.6561  0.5138
10276WAT      O42908   8.174   8.607   0.600 -1.0683  0.0788 -0.2347
10276WAT     H142909   8.267   8.603   0.621 -0.8935  0.1002 -0.9541
10276WAT     H242910   8.157   8.528   0.549 -1.5697 -0.1965  0.3479
10276WAT    EPW42911   8.184   8.596   0.596 -1.1110  0.0453 -0.2527
10277WAT      O42912   5.494   0.087   4.287 -0.4112 -0.6591  0.4316
10277WAT     H142913   5.496   0.065   4.380 -3.1054  0.5793  0.8849
10277WAT     H242914   5.529   0.176   4.283  1.2748 -1.2958 -0.0419
10277WAT    EPW42915   5.499   0.096   4.299 -0.5443 -0.5797  0.4287
10278WAT      O42916   5.880   1.737   5.947  0.5395  0.2443  0.3562
10278WAT     H142917   5.802   1.792   5.933  2.0398  2.2016 -0.8287
10278WAT     H242918   5.904   1.752   6.038  0.7424  1.3650  0.1397
10278WAT    EPW42919   5.873   1.746   5.957  0.7641  0.6503  0.1717
10279WAT      O42920   6.443   0.019   4.222 -0.6740 -0.6274  0.4886
10279WAT     H142921   6.418  -0.019   4.307  2.0026 -2.4959  0.5614
10279WAT     H242922   6.528   0.060   4.239 -1.0489  0.7632 -0.8603
10279WAT    EPW42923   6.451   0.019   4.236 -0.3703 -0.6903  0.3200
10280WAT      O42924   2.313   8.310   5.057 -0.3431  0.5226  0.2893
10280WAT     H142925   2.277   8.239   5.110 -1.9305  1.8257  1.0607
10280WAT     H242926   2.315   8.275   4.968 -0.0928 -0.8274  0.7995
10280WAT    EPW42927   2.308   8.296   5.052 -0.5194  0.5164  0.4582
10281WAT      O42928   3.463   0.040   1.076 -0.1032 -0.7546  0.4198
10281WAT     H142929   3.458   0.067   1.168 -0.5395  0.4050  0.0688
10281WAT     H242930   3.390   0.085   1.034  1.0800  0.0978 -0.8244
10281WAT    EPW42931   3.453   0.049   1.083 -0.0048 -0.4892  0.2093
10282WAT      O42932   4.310   2.921   4.608  0.4072 -0.3256  0.8980
10282WAT     H142933   4.391   2.870   4.601  1.7282  1.3023  2.9412
10282WAT     H242934   4.269   2.915   4.522  0.6942 -4.3704  0.8824
10282WAT    EPW42935   4.315   2.914   4.596  0.6194 -0.6444  1.1656
10283WAT      O42936   6.833   1.915   4.481 -0.2550  0.0535 -0.0813
10283WAT     H142937   6.746   1.920   4.521 -1.5869 -0.1013 -2.7169
10283WAT     H242938   6.863   2.006   4.479  0.6924 -0.1103  2.7884
10283WAT    EPW42939   6.825   1.928   4.486 -0.3059  0.0116 -0.0505
10284WAT      O42940   4.252   0.795   6.178  0.1017 -0.1921 -0.4591
10284WAT     H142941   4.295   0.778   6.262 -2.0252 -0.7299  0.5968
10284WAT     H242942   4.234   0.889   6.180  1.0276  0.0036 -0.8318
10284WAT    EPW42943   4.255   0.806   6.189 -0.0567 -0.2373 -0.3688
10285WAT      O42944   5.882   3.596   5.950 -0.2592  0.1365  0.2614
10285WAT     H142945   5.792   3.630   5.943 -1.0644 -1.2934  2.6184
10285WAT     H242946   5.936   3.675   5.960 -1.3734  0.9751 -0.0554
10285WAT    EPW42947   5.877   3.611   5.950 -0.5126  0.0584  0.5307
10286WAT      O42948   4.111   0.232   4.128  0.2499 -0.2408  0.2178
10286WAT     H142949   4.167   0.310   4.130  0.6957 -0.5626  0.2338
10286WAT     H242950   4.167   0.161   4.157 -0.3580 -0.4495  0.8901
10286WAT    EPW42951   4.126   0.233   4.132  0.2284 -0.3108  0.3083
10287WAT      O42952   3.917  10.107   5.624  0.0645 -0.4578  0.7611
10287WAT     H142953   3.828  10.087   5.652  0.4317  0.1042  2.4520
10287WAT     H242954   3.943  10.181   5.678  0.7693  0.8850 -1.3074
10287WAT    EPW42955   3.908  10.114   5.635  0.2059 -0.2069  0.7112
10288WAT      O42956   7.137   2.331   5.172  0.3336  0.3698  0.3881
10288WAT     H142957   7.198   2.268   5.209 -2.6204 -0.8442  3.8246
10288WAT     H242958   7.070   2.278   5.130  0.1415  1.5114 -0.8115
10288WAT    EPW42959   7.136   2.316   5.172 -0.0813  0.3603  0.6828
10289WAT      O42960  10.714   0.115   2.931  0.3148  0.5671 -0.3915
10289WAT     H142961  10.715   0.194   2.878  0.7469  0.9252  0.1389
10289WAT     H242962  10.791   0.066   2.904  1.0455  1.1723  0.5044
10289WAT    EPW42963  10.724   0.119   2.921  0.4683  0.6942 -0.2034
10290WAT      O42964   3.210   0.156   4.459  0.0623 -0.4992 -0.4349
10290WAT     H142965   3.242   0.192   4.542 -2.2260 -0.7313  0.6290
10290WAT     H242966   3.180   0.233   4.410  0.1650 -0.4816 -0.4703
10290WAT    EPW42967   3.210   0.171   4.463 -0.2260 -0.5275 -0.2995
10291WAT      O42968   1.625   8.510   6.539 -0.2927 -0.3146  0.6772
10291WAT     H142969   1.708   8.462   6.539 -0.6524 -0.9548  1.0621
10291WAT     H242970   1.576   8.472   6.612 -2.0757 -1.9811 -1.2637
10291WAT    EPW42971   1.629   8.498   6.549 -0.5753 -0.6185  0.4718
10292WAT      O42972   6.127   1.571   4.867  0.2540 -0.3880  0.4843
10292WAT     H142973   6.132   1.565   4.771  0.4534  2.3952  0.2276
10292WAT     H242974   6.035   1.588   4.885  0.3370 -0.1854  0.7205
10292WAT    EPW42975   6.116   1.572   4.857  0.2911  0.0058  0.4816
10293WAT      O42976   4.158   1.506   4.648 -0.4023  0.1644 -0.6012
10293WAT     H142977   4.180   1.501   4.555 -2.1591  0.8321 -1.1050
10293WAT     H242978   4.097   1.580   4.654  0.5112  0.8326  1.2728
10293WAT    EPW42979   4.153   1.516   4.637 -0.5133  0.3406 -0.4208
10294WAT      O42980   9.390   0.333   1.272 -0.0301  0.0245  0.0905
10294WAT     H142981   9.373   0.244   1.240  1.3214  0.0692 -0.8255
10294WAT     H242982   9.353   0.389   1.204 -0.6196  0.1788  0.5274
10294WAT    EPW42983   9.383   0.329   1.258  0.0701  0.0507  0.0273
10295WAT      O42984   8.848  10.329   6.415  0.1497  0.2395 -0.4313
10295WAT     H142985   8.755  10.348   6.407  0.5235  2.8963  0.5600
10295WAT     H242986   8.852  10.247   6.464 -1.6333 -1.1036 -2.3875
10295WAT    EPW42987   8.836  10.321   6.421 -0.0362  0.4120 -0.5586
10296WAT      O42988   4.328   0.877   3.090 -0.0556 -0.3086 -0.6395
10296WAT     H142989   4.280   0.817   3.148 -0.5691  0.6640 -0.0444
10296WAT     H242990   4.329   0.960   3.137  0.2211  0.2846 -1.6802
10296WAT    EPW42991   4.321   0.880   3.104 -0.0868 -0.1020 -0.6984
10297WAT      O42992   0.801   8.018   5.069  0.0821  0.4597 -0.0299
10297WAT     H142993   0.831   7.942   5.019 -2.3448 -0.3738 -0.3577
10297WAT     H242994   0.851   8.014   5.151 -0.6949 -2.1829  0.4266
10297WAT    EPW42995   0.812   8.007   5.074 -0.3405  0.0014 -0.0129
10298WAT      O42996   7.552   1.507   3.382 -0.1551 -0.2313 -0.2795
10298WAT     H142997   7.518   1.538   3.465 -1.5335 -2.1842 -0.0543
10298WAT     H242998   7.567   1.587   3.331  0.9387  1.0297  1.8555
10298WAT    EPW42999   7.550   1.522   3.386 -0.1926 -0.3225  0.0317
10299WAT      O43000   3.279   0.947   3.749 -0.4905 -0.1771  0.7397
10299WAT     H143001   3.347   0.975   3.811  0.5247 -1.3413  0.1980
10299WAT     H243002   3.214   0.903   3.803  0.5659 -1.5187  1.0023
10299WAT    EPW43003   3.280   0.945   3.764 -0.2172 -0.5076  0.7027
10300WAT      O43004   5.016   9.848   5.118 -0.1493  0.3448  0.2222
10300WAT     H143005   5.035   9.777   5.056 -0.2630  1.3424 -0.9870
10300WAT     H243006   5.055   9.926   5.078 -2.1993  1.4625  0.2449
10300WAT    EPW43007   5.024   9.849   5.104 -0.4346  0.6237  0.0656
10301WAT      O43008  10.409   9.867   3.981  0.1718 -1.2361 -0.5943
10301WAT     H143009  10.337   9.875   4.043  0.5932  1.5604 -0.3333
10301WAT     H243010  10.380   9.916   3.904  1.6288 -0.3550 -0.6256
10301WAT    EPW43011  10.396   9.874   3.979  0.4196 -0.7510 -0.5640
10302WAT      O43012   3.230   0.971   8.150 -0.0450 -0.9145  0.5090
10302WAT     H143013   3.190   1.042   8.100 -0.4353 -1.3808  0.1499
10302WAT     H243014   3.240   1.007   8.238  3.4348  1.0242 -0.4863
10302WAT    EPW43015   3.226   0.985   8.155  0.3625 -0.7203  0.3304
10303WAT      O43016   0.882  10.359   2.374 -0.3649 -0.2259 -0.1437
10303WAT     H143017   0.967  10.337   2.334 -0.9738  0.6393 -2.0381
10303WAT     H243018   0.905  10.413   2.450  0.8156 -1.2891  0.2925
10303WAT    EPW43019   0.897  10.363   2.379 -0.2894 -0.2518 -0.3361
10304WAT      O43020   1.648   9.218   1.883  0.0568 -0.5773 -0.0501
10304WAT     H143021   1.558   9.239   1.907 -0.1137 -1.1259 -0.2004
10304WAT     H243022   1.665   9.273   1.806  0.0299 -0.0867  0.2922
10304WAT    EPW43023   1.638   9.228   1.876  0.0307 -0.5856 -0.0248
10305WAT      O43024   3.866   0.307   3.936  0.2518  0.1009  0.1214
10305WAT     H143025   3.773   0.318   3.957  0.2464  0.3758 -0.0446
10305WAT     H243026   3.898   0.244   4.001  0.1474  0.6359  0.6984
10305WAT    EPW43027   3.858   0.300   3.947  0.2372  0.2078  0.1755
10306WAT      O43028   1.842   1.959   7.000 -0.5981 -0.5554 -0.2769
10306WAT     H143029   1.932   1.933   6.982 -0.9066 -0.4932 -2.0675
10306WAT     H243030   1.847   2.004   7.085  0.5215 -3.2108  1.1958
10306WAT    EPW43031   1.854   1.962   7.009 -0.4910 -0.8975 -0.3190
10307WAT      O43032   1.194   0.483   7.936 -0.4030 -0.6613 -0.1169
10307WAT     H143033   1.268   0.537   7.963 -0.3584 -1.5830  1.8353
10307WAT     H243034   1.117   0.527   7.974 -0.7523 -0.2611 -1.2572
10307WAT    EPW43035   1.193   0.496   7.945 -0.4432 -0.7301 -0.0098
10308WAT      O43036   1.232   2.429   5.663  0.0889 -0.4972 -0.2694
10308WAT     H143037   1.285   2.417   5.742  1.1568  1.9210 -0.5472
10308WAT     H243038   1.250   2.350   5.611 -0.2020 -1.8787  1.5994
10308WAT    EPW43039   1.241   2.417   5.667  0.1914 -0.3604 -0.0596
10309WAT      O43040   5.221   0.895   6.047 -0.1357 -0.7409 -0.1687
10309WAT     H143041   5.218   0.855   5.960 -3.0182 -0.9393 -0.0875
10309WAT     H243042   5.148   0.855   6.094  0.2544  0.6530  1.7602
10309WAT    EPW43043   5.211   0.884   6.041 -0.4644 -0.5832  0.0963
10310WAT      O43044   9.983   4.331   4.125 -0.1734  0.4015  0.0598
10310WAT     H143045  10.027   4.309   4.207 -0.8861  0.0088  0.3408
10310WAT     H243046   9.892   4.305   4.138 -0.6307  1.7130 -0.3111
10310WAT    EPW43047   9.977   4.325   4.137 -0.3281  0.5226  0.0477
10311WAT      O43048   3.700   5.038   7.942  0.0320  0.5247  0.8232
10311WAT     H143049   3.744   5.071   7.864 -1.8812 -0.3962 -0.7656
10311WAT     H243050   3.609   5.025   7.913 -0.2049 -2.2275  2.4516
10311WAT    EPW43051   3.694   5.040   7.928 -0.2517  0.0405  0.8285
10312WAT      O43052   7.122   3.455   5.747 -0.6261 -0.3598  0.2383
10312WAT     H143053   7.135   3.506   5.827 -2.1512 -0.0752  0.3353
10312WAT     H243054   7.080   3.515   5.686 -3.0752 -1.5941  0.5727
10312WAT    EPW43055   7.118   3.469   5.749 -1.1499 -0.4849  0.2952
10313WAT      O43056   7.142   0.632   5.772  0.9112 -0.3401 -0.1894
10313WAT     H143057   7.117   0.681   5.694 -0.3092  0.4407  0.6614
10313WAT     H243058   7.125   0.541   5.750  1.2896 -0.2030 -1.0832
10313WAT    EPW43059   7.137   0.627   5.759  0.8001 -0.2190 -0.1950
10314WAT      O43060   6.083   0.789   5.033 -0.4440  0.1463 -0.5251
10314WAT     H143061   6.001   0.826   4.999 -0.7423 -0.1148 -0.0878
10314WAT     H243062   6.095   0.831   5.118 -0.0108  0.3400 -0.6772
10314WAT    EPW43063   6.074   0.800   5.039 -0.4261  0.1374 -0.4876
10315WAT      O43064   9.040   3.642   4.585 -0.4869 -0.7471  0.2273
10315WAT     H143065   9.085   3.561   4.560  0.1110 -0.1589 -0.6927
10315WAT     H243066   8.970   3.614   4.644 -0.6081 -1.9821 -0.4779
10315WAT    EPW43067   9.037   3.627   4.590 -0.4239 -0.8323  0.0126
10316WAT      O43068   4.447   1.580   7.297  0.3516 -0.0908  0.0278
10316WAT     H143069   4.411   1.606   7.213  0.7588 -2.3490 -0.8973
10316WAT     H243070   4.373   1.584   7.358 -1.5241 -3.9516 -1.6604
10316WAT    EPW43071   4.433   1.584   7.294  0.1583 -0.8978 -0.3169
10317WAT      O43072   7.909   5.412   4.738 -0.5494 -0.0509  0.2598
10317WAT     H143073   8.002   5.431   4.744  0.1011 -2.9979  0.9956
10317WAT     H243074   7.868   5.473   4.799  0.9095  1.0355  0.2081
10317WAT    EPW43075   7.916   5.423   4.747 -0.2711 -0.2961  0.3505
10318WAT      O43076   4.106   0.300   5.272  0.0418  0.0384 -0.4668
10318WAT     H143077   4.066   0.331   5.191  0.3207 -0.2837 -0.7311
10318WAT     H243078   4.125   0.379   5.322  2.2707  0.4391 -1.8274
10318WAT    EPW43079   4.103   0.315   5.268  0.3724  0.0488 -0.6814
10319WAT      O43080   5.269   1.159   7.624  0.0025 -0.2050 -0.0703
10319WAT     H143081   5.238   1.161   7.714 -0.0125  1.6454 -0.0750
10319WAT     H243082   5.307   1.072   7.613 -0.4454 -0.6316  1.5506
10319WAT    EPW43083   5.270   1.147   7.634 -0.0582 -0.0172  0.1431
10320WAT      O43084   6.376   3.107   5.965 -0.4644 -0.1247  0.1371
10320WAT     H143085   6.444   3.066   5.913 -0.9359 -2.0138  0.9316
10320WAT     H243086   6.297   3.058   5.945 -0.8315 -0.3553  1.9483
10320WAT    EPW43087   6.375   3.095   5.956 -0.5751 -0.4042  0.4807
10321WAT      O43088   0.185  10.356   3.829 -0.2085 -0.8129 -0.0764
10321WAT     H143089   0.136  10.284   3.789  0.8763 -2.8096  1.9288
10321WAT     H243090   0.268  10.358   3.782 -0.3225 -0.7357 -0.2742
10321WAT    EPW43091   0.190  10.346   3.818 -0.0805 -1.0661  0.1619
10322WAT      O43092   9.273   4.238   7.790 -0.0155 -0.3905 -0.3398
10322WAT     H143093   9.344   4.295   7.821 -1.3170  0.7064  0.7855
10322WAT     H243094   9.282   4.158   7.843  0.6253 -0.4294 -0.5005
10322WAT    EPW43095   9.283   4.235   7.801 -0.1030 -0.2511 -0.2127
10323WAT      O43096   6.455   3.415   4.360  0.2783 -0.1759 -0.5872
10323WAT     H143097   6.444   3.351   4.290 -0.7611 -0.9675  0.2751
10323WAT     H243098   6.370   3.419   4.403  1.1594 -0.4658  1.2774
10323WAT    EPW43099   6.442   3.407   4.356  0.2573 -0.3186 -0.2277
10324WAT      O43100   5.682   1.690   6.975  0.1118 -0.7071  0.1889
10324WAT     H143101   5.699   1.608   6.930 -2.0825  0.2278 -2.6843
10324WAT     H243102   5.647   1.664   7.061  2.3086 -2.6200  0.6012
10324WAT    EPW43103   5.679   1.676   6.981  0.1121 -0.8361 -0.1357
10325WAT      O43104   6.103   2.467   8.084  0.5000  0.0286 -0.4063
10325WAT     H143105   6.049   2.527   8.032  1.1454  2.6108  1.6845
10325WAT     H243106   6.138   2.406   8.019  2.6746  4.0320 -3.4963
10325WAT    EPW43107   6.100   2.467   8.068  0.8719  0.8972 -0.5383
10326WAT      O43108  10.508   5.807   4.490 -0.1714  0.2439 -0.3126
10326WAT     H143109  10.574   5.743   4.516 -0.4317 -0.4644 -1.3156
10326WAT     H243110  10.454   5.760   4.426 -2.0841  0.5603  0.9907
10326WAT    EPW43111  10.509   5.792   4.485 -0.4578  0.1922 -0.2730
10327WAT      O43112   5.678   1.034   5.870 -0.5730  0.0416 -0.1442
10327WAT     H143113   5.612   0.985   5.919  0.0531 -0.7997 -0.1309
10327WAT     H243114   5.698   1.109   5.926 -0.8269 -0.1995  0.2790
10327WAT    EPW43115   5.672   1.038   5.884 -0.5238 -0.1012 -0.0868
10328WAT      O43116  10.440   5.329   6.431 -0.6562 -0.7302  0.7540
10328WAT     H143117  10.431   5.244   6.473  2.1717 -1.1952  0.6243
10328WAT     H243118  10.369   5.382   6.467 -3.4783 -3.5043 -0.3166
10328WAT    EPW43119  10.430   5.325   6.441 -0.6547 -1.1575  0.5956
10329WAT      O43120   6.964   0.216   7.148 -0.4059 -0.1780  0.7226
10329WAT     H143121   6.936   0.211   7.056 -0.2789 -0.4356  0.6988
10329WAT     H243122   7.001   0.304   7.157  1.4622 -0.8622 -0.0001
10329WAT    EPW43123   6.965   0.227   7.137 -0.1428 -0.3023  0.6242
10330WAT      O43124   8.662   2.802   4.012 -0.4218 -0.2163  0.0218
10330WAT     H143125   8.677   2.827   4.103 -0.9504 -1.8394  0.5976
10330WAT     H243126   8.748   2.772   3.981 -0.3095  0.0456  0.0749
10330WAT    EPW43127   8.676   2.801   4.020 -0.4764 -0.3958  0.1047
10331WAT      O43128   7.331   3.675   5.583  0.7862  0.7248  0.3228
10331WAT     H143129   7.309   3.588   5.617  1.0737 -0.0490 -1.3654
10331WAT     H243130   7.416   3.695   5.623  0.8268  0.1359  0.5560
10331WAT    EPW43131   7.339   3.666   5.593  0.8297  0.5450  0.1311
10332WAT      O43132   5.974   2.200   7.643 -0.1211  0.3380  0.3305
10332WAT     H143133   6.005   2.155   7.721 -1.0737  0.8501  1.0231
10332WAT     H243134   5.884   2.169   7.632  0.5540 -1.1477 -1.6430
10332WAT    EPW43135   5.966   2.190   7.652 -0.1578  0.2095  0.1614
10333WAT      O43136   9.122   1.670   5.269 -0.0092 -0.0775 -0.6398
10333WAT     H143137   9.070   1.712   5.200  1.0951  2.3679 -0.0715
10333WAT     H243138   9.078   1.694   5.351  1.0952  0.6993 -0.2504
10333WAT    EPW43139   9.109   1.678   5.271  0.2828  0.3474 -0.5133
10334WAT      O43140   6.536   2.061   5.607 -0.0766 -0.5852 -0.0832
10334WAT     H143141   6.595   2.067   5.683 -2.6043 -0.6317  2.0224
10334WAT     H243142   6.552   1.974   5.572  1.4843 -0.3910  0.0509
10334WAT    EPW43143   6.546   2.051   5.612 -0.2041 -0.5656  0.2122
10335WAT      O43144   5.143   3.699   3.104  0.1278  1.0416 -1.0502
10335WAT     H143145   5.126   3.793   3.100 -1.8268  0.7343 -1.3058
10335WAT     H243146   5.062   3.662   3.140  1.0189 -0.5061 -0.5599
10335WAT    EPW43147   5.130   3.706   3.108 -0.0124  0.7970 -1.0192
10336WAT      O43148   1.484   1.134   7.634 -0.0988 -0.5189  0.2427
10336WAT     H143149   1.408   1.157   7.580  0.0881  1.1683  0.6508
10336WAT     H243150   1.551   1.107   7.571  0.0719  1.2946 -0.4197
10336WAT    EPW43151   1.483   1.133   7.619 -0.0517 -0.0572  0.2091
10337WAT      O43152   6.764   3.752   6.770 -0.0545 -0.3277 -0.0919
10337WAT     H143153   6.848   3.787   6.743 -0.0326  1.6947  2.2262
10337WAT     H243154   6.785   3.683   6.832 -0.0138  0.9269  1.3571
10337WAT    EPW43155   6.778   3.748   6.775 -0.0463  0.1047  0.4053
10338WAT      O43156   7.524   3.310   6.330  0.2228  0.4814 -0.1811
10338WAT     H143157   7.493   3.296   6.241  1.8774 -2.4812 -0.4207
10338WAT     H243158   7.619   3.296   6.325  0.2468 -0.6991  2.1723
10338WAT    EPW43159   7.533   3.307   6.318  0.4447 -0.0650  0.0978
10339WAT      O43160   6.367   4.873   5.761 -0.2936 -0.9309  0.3336
10339WAT     H143161   6.305   4.923   5.814  0.3427  0.7414 -0.4068
10339WAT     H243162   6.453   4.906   5.787  0.2149 -2.2641  0.4122
10339WAT    EPW43163   6.370   4.884   5.771 -0.1426 -0.8864  0.2460
10340WAT      O43164   8.334   0.784   5.898 -0.7312  0.5127 -0.2352
10340WAT     H143165   8.402   0.725   5.865  0.2183  0.3864  1.8046
10340WAT     H243166   8.282   0.806   5.820  1.1565 -0.0012 -1.7248
10340WAT    EPW43167   8.336   0.779   5.883 -0.3572  0.4283 -0.1628
10341WAT      O43168   8.159   1.985   3.580  0.6750 -0.1653  0.7806
10341WAT     H143169   8.112   1.903   3.596 -0.1629  0.2558  0.4999
10341WAT     H243170   8.240   1.976   3.632 -0.7157  0.0351  3.1315
10341WAT    EPW43171   8.164   1.973   3.589  0.3815 -0.0833  1.0537
10342WAT      O43172  10.019   3.971   7.611  0.0695  0.4572 -0.4123
10342WAT     H143173  10.110   3.999   7.609  0.0517  0.4858 -1.6852
10342WAT     H243174  10.023   3.876   7.618  0.1837  0.4812 -0.1325
10342WAT    EPW43175  10.031   3.962   7.612  0.0825  0.4640 -0.5434
10343WAT      O43176   6.212   2.555   6.871  0.2758 -0.1435 -0.3698
10343WAT     H143177   6.251   2.637   6.838 -1.3406  0.4803 -0.8223
10343WAT     H243178   6.170   2.580   6.953  0.2231 -0.6541 -0.2419
10343WAT    EPW43179   6.212   2.569   6.877  0.0558 -0.1285 -0.4125
10344WAT      O43180   2.316   1.860   6.577 -0.0876  0.4214  0.1846
10344WAT     H143181   2.269   1.779   6.593 -2.7333  2.1697  1.8631
10344WAT     H243182   2.375   1.869   6.652 -2.0226  1.4865  1.6469
10344WAT    EPW43183   2.318   1.850   6.589 -0.6918  0.7924  0.5987
10345WAT      O43184   8.292   1.751   6.971 -0.3875  0.5527 -0.0166
10345WAT     H143185   8.305   1.745   7.066 -0.2913 -0.5209 -0.0828
10345WAT     H243186   8.205   1.790   6.961 -1.1633 -0.9482  0.5523
10345WAT    EPW43187   8.283   1.755   6.982 -0.4773  0.2131  0.0496
10346WAT      O43188   5.204   2.011   7.642  0.2092  0.1882 -0.1376
10346WAT     H143189   5.175   1.948   7.576 -1.4810 -1.1668  1.7955
10346WAT     H243190   5.129   2.022   7.700  2.0688  0.1217  2.4714
10346WAT    EPW43191   5.190   2.004   7.641  0.2315  0.0006  0.4611
10347WAT      O43192   9.031   2.037   5.052 -0.0526  0.4320  0.3265
10347WAT     H143193   8.981   2.017   4.973 -1.5387 -0.6468  1.4730
10347WAT     H243194   9.016   2.130   5.068  0.8339  0.8280 -1.0097
10347WAT    EPW43195   9.022   2.047   5.044 -0.1321  0.3418  0.3014
10348WAT      O43196   6.250   0.479   4.044 -0.4464  0.0158 -0.3383
10348WAT     H143197   6.220   0.388   4.038  1.4088 -0.5472 -1.6144
10348WAT     H243198   6.334   0.474   4.090  0.3057  0.9139 -1.5671
10348WAT    EPW43199   6.257   0.467   4.049 -0.1025  0.0600 -0.6688
10349WAT      O43200   2.732   3.749   8.857  0.3126  0.0022  0.5951
10349WAT     H143201   2.729   3.837   8.818 -0.6027 -0.4133 -0.3273
10349WAT     H243202   2.787   3.759   8.934  0.2591  1.3835  0.4809
10349WAT    EPW43203   2.739   3.762   8.862  0.1849  0.1295  0.4582
10350WAT      O43204   9.474   2.323   7.236 -0.2618 -0.0857 -0.1164
10350WAT     H143205   9.487   2.418   7.232  0.9533 -0.2673 -1.3548
10350WAT     H243206   9.409   2.311   7.305 -1.7727  1.7589 -1.1107
10350WAT    EPW43207   9.467   2.334   7.245 -0.3004  0.1336 -0.4110
10351WAT      O43208   1.715   2.636   7.325 -0.9791 -0.6454 -0.0104
10351WAT     H143209   1.752   2.641   7.413  2.0014  0.9684 -1.2056
10351WAT     H243210   1.621   2.646   7.338 -0.5432  0.6174  2.9289
10351WAT    EPW43211   1.707   2.638   7.338 -0.5285 -0.2660  0.2196
10352WAT      O43212   7.166   3.536   4.712  0.1964  0.2652 -0.6905
10352WAT     H143213   7.161   3.616   4.764  3.6634  0.6080 -0.6709
10352WAT     H243214   7.110   3.552   4.637 -0.9030  1.7916  0.4010
10352WAT    EPW43215   7.158   3.549   4.709  0.5088  0.5118 -0.5438
10353WAT      O43216   7.187   0.394   6.980  0.1160 -0.2854 -0.2224
10353WAT     H143217   7.120   0.454   7.013 -0.5914 -0.9382 -0.4573
10353WAT     H243218   7.269   0.429   7.016 -0.2243  1.0244 -0.6345
10353WAT    EPW43219   7.189   0.407   6.989 -0.0222 -0.1987 -0.3078
10354WAT      O43220   1.733   0.421   3.117 -0.2487  0.7397 -0.8412
10354WAT     H143221   1.793   0.462   3.179 -0.6378  2.5302 -1.5828
10354WAT     H243222   1.646   0.448   3.146 -0.7373 -1.4127 -0.0743
10354WAT    EPW43223   1.729   0.430   3.129 -0.3645  0.6920 -0.8378
10355WAT      O43224   0.541   2.964   5.006  0.1086  0.1053 -0.7365
10355WAT     H143225   0.450   2.942   5.025  0.8511 -1.7734  1.0335
10355WAT     H243226   0.545   2.967   4.911 -1.6834 -0.3707 -0.8657
10355WAT    EPW43227   0.529   2.962   4.996 -0.0298 -0.2054 -0.5205
10356WAT      O43228   9.968   2.657   5.968  0.6695  0.3761  0.0473
10356WAT     H143229   9.927   2.596   5.907 -0.6482  2.2831 -1.0864
10356WAT     H243230  10.056   2.623   5.981  0.3962 -1.0662 -1.5191
10356WAT    EPW43231   9.974   2.644   5.962  0.4592  0.4375 -0.3088
10357WAT      O43232   7.480   1.279   2.347 -0.2902  0.1084 -0.1756
10357WAT     H143233   7.394   1.239   2.364  0.1539 -1.6931 -1.8199
10357WAT     H243234   7.542   1.221   2.391  0.4864 -2.0685 -3.7747
10357WAT    EPW43235   7.477   1.266   2.355 -0.1295 -0.4163 -0.8672
10358WAT      O43236   6.336   3.001   3.041 -0.0390  0.5564  0.4991
10358WAT     H143237   6.339   3.094   3.019  1.2508  0.4336  0.0544
10358WAT     H243238   6.272   2.964   2.980  1.3654  0.7253 -1.1604
10358WAT    EPW43239   6.328   3.008   3.030  0.3164  0.5624  0.2215
10359WAT      O43240   3.621  10.050   7.384 -0.0813  0.1530  0.6453
10359WAT     H143241   3.694  10.010   7.337  1.3013  3.1667  0.0193
10359WAT     H243242   3.647  10.045   7.476  0.5620  0.5642  0.4865
10359WAT    EPW43243   3.634  10.044   7.390  0.1860  0.6046  0.5419
10360WAT      O43244   7.971   1.139   3.624  0.1629  0.2682  0.1689
10360WAT     H143245   7.880   1.126   3.651 -0.2427 -0.5585 -1.4560
10360WAT     H243246   7.971   1.115   3.531  2.0978  0.0441  0.2032
10360WAT    EPW43247   7.959   1.134   3.615  0.3648  0.1296 -0.0410
10361WAT      O43248   5.760   3.446   6.301  0.0076 -0.1221 -0.1960
10361WAT     H143249   5.720   3.424   6.217 -1.4025 -1.7398  0.8481
10361WAT     H243250   5.849   3.411   6.294 -0.4492 -1.2552 -0.6322
10361WAT    EPW43251   5.767   3.438   6.289 -0.2384 -0.4848 -0.1159
10362WAT      O43252   5.875   4.232   1.754  0.5542  0.4224  0.5681
10362WAT     H143253   5.826   4.179   1.691 -0.1198  0.3605  1.1384
10362WAT     H243254   5.886   4.176   1.830  1.2251  0.5590  0.5826
10362WAT    EPW43255   5.870   4.218   1.755  0.5538  0.4320  0.6453
10363WAT      O43256   6.645   2.992   5.243 -0.1385 -0.0862  0.0567
10363WAT     H143257   6.668   2.912   5.289 -0.3741  0.1486  0.5927
10363WAT     H243258   6.659   2.972   5.150  0.7814 -0.4172  0.2566
10363WAT    EPW43259   6.650   2.979   5.237 -0.0482 -0.0989  0.1535
10364WAT      O43260   6.954   4.024   6.191  0.0279  0.6076  0.4183
10364WAT     H143261   6.911   4.021   6.106 -1.9968  1.0232  1.3787
10364WAT     H243262   6.956   4.117   6.213  1.2465  0.5801  0.5237
10364WAT    EPW43263   6.949   4.036   6.183 -0.0782  0.6590  0.5589
10365WAT      O43264   6.775   3.461   6.360  0.2972 -0.0444  0.1763
10365WAT     H143265   6.858   3.508   6.368  1.4728 -2.0710  0.5220
10365WAT     H243266   6.725   3.513   6.296  1.7788  1.2737  0.0151
10365WAT    EPW43267   6.780   3.474   6.352  0.6475 -0.1378  0.2007
10366WAT      O43268   8.213   3.461   5.398 -0.3163  0.2146 -0.0754
10366WAT     H143269   8.185   3.416   5.319 -0.4943 -0.1656  0.2015
10366WAT     H243270   8.147   3.529   5.412 -0.9161 -0.4359  0.3654
10366WAT    EPW43271   8.201   3.464   5.390 -0.4187  0.0787  0.0193
10367WAT      O43272   6.176   0.252   2.763  0.1253  1.1105  0.1822
10367WAT     H143273   6.249   0.195   2.740  0.9290  1.0534  2.5721
10367WAT     H243274   6.151   0.223   2.851 -3.8716  0.0610 -1.1040
10367WAT    EPW43275   6.182   0.241   2.772 -0.2961  0.9646  0.3277
10368WAT      O43276   7.587   3.639   7.078  0.6281  0.3417  0.2908
10368WAT     H143277   7.566   3.686   6.997  1.2855  0.8561  0.4113
10368WAT     H243278   7.577   3.704   7.147 -2.3569 -0.6830  0.9682
10368WAT    EPW43279   7.583   3.653   7.076  0.3214  0.2744  0.3955
10369WAT      O43280   3.907   2.880   6.748  0.8330  0.4541  0.0099
10369WAT     H143281   3.827   2.858   6.702  0.3416 -0.1121  1.1016
10369WAT     H243282   3.972   2.817   6.716  0.8276  0.8439 -0.7928
10369WAT    EPW43283   3.905   2.869   6.738  0.7674  0.4309  0.0479
10370WAT      O43284   8.906   0.010   5.143  0.1678 -0.3996 -0.1269
10370WAT     H143285   8.978  -0.050   5.125 -0.1788 -0.8516 -0.0243
10370WAT     H243286   8.930   0.050   5.227 -0.4245 -1.6947  0.7039
10370WAT    EPW43287   8.918   0.007   5.152  0.0439 -0.6304 -0.0038
10371WAT      O43288  10.992   1.793   8.184 -0.2759  0.0065 -0.2960
10371WAT     H143289  11.047   1.769   8.258 -0.9759  1.4695  0.7613
10371WAT     H243290  11.049   1.788   8.108  1.0010  0.3223  0.6115
10371WAT    EPW43291  11.007   1.789   8.184 -0.1998  0.2412 -0.0367
10372WAT      O43292   6.091   2.949   5.947  0.2598 -0.5375  0.0056
10372WAT     H143293   6.069   2.915   5.861 -0.5301 -0.8707  0.3270
10372WAT     H243294   6.007   2.980   5.982  0.5609 -0.4660  0.6730
10372WAT    EPW43295   6.077   2.949   5.940  0.1950 -0.5721  0.1359
10373WAT      O43296   8.862   0.783   5.045 -0.5896  0.4886  0.4275
10373WAT     H143297   8.892   0.726   5.115  0.3811  0.7833  0.2666
10373WAT     H243298   8.794   0.733   5.000 -0.1850 -0.2842  0.6660
10373WAT    EPW43299   8.857   0.769   5.048 -0.4086  0.4255  0.4377
10374WAT      O43300   7.861   2.930   6.025  0.1502 -0.9513 -0.1655
10374WAT     H143301   7.855   2.835   6.012 -0.0803 -1.0027  0.2831
10374WAT     H243302   7.918   2.940   6.102  1.2367 -0.6740 -0.9932
10374WAT    EPW43303   7.867   2.919   6.034  0.2630 -0.9214 -0.2155
10375WAT      O43304   6.949   3.718   4.576  0.0866  0.0392 -0.2469
10375WAT     H143305   6.907   3.770   4.644  1.4007  0.8610 -0.0141
10375WAT     H243306   6.964   3.779   4.504  2.4521  0.2969  0.3664
10375WAT    EPW43307   6.946   3.733   4.575  0.5720  0.1814 -0.1352
10376WAT      O43308   7.706   3.691   5.063  0.0892  0.0300  0.0405
10376WAT     H143309   7.711   3.770   5.116 -3.5715  1.1851 -0.9813
10376WAT     H243310   7.725   3.619   5.123  2.9038  1.5545  1.1282
10376WAT    EPW43311   7.709   3.692   5.078 -0.0224  0.3835  0.0494
10377WAT      O43312   4.157   4.009   5.054 -0.0466 -0.3484 -0.2851
10377WAT     H143313   4.216   3.941   5.021  2.1426  1.6884 -0.8522
10377WAT     H243314   4.139   3.984   5.144  1.0022 -1.5054 -0.3670
10377WAT    EPW43315   4.163   3.997   5.061  0.3805 -0.2325 -0.3705
10378WAT      O43316   7.697   3.119   5.862  0.3030  0.0551  0.3454
10378WAT     H143317   7.725   3.039   5.905 -2.1955 -0.8813  0.3809
10378WAT     H243318   7.638   3.161   5.924  1.3178  1.7921  0.1906
10378WAT    EPW43319   7.693   3.114   5.876  0.1073  0.1608  0.3293
10379WAT      O43320   3.541   4.249   2.875 -0.1258 -0.2311  0.4154
10379WAT     H143321   3.620   4.288   2.913 -1.0092  0.2365  1.8694
10379WAT     H243322   3.573   4.191   2.806  1.8504 -3.0689  3.4191
10379WAT    EPW43323   3.556   4.247   2.871  0.0182 -0.5438  1.0034
10380WAT      O43324   2.657   8.699   7.531 -0.3697 -0.3891 -0.0429
10380WAT     H143325   2.723   8.665   7.591 -1.9607 -1.1848  1.3270
10380WAT     H243326   2.707   8.755   7.470  1.4245 -0.3011  1.4116
10380WAT    EPW43327   2.672   8.702   7.531 -0.3427 -0.4826  0.3297
10381WAT      O43328   0.343   8.918   2.463 -0.3377  0.0098 -0.1491
10381WAT     H143329   0.289   8.907   2.541  0.1756  0.8544  0.3438
10381WAT     H243330   0.433   8.908   2.495 -0.1748 -0.8921 -0.8671
10381WAT    EPW43331   0.348   8.915   2.478 -0.2485  0.0024 -0.1786
10382WAT      O43332   7.984   4.658   5.332 -0.2354 -0.2630  0.0059
10382WAT     H143333   7.962   4.586   5.391  0.8621  0.2513  1.0831
10382WAT     H243334   7.901   4.681   5.289 -0.6542 -1.9588 -0.1500
10382WAT    EPW43335   7.970   4.652   5.334 -0.1457 -0.4189  0.1273
10383WAT      O43336   4.885   1.611   5.528  0.2523 -0.1104 -0.1464
10383WAT     H143337   4.925   1.532   5.564  1.5545  1.8248  3.1054
10383WAT     H243338   4.841   1.652   5.602 -1.9774  1.3607 -2.1301
10383WAT    EPW43339   4.884   1.606   5.542  0.1299  0.3389  0.0210
10384WAT      O43340   9.984   7.261   4.317  0.6800  0.1020 -0.6153
10384WAT     H143341  10.035   7.294   4.391 -0.3506  0.3150  0.0160
10384WAT     H243342   9.897   7.245   4.353 -0.0916  1.0345 -1.9659
10384WAT    EPW43343   9.979   7.264   4.332  0.4420  0.2527 -0.7102
10385WAT      O43344   6.739   3.922   4.133 -0.1710 -0.4340  0.2990
10385WAT     H143345   6.676   3.851   4.131  0.1762 -0.8532  2.0774
10385WAT     H243346   6.791   3.906   4.213  1.0502  0.8386 -0.1901
10385WAT    EPW43347   6.738   3.911   4.144  0.0360 -0.3214  0.4690
10386WAT      O43348   2.968   0.601   4.607  0.4812 -0.4580 -0.0247
10386WAT     H143349   2.950   0.670   4.671  2.7093  0.0879  0.1185
10386WAT     H243350   2.955   0.519   4.654 -0.1572 -0.1036  0.4257
10386WAT    EPW43351   2.964   0.600   4.621  0.6908 -0.3393  0.0539
10387WAT      O43352   5.946   1.167   4.885  0.3813  0.1325  0.4293
10387WAT     H143353   5.878   1.225   4.851  0.0317  0.4137  1.5785
10387WAT     H243354   5.989   1.217   4.954  0.0845 -0.9408  1.4278
10387WAT    EPW43355   5.943   1.181   4.890  0.2961  0.0281  0.7122
10388WAT      O43356   8.681   2.229   5.218  0.3122 -0.3920 -0.2620
10388WAT     H143357   8.668   2.148   5.266  0.3532 -0.1886  0.1003
10388WAT     H243358   8.762   2.266   5.254  0.0021  0.0795 -0.0329
10388WAT    EPW43359   8.690   2.223   5.229  0.2766 -0.3030 -0.1841
10389WAT      O43360   4.665   2.539   3.199 -0.2102  0.1451  0.0846
10389WAT     H143361   4.739   2.509   3.146 -0.2028 -0.4573  0.4267
10389WAT     H243362   4.701   2.613   3.249 -0.2359  0.7617 -0.7810
10389WAT    EPW43363   4.680   2.545   3.199 -0.2124  0.1470  0.0157
10390WAT      O43364   9.119   3.932   6.330 -0.2315  0.1430  0.2549
10390WAT     H143365   9.109   3.917   6.235  0.2148  3.0944 -0.3471
10390WAT     H243366   9.205   3.895   6.351  0.3394  0.7871 -0.8377
10390WAT    EPW43367   9.129   3.925   6.320 -0.0973  0.6173  0.0312
10391WAT      O43368   7.323   3.656   7.575  0.3255  0.0096  1.0142
10391WAT     H143369   7.331   3.737   7.526  1.4428 -0.5205  0.2844
10391WAT     H243370   7.254   3.607   7.529  0.9506 -0.2327  0.3156
10391WAT    EPW43371   7.315   3.660   7.562  0.5553 -0.0923  0.8254
10392WAT      O43372   7.867   4.549   1.882  0.0131  0.4461 -0.0146
10392WAT     H143373   7.956   4.523   1.858 -0.0030 -2.0594  2.1413
10392WAT     H243374   7.875   4.639   1.912  1.3236  1.0862 -2.1062
10392WAT    EPW43375   7.879   4.557   1.883  0.1838  0.2003 -0.0061
10393WAT      O43376   4.989   3.502   1.198  0.5990 -0.5974 -0.3103
10393WAT     H143377   4.976   3.593   1.173 -1.5858 -0.1269  2.1937
10393WAT     H243378   5.081   3.498   1.225  1.1311  0.4479 -1.8044
10393WAT    EPW43379   5.000   3.513   1.198  0.3812 -0.3974 -0.1771
10394WAT      O43380   8.417   2.415   0.587  0.4869  0.8203 -0.0654
10394WAT     H143381   8.380   2.498   0.556 -1.8426  0.4070  1.3940
10394WAT     H243382   8.358   2.387   0.656  1.1025 -2.1896 -0.6397
10394WAT    EPW43383   8.404   2.422   0.592  0.2604  0.3687  0.0513
10395WAT      O43384   2.951   1.940   8.373  0.3847 -0.7998  0.3408
10395WAT     H143385   2.924   1.941   8.282 -0.7235 -2.4752  0.6097
10395WAT     H243386   2.940   1.849   8.401  0.5832 -0.3106  2.1806
10395WAT    EPW43387   2.946   1.928   8.365  0.2648 -0.9562  0.6185
10396WAT      O43388   5.858   5.151   6.964  0.5589  0.7244  0.2754
10396WAT     H143389   5.810   5.084   7.013  0.6755  1.0806  0.8897
10396WAT     H243390   5.791   5.199   6.916  0.3106  1.0593  0.9345
10396WAT    EPW43391   5.843   5.149   6.964  0.5417  0.8156  0.4432
10397WAT      O43392   9.113   3.967   4.711  0.3235 -0.1686  0.9123
10397WAT     H143393   9.075   3.879   4.703 -1.7969  0.8192 -1.0606
10397WAT     H243394   9.039   4.022   4.738  1.6409  1.0396  2.2589
10397WAT    EPW43395   9.098   3.963   4.714  0.2170  0.1209  0.8297
10398WAT      O43396   4.240   1.820   6.250 -0.2977 -0.1827 -0.5539
10398WAT     H143397   4.333   1.802   6.266 -0.6647 -1.1244  0.6586
10398WAT     H243398   4.209   1.860   6.332 -0.6251  1.5779 -1.4935
10398WAT    EPW43399   4.248   1.823   6.263 -0.3893 -0.0747 -0.5178
10399WAT      O43400   1.323  10.056   4.656 -0.6870  0.1568 -0.0866
10399WAT     H143401   1.237  10.046   4.613 -0.9170 -0.1995  0.4480
10399WAT     H243402   1.378   9.990   4.613 -0.4844  0.8516 -0.9131
10399WAT    EPW43403   1.319  10.046   4.645 -0.6906  0.2012 -0.1252
10400WAT      O43404   7.842   0.222   7.050  0.0273 -0.6371 -0.1357
10400WAT     H143405   7.886   0.286   6.994 -1.3419  2.0335  1.6732
10400WAT     H243406   7.750   0.226   7.023 -0.4393 -0.2084  1.4408
10400WAT    EPW43407   7.836   0.231   7.039 -0.2151 -0.2283  0.3111
10401WAT      O43408   8.878   2.916   3.841 -0.3898  0.6316 -0.6170
10401WAT     H143409   8.860   2.966   3.920 -0.8900 -0.6347  0.1004
10401WAT     H243410   8.792   2.890   3.808 -0.1381 -1.2684  0.0652
10401WAT    EPW43411   8.864   2.919   3.847 -0.4230  0.2141 -0.4325
10402WAT      O43412   4.869   1.959   6.673  0.0215  0.1320  0.2211
10402WAT     H143413   4.929   2.017   6.627 -0.6187  0.0584 -0.7247
10402WAT     H243414   4.787   1.964   6.623 -0.8720  0.4573  1.6386
10402WAT    EPW43415   4.866   1.968   6.661 -0.1810  0.1651  0.2837
10403WAT      O43416   9.645   9.085   6.726  0.6615 -0.6780 -0.3811
10403WAT     H143417   9.697   9.152   6.683  0.4384  0.1194  0.5534
10403WAT     H243418   9.629   9.120   6.814 -5.2174  1.3859 -1.7880
10403WAT    EPW43419   9.649   9.099   6.732 -0.1435 -0.3014 -0.4435
10404WAT      O43420   9.936   1.004   1.744 -0.2303 -0.0851  0.2441
10404WAT     H143421   9.928   1.055   1.824  0.3545 -0.6855  0.7036
10404WAT     H243422   9.851   0.960   1.735 -0.9118  1.3148 -0.4238
10404WAT    EPW43423   9.923   1.005   1.753 -0.2427  0.0204  0.2167
10405WAT      O43424   3.618   9.203   5.003  0.1777  0.6241  0.4725
10405WAT     H143425   3.605   9.109   5.010  2.0534  0.2516 -0.3587
10405WAT     H243426   3.530   9.240   5.008 -0.4817 -1.0150  2.6575
10405WAT    EPW43427   3.605   9.196   5.005  0.3381  0.3586  0.6511
10406WAT      O43428   4.146   2.638   4.676 -0.3866 -0.6557  0.0510
10406WAT     H143429   4.169   2.719   4.631  0.1785 -0.1623  1.1890
10406WAT     H243430   4.219   2.579   4.659  0.5810  0.0581  1.5781
10406WAT    EPW43431   4.159   2.641   4.668 -0.1845 -0.4965  0.4027
10407WAT      O43432   8.101   4.424   4.404  0.4344 -0.3822  0.2540
10407WAT     H143433   8.062   4.359   4.463  1.2894  0.5900  1.9582
10407WAT     H243434   8.027   4.462   4.358 -0.3452 -0.6426  1.2588
10407WAT    EPW43435   8.086   4.420   4.406  0.4449 -0.2882  0.6113
10408WAT      O43436   9.892   6.586   1.762  0.3145  0.2576  0.4460
10408WAT     H143437   9.912   6.636   1.841  0.3360  2.3695 -0.8334
10408WAT     H243438   9.971   6.593   1.708 -0.4295  0.6300 -0.6288
10408WAT    EPW43439   9.905   6.593   1.766  0.2193  0.5851  0.1355
10409WAT      O43440   9.887   7.651   0.523 -0.5877 -0.3507 -0.1000
10409WAT     H143441   9.933   7.609   0.451  1.9039 -0.6125  1.5413
10409WAT     H243442   9.955   7.669   0.589 -2.7028 -0.0215  2.1491
10409WAT    EPW43443   9.902   7.648   0.523 -0.5379 -0.3419  0.4131
10410WAT      O43444   4.404   9.665   5.239  0.1104  0.6794 -0.8370
10410WAT     H143445   4.382   9.612   5.163 -3.2920  0.5732  0.0500
10410WAT     H243446   4.322   9.710   5.261  1.2482  1.5465  2.0882
10410WAT    EPW43447   4.390   9.664   5.232 -0.1881  0.7801 -0.3343
10411WAT      O43448  10.613   3.018   7.064 -0.9062  0.1715 -0.4116
10411WAT     H143449  10.609   2.927   7.035 -1.0209 -0.2251  0.7743
10411WAT     H243450  10.611   3.070   6.984 -1.7143 -0.8468 -1.0655
10411WAT    EPW43451  10.612   3.013   7.050 -1.0281 -0.0150 -0.3414
10412WAT      O43452   1.993   9.182   7.224  0.3005  0.9674 -0.5064
10412WAT     H143453   2.057   9.226   7.280  0.7470  0.4017 -0.5584
10412WAT     H243454   2.025   9.092   7.219 -1.5442  0.1613  1.0376
10412WAT    EPW43455   2.006   9.176   7.231  0.1161  0.7863 -0.3097
10413WAT      O43456   5.332   2.490   4.253 -0.8844  0.6819  0.3094
10413WAT     H143457   5.238   2.470   4.253 -0.5222 -1.1942  1.4110
10413WAT     H243458   5.365   2.452   4.334  1.3726 -1.5251 -1.4740
10413WAT    EPW43459   5.324   2.482   4.264 -0.5388  0.1434  0.2193
10414WAT      O43460   8.268   1.370   5.168 -0.0843 -0.0820  0.7461
10414WAT     H143461   8.246   1.424   5.092 -2.2121 -1.6982  0.1094
10414WAT     H243462   8.330   1.423   5.218 -0.5778  2.1066 -0.8060
10414WAT    EPW43463   8.273   1.384   5.165 -0.4296 -0.0065  0.4578
10415WAT      O43464   5.064   4.975   8.294 -0.1123  0.0080 -0.4344
10415WAT     H143465   5.065   5.043   8.226  0.2877 -1.3404 -1.8390
10415WAT     H243466   5.156   4.954   8.309 -0.2436 -1.4314 -1.3505
10415WAT    EPW43467   5.076   4.981   8.287 -0.0770 -0.3598 -0.7401
10416WAT      O43468   8.301   2.591   5.436  0.4463 -0.1569  0.0546
10416WAT     H143469   8.396   2.594   5.441  0.4745 -0.9406  0.1449
10416WAT     H243470   8.281   2.502   5.407 -0.1912  0.5958 -2.0510
10416WAT    EPW43471   8.311   2.580   5.433  0.3657 -0.1611 -0.2112
10417WAT      O43472   9.769   3.860   2.528 -0.0207 -0.1333  0.6226
10417WAT     H143473   9.809   3.816   2.603 -0.3819 -2.7151 -0.5644
10417WAT     H243474   9.718   3.791   2.485 -1.6558  1.8093 -0.7347
10417WAT    EPW43475   9.767   3.845   2.532 -0.2842 -0.2176  0.2871
10418WAT      O43476   7.806   4.179   2.827 -0.1095  0.0324  0.1674
10418WAT     H143477   7.713   4.169   2.844 -0.1126 -2.9673 -1.0471
10418WAT     H243478   7.846   4.103   2.869  1.7025  0.8181 -0.0445
10418WAT    EPW43479   7.799   4.168   2.835  0.1290 -0.2596 -0.0207
10419WAT      O43480  10.422   3.273   2.840 -0.6666 -1.0639 -0.3741
10419WAT     H143481  10.350   3.211   2.846 -0.5982 -1.2209 -1.0747
10419WAT     H243482  10.473   3.243   2.765  2.2921 -3.2522  2.1763
10419WAT    EPW43483  10.420   3.261   2.831 -0.2666 -1.3733 -0.1302
10420WAT      O43484   6.447   9.721   0.284 -0.1464 -0.1700 -0.2287
10420WAT     H143485   6.395   9.676   0.350 -1.2727  0.8306 -0.4178
10420WAT     H243486   6.534   9.728   0.324 -0.4912 -0.6457  0.6416
10420WAT    EPW43487   6.452   9.716   0.298 -0.3402 -0.1011 -0.1389
10421WAT      O43488   6.224   2.053   7.731 -0.1856  0.3084 -0.2313
10421WAT     H143489   6.299   1.995   7.723  0.5596  1.2076 -0.0356
10421WAT     H243490   6.156   2.000   7.772  0.8336 -0.1370  0.9603
10421WAT    EPW43491   6.225   2.039   7.735  0.0472  0.3682 -0.0484
10422WAT      O43492   7.171   1.763   8.262 -0.2012  0.6988 -0.9783
10422WAT     H143493   7.081   1.751   8.231 -0.5268 -1.6701  0.6369
10422WAT     H243494   7.165   1.753   8.357  1.4272  3.1993 -0.5156
10422WAT    EPW43495   7.158   1.760   8.270 -0.0293  0.7162 -0.7043
10423WAT      O43496   7.527   2.810   3.155  0.3628 -0.2927  0.2164
10423WAT     H143497   7.442   2.824   3.197 -0.3643  0.8266 -1.5482
10423WAT     H243498   7.575   2.754   3.217 -1.5745 -0.8154  1.3255
10423WAT    EPW43499   7.522   2.805   3.169  0.0117 -0.2140  0.1299
10424WAT      O43500   7.229   5.440   6.645  0.2370 -1.0240 -0.1949
10424WAT     H143501   7.200   5.513   6.590 -0.3382  1.5841  3.2421
10424WAT     H243502   7.324   5.438   6.635  0.0282 -2.6201 -3.3402
10424WAT    EPW43503   7.238   5.449   6.636  0.1335 -0.8905 -0.1566
10425WAT      O43504   0.949   9.738   4.175 -0.4942 -0.2524  0.4597
10425WAT     H143505   0.918   9.820   4.137  1.3868 -0.3736 -1.5517
10425WAT     H243506   1.033   9.761   4.215 -0.7406 -0.8873  1.3721
10425WAT    EPW43507   0.956   9.752   4.175 -0.2786 -0.3524  0.3147
10426WAT      O43508   2.725   7.076   3.705  0.1910 -0.5050 -0.2485
10426WAT     H143509   2.778   7.110   3.633 -0.1376 -0.0352 -0.2751
10426WAT     H243510   2.740   7.138   3.776 -0.6497 -0.1178 -0.3930
10426WAT    EPW43511   2.734   7.089   3.705  0.0368 -0.3922 -0.2711
10427WAT      O43512   7.654   5.653   6.687  1.4423  0.0182 -0.0491
10427WAT     H143513   7.660   5.747   6.700 -1.3159 -0.0099  2.2839
10427WAT     H243514   7.659   5.616   6.775  2.5049 -2.0702 -0.9122
10427WAT    EPW43515   7.656   5.660   6.700  1.2186 -0.2608  0.1447
10428WAT      O43516   8.799   3.846   7.114  0.4808  0.4518 -0.3038
10428WAT     H143517   8.842   3.822   7.196  0.4857  1.3783 -0.0205
10428WAT     H243518   8.725   3.901   7.141 -0.4715 -0.5196 -0.8306
10428WAT    EPW43519   8.795   3.850   7.129  0.3557  0.4460 -0.3359
10429WAT      O43520   9.683   5.324   5.831 -0.1938 -0.2077 -0.3304
10429WAT     H143521   9.594   5.303   5.802  0.3320 -0.4625 -1.8863
10429WAT     H243522   9.682   5.311   5.925 -1.3306 -1.9974 -0.5426
10429WAT    EPW43523   9.671   5.320   5.839 -0.2747 -0.4773 -0.5636
10430WAT      O43524   5.439   3.480   8.424 -0.3018 -0.1891 -0.3553
10430WAT     H143525   5.412   3.539   8.495 -0.4661 -2.2104  1.3807
10430WAT     H243526   5.356   3.444   8.392 -0.0913 -1.7265  0.7214
10430WAT    EPW43527   5.424   3.483   8.429 -0.2956 -0.6585  0.0157
10431WAT      O43528   0.396   0.403   4.948  0.0641 -0.1354 -0.1137
10431WAT     H143529   0.475   0.425   4.998 -0.4252 -0.6002  0.8912
10431WAT     H243530   0.372   0.484   4.904 -0.2681  0.6872  1.5058
10431WAT    EPW43531   0.403   0.417   4.949 -0.0443 -0.0882  0.2325
10432WAT      O43532   6.078   0.373   6.027  0.0485  0.4215 -0.0675
10432WAT     H143533   6.122   0.395   5.945 -1.9753  1.6216 -0.8974
10432WAT     H243534   6.146   0.385   6.094  1.3614  0.8005 -1.4163
10432WAT    EPW43535   6.093   0.378   6.025 -0.0455  0.6298 -0.3548
10433WAT      O43536   7.827   5.278   6.390 -0.7515 -0.4650  0.0679
10433WAT     H143537   7.868   5.212   6.334  1.9271  1.5071 -0.5005
10433WAT     H243538   7.819   5.355   6.334  0.4564  1.0672  1.8701
10433WAT    EPW43539   7.832   5.279   6.375 -0.2391 -0.0029  0.2308
10434WAT      O43540   6.292   2.312   5.697  0.0938 -0.2143 -0.0418
10434WAT     H143541   6.311   2.279   5.609 -0.4994  1.4891 -0.8433
10434WAT     H243542   6.365   2.371   5.717 -1.1893  1.6542 -0.6384
10434WAT    EPW43543   6.304   2.315   5.688 -0.1535  0.2568 -0.2260
10435WAT      O43544   8.156   1.884   5.880 -0.7986 -0.3782 -0.3296
10435WAT     H143545   8.222   1.916   5.941 -1.1668  1.4022 -0.8256
10435WAT     H243546   8.144   1.792   5.905 -1.3353  0.4028  2.6489
10435WAT    EPW43547   8.163   1.876   5.891 -0.9179 -0.0403 -0.0019
10436WAT      O43548   8.132   4.908   3.952  0.4049 -0.4169 -0.3055
10436WAT     H143549   8.159   4.879   3.864 -1.2441 -1.8770 -0.4105
10436WAT     H243550   8.036   4.910   3.947  0.3345  1.5231  0.8847
10436WAT    EPW43551   8.123   4.904   3.939  0.1779 -0.3536 -0.1625
10437WAT      O43552   4.210   1.264   4.526 -0.3740  0.0625 -0.0567
10437WAT     H143553   4.167   1.316   4.594 -0.3568  0.4730 -0.3638
10437WAT     H243554   4.149   1.192   4.510 -0.5520  0.1707  0.1241
10437WAT    EPW43555   4.196   1.261   4.533 -0.3948  0.1309 -0.0734
10438WAT      O43556   2.590   9.777   4.556  0.2067 -0.7078  0.3495
10438WAT     H143557   2.528   9.797   4.485  0.6805 -1.9254 -0.4531
10438WAT     H243558   2.636   9.698   4.525  2.0275  0.0539  1.0143
10438WAT    EPW43559   2.588   9.769   4.542  0.5093 -0.7682  0.3314
10439WAT      O43560   7.271   3.725   5.300  0.3643 -0.0576  0.0298
10439WAT     H143561   7.252   3.700   5.391  1.2978  1.4947  0.6796
10439WAT     H243562   7.267   3.642   5.252 -1.3700 -0.7339  1.2520
10439WAT    EPW43563   7.268   3.710   5.306  0.2587  0.0581  0.2768
10440WAT      O43564   4.594   2.089   8.330 -0.3789 -0.6085  0.2031
10440WAT     H143565   4.521   2.042   8.369 -0.7151 -0.4624 -0.2488
10440WAT     H243566   4.560   2.124   8.247 -0.1488  0.4731  0.5454
10440WAT    EPW43567   4.580   2.087   8.324 -0.3929 -0.4466  0.1884
10441WAT      O43568   4.821   1.488   4.550  0.2691  0.4132 -0.0889
10441WAT     H143569   4.740   1.537   4.534  0.9239  1.7730  0.5830
10441WAT     H243570   4.868   1.491   4.467 -0.4720 -0.6332 -0.5694
10441WAT    EPW43571   4.817   1.495   4.537  0.2577  0.4544 -0.0634
10442WAT      O43572   4.493   2.334   4.824 -0.2443 -0.0934 -0.3889
10442WAT     H143573   4.481   2.428   4.835  0.6279 -0.2333  2.2222
10442WAT     H243574   4.557   2.309   4.890 -2.7488 -3.0158  1.1995
10442WAT    EPW43575   4.500   2.343   4.834 -0.4594 -0.4975  0.1650
10443WAT      O43576   4.795   4.526   6.966 -0.9485  0.4714  0.1452
10443WAT     H143577   4.730   4.501   7.032  0.1009  1.0097  1.4389
10443WAT     H243578   4.824   4.613   6.994 -1.2162  1.1747 -1.6425
10443WAT    EPW43579   4.790   4.534   6.979 -0.8454  0.6351  0.0801
10444WAT      O43580   2.332   9.992   6.437  1.3378  0.5601  0.3934
10444WAT     H143581   2.352  10.043   6.358 -2.0294 -0.0512 -1.0276
10444WAT     H243582   2.376   9.908   6.422 -0.3723 -0.0744 -1.6564
10444WAT    EPW43583   2.341   9.988   6.424  0.6680  0.3953 -0.0644
10445WAT      O43584   8.741   3.487   5.412  0.1398  0.2606  0.4028
10445WAT     H143585   8.766   3.434   5.487  1.4049  1.9940  1.2920
10445WAT     H243586   8.645   3.483   5.410  0.1638 -1.0713  1.1349
10445WAT    EPW43587   8.732   3.480   5.422  0.3099  0.3135  0.6166
10446WAT      O43588   9.551   2.555   5.386  0.3859 -0.2153  0.2978
10446WAT     H143589   9.619   2.579   5.449  0.1305  0.4797  0.3243
10446WAT     H243590   9.551   2.459   5.386  1.4511 -0.2319  0.1994
10446WAT    EPW43591   9.560   2.546   5.394  0.4926 -0.1260  0.2882
10447WAT      O43592   7.949   0.879   4.225 -0.4969  0.1755  0.5639
10447WAT     H143593   7.974   0.971   4.221  1.3379  0.0320  4.2118
10447WAT     H243594   8.012   0.834   4.169 -3.4836  1.1834 -4.1375
10447WAT    EPW43595   7.961   0.885   4.217 -0.6487  0.2895  0.4249
10448WAT      O43596   6.364   4.216   4.029  0.2707  0.1532  0.1488
10448WAT     H143597   6.278   4.251   4.005 -0.6827 -2.3357 -0.3060
10448WAT     H243598   6.383   4.150   3.963  1.5928 -0.7709  1.3907
10448WAT    EPW43599   6.355   4.212   4.017  0.3192 -0.2968  0.2525
10449WAT      O43600   4.708   1.460   4.259 -0.1364 -0.5892 -0.0941
10449WAT     H143601   4.667   1.468   4.172  1.8110 -0.6797 -1.0819
10449WAT     H243602   4.802   1.457   4.240  0.2664 -2.6487  1.8771
10449WAT    EPW43603   4.715   1.461   4.245  0.1733 -0.8729  0.0358
10450WAT      O43604   3.871   1.822   6.304  0.4161  0.1402 -0.2679
10450WAT     H143605   3.880   1.772   6.222 -0.1005 -1.0125  0.3565
10450WAT     H243606   3.884   1.757   6.373 -0.9644  0.7349  0.5749
10450WAT    EPW43607   3.874   1.807   6.302  0.1659  0.0666 -0.0746
10451WAT      O43608   0.576   3.231   7.552 -0.3871  0.2356  0.8562
10451WAT     H143609   0.496   3.221   7.603 -2.3658  3.5775 -1.2210
10451WAT     H243610   0.572   3.161   7.487 -3.1286  1.8192 -0.8455
10451WAT    EPW43611   0.565   3.220   7.550 -1.0097  0.8854  0.3579
10452WAT      O43612   5.770   2.495   3.755 -0.4412 -0.5900  0.7019
10452WAT     H143613   5.808   2.576   3.719 -1.7208  0.7674  2.2820
10452WAT     H243614   5.733   2.521   3.839 -3.1137 -2.2778  0.1460
10452WAT    EPW43615   5.770   2.509   3.761 -0.9623 -0.6336  0.8368
10453WAT      O43616   9.601   2.495   6.214 -0.1218  0.3037 -0.1235
10453WAT     H143617   9.678   2.552   6.213 -0.6007  1.1232  2.4351
10453WAT     H243618   9.528   2.554   6.233 -0.6639 -1.0335  2.3869
10453WAT    EPW43619   9.602   2.511   6.216 -0.2561  0.2354  0.5448
10454WAT      O43620   3.214   9.925   4.916  0.2141 -0.5747 -0.6111
10454WAT     H143621   3.283   9.985   4.942  0.5676 -1.8941  1.7833
10454WAT     H243622   3.245   9.886   4.835  2.1173 -0.8379  0.2007
10454WAT    EPW43623   3.227   9.928   4.909  0.5118 -0.7830 -0.1879
10455WAT      O43624   6.582   3.377   5.893  0.1756  0.3976 -0.0751
10455WAT     H143625   6.500   3.349   5.853 -0.6280  2.1567  0.2849
10455WAT     H243626   6.632   3.295   5.904  0.1399 -0.3220 -3.8428
10455WAT    EPW43627   6.578   3.362   5.889  0.0648  0.5348 -0.5243
10456WAT      O43628   9.958   5.298   6.753  0.0551  0.2259  1.1928
10456WAT     H143629  10.035   5.263   6.797 -0.8054 -0.6232  2.0604
10456WAT     H243630   9.907   5.221   6.729 -0.4499  0.7722  0.4687
10456WAT    EPW43631   9.961   5.283   6.755 -0.1249  0.1860  1.2114
10457WAT      O43632   5.433  10.154   3.720 -0.3851  0.4243 -0.6402
10457WAT     H143633   5.379  10.109   3.655 -1.3508  2.2606 -1.1939
10457WAT     H243634   5.429  10.097   3.797 -0.3874 -1.0902 -1.7051
10457WAT    EPW43635   5.425  10.140   3.722 -0.5126  0.4668 -0.8535
10458WAT      O43636   1.140   7.167   3.791 -0.4667  0.3001 -0.5300
10458WAT     H143637   1.096   7.234   3.738 -0.3578 -0.2959 -1.3774
10458WAT     H243638   1.095   7.086   3.771 -1.5766  0.3037  1.6081
10458WAT    EPW43639   1.128   7.165   3.782 -0.5987  0.2220 -0.3599
10459WAT      O43640   8.165   3.803   6.732 -0.0567 -0.3956  0.3416
10459WAT     H143641   8.133   3.747   6.802 -0.3977  0.1942  0.6727
10459WAT     H243642   8.253   3.771   6.713  0.9287  0.7682  2.5456
10459WAT    EPW43643   8.172   3.792   6.739  0.0286 -0.1644  0.6759
10460WAT      O43644   9.391   4.048   4.347  0.0673  0.2264 -1.1583
10460WAT     H143645   9.461   4.009   4.399 -2.4128 -1.9202  0.8595
10460WAT     H243646   9.406   4.142   4.353  1.1837 -0.0355  1.6195
10460WAT    EPW43647   9.402   4.055   4.355 -0.1121 -0.0911 -0.5260
10461WAT      O43648   6.332   2.706   4.498  0.1910 -1.0367 -0.3761
10461WAT     H143649   6.258   2.654   4.529 -0.2504  0.4749  1.2493
10461WAT     H243650   6.331   2.785   4.552  2.4445 -0.5367 -0.9476
10461WAT    EPW43651   6.322   2.710   4.509  0.4301 -0.7713 -0.2372
10462WAT      O43652   3.286   2.227   3.801  0.0555 -0.5247  0.1359
10462WAT     H143653   3.317   2.153   3.748 -3.4348 -2.5302  0.5610
10462WAT     H243654   3.349   2.235   3.872  1.1999 -2.2514 -0.6286
10462WAT    EPW43655   3.298   2.219   3.803 -0.2538 -1.0170  0.0910
10463WAT      O43656   6.343   4.756   7.336  0.3336  0.2941 -0.8471
10463WAT     H143657   6.272   4.771   7.398 -0.1490 -2.7822 -0.4833
10463WAT     H243658   6.423   4.768   7.388 -0.0590 -3.4034  0.9270
10463WAT    EPW43659   6.344   4.760   7.351  0.2182 -0.5991 -0.5653
10464WAT      O43660   5.624   2.098   4.463 -0.0337  0.4585  0.7504
10464WAT     H143661   5.579   2.089   4.379  3.5904 -0.0179 -1.3826
10464WAT     H243662   5.595   2.023   4.514  0.7473 -1.7714 -1.8281
10464WAT    EPW43663   5.615   2.087   4.459  0.5472  0.1014  0.1292
10465WAT      O43664   8.029   7.898   0.479  0.3917 -0.4112 -0.2436
10465WAT     H143665   8.097   7.937   0.424  0.5664  0.5825  0.6433
10465WAT     H243666   8.077   7.862   0.554 -0.0320  0.1234  0.2917
10465WAT    EPW43667   8.045   7.898   0.482  0.3586 -0.2098 -0.0560
10466WAT      O43668   7.536   6.793   5.906  0.2995 -0.3785  0.0555
10466WAT     H143669   7.539   6.733   5.832 -0.1867  1.0291 -1.1516
10466WAT     H243670   7.625   6.828   5.911  0.4574 -0.8248  0.4561
10466WAT    EPW43671   7.548   6.790   5.897  0.2563 -0.2515 -0.0510
10467WAT      O43672   6.444   2.219   6.960 -0.1804 -0.0883 -0.6472
10467WAT     H143673   6.479   2.151   7.017 -1.9509 -1.1259 -0.7225
10467WAT     H243674   6.411   2.286   7.021  0.1406 -0.0362 -0.5288
10467WAT    EPW43675   6.444   2.219   6.976 -0.3719 -0.2183 -0.6416
10468WAT      O43676   7.383   8.469   0.159 -0.1692  0.3111  0.0570
10468WAT     H143677   7.477   8.472   0.173 -0.0561  0.5862 -0.6703
10468WAT     H243678   7.371   8.404   0.090 -0.1054  2.7806 -2.5099
10468WAT    EPW43679   7.394   8.461   0.152 -0.1457  0.6733 -0.3775
10469WAT      O43680   8.563   0.012   5.402  0.3013  0.6630 -0.3009
10469WAT     H143681   8.620  -0.064   5.390  0.8011  0.8720  0.6547
10469WAT     H243682   8.494  -0.020   5.460  0.0214  0.7045 -0.6065
10469WAT    EPW43683   8.561  -0.003   5.408  0.3302  0.6957 -0.2153
10470WAT      O43684   4.558   1.746   6.373 -0.0974 -0.0267 -0.6019
10470WAT     H143685   4.536   1.680   6.308 -0.1840  0.1332 -0.7361
10470WAT     H243686   4.495   1.733   6.444  0.4138 -0.6322 -0.2485
10470WAT    EPW43687   4.547   1.736   6.374 -0.0417 -0.0855 -0.5729
10471WAT      O43688   1.076   3.284   4.828 -0.4791 -0.1389 -0.7623
10471WAT     H143689   1.023   3.227   4.883 -2.1529 -1.7910 -3.8056
10471WAT     H243690   1.063   3.371   4.865 -1.3265 -1.1353  1.4890
10471WAT    EPW43691   1.067   3.288   4.840 -0.8116 -0.4883 -0.8667
10472WAT      O43692   5.727   9.644   3.561  0.1837 -0.6840 -0.2249
10472WAT     H143693   5.812   9.627   3.521 -0.1465  0.6197 -1.5507
10472WAT     H243694   5.716   9.739   3.556 -1.4432 -0.8432 -0.2983
10472WAT    EPW43695   5.736   9.654   3.555 -0.0746 -0.5331 -0.4094
10473WAT      O43696   8.523   3.156   8.001  0.4681  0.0023 -0.1404
10473WAT     H143697   8.477   3.088   7.952 -1.4630 -0.0099  1.5514
10473WAT     H243698   8.515   3.234   7.946 -0.7966 -0.2327 -0.3270
10473WAT    EPW43699   8.516   3.157   7.987  0.0463 -0.0303  0.0579
10474WAT      O43700   9.894   9.799   5.261  0.3965 -0.2000  0.0950
10474WAT     H143701   9.826   9.866   5.259  1.8612  1.3462 -0.8080
10474WAT     H243702   9.905   9.774   5.169 -1.6177 -3.3723  0.5762
10474WAT    EPW43703   9.887   9.805   5.249  0.3238 -0.4144  0.0393
10475WAT      O43704  10.050   4.119   4.674 -0.2593  0.4984  0.1840
10475WAT     H143705  10.141   4.112   4.644 -1.0463 -0.5971 -2.2570
10475WAT     H243706  10.042   4.051   4.741  0.4869 -0.0536 -0.2720
10475WAT    EPW43707  10.061   4.109   4.679 -0.2646  0.2813 -0.1981
10476WAT      O43708   0.331   4.402   3.536  0.0416 -0.0079  0.5396
10476WAT     H143709   0.352   4.344   3.462 -1.8399  1.4763 -1.2775
10476WAT     H243710   0.408   4.398   3.592  2.0001 -0.4230 -2.0207
10476WAT    EPW43711   0.344   4.394   3.534  0.0518  0.1333 -0.0376
10477WAT      O43712   3.307   2.716   5.213  0.2097 -0.0927 -0.4235
10477WAT     H143713   3.257   2.648   5.258  0.7312 -0.6095 -0.6096
10477WAT     H243714   3.241   2.766   5.165 -0.2643  0.0129  0.3310
10477WAT    EPW43715   3.292   2.714   5.212  0.2159 -0.1469 -0.3486
10478WAT      O43716   2.804   3.418   2.682  0.3559 -0.3307  0.2520
10478WAT     H143717   2.750   3.485   2.723  0.5003 -0.5941  0.8897
10478WAT     H243718   2.782   3.422   2.589  1.5712  1.7583 -0.0171
10478WAT    EPW43719   2.794   3.427   2.676  0.5354 -0.0898  0.3005
10479WAT      O43720   8.291   3.231   5.845  0.0571 -0.5531  0.6653
10479WAT     H143721   8.327   3.213   5.758 -3.5760  0.8058 -1.3507
10479WAT     H243722   8.289   3.327   5.851  0.2979 -0.6215  2.3087
10479WAT    EPW43723   8.295   3.241   5.834 -0.3905 -0.3828  0.6161
10480WAT      O43724   0.168   9.462   4.086  0.2095 -0.4225 -0.5712
10480WAT     H143725   0.106   9.398   4.120 -0.2365 -0.1697 -0.8885
10480WAT     H243726   0.190   9.517   4.161  1.4584 -1.6218 -0.0390
10480WAT    EPW43727   0.163   9.461   4.100  0.3154 -0.5474 -0.5429
10481WAT      O43728   2.659  10.265   7.312  0.2556 -0.1073 -0.3554
10481WAT     H143729   2.667  10.239   7.220  0.9419  0.1299 -0.3683
10481WAT     H243730   2.727  10.331   7.324 -0.9227  1.1269 -0.1143
10481WAT    EPW43731   2.669  10.271   7.301  0.1907  0.0863 -0.3254
10482WAT      O43732   6.684   4.057   7.650  0.1658 -0.0295  0.4624
10482WAT     H143733   6.597   4.079   7.685  0.2932  1.3570 -0.0262
10482WAT     H243734   6.693   3.964   7.667 -1.6128 -0.3030  0.1460
10482WAT    EPW43735   6.674   4.048   7.657 -0.0520  0.1173  0.3562
10483WAT      O43736   6.594   4.410   6.700  0.7146  0.9693  0.1051
10483WAT     H143737   6.652   4.339   6.726 -1.9023 -1.4866 -0.3745
10483WAT     H243738   6.527   4.369   6.646 -2.2049  3.3896  1.5846
10483WAT    EPW43739   6.593   4.395   6.696 -0.0155  0.9646  0.2370
10484WAT      O43740   8.912   1.317   3.293 -0.4181 -0.1804 -0.3257
10484WAT     H143741   8.975   1.345   3.360 -1.0400  0.3208  0.0644
10484WAT     H243742   8.944   1.355   3.212  0.3351 -0.7739 -0.3125
10484WAT    EPW43743   8.924   1.326   3.291 -0.4005 -0.1925 -0.2725
10485WAT      O43744   3.085   1.852   1.329  0.0543  0.5774 -0.4275
10485WAT     H143745   3.033   1.826   1.253 -1.2023  1.4933  0.0691
10485WAT     H243746   3.068   1.784   1.394 -2.3442  1.9167  0.4863
10485WAT    EPW43747   3.076   1.840   1.328 -0.4280  0.8749 -0.2414
10486WAT      O43748   3.946   3.293   6.094 -0.3650  0.5402 -0.1341
10486WAT     H143749   3.984   3.367   6.047  1.8819 -0.1798  0.4163
10486WAT     H243750   3.965   3.217   6.039 -3.9583  0.4123 -1.4499
10486WAT    EPW43751   3.953   3.293   6.081 -0.5426  0.4284 -0.2353
10487WAT      O43752   6.822   4.449   5.403  0.1104 -0.5029 -0.0440
10487WAT     H143753   6.859   4.365   5.377  0.4030 -0.3010 -0.2790
10487WAT     H243754   6.729   4.441   5.386  0.6166  0.8905 -4.7759
10487WAT    EPW43755   6.815   4.437   5.397  0.2155 -0.2925 -0.6993
10488WAT      O43756   4.755   1.052   5.209  0.4171  0.1240 -0.2207
10488WAT     H143757   4.759   0.957   5.204  0.2976  0.0485  0.7836
10488WAT     H243758   4.681   1.070   5.267 -2.2444  0.9846 -3.5982
10488WAT    EPW43759   4.746   1.042   5.216  0.0503  0.2275 -0.5338
10489WAT      O43760   8.202   2.989   5.841  0.5372 -0.3629  0.1224
10489WAT     H143761   8.183   2.977   5.748  1.6564 -3.1264  0.1329
10489WAT     H243762   8.249   3.072   5.846  3.3852 -1.6440 -2.3501
10489WAT    EPW43763   8.205   2.998   5.830  1.0610 -0.8963 -0.2024
10490WAT      O43764   5.695   2.644   3.985 -1.1719 -0.2176 -0.6812
10490WAT     H143765   5.638   2.691   3.923 -2.1744 -1.1976 -0.5405
10490WAT     H243766   5.782   2.680   3.970 -1.7733  1.0896 -1.1496
10490WAT    EPW43767   5.699   2.655   3.975 -1.3835 -0.1744 -0.7244
10491WAT      O43768   7.624   3.880   7.254 -0.5888  0.1516 -0.1425
10491WAT     H143769   7.606   3.946   7.187 -0.1371 -1.5505 -1.9971
10491WAT     H243770   7.716   3.857   7.242 -0.4103  0.0326  1.2892
10491WAT    EPW43771   7.634   3.886   7.244 -0.5054 -0.0886 -0.1981
10492WAT      O43772   8.592   8.749   0.200  0.1214  0.2365 -0.2082
10492WAT     H143773   8.557   8.783   0.118 -2.8976 -0.9044  0.4881
10492WAT     H243774   8.521   8.698   0.237  1.9845 -0.7306  2.3170
10492WAT    EPW43775   8.578   8.747   0.194 -0.0310 -0.0415  0.2167
10493WAT      O43776   8.160   3.491   5.829 -0.5115  0.2152 -0.0747
10493WAT     H143777   8.087   3.458   5.777 -2.3843  0.2190  2.3414
10493WAT     H243778   8.133   3.475   5.920  1.2301  2.8428  1.0246
10493WAT    EPW43779   8.146   3.484   5.834 -0.5288  0.5623  0.3889
10494WAT      O43780   7.020   5.507   6.857 -0.2609 -0.0669 -0.1370
10494WAT     H143781   7.093   5.494   6.796 -1.9113 -1.7825 -1.8780
10494WAT     H243782   6.964   5.570   6.813 -0.2989  0.5818  0.8014
10494WAT    EPW43783   7.023   5.514   6.843 -0.4835 -0.2077 -0.2432
10495WAT      O43784   6.376   1.478   5.054 -0.2637  0.2723 -0.0717
10495WAT     H143785   6.454   1.519   5.016  0.1387 -0.7636 -0.4066
10495WAT     H243786   6.341   1.424   4.984  0.2139 -1.2931  0.8586
10495WAT    EPW43787   6.382   1.477   5.040 -0.1476 -0.0708  0.0069
10496WAT      O43788   6.225   0.627   6.853  0.5025  0.3927  0.1691
10496WAT     H143789   6.254   0.587   6.770 -0.0756  0.5528 -0.1111
10496WAT     H243790   6.157   0.689   6.828  0.5439  0.6767  0.7370
10496WAT    EPW43791   6.220   0.630   6.839  0.4318  0.4513  0.2069
10497WAT      O43792   8.987   0.458   4.640  0.7524 -0.0726 -0.4516
10497WAT     H143793   8.993   0.548   4.608 -0.1098  1.0610  2.2655
10497WAT     H243794   9.078   0.431   4.655  1.0610  0.0069 -2.0173
10497WAT    EPW43795   9.000   0.466   4.637  0.6795  0.0874 -0.2997
10498WAT      O43796   5.309   2.730   4.957 -0.0634  0.8470 -1.1549
10498WAT     H143797   5.254   2.805   4.977 -1.6294 -0.7767  1.0869
10498WAT     H243798   5.250   2.655   4.962  2.4206 -1.1497  2.6399
10498WAT    EPW43799   5.294   2.730   4.960  0.0575  0.3695 -0.3586
10499WAT      O43800   6.973   2.779   4.620  0.1044  0.7205 -1.0211
10499WAT     H143801   6.965   2.768   4.525 -1.2879 -2.7445 -0.6538
10499WAT     H243802   7.052   2.729   4.642 -0.6319 -0.0898 -0.1774
10499WAT    EPW43803   6.983   2.771   4.610 -0.1760  0.1568 -0.8612
10500WAT      O43804  10.210   5.209   6.849  0.7974 -0.2944 -0.5591
10500WAT     H143805  10.237   5.162   6.927 -0.6840 -1.1123 -0.4938
10500WAT     H243806  10.276   5.277   6.837  2.0004 -1.2518  0.3889
10500WAT    EPW43807  10.222   5.211   6.858  0.7610 -0.5286 -0.4253
10501WAT      O43808   9.449   5.167   1.535  0.9293  0.2180 -0.3645
10501WAT     H143809   9.499   5.241   1.568 -0.6110  0.9568  0.4000
10501WAT     H243810   9.465   5.097   1.598 -1.4607  1.4162  1.7159
10501WAT    EPW43811   9.458   5.167   1.548  0.4106  0.4733  0.0107
10502WAT      O43812   9.918   4.007   4.441 -0.3635  0.1976  0.4535
10502WAT     H143813   9.952   4.040   4.524  2.9211 -4.3968  1.3419
10502WAT     H243814   9.829   3.978   4.460 -1.1800  2.8439  1.0835
10502WAT    EPW43815   9.911   4.008   4.454 -0.0381 -0.0594  0.6537
10503WAT      O43816   7.251   0.924   8.807 -0.1760 -0.2430 -0.1246
10503WAT     H143817   7.334   0.892   8.842 -0.8649 -1.2350  0.6447
10503WAT     H243818   7.277   0.990   8.742  1.3191 -2.5565 -2.0678
10503WAT    EPW43819   7.265   0.929   8.803 -0.0699 -0.6790 -0.2794
10504WAT      O43820   9.593   4.244   5.679 -0.2398 -0.8007  0.3784
10504WAT     H143821   9.613   4.327   5.721 -0.3696 -1.2079  1.2681
10504WAT     H243822   9.606   4.178   5.747  0.8523 -1.6303 -0.5693
10504WAT    EPW43823   9.598   4.246   5.693 -0.1125 -0.9637  0.3705
10505WAT      O43824   8.018   2.366   4.913 -0.3353 -0.1001  0.7555
10505WAT     H143825   7.950   2.357   4.980  0.2101 -1.4600  1.1666
10505WAT     H243826   7.978   2.332   4.833 -0.2363 -0.6632  0.9402
10505WAT    EPW43827   8.004   2.360   4.911 -0.2503 -0.3538  0.8342
10506WAT      O43828   3.299   1.392   7.748 -0.1145  0.0444  0.2378
10506WAT     H143829   3.298   1.463   7.814  0.2341 -0.1354  0.4394
10506WAT     H243830   3.207   1.375   7.730 -0.2802 -0.9110  1.7768
10506WAT    EPW43831   3.287   1.399   7.755 -0.0905 -0.1053  0.4678
10507WAT      O43832   5.982   2.844   5.237 -0.2218  0.7992  0.5380
10507WAT     H143833   5.921   2.874   5.305 -1.6886  1.2707 -0.9267
10507WAT     H243834   5.989   2.750   5.252  0.6433  1.0853  2.2193
10507WAT    EPW43835   5.975   2.835   5.248 -0.3014  0.8991  0.5665
10508WAT      O43836   2.162   8.849   3.030 -0.4515 -0.6644  0.1178
10508WAT     H143837   2.238   8.795   3.050  1.4821  1.4610 -1.0544
10508WAT     H243838   2.164   8.918   3.097 -1.3428 -0.5740  0.0596
10508WAT    EPW43839   2.172   8.851   3.042 -0.3141 -0.3719 -0.0445
10509WAT      O43840   7.177   2.342   7.008 -0.4910  0.0119 -0.0147
10509WAT     H143841   7.260   2.314   7.046  0.6160  2.9689  0.0337
10509WAT     H243842   7.116   2.271   7.028  2.1106 -2.5843 -0.6079
10509WAT    EPW43843   7.180   2.329   7.015 -0.0017  0.0595 -0.0865
10510WAT      O43844   9.682   1.927   4.789 -0.2393 -0.7517 -0.2968
10510WAT     H143845   9.644   2.007   4.826  1.6887 -0.9587  2.4551
10510WAT     H243846   9.662   1.932   4.696 -0.2019  2.9532 -0.2674
10510WAT    EPW43847   9.674   1.938   4.782  0.0200 -0.2903  0.0703
10511WAT      O43848   8.687   1.872   6.469  0.4477  0.3772  0.0641
10511WAT     H143849   8.753   1.927   6.427 -0.9944  1.9568 -0.2281
10511WAT     H243850   8.687   1.899   6.561 -1.0161  1.7098 -0.2904
10511WAT    EPW43851   8.696   1.883   6.476  0.0648  0.7613 -0.0215
10512WAT      O43852   5.346  10.052   4.561 -0.0692 -0.6692 -0.3432
10512WAT     H143853   5.402  10.017   4.630  0.1757 -1.6405 -1.0209
10512WAT     H243854   5.391  10.031   4.480 -1.9620 -2.6343 -0.9923
10512WAT    EPW43855   5.359  10.044   4.560 -0.2866 -1.0567 -0.5183
10513WAT      O43856   4.586   1.851   4.492 -0.0859 -0.0386 -0.4787
10513WAT     H143857   4.622   1.829   4.406  1.2962  0.5070 -0.0803
10513WAT     H243858   4.575   1.767   4.536  0.6874 -0.2334 -0.6395
10513WAT    EPW43859   4.589   1.837   4.487  0.1981  0.0077 -0.4473
10514WAT      O43860   8.134   3.281   0.798 -0.4281 -0.2040 -0.6271
10514WAT     H143861   8.177   3.196   0.792 -2.9203 -1.4898 -1.7350
10514WAT     H243862   8.155   3.325   0.716 -0.8846 -0.6712 -1.0016
10514WAT    EPW43863   8.143   3.275   0.787 -0.8168 -0.4351 -0.8226
10515WAT      O43864   7.822   3.506   2.383  0.5729 -0.6070 -0.0716
10515WAT     H143865   7.735   3.522   2.420  1.0644  0.6825  0.6170
10515WAT     H243866   7.809   3.508   2.288 -0.2814 -1.2955  0.0184
10515WAT    EPW43867   7.809   3.508   2.376  0.5250 -0.5277  0.0312
10516WAT      O43868   7.312   9.543   7.586  0.1464  0.5027  0.2500
10516WAT     H143869   7.248   9.590   7.533 -0.5971 -1.3914 -0.6273
10516WAT     H243870   7.261   9.505   7.658  0.4823 -0.0349  0.2116
10516WAT    EPW43871   7.297   9.544   7.588  0.0925  0.1826  0.1292
10517WAT      O43872   7.174   3.955   4.760 -0.4597 -0.6114  0.1593
10517WAT     H143873   7.143   3.882   4.814 -1.8957 -0.2696 -0.1581
10517WAT     H243874   7.161   4.032   4.815 -1.6672 -0.2927 -0.5310
10517WAT    EPW43875   7.168   3.956   4.774 -0.8082 -0.5243  0.0262
10518WAT      O43876   6.202   4.576   7.560 -0.3210 -0.0153  0.2049
10518WAT     H143877   6.204   4.509   7.491 -0.2167 -0.0704  0.2616
10518WAT     H243878   6.125   4.553   7.612  0.0045 -0.4003  0.5269
10518WAT    EPW43879   6.192   4.564   7.558 -0.2644 -0.0732  0.2549
10519WAT      O43880   8.939   1.904   5.774  0.7353 -0.2836 -0.5205
10519WAT     H143881   9.018   1.851   5.771  0.2196 -0.9891 -2.0620
10519WAT     H243882   8.871   1.851   5.734  0.7890  2.4449 -4.8338
10519WAT    EPW43883   8.940   1.890   5.769  0.6747 -0.0168 -1.2925
10520WAT      O43884   5.404   1.869   5.597  0.3204 -0.1197  0.0379
10520WAT     H143885   5.496   1.843   5.596  0.1174 -1.1437 -3.0734
10520WAT     H243886   5.382   1.883   5.505 -2.2942  1.5017  0.8022
10520WAT    EPW43887   5.413   1.868   5.585 -0.0510 -0.0409 -0.2716
10521WAT      O43888   8.101   4.919   6.061 -0.4853  0.0905 -0.5040
10521WAT     H143889   8.120   4.884   6.149 -1.5041  1.5857  0.3494
10521WAT     H243890   8.079   4.842   6.009  0.5430 -0.8735  0.4332
10521WAT    EPW43891   8.101   4.904   6.066 -0.4840  0.1605 -0.2677
10522WAT      O43892   6.026   3.717   4.253  0.2582  0.4928  0.7206
10522WAT     H143893   5.998   3.687   4.167  0.3210  2.2478  0.0546
10522WAT     H243894   6.074   3.798   4.236  1.6802  0.0191  2.2678
10522WAT    EPW43895   6.029   3.724   4.240  0.4539  0.6618  0.8366
10523WAT      O43896   7.363   4.776   5.268  0.0191 -0.3645  0.1246
10523WAT     H143897   7.408   4.840   5.213  1.5361 -0.3635  1.3024
10523WAT     H243898   7.324   4.714   5.205 -1.9857  1.9294 -1.0716
10523WAT    EPW43899   7.364   4.776   5.252 -0.0451 -0.0618  0.1218
10524WAT      O43900   9.173   5.066   3.665  0.5079  0.8730  0.5347
10524WAT     H143901   9.211   5.070   3.577  0.2575  1.4595  0.4508
10524WAT     H243902   9.138   4.977   3.673 -1.1671  1.3849 -0.6632
10524WAT    EPW43903   9.174   5.055   3.655  0.2542  1.0178  0.3657
10525WAT      O43904   5.798   4.321   7.427 -0.9332 -0.2228 -0.1316
10525WAT     H143905   5.732   4.251   7.428 -0.1997 -0.9274  0.2036
10525WAT     H243906   5.776   4.375   7.503 -2.9835  1.3796 -1.7204
10525WAT    EPW43907   5.786   4.319   7.437 -1.1067 -0.1044 -0.2968
10526WAT      O43908   7.980   4.220   4.556  0.3866 -0.4228 -0.3299
10526WAT     H143909   7.885   4.221   4.546  0.4249  1.2425 -0.8658
10526WAT     H243910   7.995   4.182   4.643 -0.8197  0.2568  0.1996
10526WAT    EPW43911   7.970   4.215   4.566  0.2325 -0.1137 -0.3307
10527WAT      O43912  10.818   0.393   6.486 -0.4393  0.2531 -0.0915
10527WAT     H143913  10.804   0.406   6.580 -0.0688  1.4486 -0.1959
10527WAT     H243914  10.909   0.417   6.471 -0.5558  0.2682 -0.8001
10527WAT    EPW43915  10.828   0.398   6.497 -0.4063  0.4127 -0.1984
10528WAT      O43916   8.498   6.501   5.855 -0.0819  0.0373  0.6004
10528WAT     H143917   8.472   6.559   5.926 -0.1796  0.5528  0.1492
10528WAT     H243918   8.593   6.495   5.863 -0.0903  0.1087  0.7635
10528WAT    EPW43919   8.507   6.508   5.865 -0.0958  0.1147  0.5624
10529WAT      O43920   0.454   5.418   5.751 -1.0724 -0.0586 -0.2246
10529WAT     H143921   0.501   5.387   5.674 -0.0143 -1.9653  1.0942
10529WAT     H243922   0.481   5.509   5.761  1.6561 -0.7930 -0.0985
10529WAT    EPW43923   0.463   5.426   5.742 -0.5729 -0.4067 -0.0343
10530WAT      O43924   8.034   6.475   5.621 -0.5034  0.1983 -0.1372
10530WAT     H143925   8.129   6.487   5.614 -0.2643 -1.9016 -1.1187
10530WAT     H243926   8.000   6.564   5.625  1.5383  1.0065  1.0923
10530WAT    EPW43927   8.042   6.488   5.620 -0.2022  0.0279 -0.1047
10531WAT      O43928   7.414   2.561   7.962  0.4621  1.1087  0.5885
10531WAT     H143929   7.460   2.533   8.041  0.3072 -1.4232 -0.1419
10531WAT     H243930   7.334   2.603   7.995 -0.2146 -1.0064  1.8197
10531WAT    EPW43931   7.410   2.563   7.977  0.3524  0.4959  0.6545
10532WAT      O43932   0.338   3.805   5.962 -0.0534 -0.7121  0.4685
10532WAT     H143933   0.261   3.771   6.008 -1.2376  2.7448  1.3962
10532WAT     H243934   0.395   3.836   6.033  1.1151 -1.1281 -0.2753
10532WAT    EPW43935   0.335   3.805   5.978 -0.0555 -0.3111  0.4928
10533WAT      O43936   7.728   3.977   5.546 -0.2966 -0.5186  0.3853
10533WAT     H143937   7.752   3.903   5.601  1.2937 -1.1449 -1.0447
10533WAT     H243938   7.640   3.957   5.515 -0.5141 -1.0026  1.3071
10533WAT    EPW43939   7.720   3.964   5.549 -0.1156 -0.6652  0.3181
10534WAT      O43940   6.238   3.981   6.053  0.6282  0.4621  0.0067
10534WAT     H143941   6.158   3.934   6.029  0.8646 -1.2710  2.2410
10534WAT     H243942   6.295   3.970   5.978 -0.6542  0.3095 -0.9789
10534WAT    EPW43943   6.235   3.973   6.040  0.4902  0.2133  0.1714
10535WAT      O43944   7.582   6.017   5.611  0.5049  0.5630  0.5630
10535WAT     H143945   7.535   6.043   5.531  0.4224 -2.1837 -0.3844
10535WAT     H243946   7.518   5.963   5.659  1.4071  0.0260  1.1783
10535WAT    EPW43947   7.567   6.013   5.607  0.6130  0.1299  0.5193
10536WAT      O43948   5.709   5.585   5.469  0.4343  0.4403  0.6846
10536WAT     H143949   5.672   5.566   5.383 -0.4755 -0.6701  1.2832
10536WAT     H243950   5.689   5.677   5.484  0.9869  0.7524 -0.4653
10536WAT    EPW43951   5.701   5.594   5.460  0.3872  0.3350  0.6118
10537WAT      O43952   7.861   3.254   1.193  0.0229  0.2851  0.0818
10537WAT     H143953   7.947   3.273   1.229  0.2618 -2.0115  0.8713
10537WAT     H243954   7.873   3.260   1.098  0.5988  1.6537  0.2240
10537WAT    EPW43955   7.874   3.257   1.185  0.1304  0.1627  0.2047
10538WAT      O43956   7.510   2.104   2.613  0.0567  0.4505  0.6787
10538WAT     H143957   7.536   2.182   2.564 -0.3274  0.4091  0.4013
10538WAT     H243958   7.544   2.031   2.560 -1.5248  0.3559 -0.2589
10538WAT    EPW43959   7.518   2.105   2.599 -0.2027  0.4325  0.5184
10539WAT      O43960   4.222   1.975   5.149 -1.0055 -0.1076 -1.2207
10539WAT     H143961   4.129   1.993   5.135 -0.9535 -0.4139 -2.0216
10539WAT     H243962   4.253   2.048   5.203 -1.5963  0.2600 -1.3717
10539WAT    EPW43963   4.214   1.987   5.154 -1.0765 -0.0994 -1.3463
10540WAT      O43964   8.110   2.437   6.809  0.1963 -0.3522  0.5183
10540WAT     H143965   8.124   2.378   6.735  0.5243  0.1082  0.2112
10540WAT     H243966   8.193   2.483   6.819 -1.4314  3.9126 -2.6141
10540WAT    EPW43967   8.123   2.435   6.800  0.0248  0.2711  0.0646
10541WAT      O43968   5.491   2.119   6.992  0.5201  0.2102 -0.3601
10541WAT     H143969   5.466   2.070   6.914  2.6760 -1.5542 -0.0595
10541WAT     H243970   5.585   2.104   7.000  0.6807  1.8247  1.5997
10541WAT    EPW43971   5.500   2.111   6.983  0.8259  0.1904 -0.0620
10542WAT      O43972   5.448   4.521   5.115 -0.8651 -0.7131 -0.4019
10542WAT     H143973   5.507   4.538   5.187  0.7259  1.3048 -2.0587
10542WAT     H243974   5.497   4.463   5.056 -1.0259 -0.0727 -1.1846
10542WAT    EPW43975   5.462   4.515   5.116 -0.6764 -0.3624 -0.7236
10543WAT      O43976   8.896   3.278   2.521 -0.1385  0.6201  0.2005
10543WAT     H143977   8.910   3.208   2.585 -0.3788 -0.3046 -0.7444
10543WAT     H243978   8.852   3.347   2.571 -1.0650 -0.4135  0.8592
10543WAT    EPW43979   8.892   3.278   2.536 -0.2928  0.3619  0.1628
10544WAT      O43980   9.842   7.061   3.270  0.2333 -0.4744  0.0644
10544WAT     H143981   9.873   7.142   3.311 -2.3741  0.0369  1.2128
10544WAT     H243982   9.784   7.022   3.335 -0.1005 -2.2760 -1.2345
10544WAT    EPW43983   9.839   7.066   3.284 -0.1545 -0.6444  0.0446
10545WAT      O43984   6.789   4.353   3.739 -0.3997  0.0442 -0.2115
10545WAT     H143985   6.723   4.284   3.742 -0.6609  0.2893 -0.2893
10545WAT     H243986   6.810   4.362   3.646  0.5959 -0.8311 -0.0993
10545WAT    EPW43987   6.783   4.345   3.727 -0.3030 -0.0389 -0.2069
10546WAT      O43988   5.733   3.485   7.167  0.6438 -0.2700  0.3679
10546WAT     H143989   5.827   3.501   7.167  0.4019  1.8184 -2.0808
10546WAT     H243990   5.693   3.570   7.149 -1.3696 -1.7816 -3.7170
10546WAT    EPW43991   5.740   3.498   7.165  0.3462 -0.1940 -0.4942
10547WAT      O43992   8.307   4.652   6.541 -0.0002  0.6684  0.0738
10547WAT     H143993   8.351   4.624   6.461 -0.8504  0.4083 -0.3132
10547WAT     H243994   8.229   4.596   6.547  0.2891  0.3749  1.3270
10547WAT    EPW43995   8.302   4.641   6.532 -0.0739  0.5953  0.1881
10548WAT      O43996   8.229   5.660   5.107 -0.1200 -0.4021  0.4480
10548WAT     H143997   8.162   5.719   5.142  0.6487  2.5847 -2.6158
10548WAT     H243998   8.186   5.575   5.100 -3.0142  0.9786  0.2982
10548WAT    EPW43999   8.215   5.657   5.111 -0.4005  0.1740  0.0246
10549WAT      O44000   7.196   5.807   5.662  0.3301 -0.2009  0.0773
10549WAT     H144001   7.168   5.873   5.599 -1.1066  0.4686  1.3640
10549WAT     H244002   7.215   5.730   5.608 -3.0315 -0.4054 -1.0787
10549WAT    EPW44003   7.195   5.805   5.646 -0.3028 -0.1397  0.0944
10550WAT      O44004   0.353   3.747   5.257 -0.5442  0.2986 -0.4276
10550WAT     H144005   0.360   3.653   5.240  0.2019 -0.3382  2.6779
10550WAT     H244006   0.439   3.782   5.236  0.4980 -0.5340  2.1082
10550WAT    EPW44007   0.365   3.739   5.252 -0.3083  0.1047  0.3166
10551WAT      O44008   5.497   2.901   4.849 -0.0104  0.0052 -0.1925
10551WAT     H144009   5.442   2.842   4.900  0.1742  1.0806  1.2801
10551WAT     H244010   5.446   2.981   4.840  1.4061  1.1564  1.5194
10551WAT    EPW44011   5.483   2.904   4.854  0.2007  0.2989  0.2277
10552WAT      O44012   4.968   4.298   4.843  0.2574 -0.1373 -0.2309
10552WAT     H144013   4.934   4.213   4.814  2.2493  0.1128 -3.8604
10552WAT     H244014   4.898   4.360   4.821 -1.3274 -0.7189  2.6997
10552WAT    EPW44015   4.954   4.295   4.836  0.3109 -0.1810 -0.3231
10553WAT      O44016   3.498   3.142   1.166  0.0512 -0.4851  0.9102
10553WAT     H144017   3.479   3.048   1.175 -1.5476 -0.2559  0.2258
10553WAT     H244018   3.464   3.181   1.247 -1.1099 -0.2686  0.3413
10553WAT    EPW44019   3.491   3.134   1.178 -0.3128 -0.4263  0.7448
10554WAT      O44020   7.714   4.689   5.224 -0.1284 -0.3282  0.9906
10554WAT     H144021   7.682   4.774   5.254 -1.3498 -0.8685  1.3061
10554WAT     H244022   7.644   4.628   5.247 -0.6373 -0.9882 -1.8786
10554WAT    EPW44023   7.700   4.692   5.231 -0.3562 -0.4866  0.6535
10555WAT      O44024  10.826   4.455   6.608  0.5959 -0.8226  0.0933
10555WAT     H144025  10.776   4.399   6.667  1.2852 -1.6337 -0.0650
10555WAT     H244026  10.897   4.488   6.663  0.5178 -0.5691  0.0385
10555WAT    EPW44027  10.829   4.452   6.623  0.6766 -0.8962  0.0653
10556WAT      O44028   6.559   4.072   8.324 -0.0736 -0.5374 -0.7049
10556WAT     H144029   6.623   4.010   8.288  0.2142  0.3840 -1.8288
10556WAT     H244030   6.594   4.096   8.409  1.3775  0.3302 -1.5055
10556WAT    EPW44031   6.572   4.067   8.330  0.1557 -0.3016 -0.9584
10557WAT      O44032   8.430   3.537   5.740 -0.3925 -0.0979  0.2923
10557WAT     H144033   8.429   3.514   5.647  0.3003  1.7160 -0.2006
10557WAT     H244034   8.338   3.542   5.764 -0.6222  0.6510 -0.6453
10557WAT    EPW44035   8.418   3.535   5.731 -0.3319  0.2402  0.1037
10558WAT      O44036   6.552   3.333   3.120 -0.1728 -0.1391  1.1799
10558WAT     H144037   6.594   3.251   3.095  1.0133  0.7744 -0.0359
10558WAT     H244038   6.538   3.378   3.037 -4.1384 -0.5713  1.4458
10558WAT    EPW44039   6.556   3.328   3.106 -0.5395 -0.0758  1.0546
10559WAT      O44040   6.845   2.385   1.289 -0.1839  0.5620 -0.3228
10559WAT     H144041   6.877   2.471   1.315  0.0572  1.4355 -3.2217
10559WAT     H244042   6.921   2.342   1.249 -1.1637  0.4972 -2.2340
10559WAT    EPW44043   6.859   2.391   1.287 -0.2811  0.6686 -0.9572
10560WAT      O44044   7.527   3.511   5.400 -0.2727  0.1700  0.3104
10560WAT     H144045   7.454   3.573   5.412 -0.2957  0.3150 -0.4842
10560WAT     H244046   7.513   3.444   5.467 -1.5611 -0.1991 -0.2905
10560WAT    EPW44047   7.516   3.511   5.411 -0.4458  0.1405  0.1264
10561WAT      O44048   8.848   4.781   4.627 -0.2201  0.0803  0.8633
10561WAT     H144049   8.831   4.692   4.597 -2.2306  0.0386  1.9647
10561WAT     H244050   8.819   4.837   4.555 -0.2490 -0.1214  0.7188
10561WAT    EPW44051   8.842   4.777   4.613 -0.4897  0.0482  0.9894
10562WAT      O44052   6.179   4.861   6.614  0.1563 -0.1878  0.0098
10562WAT     H144053   6.157   4.790   6.553  0.4555 -0.5164  0.2801
10562WAT     H244054   6.154   4.941   6.568  3.3220 -0.1574 -1.9823
10562WAT    EPW44055   6.173   4.862   6.600  0.6135 -0.2270 -0.2174
10563WAT      O44056   9.389   2.999   5.537  0.3988  0.0206 -0.3279
10563WAT     H144057   9.355   3.042   5.459 -0.6543 -0.5883 -0.2146
10563WAT     H244058   9.475   2.965   5.510 -1.3393 -3.2672 -2.3787
10563WAT    EPW44059   9.396   3.000   5.524  0.0305 -0.4932 -0.5834
10564WAT      O44060   6.473   4.438   7.397 -0.1965 -0.1167 -0.2305
10564WAT     H144061   6.471   4.342   7.404  2.2806 -0.1807  0.6492
10564WAT     H244062   6.491   4.468   7.486  1.0427  1.0224 -0.8373
10564WAT    EPW44063   6.475   4.429   7.409  0.2937  0.0250 -0.1945
10565WAT      O44064   9.548   3.190   7.913 -0.2266  0.2215  0.7627
10565WAT     H144065   9.527   3.152   7.827  0.5149  0.3342  0.5261
10565WAT     H244066   9.489   3.265   7.921 -3.7692 -2.4077  2.4206
10565WAT    EPW44067   9.537   3.195   7.903 -0.5960 -0.1105  0.9501
10566WAT      O44068   9.977   3.625   4.660  0.4197  0.6702  0.4885
10566WAT     H144069   9.962   3.596   4.570  1.9317 -0.2338  0.4865
10566WAT     H244070  10.043   3.695   4.652 -1.2295  2.3200  0.7235
10566WAT    EPW44071   9.984   3.630   4.647  0.4015  0.7685  0.5193
10567WAT      O44072  10.331   2.903   6.565  0.4223 -0.3681 -1.1665
10567WAT     H144073  10.426   2.909   6.560  0.3845 -0.6556 -2.4853
10567WAT     H244074  10.311   2.911   6.658  1.7288 -0.2425 -0.8879
10567WAT    EPW44075  10.341   2.905   6.577  0.5894 -0.3895 -1.3039
10568WAT      O44076   8.517   5.745   4.890 -1.1008 -0.1499 -0.5529
10568WAT     H144077   8.526   5.693   4.970 -2.4317 -0.8785 -0.8349
10568WAT     H244078   8.579   5.705   4.828  0.0452  0.5174  0.1435
10568WAT    EPW44079   8.526   5.733   4.892 -1.1253 -0.1578 -0.4983
10569WAT      O44080   9.575   7.035   6.517  0.2547  0.2063 -0.2353
10569WAT     H144081   9.489   7.052   6.478  0.4766 -0.0332 -0.8365
10569WAT     H244082   9.581   6.940   6.521  0.7580  0.2102 -0.8039
10569WAT    EPW44083   9.564   7.025   6.512  0.3500  0.1752 -0.3896
10570WAT      O44084  10.086   4.412   3.392  0.1733  0.8177  0.7104
10570WAT     H144085  10.039   4.479   3.442  1.4420  2.9586 -0.7591
10570WAT     H244086  10.178   4.425   3.416  0.3952 -0.8862  0.8843
10570WAT    EPW44087  10.092   4.423   3.402  0.3700  0.8755  0.5394
10571WAT      O44088   8.400   3.981   6.328 -0.2454  0.1813  0.5335
10571WAT     H144089   8.359   4.058   6.368 -2.6403 -1.7899  2.1602
10571WAT     H244090   8.342   3.957   6.256 -0.8668 -1.4242  1.5247
10571WAT    EPW44091   8.387   3.988   6.324 -0.6428 -0.2905  0.8786
10572WAT      O44092   8.304   2.900   6.070  0.2545 -0.2634 -0.0891
10572WAT     H144093   8.386   2.852   6.061  0.1238 -0.5889  0.4088
10572WAT     H244094   8.289   2.938   5.983  1.0297 -0.0312 -0.1241
10572WAT    EPW44095   8.313   2.899   6.057  0.3395 -0.2757 -0.0281
10573WAT      O44096   7.582   4.378   6.898  0.0405  0.4496 -0.1388
10573WAT     H144097   7.604   4.291   6.931  2.3898  1.8639  2.4851
10573WAT     H244098   7.496   4.397   6.935 -1.0848 -1.1513 -1.7808
10573WAT    EPW44099   7.574   4.369   6.907  0.2019  0.4249 -0.0093
10574WAT      O44100   9.486   4.470   8.112 -0.2976 -0.1161  0.4508
10574WAT     H144101   9.489   4.488   8.018  0.5789 -1.1795  0.2558
10574WAT     H244102   9.459   4.379   8.118 -0.4037 -0.0342  1.2303
10574WAT    EPW44103   9.483   4.461   8.100 -0.1955 -0.2453  0.5283
10575WAT      O44104   6.435   3.869   5.891  0.3365 -0.4160  0.1084
10575WAT     H144105   6.511   3.863   5.833  0.8871 -0.1171  0.7804
10575WAT     H244106   6.398   3.780   5.892 -0.9581  0.0258 -2.3476
10575WAT    EPW44107   6.440   3.856   5.884  0.2387 -0.3184 -0.1271
10576WAT      O44108   4.603   1.910   6.031 -0.1339 -0.0881  0.4156
10576WAT     H144109   4.519   1.923   5.988  1.2765 -1.7672 -3.2707
10576WAT     H244110   4.613   1.815   6.036  0.1362 -0.0107  4.1354
10576WAT    EPW44111   4.593   1.899   6.026  0.0877 -0.2994  0.4199
10577WAT      O44112   9.073   6.842   6.836  0.0399 -0.5623 -0.0754
10577WAT     H144113   9.024   6.786   6.896  0.1358  0.2759  0.8220
10577WAT     H244114   9.071   6.796   6.752  0.6143 -2.1858  0.7571
10577WAT    EPW44115   9.066   6.829   6.833  0.1283 -0.6657  0.1528
10578WAT      O44116   7.821   3.562   4.846 -0.1849 -0.2525  0.5496
10578WAT     H144117   7.849   3.643   4.803  0.7796 -0.6176  0.4596
10578WAT     H244118   7.803   3.587   4.936 -0.0122  0.0895  0.4919
10578WAT    EPW44119   7.822   3.576   4.852 -0.0353 -0.2556  0.5302
10579WAT      O44120   6.839   4.652   7.505 -0.2902 -0.3098  0.5517
10579WAT     H144121   6.850   4.563   7.537 -0.2274  0.0215  1.4751
10579WAT     H244122   6.880   4.652   7.419  0.0537 -1.0707  0.7117
10579WAT    EPW44123   6.846   4.641   7.498 -0.2367 -0.3667  0.6945
10580WAT      O44124   6.975   2.614   5.987  0.4353  0.2201  0.5437
10580WAT     H144125   6.938   2.698   5.961 -1.0526  0.1513  2.1778
10580WAT     H244126   6.909   2.577   6.046  1.5626 -1.5897  0.7396
10580WAT    EPW44127   6.961   2.621   5.992  0.3877 -0.0277  0.7851
10581WAT      O44128   8.198   3.778   5.238  0.1248  0.0210  0.0933
10581WAT     H144129   8.235   3.774   5.326  1.4711  0.9377 -0.3814
10581WAT     H244130   8.262   3.732   5.183 -0.5961 -0.3667 -0.4322
10581WAT    EPW44131   8.211   3.772   5.242  0.2074  0.0908 -0.0386
10582WAT      O44132   6.504   4.787   4.842 -0.1091  0.4768  0.4721
10582WAT     H144133   6.457   4.807   4.923 -1.7391  2.1895 -0.8234
10582WAT     H244134   6.596   4.784   4.868 -0.5047  1.8321  2.2454
10582WAT    EPW44135   6.510   4.789   4.856 -0.3762  0.8814  0.5352
10583WAT      O44136   7.371   5.961   6.935 -0.6140  0.6048  0.1234
10583WAT     H144137   7.396   5.974   6.844 -1.2760  1.6009  0.0635
10583WAT     H244138   7.373   5.866   6.947  0.0190  0.4911 -0.7609
10583WAT    EPW44139   7.374   5.950   6.924 -0.6175  0.7212 -0.0012
10584WAT      O44140   6.433   5.308   5.225 -0.0896  0.2229 -0.1862
10584WAT     H144141   6.479   5.225   5.237 -0.6493 -0.5035 -2.6018
10584WAT     H244142   6.477   5.369   5.284  2.7352 -0.9097 -0.9877
10584WAT    EPW44143   6.445   5.305   5.235  0.2089 -0.0224 -0.6106
10585WAT      O44144   7.759   4.208   5.715  0.1893 -0.3493  0.3939
10585WAT     H144145   7.791   4.149   5.783 -0.0004 -1.4389 -0.4457
10585WAT     H244146   7.736   4.151   5.642  0.1472  0.7780 -0.5016
10585WAT    EPW44147   7.760   4.193   5.715  0.1585 -0.3440  0.1650
10586WAT      O44148  10.442   4.006   3.917  0.5719 -0.1724  0.1136
10586WAT     H144149  10.371   3.946   3.940 -0.1573  0.4034 -0.5428
10586WAT     H244150  10.441   4.008   3.822  0.1716  1.3281  0.1239
10586WAT    EPW44151  10.432   3.998   3.908  0.4234  0.1014  0.0284
10587WAT      O44152   6.704   3.531   5.619  0.2550 -0.0565 -0.0296
10587WAT     H144153   6.641   3.562   5.553  0.8271 -0.5918 -0.8504
10587WAT     H244154   6.681   3.579   5.698 -0.2473  0.8575 -0.7034
10587WAT    EPW44155   6.693   3.542   5.621  0.2646 -0.0067 -0.2263
10588WAT      O44156   5.818   4.244   6.544 -0.0055 -0.2819  0.1681
10588WAT     H144157   5.910   4.256   6.569  0.3859  0.7674 -1.5530
10588WAT     H244158   5.818   4.164   6.492 -0.2891 -0.8828  1.0714
10588WAT    EPW44159   5.830   4.235   6.540  0.0086 -0.2229  0.0601
10589WAT      O44160   7.011   3.016   5.061  0.2670 -0.4390  0.1063
10589WAT     H144161   6.933   3.046   5.015  1.4404  2.5197 -0.1571
10589WAT     H244162   7.035   3.089   5.118  1.3333 -2.3295  2.2617
10589WAT    EPW44163   7.004   3.030   5.063  0.5622 -0.2980  0.3557
10590WAT      O44164   0.025   2.419   3.535  0.1590  0.2351  0.0219
10590WAT     H144165   0.065   2.429   3.622 -0.4549  0.7839  0.2451
10590WAT     H244166   0.025   2.324   3.520  1.1929  0.1937  0.1779
10590WAT    EPW44167   0.030   2.408   3.545  0.2144  0.3018  0.0719
10591WAT      O44168   8.769   3.116   7.150 -0.3044  0.4709 -0.2174
10591WAT     H144169   8.683   3.134   7.187  0.3612 -0.0444  1.7116
10591WAT     H244170   8.816   3.072   7.220  1.1890 -0.2303 -1.5979
10591WAT    EPW44171   8.764   3.112   7.164 -0.0196  0.3104 -0.1452
10592WAT      O44172   6.125   3.577   5.098  0.0724 -0.0309  0.4827
10592WAT     H144173   6.198   3.516   5.096 -0.5151 -0.7739  0.9228
10592WAT     H244174   6.159   3.656   5.140  1.0080  0.1759 -0.6311
10592WAT    EPW44175   6.139   3.580   5.103  0.1183 -0.1016  0.3936
10593WAT      O44176  10.315   6.268   2.020 -0.9231  0.6200 -0.5117
10593WAT     H144177  10.380   6.304   1.959 -0.8686 -0.2692 -0.9994
10593WAT     H244178  10.264   6.343   2.048 -0.6003  1.1221 -1.2398
10593WAT    EPW44179  10.317   6.283   2.016 -0.8731  0.5689 -0.6720
10594WAT      O44180   6.761   3.561   4.454 -0.0231 -0.1425 -0.4018
10594WAT     H144181   6.692   3.616   4.416  0.0036 -0.0707 -0.3459
10594WAT     H244182   6.830   3.622   4.479  0.4424 -0.3059 -1.2723
10594WAT    EPW44183   6.761   3.576   4.452  0.0417 -0.1545 -0.5093
10595WAT      O44184   5.892   4.912   5.040 -0.1615  0.1391 -0.3990
10595WAT     H144185   5.813   4.946   4.999 -2.4530 -2.6754  1.3083
10595WAT     H244186   5.927   4.848   4.978  0.8917  1.4251 -1.1793
10595WAT    EPW44187   5.887   4.908   5.027 -0.3247 -0.0625 -0.2770
10596WAT      O44188   8.298   0.697   4.865 -0.0945 -0.3666  0.5243
10596WAT     H144189   8.357   0.630   4.828 -0.2133  0.0902 -0.5424
10596WAT     H244190   8.329   0.779   4.827 -1.4924 -0.1364 -0.1954
10596WAT    EPW44191   8.309   0.699   4.855 -0.2952 -0.2760  0.2887
10597WAT      O44192   6.911   2.372   5.832 -0.0830 -0.5763  0.4415
10597WAT     H144193   6.908   2.445   5.894 -2.5933 -1.5335  1.5721
10597WAT     H244194   6.997   2.332   5.847  0.0938  0.3091  2.0107
10597WAT    EPW44195   6.922   2.376   5.842 -0.3905 -0.5857  0.7973
10598WAT      O44196   6.067   2.094   7.412  0.5437 -0.1185 -0.4047
10598WAT     H144197   6.025   2.133   7.489  1.6585  0.5643 -0.1177
10598WAT     H244198   5.994   2.073   7.354 -0.1439  2.4186 -0.5735
10598WAT    EPW44199   6.051   2.096   7.415  0.5999  0.3062 -0.3891
10599WAT      O44200   6.604   1.378   6.410 -0.8349 -0.1078  0.3559
10599WAT     H144201   6.606   1.450   6.474 -0.6250  1.2065 -1.0751
10599WAT     H244202   6.515   1.379   6.376 -1.7611 -2.4814  2.3598
10599WAT    EPW44203   6.592   1.388   6.414 -0.9294 -0.2475  0.4313
10600WAT      O44204   9.905   5.211   4.752 -0.2316  0.2193  0.3227
10600WAT     H144205   9.865   5.193   4.837 -0.1301 -0.5242  0.2203
10600WAT     H244206   9.930   5.125   4.719 -1.5116  0.3289 -1.0608
10600WAT    EPW44207   9.903   5.198   4.759 -0.3872  0.1354  0.1268
10601WAT      O44208   8.528   3.739   4.369  0.5297 -0.7529  0.1011
10601WAT     H144209   8.545   3.744   4.464  2.2802  0.6887 -0.2324
10601WAT     H244210   8.581   3.665   4.339  0.4791 -0.8167  0.1701
10601WAT    EPW44211   8.537   3.730   4.378  0.7544 -0.5710  0.0663
10602WAT      O44212   5.437   4.803   4.788  0.1841  0.3914 -0.1455
10602WAT     H144213   5.490   4.725   4.772 -1.1605 -0.9988  1.7841
10602WAT     H244214   5.457   4.861   4.714  1.7172 -1.4855 -1.2925
10602WAT    EPW44215   5.447   4.800   4.776  0.2089 -0.0393 -0.0422
10603WAT      O44216  10.777   3.006   3.299  0.1407 -0.1157 -0.3379
10603WAT     H144217  10.750   3.048   3.380  1.5334 -1.9520  1.1535
10603WAT     H244218  10.756   2.914   3.311  1.0772 -0.5519 -1.7580
10603WAT    EPW44219  10.771   3.000   3.311  0.4482 -0.4156 -0.3284
10604WAT      O44220  10.211   3.566   5.225  0.0677  0.0759 -0.0506
10604WAT     H144221  10.242   3.496   5.283 -0.7429  0.6061  1.0693
10604WAT     H244222  10.211   3.644   5.281 -2.2187  0.3090 -0.2897
10604WAT    EPW44223  10.215   3.567   5.240 -0.3405  0.1767  0.0656
10605WAT      O44224   6.154   3.475   7.435 -0.2308  0.1227  0.2453
10605WAT     H144225   6.110   3.447   7.515  1.0719 -0.0886  0.9271
10605WAT     H244226   6.248   3.467   7.456  0.1372  0.0485 -1.3021
10605WAT    EPW44227   6.161   3.470   7.448 -0.0105  0.0850  0.1311
10606WAT      O44228  10.419   8.807   0.306  0.1175 -0.2162 -0.3627
10606WAT     H144229  10.369   8.729   0.330  0.1816  0.2011  1.2319
10606WAT     H244230  10.354   8.878   0.308  0.1291 -0.1428 -1.4873
10606WAT    EPW44231  10.404   8.806   0.309  0.1273 -0.1516 -0.3007
10607WAT      O44232   7.734   3.847   2.196 -0.0586  0.4294 -0.2779
10607WAT     H144233   7.683   3.906   2.252  1.5142  1.3003  0.3031
10607WAT     H244234   7.825   3.869   2.215  0.5406 -0.4128 -1.9801
10607WAT    EPW44235   7.739   3.858   2.206  0.2279  0.4333 -0.4257
10608WAT      O44236   8.856   5.137   8.464 -0.9308 -0.6146  0.3544
10608WAT     H144237   8.808   5.067   8.507 -3.3350  0.4222 -0.5037
10608WAT     H244238   8.868   5.106   8.374 -0.7455 -0.4846  0.3330
10608WAT    EPW44239   8.851   5.124   8.458 -1.2236 -0.4606  0.2384
10609WAT      O44240  10.599   0.896   5.605  0.1360 -0.1296  1.0329
10609WAT     H144241  10.504   0.884   5.599  0.3070 -1.5399  0.7338
10609WAT     H244242  10.613   0.988   5.586 -1.1247 -0.0442  0.4359
10609WAT    EPW44243  10.588   0.906   5.602 -0.0072 -0.3043  0.9146
10610WAT      O44244   9.828   3.405   6.636  0.3538 -0.4043 -0.1383
10610WAT     H144245   9.754   3.349   6.658  0.3308 -0.1406  0.5073
10610WAT     H244246   9.791   3.494   6.635  0.3625 -0.4083 -1.2800
10610WAT    EPW44247   9.813   3.409   6.639  0.3519 -0.3700 -0.2038
10611WAT      O44248   6.867   2.623   6.666 -0.0328  0.3133  0.3724
10611WAT     H144249   6.783   2.633   6.711  0.4659  2.0116  1.0126
10611WAT     H244250   6.932   2.656   6.728  1.0773 -0.4990 -0.3057
10611WAT    EPW44251   6.864   2.629   6.680  0.1793  0.4301  0.3674
10612WAT      O44252   6.840   4.578   3.950 -0.4424  0.8611 -0.1952
10612WAT     H144253   6.910   4.642   3.964 -0.0954  0.2627  0.9769
10612WAT     H244254   6.775   4.624   3.898  1.8227  0.7209 -3.3894
10612WAT    EPW44255   6.841   4.592   3.945 -0.0980  0.7637 -0.4618
10613WAT      O44256   8.630   5.533   6.573  1.1779  0.2044 -0.4816
10613WAT     H144257   8.549   5.541   6.522  0.7198 -0.0336  0.1997
10613WAT     H244258   8.690   5.485   6.515  1.9951  3.1483 -2.3200
10613WAT    EPW44259   8.627   5.528   6.559  1.2250  0.5615 -0.6342
10614WAT      O44260   7.626   3.827   4.769 -0.3723  0.1062  0.0584
10614WAT     H144261   7.643   3.804   4.860 -0.6908 -1.3560 -0.2395
10614WAT     H244262   7.713   3.841   4.732 -0.2430  0.8026  0.5837
10614WAT    EPW44263   7.640   3.826   4.776 -0.3972  0.0052  0.0885
10615WAT      O44264   8.877   2.125   4.826  0.8513 -0.9347  0.0449
10615WAT     H144265   8.860   2.063   4.755 -0.8097 -2.1748  1.4598
10615WAT     H244266   8.825   2.202   4.803  1.8804 -0.5314 -1.0450
10615WAT    EPW44267   8.868   2.127   4.814  0.7687 -1.0452  0.0877
10616WAT      O44268   0.310  10.332   0.830  0.1045  0.1635  0.2156
10616WAT     H144269   0.391  10.283   0.815 -0.1502  0.2134 -1.5619
10616WAT     H244270   0.336  10.424   0.824  0.2620  0.2448  1.7593
10616WAT    EPW44271   0.324  10.338   0.827  0.0917  0.1808  0.1847
10617WAT      O44272  10.586   6.150   3.650 -0.0881 -0.5347  0.4968
10617WAT     H144273  10.517   6.189   3.704 -0.1641  0.1304 -0.0704
10617WAT     H244274  10.590   6.059   3.679  0.9676  0.1651  2.7617
10617WAT    EPW44275  10.577   6.143   3.661  0.0410 -0.3545  0.7209
10618WAT      O44276   8.836   5.538   5.673 -0.0195 -0.6870  0.0183
10618WAT     H144277   8.875   5.589   5.602  2.2455  0.5334  2.0105
10618WAT     H244278   8.883   5.454   5.671 -0.7439 -1.0928 -0.5767
10618WAT    EPW44279   8.848   5.534   5.664  0.1836 -0.5796  0.2024
10619WAT      O44280   7.694   6.773   1.587 -0.7974 -0.6935 -0.3731
10619WAT     H144281   7.675   6.723   1.507 -1.0229 -0.9018 -0.1934
10619WAT     H244282   7.627   6.841   1.589 -1.8767 -1.7223  0.5124
10619WAT    EPW44283   7.682   6.775   1.577 -0.9694 -0.8566 -0.2326
10620WAT      O44284   6.603   4.503   4.509  0.1463  0.1021 -0.2292
10620WAT     H144285   6.615   4.597   4.522  0.0767 -0.0288  0.8542
10620WAT     H244286   6.519   4.496   4.464  1.1378  0.6592 -2.3096
10620WAT    EPW44287   6.593   4.514   4.505  0.2682  0.1583 -0.3607
10621WAT      O44288   8.958   5.056   4.322 -0.8010 -0.8066 -0.6328
10621WAT     H144289   8.864   5.059   4.344 -1.3330  1.0888 -2.7941
10621WAT     H244290   8.985   5.147   4.323  1.5735 -1.4208  1.7410
10621WAT    EPW44291   8.949   5.068   4.325 -0.5574 -0.6378 -0.6049
10622WAT      O44292   9.296   2.417   6.466 -0.2972 -0.5827  0.2343
10622WAT     H144293   9.343   2.419   6.550 -4.0677  1.8965  2.5425
10622WAT     H244294   9.319   2.499   6.424  0.6562 -1.3043 -0.7287
10622WAT    EPW44295   9.306   2.428   6.472 -0.6690 -0.3508  0.4120
10623WAT      O44296   5.673   5.134   2.995  0.4001  1.0396  0.4735
10623WAT     H144297   5.613   5.153   3.067 -0.8783 -1.0374  0.0283
10623WAT     H244298   5.740   5.078   3.034  0.6056  1.2288  0.3945
10623WAT    EPW44299   5.674   5.129   3.010  0.2587  0.7908  0.4044
10624WAT      O44300   6.934   0.760   4.780  0.1778 -0.1505 -0.2134
10624WAT     H144301   6.941   0.845   4.825  2.1952  1.1032 -2.6203
10624WAT     H244302   6.914   0.783   4.689  0.8938 -2.2495 -0.9592
10624WAT    EPW44303   6.932   0.774   4.774  0.5383 -0.2620 -0.6292
10625WAT      O44304   6.260   3.709   4.502  0.0848 -0.1964  0.9413
10625WAT     H144305   6.297   3.648   4.566 -0.9345 -2.1571 -0.2168
10625WAT     H244306   6.329   3.720   4.437 -0.3621 -1.7990  0.1202
10625WAT    EPW44307   6.274   3.702   4.501 -0.1085 -0.6665  0.6800
10626WAT      O44308   6.808   4.252   5.162  0.2847 -0.5728 -0.3597
10626WAT     H144309   6.890   4.301   5.150 -0.4984  0.8713 -0.0202
10626WAT     H244310   6.792   4.211   5.077  0.2703  0.8622 -1.0678
10626WAT    EPW44311   6.817   4.253   5.149  0.1795 -0.1931 -0.4082
10627WAT      O44312   5.189   4.824   4.667  0.0191 -0.4456  0.0989
10627WAT     H144313   5.204   4.745   4.615  2.3441  0.6764 -1.0910
10627WAT     H244314   5.266   4.832   4.722  0.4781  1.6579 -0.7471
10627WAT    EPW44315   5.201   4.815   4.668  0.3862 -0.0203 -0.1698
10628WAT      O44316   7.099   5.304   8.348  0.6448  0.1857  0.3859
10628WAT     H144317   7.021   5.325   8.298  0.4513  0.8220  0.9369
10628WAT     H244318   7.079   5.222   8.393  1.6948 -1.7357 -2.4126
10628WAT    EPW44319   7.086   5.296   8.348  0.7577  0.0160  0.0892
10629WAT      O44320   6.089   5.248   7.317 -0.2170 -0.1093  0.1967
10629WAT     H144321   6.155   5.199   7.268 -1.5039  0.1529 -1.9289
10629WAT     H244322   6.042   5.181   7.367 -1.2317 -0.9767 -1.8030
10629WAT    EPW44323   6.092   5.233   7.317 -0.5207 -0.1891 -0.3474
10630WAT      O44324  10.112   2.480   5.547  0.2046 -0.1246  0.3808
10630WAT     H144325  10.033   2.437   5.516  1.0559 -1.9870  0.6341
10630WAT     H244326  10.122   2.448   5.637  0.7437  0.8302  0.6710
10630WAT    EPW44327  10.103   2.470   5.555  0.3877 -0.2443  0.4530
10631WAT      O44328   4.570   5.072   4.109  0.2638 -0.0594 -0.2642
10631WAT     H144329   4.606   5.085   4.196  0.9874  0.1931 -0.5881
10631WAT     H244330   4.646   5.059   4.053 -0.2268 -1.0690 -0.7287
10631WAT    EPW44331   4.585   5.072   4.113  0.2944 -0.1593 -0.3681
10632WAT      O44332   7.925   1.932   1.989 -0.6795 -0.4000 -0.1516
10632WAT     H144333   7.831   1.929   2.005 -0.7117 -3.7778 -0.2465
10632WAT     H244334   7.934   1.911   1.896  0.1788  1.3761 -0.5170
10632WAT    EPW44335   7.914   1.929   1.978 -0.5705 -0.6113 -0.2123
10633WAT      O44336   6.218   1.243   6.210 -0.4483  0.3659  0.0932
10633WAT     H144337   6.268   1.312   6.167 -1.4141  0.2780 -1.2506
10633WAT     H244338   6.223   1.169   6.150 -0.5540 -0.2970  0.8760
10633WAT    EPW44339   6.226   1.242   6.197 -0.5896  0.2669  0.0193
10634WAT      O44340   7.683   4.921   5.607 -0.3146 -0.1963 -0.1745
10634WAT     H144341   7.592   4.894   5.615 -0.7287  0.6682 -1.5474
10634WAT     H244342   7.728   4.876   5.678 -1.6210 -1.4652 -0.1084
10634WAT    EPW44343   7.677   4.911   5.618 -0.5412 -0.2496 -0.3469
10635WAT      O44344  10.581   4.273   3.551 -0.0155 -0.5882 -0.4565
10635WAT     H144345  10.622   4.219   3.483 -1.1183  0.8472 -2.3809
10635WAT     H244346  10.606   4.362   3.528 -2.0035  0.0875 -0.1271
10635WAT    EPW44347  10.590   4.277   3.539 -0.4230 -0.3097 -0.6670
10636WAT      O44348   9.523   0.659   6.061 -0.8661  0.1602 -0.2251
10636WAT     H144349   9.536   0.722   5.991  1.8657  1.0221  0.9312
10636WAT     H244350   9.608   0.653   6.105 -1.4926 -2.9939  0.8546
10636WAT    EPW44351   9.536   0.667   6.058 -0.5884 -0.1421  0.0701
10637WAT      O44352  10.458   6.966   3.460  0.2298 -0.0836  0.3245
10637WAT     H144353  10.468   7.020   3.382  4.2274 -1.9380 -0.7414
10637WAT     H244354  10.505   7.013   3.529  2.5314 -1.3126 -0.2663
10637WAT    EPW44355  10.466   6.979   3.459  1.0610 -0.4902  0.1059
10638WAT      O44356   9.435   4.879   6.764  0.6823  0.2067 -0.2262
10638WAT     H144357   9.353   4.893   6.812  1.7638 -0.6063  1.9785
10638WAT     H244358   9.446   4.784   6.761  1.7201  0.3168 -0.1959
10638WAT    EPW44359   9.426   4.869   6.770  0.9613  0.1140  0.0684
10639WAT      O44360   5.790   6.912   6.683  0.0860 -0.4063 -0.0035
10639WAT     H144361   5.841   6.883   6.759 -1.0652 -2.1619  0.1587
10639WAT     H244362   5.838   6.987   6.649  1.7104 -0.8055  1.2901
10639WAT    EPW44363   5.803   6.918   6.688  0.1485 -0.6905  0.1886
10640WAT      O44364  10.029   4.416   3.816 -0.7061 -0.3590  0.4406
10640WAT     H144365  10.076   4.347   3.862 -0.3208 -0.0147  0.5747
10640WAT     H244366  10.043   4.495   3.870 -0.1999  0.0599 -0.2942
10640WAT    EPW44367  10.037   4.418   3.830 -0.5884 -0.2584  0.3613
10641WAT      O44368   0.351   4.892   5.860  0.6347  0.4376 -0.2560
10641WAT     H144369   0.318   4.979   5.882 -0.0072  0.2510 -0.4617
10641WAT     H244370   0.432   4.908   5.812 -1.3639  1.0880 -3.6956
10641WAT    EPW44371   0.358   4.906   5.857  0.2864  0.4988 -0.7367
10642WAT      O44372   9.712   6.821   4.688 -0.2691  0.1414  0.3881
10642WAT     H144373   9.646   6.853   4.750 -2.6718 -0.4369 -1.7014
10642WAT     H244374   9.743   6.900   4.644 -1.2762  0.2248 -0.1886
10642WAT    EPW44375   9.708   6.835   4.691 -0.7191  0.0761  0.0362
10643WAT      O44376   4.610   4.422   5.227  0.5155  0.8746  0.0998
10643WAT     H144377   4.619   4.330   5.250  0.6509  0.3511 -1.8428
10643WAT     H244378   4.557   4.459   5.297 -0.5064 -0.9414  0.3508
10643WAT    EPW44379   4.604   4.415   5.239  0.3984  0.5658 -0.1233
10644WAT      O44380   5.913   4.698   4.729 -0.2574  0.3144  0.7990
10644WAT     H144381   5.871   4.654   4.803 -1.1183  0.7645  0.5938
10644WAT     H244382   5.840   4.720   4.671  0.5845 -2.5713 -1.6064
10644WAT    EPW44383   5.897   4.695   4.731 -0.2599 -0.0069  0.4549
10645WAT      O44384  10.719   3.306   2.363 -0.2875 -0.3205  1.0628
10645WAT     H144385  10.788   3.248   2.330 -0.7788 -0.8670  0.9894
10645WAT     H244386  10.689   3.353   2.285 -1.4190 -1.5816  0.6961
10645WAT    EPW44387  10.724   3.305   2.348 -0.5012 -0.5590  1.0048
10646WAT      O44388   3.006  10.001   1.385 -0.8796  0.1778  0.8811
10646WAT     H144389   2.927  10.038   1.424 -1.1110 -1.1273  1.7153
10646WAT     H244390   3.077  10.053   1.420 -1.2773  0.6026  1.0684
10646WAT    EPW44391   3.005  10.013   1.394 -0.9625  0.0615  1.0158
10647WAT      O44392   8.380   2.684   3.162 -0.0908  0.1315 -0.1980
10647WAT     H144393   8.365   2.705   3.070  0.5665  2.2586  0.1311
10647WAT     H244394   8.367   2.589   3.168 -2.4779  0.2661 -1.9969
10647WAT    EPW44395   8.376   2.674   3.151 -0.3190  0.4299 -0.3918
10648WAT      O44396   6.512   4.636   5.759  0.6538 -0.1724  1.1570
10648WAT     H144397   6.463   4.706   5.716  0.7863 -0.5399  0.3874
10648WAT     H244398   6.453   4.561   5.757  0.5306 -0.0962  1.9370
10648WAT    EPW44399   6.498   4.636   5.753  0.6552 -0.2110  1.1585
10649WAT      O44400   0.128   4.524   5.005 -0.2215  0.0405 -0.2487
10649WAT     H144401   0.120   4.592   4.938  0.4226 -0.1069 -0.4888
10649WAT     H244402   0.215   4.539   5.043  0.3370 -1.2388 -0.9674
10649WAT    EPW44403   0.139   4.535   5.001 -0.0629 -0.1476 -0.3753
10650WAT      O44404   7.952   3.950   6.136 -0.2507  0.2858 -0.0510
10650WAT     H144405   7.922   3.870   6.179  0.6674 -0.2933 -0.4526
10650WAT     H244406   7.935   4.019   6.199  0.2082 -0.4182  0.8671
10650WAT    EPW44407   7.945   3.948   6.150 -0.0689  0.1165  0.0172
10651WAT      O44408   5.773   5.874   5.269  0.9016  0.5385 -0.4600
10651WAT     H144409   5.689   5.844   5.233 -0.0812  1.9000  0.5924
10651WAT     H244410   5.802   5.941   5.208  1.2031  0.1173 -0.7856
10651WAT    EPW44411   5.765   5.879   5.256  0.8116  0.6623 -0.3641
10652WAT      O44412   6.628   3.398   8.148  0.4230  0.1247  0.1287
10652WAT     H144413   6.552   3.370   8.200  0.3883  0.7973  0.4439
10652WAT     H244414   6.688   3.323   8.153  0.0176 -0.1917  0.3444
10652WAT    EPW44415   6.626   3.384   8.156  0.3648  0.1717  0.1993
10653WAT      O44416   6.550   4.338   3.099 -0.2010 -0.0004 -0.3137
10653WAT     H144417   6.466   4.380   3.117 -0.7194 -1.3723  0.5884
10653WAT     H244418   6.614   4.395   3.141 -0.8139  0.2860  0.2628
10653WAT    EPW44419   6.547   4.351   3.107 -0.3505 -0.1435 -0.1186
10654WAT      O44420   5.489   5.117   5.285 -0.6577 -0.0339 -0.3949
10654WAT     H144421   5.417   5.102   5.346  0.7776  1.3947  1.7803
10654WAT     H244422   5.563   5.071   5.323  0.6105  1.9648 -0.2644
10654WAT    EPW44423   5.490   5.109   5.298 -0.3009  0.4179 -0.0908
10655WAT      O44424   6.387   4.184   4.581 -0.2115 -0.2897  0.5118
10655WAT     H144425   6.408   4.273   4.606  0.0260 -0.6609  1.7201
10655WAT     H244426   6.412   4.131   4.657 -0.8384 -1.3178  0.0319
10655WAT    EPW44427   6.393   4.188   4.595 -0.2630 -0.4742  0.6077
10656WAT      O44428   6.563   3.157   6.534 -0.3122  0.1718 -0.5178
10656WAT     H144429   6.513   3.237   6.544  0.3145  0.7685 -1.8830
10656WAT     H244430   6.510   3.089   6.576 -0.4159  1.4210  1.5079
10656WAT    EPW44431   6.550   3.158   6.541 -0.2432  0.4152 -0.4308
10657WAT      O44432  10.365   4.461   3.380  0.5083  0.2000 -0.0394
10657WAT     H144433  10.388   4.523   3.312 -2.9210 -0.1879 -1.7732
10657WAT     H244434  10.448   4.423   3.408  2.1602  1.0972 -3.3062
10657WAT    EPW44435  10.379   4.464   3.375  0.2737  0.2675 -0.6989
10658WAT      O44436   7.060   4.741   3.896  0.2343  0.4300 -0.2969
10658WAT     H144437   7.121   4.719   3.965  0.9668 -0.3365 -1.1618
10658WAT     H244438   7.088   4.688   3.821 -0.7327  0.9872 -1.0822
10658WAT    EPW44439   7.071   4.731   3.895  0.2034  0.4025 -0.5146
10659WAT      O44440   6.142   4.062   4.516  0.0321 -0.8431  0.0949
10659WAT     H144441   6.225   4.101   4.542  0.1700 -1.4745  0.6150
10659WAT     H244442   6.136   3.981   4.566  0.0125 -1.7956 -1.3686
10659WAT    EPW44443   6.152   4.056   4.526  0.0477 -1.0517 -0.0296
10660WAT      O44444   7.723   3.540   3.634 -0.0331  0.3922  0.2984
10660WAT     H144445   7.652   3.534   3.698  0.3271  0.1357  0.6765
10660WAT     H244446   7.705   3.469   3.572 -1.0487  1.3699 -0.5803
10660WAT    EPW44447   7.711   3.530   3.634 -0.1192  0.4874  0.2323
10661WAT      O44448   7.069   5.167   6.027  0.6934 -0.0100 -0.7779
10661WAT     H144449   7.150   5.120   6.042  0.9021  0.2864 -0.9576
10661WAT     H244450   7.011   5.103   5.986  0.7540 -0.2884 -0.4261
10661WAT    EPW44451   7.072   5.153   6.024  0.7291 -0.0074 -0.7551
10662WAT      O44452   8.113   4.635   4.656 -0.1997 -0.6112  0.3647
10662WAT     H144453   8.180   4.674   4.712 -0.5334  2.3939 -1.1045
10662WAT     H244454   8.133   4.667   4.568 -1.7512 -2.2071 -0.6368
10662WAT    EPW44455   8.124   4.645   4.652 -0.4482 -0.4256  0.0389
10663WAT      O44456   6.431   4.200   5.920  0.0506 -0.5500  0.0395
10663WAT     H144457   6.417   4.260   5.847  1.1993  0.4012  0.5663
10663WAT     H244458   6.441   4.114   5.878 -2.0460 -0.4917 -0.6832
10663WAT    EPW44459   6.431   4.197   5.905 -0.0744 -0.4170  0.0136
10664WAT      O44460   8.595   5.085   6.479  0.1882 -0.1752 -0.0622
10664WAT     H144461   8.606   4.990   6.480 -0.1313 -0.2192 -0.4520
10664WAT     H244462   8.585   5.109   6.571  1.5683 -0.3577  0.1567
10664WAT    EPW44463   8.595   5.075   6.492  0.3276 -0.2050 -0.0846
10665WAT      O44464  10.248   2.456   6.996  0.5014 -0.2956  0.5286
10665WAT     H144465  10.304   2.484   6.923  1.2783 -0.2924  1.1176
10665WAT     H244466  10.159   2.474   6.965  0.8302 -0.0274 -0.3091
10665WAT    EPW44467  10.244   2.462   6.982  0.6471 -0.2598  0.4957
10666WAT      O44468   7.820   3.592   4.278  0.6035  0.0252 -0.3366
10666WAT     H144469   7.892   3.530   4.289  1.5578  0.6637 -2.3878
10666WAT     H244470   7.741   3.538   4.285  1.3852 -1.3354 -1.3951
10666WAT    EPW44471   7.819   3.576   4.280  0.8323 -0.0700 -0.7467
10667WAT      O44472   4.649   1.939   4.859 -0.6925  0.2955 -0.0308
10667WAT     H144473   4.686   1.851   4.865 -1.4034 -0.0539 -0.6020
10667WAT     H244474   4.695   1.979   4.786  1.1462  1.1759  1.5216
10667WAT    EPW44475   4.660   1.932   4.851 -0.5436  0.3656  0.0987
10668WAT      O44476   1.039   5.035   6.386  0.5762 -0.1096 -0.1040
10668WAT     H144477   0.952   5.014   6.352  0.4545  0.3145 -0.0563
10668WAT     H244478   1.059   5.121   6.350  0.3912  0.4112  0.9911
10668WAT    EPW44479   1.030   5.043   6.377  0.5358  0.0150  0.0467
10669WAT      O44480   8.794   6.096   8.483 -0.6346  0.1332 -0.4052
10669WAT     H144481   8.804   6.181   8.525  0.4293 -0.2031  0.0601
10669WAT     H244482   8.737   6.046   8.541 -1.7725  0.7157 -0.9926
10669WAT    EPW44483   8.788   6.100   8.496 -0.6442  0.1655 -0.4210
10670WAT      O44484   0.660   4.747   6.135 -0.0240  0.3010 -0.4499
10670WAT     H144485   0.689   4.837   6.154  0.8313  0.0620 -0.5661
10670WAT     H244486   0.565   4.754   6.125 -0.1844  0.9117  1.1593
10670WAT    EPW44487   0.651   4.760   6.136  0.0677  0.3502 -0.2532
10671WAT      O44488   9.797   2.153   2.756  0.0126  0.1397  0.2118
10671WAT     H144489   9.779   2.180   2.846  0.5200 -0.1253  0.3988
10671WAT     H244490   9.891   2.133   2.756 -0.2983 -1.4290  0.0357
10671WAT    EPW44491   9.807   2.154   2.768  0.0381 -0.1022  0.2133
10672WAT      O44492   5.587   5.841   6.997  0.3821 -0.2835 -1.1731
10672WAT     H144493   5.541   5.789   7.063  0.7485 -0.5961 -1.1587
10672WAT     H244494   5.676   5.849   7.032  0.3214  0.3845 -1.1587
10672WAT    EPW44495   5.593   5.835   7.010  0.4222 -0.2367 -1.1694
10673WAT      O44496   0.030   3.592   6.380 -0.6077  0.0802  0.5573
10673WAT     H144497  -0.028   3.519   6.359  0.4416 -0.1108 -2.0932
10673WAT     H244498   0.038   3.641   6.298  3.0924 -0.0772  0.6581
10673WAT    EPW44499   0.024   3.589   6.366  0.0187  0.0342  0.2210
10674WAT      O44500   5.175   2.215   5.687 -0.5581 -0.0731  0.1943
10674WAT     H144501   5.115   2.286   5.709  0.3045  0.4144  1.0242
10674WAT     H244502   5.257   2.237   5.731 -0.4787 -1.9513  1.1130
10674WAT    EPW44503   5.178   2.227   5.696 -0.4339 -0.2565  0.4249
10675WAT      O44504   6.306   3.696   6.550  0.9540 -0.9314 -0.0454
10675WAT     H144505   6.284   3.738   6.633  2.5790 -0.8312  0.3766
10675WAT     H244506   6.376   3.751   6.513 -0.4531 -0.3648 -2.0192
10675WAT    EPW44507   6.312   3.708   6.556  0.9828 -0.8434 -0.2499
10676WAT      O44508   7.387   3.097   4.753  0.4946 -0.1452 -0.4455
10676WAT     H144509   7.464   3.053   4.715  0.2892 -0.4755 -0.4766
10676WAT     H244510   7.389   3.073   4.845  0.4962 -0.0578 -0.4230
10676WAT    EPW44511   7.398   3.088   4.760  0.4678 -0.1774 -0.4466
10677WAT      O44512   7.917   6.948   2.220 -0.1227  0.4315  0.5569
10677WAT     H144513   7.978   7.018   2.195 -1.3752  0.8767 -1.5130
10677WAT     H244514   7.921   6.886   2.148 -0.4231 -0.7116  1.4988
10677WAT    EPW44515   7.926   6.949   2.207 -0.3276  0.3395  0.4082
10678WAT      O44516  10.334   1.439   6.157  0.4012  0.9263  0.0953
10678WAT     H144517  10.322   1.348   6.130  0.9492  0.2641  1.9831
10678WAT     H244518  10.253   1.463   6.201 -0.1832  1.7627 -1.3293
10678WAT    EPW44519  10.322   1.430   6.159  0.3958  0.9492  0.1566
10679WAT      O44520   9.383   6.465   5.167 -0.2615 -0.4508  0.2663
10679WAT     H144521   9.439   6.541   5.156  2.3585 -2.2728  0.1021
10679WAT     H244522   9.368   6.433   5.078  1.2742 -1.8169  0.4455
10679WAT    EPW44523   9.388   6.471   5.154  0.2871 -0.8714  0.2682
10680WAT      O44524   4.176   9.173   7.687 -0.4246 -0.8138 -0.2632
10680WAT     H144525   4.249   9.130   7.644  0.8662  1.6761 -0.7954
10680WAT     H244526   4.111   9.104   7.700  0.6216 -2.4470 -2.8591
10680WAT    EPW44527   4.177   9.159   7.683 -0.1163 -0.7010 -0.6759
10681WAT      O44528   6.164   3.398   4.293  0.4485  0.2272 -0.5699
10681WAT     H144529   6.158   3.398   4.198  1.8049  0.4508 -0.6739
10681WAT     H244530   6.193   3.310   4.316 -0.3930  0.0072 -0.3104
10681WAT    EPW44531   6.167   3.387   4.284  0.5164  0.2275 -0.5493
10682WAT      O44532   7.999   4.332   6.037 -0.2630  0.1899  0.1849
10682WAT     H144533   8.051   4.396   6.086  0.2361  2.1334 -2.6447
10682WAT     H244534   8.050   4.314   5.959 -1.4064 -2.1073 -0.1206
10682WAT    EPW44535   8.013   4.338   6.033 -0.3481  0.1433 -0.2286
10683WAT      O44536   7.066   5.991   5.508  0.8808 -0.1608 -0.2672
10683WAT     H144537   7.089   6.006   5.416  3.7674 -0.2512  0.3502
10683WAT     H244538   7.043   6.078   5.541  0.2498 -0.0588 -0.9414
10683WAT    EPW44539   7.066   6.005   5.500  1.1783 -0.1593 -0.2747
10684WAT      O44540   5.943   3.834   5.266  0.7341  0.0081 -0.0607
10684WAT     H144541   6.033   3.806   5.251  1.5055 -0.0998  3.6289
10684WAT     H244542   5.895   3.753   5.281  0.8554  0.1732  1.3660
10684WAT    EPW44543   5.948   3.820   5.266  0.8519  0.0156  0.6142
10685WAT      O44544   8.458   0.986   5.587  0.9731  0.1836  0.7326
10685WAT     H144545   8.438   0.970   5.495 -0.5055 -1.6586  1.3118
10685WAT     H244546   8.513   0.911   5.612  0.7745  0.2969  1.5151
10685WAT    EPW44547   8.463   0.974   5.578  0.7520 -0.0444  0.9124
10686WAT      O44548   6.987   3.601   5.579  0.2161 -0.4304 -0.6250
10686WAT     H144549   7.008   3.688   5.613  1.6648 -0.5503 -1.1223
10686WAT     H244550   6.904   3.578   5.620  1.6154 -0.3883  2.4667
10686WAT    EPW44551   6.979   3.609   5.589  0.5920 -0.4408 -0.2830
10687WAT      O44552   7.738   6.123   4.577  0.0718 -0.4429 -0.0872
10687WAT     H144553   7.833   6.123   4.576  0.1133 -0.5757  1.3502
10687WAT     H244554   7.713   6.167   4.496  1.3396 -0.6971 -0.6382
10687WAT    EPW44555   7.747   6.129   4.566  0.2446 -0.4942  0.0298
10688WAT      O44556   8.658   3.226   2.853  0.6375  0.2178 -0.2808
10688WAT     H144557   8.663   3.256   2.944 -0.6161 -0.1361 -0.0855
10688WAT     H244558   8.599   3.151   2.855  2.1902 -1.0807 -1.0812
10688WAT    EPW44559   8.651   3.220   2.865  0.6771 -0.0002 -0.3606
10689WAT      O44560   6.784   1.680   5.738 -0.1336 -0.0830  0.2441
10689WAT     H144561   6.763   1.767   5.771 -0.6675 -0.6726  1.5284
10689WAT     H244562   6.711   1.659   5.679 -0.3573  0.0661  0.4632
10689WAT    EPW44563   6.772   1.689   5.735 -0.2337 -0.1411  0.4423
10690WAT      O44564  10.687   3.936   6.808  0.1001  0.2211 -0.6058
10690WAT     H144565  10.696   3.907   6.717 -0.3144 -1.0319 -0.2577
10690WAT     H244566  10.598   3.912   6.832  0.5663 -0.4490  0.4776
10690WAT    EPW44567  10.677   3.929   6.799  0.1063 -0.0324 -0.4172
10691WAT      O44568   6.975   2.822   6.440 -0.2217  0.1390  0.0420
10691WAT     H144569   6.930   2.757   6.495  0.7769 -1.9223 -1.4783
10691WAT     H244570   7.068   2.811   6.461  0.0246  0.5326 -0.8218
10691WAT    EPW44571   6.981   2.812   6.450 -0.0575 -0.0812 -0.2723
10692WAT      O44572   9.784   4.256   8.150  0.1183 -0.3539  0.0397
10692WAT     H144573   9.751   4.335   8.193  2.3385 -0.0258  1.2757
10692WAT     H244574   9.879   4.264   8.154  0.3985 -2.3530 -1.2424
10692WAT    EPW44575   9.792   4.267   8.157  0.4478 -0.5744  0.0339
10693WAT      O44576   6.164   4.871   6.919  0.1308 -0.6971  0.6426
10693WAT     H144577   6.146   4.943   6.859  1.6981  0.2066  1.1865
10693WAT     H244578   6.203   4.803   6.864  0.2382 -0.4508  0.4143
10693WAT    EPW44579   6.167   4.871   6.904  0.3519 -0.5455  0.6840
10694WAT      O44580   4.802   9.901   5.421 -0.0880  0.0077  0.2429
10694WAT     H144581   4.796   9.805   5.414  0.2367  0.0196 -0.2389
10694WAT     H244582   4.799   9.932   5.331 -1.0387  0.5097  0.4326
10694WAT    EPW44583   4.800   9.892   5.408 -0.1705  0.0758  0.2043
10695WAT      O44584   6.057   4.229   6.283 -0.2082  0.2775  0.5652
10695WAT     H144585   5.967   4.248   6.255 -0.1716  0.0557  0.2977
10695WAT     H244586   6.058   4.252   6.376 -1.2326 -2.0888  1.2271
10695WAT    EPW44587   6.046   4.235   6.292 -0.3386 -0.0637  0.6175
10696WAT      O44588  10.193   3.233   6.834  0.3941 -0.4361  0.5628
10696WAT     H144589  10.205   3.145   6.800  1.6352 -0.2065  0.3567
10696WAT     H244590  10.214   3.290   6.760  2.0126  0.0498  1.3581
10696WAT    EPW44591  10.197   3.229   6.820  0.7715 -0.3418  0.6404
10697WAT      O44592   8.090   3.987   3.556  0.0584 -0.0583 -0.0326
10697WAT     H144593   8.032   3.964   3.629 -0.6803 -1.4296 -1.0066
10697WAT     H244594   8.032   3.999   3.481  0.8522  0.7296 -0.5482
10697WAT    EPW44595   8.075   3.986   3.556  0.0653 -0.1353 -0.2292
10698WAT      O44596   4.644   1.626   5.999  0.3629  0.4257  0.1103
10698WAT     H144597   4.571   1.600   6.056 -0.0163 -0.1865 -0.6289
10698WAT     H244598   4.605   1.631   5.912  0.9699  1.1923 -0.1243
10698WAT    EPW44599   4.629   1.623   5.995  0.3929  0.4460 -0.0181
10699WAT      O44600   7.421   2.233   6.209  0.1125 -0.1745 -0.4887
10699WAT     H144601   7.451   2.291   6.139  0.4445 -0.0130 -0.2124
10699WAT     H244602   7.351   2.181   6.169 -0.6746  0.9059 -0.5398
10699WAT    EPW44603   7.415   2.234   6.195  0.0529 -0.0107 -0.4590
10700WAT      O44604   6.839   4.513   6.999 -0.0917 -0.1576  0.5639
10700WAT     H144605   6.908   4.446   6.993  0.2085  0.0558  1.5695
10700WAT     H244606   6.777   4.478   7.063  0.2870  0.7237  1.4203
10700WAT    EPW44607   6.840   4.499   7.006 -0.0021 -0.0134  0.8092
10701WAT      O44608   8.516   3.159   3.605 -0.1744  0.1050 -0.1438
10701WAT     H144609   8.585   3.205   3.557 -0.7491 -0.1688 -1.2792
10701WAT     H244610   8.437   3.174   3.553 -1.1545  1.0996  1.5704
10701WAT    EPW44611   8.515   3.167   3.592 -0.3791  0.2000 -0.0675
10702WAT      O44612   5.620   4.783   5.019 -0.0288 -0.4417  0.0682
10702WAT     H144613   5.695   4.723   5.015 -0.6193 -1.3557  1.6191
10702WAT     H244614   5.643   4.854   4.959  0.8011 -2.0945 -1.7137
10702WAT    EPW44615   5.633   4.784   5.011  0.0026 -0.7801  0.0379
10703WAT      O44616   6.944   4.688   7.241 -0.0188  0.2101 -0.8924
10703WAT     H144617   6.911   4.687   7.151 -0.3835 -1.4029 -0.7750
10703WAT     H244618   7.031   4.649   7.235 -0.3432 -0.6033 -0.4611
10703WAT    EPW44619   6.951   4.683   7.229 -0.1099 -0.1099 -0.8202
10704WAT      O44620   7.659   0.886   4.005  0.3719  0.1549  0.1675
10704WAT     H144621   7.754   0.896   4.009  0.0849  3.7182  2.0097
10704WAT     H244622   7.637   0.900   3.913  1.5562 -0.8590 -0.3101
10704WAT    EPW44623   7.669   0.889   3.993  0.4902  0.4911  0.3473
10705WAT      O44624   9.958   2.224   8.851 -0.3095 -0.4403 -0.3568
10705WAT     H144625   9.909   2.199   8.929 -0.2533  0.6321  0.0479
10705WAT     H244626   9.990   2.142   8.814  0.2336 -0.9178  1.1283
10705WAT    EPW44627   9.956   2.210   8.856 -0.2308 -0.3617 -0.1073
10706WAT      O44628   3.453   0.551   1.282  0.5558 -0.6272  0.1423
10706WAT     H144629   3.452   0.527   1.189 -3.7036 -1.1548  0.1057
10706WAT     H244630   3.487   0.474   1.326  0.1029 -1.4183 -0.8459
10706WAT    EPW44631   3.457   0.538   1.276 -0.0657 -0.8011  0.0071
10707WAT      O44632   9.723   5.833   3.934 -0.5759 -0.2652 -0.7908
10707WAT     H144633   9.735   5.767   3.865 -0.8317 -2.5480  1.1979
10707WAT     H244634   9.634   5.818   3.966 -0.7653  1.3294 -0.5108
10707WAT    EPW44635   9.713   5.822   3.929 -0.6347 -0.3562 -0.4915
10708WAT      O44636   9.590   6.209   6.485  0.4429 -1.0718 -0.2236
10708WAT     H144637   9.619   6.262   6.410 -1.9287 -1.3213 -1.4231
10708WAT     H244638   9.517   6.158   6.451 -1.9258  0.0876  2.6758
10708WAT    EPW44639   9.584   6.209   6.470 -0.1822 -0.9518  0.0005
10709WAT      O44640   6.094   3.835   4.811  0.0052  0.3851 -0.4947
10709WAT     H144641   6.020   3.894   4.820 -0.6194 -0.4300 -0.2265
10709WAT     H244642   6.170   3.887   4.838 -0.6486  0.7837  0.6196
10709WAT    EPW44643   6.094   3.850   4.816 -0.1633  0.3302 -0.3126
10710WAT      O44644   7.655   6.826   4.665 -0.8488  0.4746 -0.3998
10710WAT     H144645   7.690   6.907   4.703 -0.2852  0.9878 -1.9332
10710WAT     H244646   7.726   6.763   4.674 -0.4438  0.7975 -1.1975
10710WAT    EPW44647   7.669   6.828   4.671 -0.7210  0.5848 -0.7076
10711WAT      O44648   9.779   6.923   5.042 -0.2897 -1.1090 -0.3603
10711WAT     H144649   9.842   6.964   4.983  0.1969 -0.1271  0.7823
10711WAT     H244650   9.813   6.942   5.130 -1.4252 -1.7957  0.2556
10711WAT    EPW44651   9.791   6.931   5.046 -0.3757 -1.0700 -0.1285
10712WAT      O44652   1.347   6.306   1.334 -0.3273 -1.5436 -0.9356
10712WAT     H144653   1.419   6.268   1.385 -0.3521 -0.6159 -0.1662
10712WAT     H244654   1.301   6.362   1.397 -0.5524 -0.6035 -1.9077
10712WAT    EPW44655   1.350   6.309   1.349 -0.3602 -1.2975 -0.9623
10713WAT      O44656   8.948   6.448   5.722  0.3905  0.2056 -0.2717
10713WAT     H144657   9.002   6.377   5.687  0.6624 -0.8902  2.1561
10713WAT     H244658   8.858   6.421   5.703  0.5547  1.1015 -2.6309
10713WAT    EPW44659   8.943   6.435   5.715  0.4478  0.1795 -0.2625
10714WAT      O44660   9.833   0.706   2.237  0.3536  0.4276 -0.0506
10714WAT     H144661   9.743   0.734   2.253  0.6211  1.1994  0.1484
10714WAT     H244662   9.839   0.619   2.276 -0.0462  0.7638  0.7696
10714WAT    EPW44663   9.822   0.698   2.244  0.3357  0.5737  0.0837
10715WAT      O44664   8.418   5.799   2.662 -0.0281  0.2480  0.6194
10715WAT     H144665   8.467   5.730   2.706 -1.1332  0.3889  2.1378
10715WAT     H244666   8.376   5.848   2.733 -2.7460 -0.1616 -0.5824
10715WAT    EPW44667   8.419   5.796   2.677 -0.5317  0.2127  0.6611
10716WAT      O44668   5.981   7.277   5.249 -0.4693 -0.4832 -0.2001
10716WAT     H144669   6.076   7.282   5.237 -0.6087  0.2613 -1.1205
10716WAT     H244670   5.958   7.192   5.211 -0.3487 -0.0066 -1.3857
10716WAT    EPW44671   5.991   7.266   5.242 -0.4721 -0.3223 -0.4778
10717WAT      O44672   5.002   8.514   3.567  0.0432 -0.2820  0.5038
10717WAT     H144673   5.071   8.529   3.502 -1.4968 -1.4310 -1.4875
10717WAT     H244674   5.045   8.531   3.651  2.2561  0.7599 -0.7442
10717WAT    EPW44675   5.017   8.518   3.570  0.1318 -0.2961  0.0765
10718WAT      O44676   0.589   4.526   5.282  0.0558  0.2385 -0.3022
10718WAT     H144677   0.594   4.594   5.350  0.4702 -1.4853  1.4930
10718WAT     H244678   0.525   4.463   5.316 -0.0826 -0.4323 -1.7552
10718WAT    EPW44679   0.581   4.527   5.296  0.0922 -0.0772 -0.2570
10719WAT      O44680   9.753   9.393   5.372  0.7708  0.1336 -0.2499
10719WAT     H144681   9.825   9.448   5.405 -0.0336  0.3361  1.2586
10719WAT     H244682   9.674   9.445   5.389  0.1909 -0.4617 -1.0821
10719WAT    EPW44683   9.752   9.407   5.379  0.5879  0.0811 -0.1607
10720WAT      O44684   9.267   3.571   8.095 -0.2208 -0.5867  0.3400
10720WAT     H144685   9.354   3.541   8.068  0.1104 -1.0480  1.8311
10720WAT     H244686   9.271   3.666   8.087 -0.4141 -0.7021 -1.9127
10720WAT    EPW44687   9.279   3.580   8.090 -0.2022 -0.6628  0.2394
10721WAT      O44688   9.897   2.473   8.216 -0.2914 -0.0144  0.2688
10721WAT     H144689   9.938   2.448   8.133 -1.8297  0.5352 -0.7063
10721WAT     H244690   9.804   2.484   8.194 -0.5857  1.0104  1.8772
10721WAT    EPW44691   9.890   2.471   8.202 -0.5326  0.1934  0.3529
10722WAT      O44692   6.375   5.441   6.421 -0.6535 -0.4736  0.4593
10722WAT     H144693   6.427   5.384   6.477 -0.0906 -2.3199 -1.7941
10722WAT     H244694   6.382   5.527   6.462  1.2885 -1.3413  2.1410
10722WAT    EPW44695   6.383   5.445   6.434 -0.3228 -0.8316  0.3839
10723WAT      O44696   6.450   5.221   7.046 -0.7031  0.2929  0.0028
10723WAT     H144697   6.410   5.286   6.988  0.8208  0.2828 -1.1309
10723WAT     H244698   6.431   5.137   7.004 -1.3819  0.1093  0.6606
10723WAT    EPW44699   6.442   5.219   7.033 -0.5918  0.2673 -0.0601
10724WAT      O44700  10.359   4.186   6.682 -0.1239 -0.1484  0.3322
10724WAT     H144701  10.266   4.195   6.704 -0.0349  1.5731  0.1349
10724WAT     H244702  10.364   4.104   6.633 -1.6167 -0.0510 -0.0361
10724WAT    EPW44703  10.347   4.176   6.679 -0.3090  0.0913  0.2580
10725WAT      O44704   9.054   7.515   3.926 -0.0050 -0.0630  0.7558
10725WAT     H144705   9.142   7.540   3.953 -0.0204  1.4427 -0.4564
10725WAT     H244706   9.044   7.426   3.957  1.2784  0.3478  2.4905
10725WAT    EPW44707   9.064   7.507   3.934  0.1621  0.1895  0.8247
10726WAT      O44708   7.950   4.461   5.523  0.2487  0.2929 -0.0963
10726WAT     H144709   7.989   4.392   5.576 -0.9264 -1.2237 -1.1286
10726WAT     H244710   7.886   4.502   5.581 -1.3502 -1.6468 -0.3828
10726WAT    EPW44711   7.947   4.458   5.538 -0.1171 -0.1631 -0.2706
10727WAT      O44712   0.209   4.895   7.479 -0.3673 -0.4471 -0.0232
10727WAT     H144713   0.253   4.813   7.498  2.3672  1.2728  1.6700
10727WAT     H244714   0.192   4.934   7.564 -1.1067  1.0117 -0.7976
10727WAT    EPW44715   0.213   4.889   7.492 -0.1041 -0.0277  0.0982
10728WAT      O44716   5.832   6.528   5.025  0.0231 -0.9386 -0.8303
10728WAT     H144717   5.832   6.482   4.941  1.4442 -0.0794 -1.3364
10728WAT     H244718   5.925   6.536   5.048 -0.1777  1.2514 -0.5493
10728WAT    EPW44719   5.845   6.523   5.017  0.1841 -0.5364 -0.8597
10729WAT      O44720  10.939   3.536   4.611 -0.2576 -0.2369 -0.0214
10729WAT     H144721  10.977   3.623   4.597  2.1407 -1.1451  0.3651
10729WAT     H244722  10.868   3.531   4.547  1.4263  0.9446 -2.1420
10729WAT    EPW44723  10.935   3.547   4.600  0.2809 -0.2007 -0.2501
10730WAT      O44724  10.987   4.002   5.779 -0.2164 -0.5344 -0.4502
10730WAT     H144725  11.007   3.952   5.699 -2.6024 -0.9001 -0.8910
10730WAT     H244726  11.048   4.076   5.776  1.5200 -1.8971 -1.2269
10730WAT    EPW44727  10.998   4.005   5.768 -0.3018 -0.7625 -0.6106
10731WAT      O44728   6.800   4.872   6.277 -0.3017 -0.9243 -0.0491
10731WAT     H144729   6.854   4.951   6.280 -2.3153  0.4973  0.9760
10731WAT     H244730   6.834   4.817   6.347  1.7093 -1.4684 -1.3405
10731WAT    EPW44731   6.812   4.876   6.286 -0.3021 -0.8087 -0.0844
10732WAT      O44732   0.744   5.781   6.791  0.1724  0.2769  0.5147
10732WAT     H144733   0.686   5.706   6.786  1.0796 -0.5007  1.2708
10732WAT     H244734   0.830   5.744   6.813  0.9559  1.3900 -0.4862
10732WAT    EPW44735   0.748   5.766   6.793  0.3954  0.3214  0.4826
10733WAT      O44736   0.145   4.931   4.359 -0.2660  0.4669  0.1490
10733WAT     H144737   0.141   5.026   4.356  0.4834  0.5105 -2.9246
10733WAT     H244738   0.056   4.903   4.381 -0.0340  1.7784  3.3604
10733WAT    EPW44739   0.133   4.940   4.362 -0.1366  0.6456  0.1669
10734WAT      O44740   6.142   8.109   3.320  0.8070  0.7449  0.9135
10734WAT     H144741   6.068   8.169   3.328  0.6983  0.3948  2.7425
10734WAT     H244742   6.135   8.074   3.231  0.6512  3.1159 -0.0760
10734WAT    EPW44743   6.131   8.112   3.309  0.7720  1.0109  1.0242
10735WAT      O44744  10.658   4.926   1.986  0.3933 -0.3309 -0.0651
10735WAT     H144745  10.603   4.859   2.026  0.0216  0.6021  1.0193
10735WAT     H244746  10.703   4.968   2.059 -0.1157  1.2557 -0.6109
10735WAT    EPW44747  10.657   4.923   2.001  0.2780  0.0017  0.0058
10736WAT      O44748   8.813   7.460   3.344 -0.0863  0.1892  0.2040
10736WAT     H144749   8.833   7.378   3.298  2.8543 -1.3931  3.7736
10736WAT     H244750   8.720   7.453   3.366 -0.2451 -1.4891 -0.8349
10736WAT    EPW44751   8.803   7.448   3.341  0.2804 -0.2408  0.5380
10737WAT      O44752   5.993   4.240   7.052 -0.2492  0.4384  0.1315
10737WAT     H144753   5.926   4.198   6.999 -0.2222  0.2645  0.2354
10737WAT     H244754   6.017   4.318   7.003  2.7643 -1.7493 -2.2329
10737WAT    EPW44755   5.987   4.245   7.039  0.1519  0.1271 -0.1664
10738WAT      O44756   7.809   7.983   4.645 -0.8799 -0.4995 -0.1963
10738WAT     H144757   7.718   7.992   4.675 -0.5616  0.2778  0.5786
10738WAT     H244758   7.857   8.050   4.694 -0.1710  0.2287 -1.8091
10738WAT    EPW44759   7.803   7.993   4.656 -0.7443 -0.3009 -0.3068
10739WAT      O44760   6.670   4.424   7.210 -0.4585 -0.8179 -0.4874
10739WAT     H144761   6.618   4.446   7.287 -1.0038 -0.9134 -0.8264
10739WAT     H244762   6.609   4.431   7.137 -0.1259 -1.4306 -0.8317
10739WAT    EPW44763   6.655   4.428   7.211 -0.4864 -0.9115 -0.5774
10740WAT      O44764   6.454   5.509   4.978  0.4195 -0.2512  0.5984
10740WAT     H144765   6.373   5.460   4.969  1.1608 -1.2351 -1.4453
10740WAT     H244766   6.508   5.457   5.037  0.5115 -0.9409 -0.0862
10740WAT    EPW44767   6.450   5.496   4.984  0.5293 -0.4721  0.2384
10741WAT      O44768   6.565   2.858   6.334  0.9569  0.3242 -0.3270
10741WAT     H144769   6.496   2.793   6.348  1.0571  0.8359  3.7458
10741WAT     H244770   6.642   2.806   6.310  0.2186 -0.6788 -0.5755
10741WAT    EPW44771   6.566   2.842   6.333  0.8726  0.2593  0.1776
10742WAT      O44772   6.874   5.790   5.530 -0.2463 -0.3038 -0.6063
10742WAT     H144773   6.787   5.829   5.527 -0.6745 -1.2110 -0.5469
10742WAT     H244774   6.935   5.863   5.518 -0.8955  0.8638  2.3669
10742WAT    EPW44775   6.871   5.804   5.528 -0.3884 -0.2697 -0.2065
10743WAT      O44776   6.261   2.848   7.172  0.1808  0.1808 -0.7211
10743WAT     H144777   6.332   2.858   7.110  0.3071 -0.3574 -0.6724
10743WAT     H244778   6.276   2.916   7.238  0.6509  0.0692 -0.7125
10743WAT    EPW44779   6.272   2.858   7.173  0.2594  0.0951 -0.7138
10744WAT      O44780   0.886   5.758   4.897  0.4043 -0.2639 -0.2509
10744WAT     H144781   0.823   5.822   4.930 -0.0852 -0.6589 -0.4078
10744WAT     H244782   0.861   5.676   4.940 -1.0267 -1.0827 -2.4745
10744WAT    EPW44783   0.874   5.756   4.907  0.1510 -0.4241 -0.5651
10745WAT      O44784   8.095   5.540   8.500 -0.3954  0.2196  0.4580
10745WAT     H144785   8.099   5.452   8.537 -0.9570 -0.0586 -0.1170
10745WAT     H244786   8.176   5.582   8.529 -0.4903 -0.2207  1.3957
10745WAT    EPW44787   8.106   5.534   8.509 -0.4821  0.1247  0.5054
10746WAT      O44788   7.196   8.517   8.974 -0.0162  0.0006 -0.2673
10746WAT     H144789   7.241   8.471   9.045 -0.2895 -1.3346 -0.9251
10746WAT     H244790   7.255   8.589   8.951 -0.1059  0.7192  1.5654
10746WAT    EPW44791   7.210   8.521   8.980 -0.0641 -0.0811 -0.1125
10747WAT      O44792   6.768   5.302   6.262  0.1145  0.6549  0.0778
10747WAT     H144793   6.770   5.319   6.168  1.9419  1.0445  0.1517
10747WAT     H244794   6.829   5.365   6.299 -0.5548  0.4799  1.5326
10747WAT    EPW44795   6.777   5.312   6.255  0.2670  0.6833  0.2794
10748WAT      O44796   0.211   5.569   8.611 -0.5672  0.5292 -0.5641
10748WAT     H144797   0.181   5.570   8.702 -1.0453  0.8569 -0.7196
10748WAT     H244798   0.133   5.547   8.560  0.1473 -1.8466 -0.7550
10748WAT    EPW44799   0.197   5.567   8.616 -0.5360  0.2589 -0.6099
10749WAT      O44800   9.520   7.880   6.390 -0.4082 -0.4528 -0.0404
10749WAT     H144801   9.446   7.872   6.330 -0.7652 -0.0625  0.3387
10749WAT     H244802   9.596   7.894   6.333 -0.5603 -1.2546 -0.4517
10749WAT    EPW44803   9.520   7.881   6.374 -0.4749 -0.5069 -0.0448
10750WAT      O44804   7.083   6.930   4.077 -0.2109  0.0440 -0.6657
10750WAT     H144805   6.993   6.964   4.082 -0.8797 -1.7084  0.1705
10750WAT     H244806   7.112   6.954   3.989 -3.2264 -3.1796 -2.8319
10750WAT    EPW44807   7.075   6.938   4.066 -0.6967 -0.6125 -0.8411
10751WAT      O44808   6.947   6.175   6.571 -0.0880  0.1413  0.0681
10751WAT     H144809   6.869   6.193   6.519  0.2086 -0.0153 -0.4354
10751WAT     H244810   6.989   6.261   6.581 -0.9730  0.4512  1.4214
10751WAT    EPW44811   6.942   6.189   6.566 -0.1657  0.1612  0.1800
10752WAT      O44812   8.209   5.953   0.459  0.1064  0.0875 -0.3006
10752WAT     H144813   8.186   5.898   0.534 -0.9151  2.2354  1.0799
10752WAT     H244814   8.126   5.966   0.413  0.2043  0.9063 -0.2635
10752WAT    EPW44815   8.195   5.947   0.463 -0.0148  0.4785 -0.1136
10753WAT      O44816   4.922   4.346   1.096  0.3415  0.1478 -0.0369
10753WAT     H144817   5.011   4.344   1.131  0.0383  0.5586  0.7839
10753WAT     H244818   4.906   4.439   1.077  0.3934 -0.0313 -1.0122
10753WAT    EPW44819   4.932   4.358   1.098  0.3080  0.1786 -0.0573
10754WAT      O44820   8.284   5.373   4.405 -0.1537 -0.3282  0.5843
10754WAT     H144821   8.222   5.436   4.369  0.1455 -0.9068 -1.0380
10754WAT     H244822   8.349   5.427   4.449 -1.1681  0.3469  1.3074
10754WAT    EPW44823   8.284   5.388   4.406 -0.2480 -0.3154  0.4654
10755WAT      O44824   6.545   1.732   3.762 -0.1993  1.1909  0.1217
10755WAT     H144825   6.508   1.788   3.693 -1.6313  4.5795  3.2755
10755WAT     H244826   6.624   1.777   3.790 -0.4169  0.7056  1.6106
10755WAT    EPW44827   6.550   1.745   3.756 -0.4168  1.5737  0.7342
10756WAT      O44828  10.229   8.682   4.235 -0.1711  0.2255  0.1909
10756WAT     H144829  10.158   8.744   4.219 -1.3817 -1.1972 -0.2298
10756WAT     H244830  10.294   8.703   4.167 -0.1426  1.5698  0.6017
10756WAT    EPW44831  10.228   8.693   4.224 -0.3271  0.2151  0.1895
10757WAT      O44832   6.992   6.724   5.623 -0.0760  0.0910 -0.1545
10757WAT     H144833   7.016   6.644   5.670  0.6908 -0.9206 -2.1234
10757WAT     H244834   6.979   6.695   5.533 -1.7464  1.8871 -0.5558
10757WAT    EPW44835   6.994   6.709   5.617 -0.1955  0.1945 -0.4673
10758WAT      O44836   0.938   5.209   7.964 -0.0788  0.2455 -0.7135
10758WAT     H144837   0.953   5.187   8.055  2.6545  0.9316 -0.9159
10758WAT     H244838   1.020   5.187   7.920 -0.7554  1.4371 -2.7054
10758WAT    EPW44839   0.951   5.203   7.970  0.1925  0.4935 -1.0030
10759WAT      O44840   5.672   4.864   7.786  0.0327 -0.3779  0.1271
10759WAT     H144841   5.623   4.843   7.706 -0.0715  0.5165 -0.0559
10759WAT     H244842   5.762   4.841   7.765  0.0196 -0.0581 -0.2877
10759WAT    EPW44843   5.677   4.858   7.772  0.0172 -0.2177  0.0482
10760WAT      O44844   8.305   4.246   5.909 -0.2093 -0.3508  0.1208
10760WAT     H144845   8.280   4.207   5.825 -1.2772  0.1898  0.1682
10760WAT     H244846   8.266   4.189   5.975  1.6576 -1.4803  0.3270
10760WAT    EPW44847   8.296   4.234   5.906 -0.1035 -0.4284  0.1543
10761WAT      O44848  10.395   5.102   6.615  0.2288  0.2296 -0.0436
10761WAT     H144849  10.327   5.065   6.671  1.6070  1.8217  2.9820
10761WAT     H244850  10.455   5.029   6.599 -0.9214 -0.5978 -0.6858
10761WAT    EPW44851  10.394   5.088   6.620  0.2589  0.3304  0.2708
10762WAT      O44852   0.352   4.689   2.909  0.4646 -0.4176  0.6486
10762WAT     H144853   0.364   4.765   2.851 -0.0393  0.8642  2.1677
10762WAT     H244854   0.441   4.658   2.925  0.6635 -0.3032 -0.1633
10762WAT    EPW44855   0.366   4.695   2.903  0.4244 -0.2334  0.7420
10763WAT      O44856   7.073   6.494   5.744 -0.0692  0.0410  0.3923
10763WAT     H144857   7.128   6.542   5.806 -0.8694  0.1499  1.0258
10763WAT     H244858   7.013   6.443   5.798 -1.2318  0.6539 -0.2728
10763WAT    EPW44859   7.072   6.494   5.759 -0.3281  0.1361  0.3881
10764WAT      O44860   8.809   7.148   2.686 -0.1673 -0.1310 -0.1911
10764WAT     H144861   8.890   7.098   2.695 -0.9912 -1.9050 -1.8160
10764WAT     H244862   8.786   7.139   2.594 -0.4853  3.2163 -0.5732
10764WAT    EPW44863   8.817   7.140   2.675 -0.3176  0.0765 -0.4559
10765WAT      O44864   9.343   3.715   5.764  0.8788  0.2616 -0.4070
10765WAT     H144865   9.369   3.626   5.790  1.9370  0.3041 -1.2283
10765WAT     H244866   9.422   3.751   5.723  0.2186  1.3051 -0.7799
10765WAT    EPW44867   9.357   3.708   5.762  0.9313  0.4047 -0.5643
10766WAT      O44868   8.570   3.543   2.533 -0.2973 -0.0139  0.4448
10766WAT     H144869   8.620   3.502   2.462 -0.9554 -0.1029  0.0223
10766WAT     H244870   8.510   3.475   2.563  2.6737 -1.4313  3.9279
10766WAT    EPW44871   8.569   3.529   2.527  0.0081 -0.2124  0.8485
10767WAT      O44872   7.993   9.703   4.853  0.6975  0.2864 -0.9422
10767WAT     H144873   8.069   9.761   4.854  2.4857 -1.8834  0.9031
10767WAT     H244874   7.931   9.744   4.913  1.8264  0.4299  0.1546
10767WAT    EPW44875   7.995   9.716   4.861  1.0827  0.0196 -0.5543
10768WAT      O44876   9.277   9.421   1.877 -0.3509 -0.1030  0.2545
10768WAT     H144877   9.295   9.354   1.942  0.5769 -0.5658 -0.4566
10768WAT     H244878   9.193   9.396   1.839  1.9761 -3.7811 -3.3868
10768WAT    EPW44879   9.269   9.409   1.881  0.0782 -0.6490 -0.3195
10769WAT      O44880   0.520   8.105   5.112  0.1355  0.0732 -0.1196
10769WAT     H144881   0.616   8.103   5.114  0.1218 -1.3224  1.0901
10769WAT     H244882   0.497   8.062   5.029  0.5098  2.0008 -1.3056
10769WAT    EPW44883   0.529   8.099   5.101  0.1830  0.1431 -0.1166
10770WAT      O44884   9.258   3.897   6.837 -0.5930 -0.3444 -0.0537
10770WAT     H144885   9.164   3.915   6.843 -0.7029 -0.1618 -1.8198
10770WAT     H244886   9.263   3.807   6.804 -0.1199 -0.6207  0.7280
10770WAT    EPW44887   9.246   3.887   6.834 -0.5450 -0.3567 -0.1836
10771WAT      O44888   6.514   6.140   5.668  0.1689 -0.2499 -0.1774
10771WAT     H144889   6.600   6.162   5.703  0.3791 -1.8727  0.4246
10771WAT     H244890   6.453   6.169   5.736  0.2929  0.1805 -0.2473
10771WAT    EPW44891   6.517   6.147   5.681  0.2131 -0.4070 -0.1070
10772WAT      O44892  10.377   3.668   5.641  0.1518 -0.4608  0.3134
10772WAT     H144893  10.411   3.740   5.694  2.9490  0.2419 -2.1547
10772WAT     H244894  10.411   3.589   5.683  0.3053 -0.0911  0.9025
10772WAT    EPW44895  10.386   3.667   5.654  0.5412 -0.3194  0.0656
10773WAT      O44896   8.128   7.368   8.581  0.6246  0.6211 -0.5329
10773WAT     H144897   8.144   7.309   8.508  2.4432  1.0816 -0.5425
10773WAT     H244898   8.052   7.419   8.554 -0.6270 -1.2627 -0.7745
10773WAT    EPW44899   8.120   7.367   8.568  0.6995  0.4332 -0.5655
10774WAT      O44900   9.006   2.916   6.438 -0.0889  0.3757  0.4020
10774WAT     H144901   9.030   2.995   6.391 -0.8150  0.3522 -0.0153
10774WAT     H244902   9.033   2.844   6.381 -3.2350  0.3323 -1.2436
10774WAT    EPW44903   9.013   2.917   6.425 -0.5999  0.3668  0.1299
10775WAT      O44904   9.266   5.624   6.698 -0.5598  0.2530 -0.4780
10775WAT     H144905   9.200   5.670   6.646 -1.0198  0.4206  0.2363
10775WAT     H244906   9.275   5.676   6.778  0.9429  0.5976 -0.8484
10775WAT    EPW44907   9.258   5.637   6.702 -0.4220  0.3202 -0.4325
10776WAT      O44908   9.697   5.797   5.475  0.3453  0.1254 -0.1277
10776WAT     H144909   9.618   5.781   5.423  0.9869 -0.7204 -0.8808
10776WAT     H244910   9.670   5.783   5.565 -0.8714  1.8910 -0.1572
10776WAT    EPW44911   9.683   5.793   5.480  0.2694  0.2465 -0.2308
10777WAT      O44912   8.141   4.612   5.635 -0.5504  0.0866 -0.0125
10777WAT     H144913   8.087   4.562   5.574 -2.9091  0.9774  1.2236
10777WAT     H244914   8.172   4.687   5.584 -2.9289  1.1069 -0.0941
10777WAT    EPW44915   8.138   4.615   5.620 -1.1749  0.3388  0.1395
10778WAT      O44916   5.276   6.201   8.159  0.2043  0.0252 -0.0514
10778WAT     H144917   5.346   6.264   8.142  0.5167  0.3203  2.0931
10778WAT     H244918   5.196   6.253   8.161 -0.0142 -0.1935 -1.6775
10778WAT    EPW44919   5.275   6.216   8.157  0.2167  0.0353  0.0172
10779WAT      O44920   8.305   4.452   4.871 -0.1863  0.3165 -0.1561
10779WAT     H144921   8.211   4.436   4.885 -0.1188  0.7294  0.8606
10779WAT     H244922   8.348   4.376   4.910 -0.1244 -0.5807 -1.8801
10779WAT    EPW44923   8.298   4.440   4.878 -0.1693  0.2525 -0.2494
10780WAT      O44924  10.680   7.971   4.823 -0.2654 -0.5086  0.1964
10780WAT     H144925  10.588   7.996   4.819 -0.5418 -1.5268  0.0277
10780WAT     H244926  10.693   7.943   4.914 -0.2481 -0.8264  0.0970
10780WAT    EPW44927  10.669   7.971   4.835 -0.2995 -0.6845  0.1612
10781WAT      O44928   0.858   4.929   5.473  0.1577  0.3849 -0.1413
10781WAT     H144929   0.908   4.984   5.413 -0.4526 -0.4384 -1.4606
10781WAT     H244930   0.915   4.853   5.488  0.3888  0.6763  0.4973
10781WAT    EPW44931   0.873   4.926   5.467  0.1076  0.3147 -0.2313
10782WAT      O44932   6.355   4.823   5.067  0.0159 -0.3827 -0.1373
10782WAT     H144933   6.281   4.786   5.019 -0.1436 -0.5830  0.2596
10782WAT     H244934   6.329   4.913   5.086  0.2762 -0.1564 -0.8341
10782WAT    EPW44935   6.342   4.830   5.063  0.0293 -0.3793 -0.1764
10783WAT      O44936  10.450   4.176   5.636  0.8979  0.0649 -0.0192
10783WAT     H144937  10.395   4.140   5.566  1.7168  0.4231 -0.8770
10783WAT     H244938  10.392   4.182   5.712 -0.2406  0.3825 -0.8849
10783WAT    EPW44939  10.435   4.172   5.637  0.8554  0.1538 -0.2468
10784WAT      O44940  10.673   2.683   8.083  0.1067  0.3092 -0.4326
10784WAT     H144941  10.596   2.695   8.028  0.6612  0.3852 -1.1992
10784WAT     H244942  10.688   2.588   8.082 -1.6710 -0.1071  2.0766
10784WAT    EPW44943  10.665   2.672   8.076 -0.0548  0.2644 -0.2027
10785WAT      O44944   8.067   3.630   1.958 -0.3237 -0.6956 -0.9957
10785WAT     H144945   8.018   3.565   2.008  0.2062 -1.5966 -1.6077
10785WAT     H244946   8.111   3.684   2.024 -1.2047 -0.6060 -0.4693
10785WAT    EPW44947   8.066   3.628   1.973 -0.3700 -0.8025 -1.0069
10786WAT      O44948   7.854   4.339   3.486 -0.4115 -0.7778 -0.2351
10786WAT     H144949   7.856   4.312   3.394  2.7115 -2.0652  0.1076
10786WAT     H244950   7.797   4.275   3.528 -0.7111 -1.0425 -1.0113
10786WAT    EPW44951   7.847   4.327   3.479 -0.0396 -0.9823 -0.2923
10787WAT      O44952  10.251   3.822   4.689  0.4523 -0.2331  0.8005
10787WAT     H144953  10.197   3.790   4.761 -0.6556 -0.4093 -0.0687
10787WAT     H244954  10.329   3.767   4.691  0.3172 -0.4012  1.6995
10787WAT    EPW44955  10.254   3.810   4.699  0.2885 -0.2785  0.8044
10788WAT      O44956  10.351   4.838   5.867 -0.0038  0.0185  0.3259
10788WAT     H144957  10.375   4.891   5.944  0.7847 -0.5694  0.4874
10788WAT     H244958  10.340   4.750   5.902 -0.5122 -0.0862 -0.0903
10788WAT    EPW44959  10.352   4.834   5.882  0.0334 -0.0730  0.2925
10789WAT      O44960   6.433   5.594   7.008  0.6315 -0.2028  0.4727
10789WAT     H144961   6.347   5.620   7.042 -0.4761 -1.8447 -0.9070
10789WAT     H244962   6.435   5.629   6.919  0.7303 -1.4644 -0.0397
10789WAT    EPW44963   6.422   5.602   7.001  0.4985 -0.5856  0.2229
10790WAT      O44964  10.699   6.321   7.724 -0.5497 -0.5369  0.5326
10790WAT     H144965  10.790   6.303   7.748  0.9320  0.4125 -3.5816
10790WAT     H244966  10.678   6.404   7.768  3.0842  2.8421 -3.2378
10790WAT    EPW44967  10.708   6.330   7.733  0.1249  0.0339 -0.5071
10791WAT      O44968   9.640   8.074   2.514 -0.8154 -0.4406 -0.0386
10791WAT     H144969   9.634   8.082   2.610 -0.9780  0.3728 -0.1102
10791WAT     H244970   9.727   8.039   2.498 -1.0390 -1.2377  0.4441
10791WAT    EPW44971   9.650   8.070   2.525 -0.8664 -0.4387  0.0156
10792WAT      O44972  10.326   4.313   4.738 -0.2903  0.4584 -0.7247
10792WAT     H144973  10.252   4.374   4.732 -1.3600 -0.9204 -2.6294
10792WAT     H244974  10.300   4.250   4.804 -0.8196 -0.0062 -1.3701
10792WAT    EPW44975  10.313   4.313   4.746 -0.5007  0.2153 -1.0610
10793WAT      O44976   7.997   5.292   4.499 -0.3810 -0.3676  0.0393
10793WAT     H144977   8.086   5.272   4.529  0.5914  3.3286  0.0300
10793WAT     H244978   7.963   5.351   4.566 -2.0514 -0.0260 -1.0752
10793WAT    EPW44979   8.005   5.297   4.512 -0.4730  0.1650 -0.1087
10794WAT      O44980   9.909   5.746   5.809  0.2652 -1.2479 -0.2931
10794WAT     H144981   9.943   5.825   5.766  0.6922 -0.3282  1.6394
10794WAT     H244982   9.952   5.674   5.762  1.0287 -0.2891 -1.1290
10794WAT    EPW44983   9.920   5.747   5.797  0.4225 -0.9999 -0.1485
10795WAT      O44984   6.846   6.369   8.102 -0.4653  0.1624 -0.7297
10795WAT     H144985   6.796   6.288   8.110  0.5761 -0.7111 -2.4894
10795WAT     H244986   6.936   6.340   8.090  0.2691  1.6644  0.8030
10795WAT    EPW44987   6.851   6.354   8.102 -0.2310  0.2453 -0.7601
10796WAT      O44988   8.684   7.189   2.375 -0.2981 -0.0193  0.6804
10796WAT     H144989   8.740   7.254   2.333  0.9254 -0.2916  1.8643
10796WAT     H244990   8.627   7.158   2.304  1.8491 -0.6336 -0.8625
10796WAT    EPW44991   8.684   7.193   2.360  0.1464 -0.1361  0.6331
10797WAT      O44992   8.437   6.011   5.000 -0.2103  0.2751 -0.7442
10797WAT     H144993   8.357   6.059   4.977 -3.0848 -2.6384  2.1381
10797WAT     H244994   8.428   5.927   4.956  1.8437  0.1693 -1.0857
10797WAT    EPW44995   8.425   6.006   4.991 -0.3185 -0.1230 -0.4091
10798WAT      O44996   6.574   3.908   5.568  0.1452  0.6800 -0.3223
10798WAT     H144997   6.624   3.930   5.490 -1.3242 -0.0819 -1.5433
10798WAT     H244998   6.510   3.844   5.538  0.0349 -0.2284  1.6923
10798WAT    EPW44999   6.572   3.903   5.554 -0.0632  0.4597 -0.2177
10799WAT      O45000   9.723   8.728   5.826 -0.0240  0.5306 -0.7341
10799WAT     H145001   9.776   8.702   5.751 -0.4761 -0.3335 -0.7658
10799WAT     H245002   9.668   8.652   5.845  1.2049  0.0967  1.4907
10799WAT    EPW45003   9.722   8.715   5.819  0.0782  0.3586 -0.4447
10800WAT      O45004  10.946   7.075   4.772 -0.2397 -0.0820  0.1285
10800WAT     H145005  10.947   6.989   4.815  0.8272 -0.9181 -1.4822
10800WAT     H245006  10.967   7.056   4.681  1.6114  2.0693  0.0427
10800WAT    EPW45007  10.949   7.061   4.766  0.1452  0.0913 -0.0954
10801WAT      O45008   6.548   5.546   5.833  0.7825 -0.0358  0.1179
10801WAT     H145009   6.590   5.631   5.844 -0.4934  0.4112  2.0992
10801WAT     H245010   6.606   5.484   5.877  0.7316  0.1289  0.4149
10801WAT    EPW45011   6.561   5.549   5.840  0.6075  0.0451  0.4182
10802WAT      O45012   6.536   6.406   3.620 -0.4242 -0.2652  0.0385
10802WAT     H145013   6.486   6.388   3.700  1.3034 -1.3679  0.9475
10802WAT     H245014   6.623   6.428   3.652 -0.0249  0.4959 -1.5280
10802WAT    EPW45015   6.541   6.406   3.635 -0.1438 -0.3102 -0.0483
10803WAT      O45016   7.992   5.808   5.210  0.3363 -0.2138 -0.5057
10803WAT     H145017   7.981   5.895   5.172  2.1492  0.6941  0.8868
10803WAT     H245018   7.972   5.821   5.303  1.4518 -1.0764 -0.1265
10803WAT    EPW45019   7.988   5.821   5.217  0.7224 -0.2079 -0.2716
10804WAT      O45020   5.243   1.569   3.746  0.1409  1.1483 -0.7660
10804WAT     H145021   5.211   1.545   3.659  0.5968  0.2626 -0.6999
10804WAT     H245022   5.217   1.660   3.757 -0.8979  0.9373 -1.3809
10804WAT    EPW45023   5.236   1.577   3.736  0.0639  1.0036 -0.8384
10805WAT      O45024   6.902   4.118   3.518  0.5772  0.2595  0.5727
10805WAT     H145025   6.893   4.175   3.594 -1.9021 -1.4783  1.7448
10805WAT     H245026   6.847   4.158   3.451 -1.1158 -0.6180  1.3749
10805WAT    EPW45027   6.894   4.130   3.519  0.0272 -0.0856  0.8330
10806WAT      O45028   9.525   3.381   6.088  0.2858  0.5058 -0.5153
10806WAT     H145029   9.604   3.434   6.092  0.8809 -0.4277  0.6446
10806WAT     H245030   9.536   3.315   6.156 -1.2602  0.0240 -0.6795
10806WAT    EPW45031   9.537   3.379   6.097  0.1612  0.3192 -0.3841
10807WAT      O45032   1.801   5.989   4.720 -0.1255 -0.2057 -0.0061
10807WAT     H145033   1.836   6.001   4.631 -2.5827 -2.1919 -1.4014
10807WAT     H245034   1.868   5.939   4.766  1.5672  1.6069 -0.4133
10807WAT    EPW45035   1.814   5.984   4.714 -0.2263 -0.2286 -0.2437
10808WAT      O45036   5.512   2.012   1.539 -0.2520  0.0517 -0.0913
10808WAT     H145037   5.522   1.966   1.456 -1.1392  2.3312 -1.5767
10808WAT     H245038   5.518   2.105   1.515 -0.3749  0.7767  2.4378
10808WAT    EPW45039   5.514   2.018   1.525 -0.3853  0.4480  0.0464
10809WAT      O45040   8.883   4.413   8.317  0.5711  0.5650  0.0910
10809WAT     H145041   8.967   4.436   8.357 -1.7628  2.9449  4.3956
10809WAT     H245042   8.822   4.479   8.351 -3.2774 -1.5935 -1.9590
10809WAT    EPW45043   8.886   4.425   8.327 -0.2446  0.5941  0.3886
10810WAT      O45044   7.103   4.260   5.916  0.2154 -0.3263  0.3743
10810WAT     H145045   7.154   4.315   5.976 -1.3216 -1.3878  2.7981
10810WAT     H245046   7.042   4.320   5.874  0.4889  0.2438  0.7838
10810WAT    EPW45047   7.102   4.275   5.918  0.0486 -0.3910  0.7479
10811WAT      O45048   8.267   7.631   3.967  0.0662 -1.0551  0.6057
10811WAT     H145049   8.249   7.560   4.029 -3.7429 -0.5342  0.3079
10811WAT     H245050   8.198   7.696   3.984 -0.2731 -0.2100 -3.1463
10811WAT    EPW45051   8.255   7.630   3.977 -0.4807 -0.8750  0.0716
10812WAT      O45052   9.830   8.719   4.571  0.2345  1.0375 -0.2413
10812WAT     H145053   9.740   8.752   4.562 -0.2388 -0.4189 -1.5571
10812WAT     H245054   9.819   8.626   4.591  1.4009  0.5754 -1.5275
10812WAT    EPW45055   9.816   8.711   4.572  0.3262  0.7839 -0.5841
10813WAT      O45056   9.788   2.654   4.161 -0.1046  0.4205  0.1574
10813WAT     H145057   9.694   2.672   4.166 -0.1814  0.0716  0.0469
10813WAT     H245058   9.794   2.559   4.173  0.1766  0.3485 -0.5027
10813WAT    EPW45059   9.776   2.644   4.163 -0.0782  0.3649  0.0558
10814WAT      O45060   0.259   5.137   5.939  0.1164 -0.0867  0.4593
10814WAT     H145061   0.206   5.174   5.868 -0.1261 -0.7951  0.2663
10814WAT     H245062   0.211   5.159   6.018 -1.8012 -2.7782  0.1673
10814WAT    EPW45063   0.246   5.145   5.940 -0.1685 -0.5348  0.3953
10815WAT      O45064  10.576  10.366   1.341 -0.3918 -0.8783 -0.0726
10815WAT     H145065  10.671  10.374   1.329 -0.1093 -0.2686  2.2141
10815WAT     H245066  10.545  10.332   1.257  2.0245 -2.5916 -0.3754
10815WAT    EPW45067  10.585  10.363   1.328 -0.0358 -1.0239  0.1891
10816WAT      O45068  10.411   4.931   4.341 -0.5789  0.1745 -0.6230
10816WAT     H145069  10.468   4.865   4.302 -0.2756  0.4876 -0.7175
10816WAT     H245070  10.405   4.906   4.434 -0.8731 -0.2686 -0.7556
10816WAT    EPW45071  10.418   4.919   4.348 -0.5774  0.1571 -0.6533
10817WAT      O45072   8.657   4.770   6.819  0.0141 -0.1429  0.7212
10817WAT     H145073   8.744   4.799   6.790 -0.8994  2.0859  0.0472
10817WAT     H245074   8.630   4.833   6.885 -1.9331  0.4524 -0.5619
10817WAT    EPW45075   8.665   4.782   6.824 -0.3629  0.2296  0.4630
10818WAT      O45076   8.901   3.458   3.393 -0.7285 -0.4432  0.5117
10818WAT     H145077   8.968   3.496   3.336  1.6680 -2.4631  1.8134
10818WAT     H245078   8.947   3.440   3.476 -2.6957 -2.5331  1.2524
10818WAT    EPW45079   8.916   3.461   3.397 -0.6719 -0.9853  0.7811
10819WAT      O45080   7.492   5.194   5.605  0.3395  0.3231 -0.8049
10819WAT     H145081   7.515   5.133   5.535  0.6505  0.2234 -0.6166
10819WAT     H245082   7.496   5.141   5.685 -1.0998  0.1541 -0.8164
10819WAT    EPW45083   7.495   5.179   5.607  0.1907  0.2878 -0.7815
10820WAT      O45084   9.734   4.569   4.014  0.5395  0.1442  0.1337
10820WAT     H145085   9.727   4.477   3.988 -2.3770  0.4179 -0.4336
10820WAT     H245086   9.732   4.567   4.110 -2.5415 -0.3721  0.1628
10820WAT    EPW45087   9.732   4.557   4.023 -0.2508  0.1118  0.0629
10821WAT      O45088   7.664   3.763   4.463 -0.4211 -0.2316 -0.2302
10821WAT     H145089   7.600   3.832   4.481 -1.0073 -1.1829  1.5968
10821WAT     H245090   7.613   3.682   4.459  0.6098 -0.9830  1.0101
10821WAT    EPW45091   7.649   3.761   4.465 -0.3626 -0.4562  0.1740
10822WAT      O45092   6.164   3.760   2.840 -0.1311 -0.0132 -0.3921
10822WAT     H145093   6.182   3.851   2.816 -0.0184 -0.3047 -1.4677
10822WAT     H245094   6.080   3.763   2.886  0.9179  0.9146  1.5941
10822WAT    EPW45095   6.156   3.772   2.843  0.0222  0.0708 -0.2720
10823WAT      O45096   0.601   5.645   0.360 -0.4746  0.1291 -0.2063
10823WAT     H145097   0.579   5.590   0.435 -0.7063  0.1990 -0.2218
10823WAT     H245098   0.517   5.670   0.323 -0.4331  1.5652  0.5795
10823WAT    EPW45099   0.587   5.641   0.365 -0.4997  0.3276 -0.1047
10824WAT      O45100   7.796   3.760   1.918 -1.1380 -0.9251  0.2778
10824WAT     H145101   7.769   3.810   1.995 -0.1889  0.4534 -0.2417
10824WAT     H245102   7.888   3.739   1.934 -0.7196  0.0070 -0.7672
10824WAT    EPW45103   7.805   3.764   1.930 -0.9575 -0.6202  0.0715
10825WAT      O45104   6.178   9.867   6.725  0.4271  0.0081  0.3137
10825WAT     H145105   6.188   9.946   6.672 -0.3354  0.0589  0.2439
10825WAT     H245106   6.202   9.894   6.813  3.6928 -0.5382 -0.2619
10825WAT    EPW45107   6.183   9.881   6.730  0.7575 -0.0572  0.2286
10826WAT      O45108   8.874   2.244   3.420  0.3057 -0.4750 -0.0582
10826WAT     H145109   8.839   2.165   3.379  0.0134 -0.8737  0.9412
10826WAT     H245110   8.802   2.307   3.418  0.2078 -0.5822  0.0671
10826WAT    EPW45111   8.860   2.242   3.414  0.2542 -0.5418  0.0900
10827WAT      O45112   9.625   5.582   3.829 -0.4724 -0.1778 -0.4797
10827WAT     H145113   9.674   5.556   3.907 -0.7037 -0.4655 -0.4265
10827WAT     H245114   9.607   5.499   3.784 -0.1928  0.0023 -0.9271
10827WAT    EPW45115   9.629   5.568   3.834 -0.4663 -0.1922 -0.5317
10828WAT      O45116   2.256   0.588   0.334 -0.3043 -0.1245  0.1968
10828WAT     H145117   2.242   0.620   0.244 -0.8896  0.3558  0.4487
10828WAT     H245118   2.192   0.636   0.386 -1.0092 -1.4964  0.6511
10828WAT    EPW45119   2.246   0.599   0.329 -0.4746 -0.2421  0.2899
10829WAT      O45120   8.006   2.420   3.711  0.4047  0.1514 -0.4965
10829WAT     H145121   8.007   2.324   3.708 -2.2435  0.0322  0.0536
10829WAT     H245122   7.981   2.442   3.800  0.7246  1.3606 -0.6776
10829WAT    EPW45123   8.002   2.410   3.722  0.0973  0.2952 -0.4479
10830WAT      O45124  10.017   7.612   7.487 -0.0981  0.4421 -0.3036
10830WAT     H145125   9.991   7.663   7.410  0.5337  0.1354 -0.7273
10830WAT     H245126  10.076   7.545   7.452  1.4625  1.2692  0.6439
10830WAT    EPW45127  10.021   7.610   7.472  0.1917  0.5105 -0.2346
10831WAT      O45128   9.834   3.672   5.363  0.1148 -0.2555 -0.1882
10831WAT     H145129   9.754   3.622   5.377 -1.0625  0.7534 -2.7624
10831WAT     H245130   9.875   3.632   5.287  1.3814  0.0926  0.2818
10831WAT    EPW45131   9.829   3.660   5.355  0.1264 -0.0765 -0.4659
10832WAT      O45132   0.420   6.114   7.549 -0.1451 -0.1692  0.3929
10832WAT     H145133   0.423   6.151   7.461 -2.3044  0.9467  0.7118
10832WAT     H245134   0.426   6.019   7.536 -1.6372 -0.1018 -1.0896
10832WAT    EPW45135   0.421   6.106   7.536 -0.6267 -0.0131  0.2396
10833WAT      O45136   6.337   6.112   6.463  0.1418 -0.9670  0.0191
10833WAT     H145137   6.369   6.200   6.484  0.2827 -1.2158  0.8865
10833WAT     H245138   6.266   6.097   6.525 -0.9114 -0.8839 -1.1214
10833WAT    EPW45139   6.332   6.122   6.474  0.0215 -0.9885 -0.0169
10834WAT      O45140   6.903   1.908   0.203  0.2975 -0.4994 -0.3728
10834WAT     H145141   6.818   1.882   0.239  1.1361  0.3840  2.4723
10834WAT     H245142   6.967   1.871   0.263  1.7126  3.4112  0.8181
10834WAT    EPW45143   6.900   1.899   0.216  0.5949  0.1330  0.1596
10835WAT      O45144   7.100   2.503   6.267  0.4770 -0.0653 -0.8513
10835WAT     H145145   7.157   2.463   6.333 -0.2447 -0.6741 -0.5718
10835WAT     H245146   7.152   2.573   6.229  0.6749  0.7504  0.8515
10835WAT    EPW45147   7.115   2.507   6.271  0.4077 -0.0379 -0.5896
10836WAT      O45148   5.437   2.716   8.303  0.2254  0.1986 -0.0431
10836WAT     H145149   5.353   2.737   8.343  0.7220 -1.3091  1.9382
10836WAT     H245150   5.481   2.800   8.294 -1.0205  0.8710 -0.0069
10836WAT    EPW45151   5.432   2.730   8.307  0.1268  0.0885  0.2227
10837WAT      O45152   9.437   3.591   3.244  0.1707 -0.0520  0.7945
10837WAT     H145153   9.422   3.503   3.211  0.8674 -0.0165  0.3551
10837WAT     H245154   9.503   3.581   3.312 -0.2157  0.0540  1.1885
10837WAT    EPW45155   9.444   3.578   3.248  0.2112 -0.0334  0.7886
10838WAT      O45156   7.709   3.682   3.968 -0.7094  0.7172  0.2088
10838WAT     H145157   7.623   3.692   3.928 -1.2079  1.6099  1.4183
10838WAT     H245158   7.703   3.732   4.050  0.5788 -0.1872  0.8929
10838WAT    EPW45159   7.697   3.690   3.974 -0.6056  0.7156  0.4586
10839WAT      O45160   9.291   5.040   5.323  0.3741  0.3345  0.1206
10839WAT     H145161   9.353   4.991   5.270 -0.8808 -0.1612 -0.9503
10839WAT     H245162   9.331   5.044   5.410  1.0315 -1.5711 -0.0593
10839WAT    EPW45163   9.304   5.034   5.327  0.2952  0.0179 -0.0446
10840WAT      O45164  10.137   4.502   4.735 -0.3945 -0.4950 -0.0341
10840WAT     H145165  10.061   4.460   4.695 -1.0102  0.5592  0.0177
10840WAT     H245166  10.163   4.570   4.673  2.1940 -2.5297 -1.3860
10840WAT    EPW45167  10.131   4.505   4.721 -0.1345 -0.6242 -0.2055
10841WAT      O45168   9.273   2.249   7.389  0.7426  0.4661 -0.7179
10841WAT     H145169   9.232   2.218   7.308  1.4978 -0.1903 -0.8529
10841WAT     H245170   9.293   2.170   7.438 -0.6712  0.8859  0.6143
10841WAT    EPW45171   9.270   2.235   7.384  0.6557  0.4349 -0.5600
10842WAT      O45172   8.590   6.716   3.235 -0.4449  0.9276  0.4431
10842WAT     H145173   8.534   6.696   3.311  0.7079  1.6028  1.5188
10842WAT     H245174   8.627   6.802   3.255  0.4226  0.8121 -0.5721
10842WAT    EPW45175   8.587   6.725   3.248 -0.1783  1.0014  0.4510
10843WAT      O45176  10.129   4.254   2.275  0.4474 -0.2263  0.2681
10843WAT     H145177  10.092   4.338   2.247 -1.2507 -0.5117  1.5263
10843WAT     H245178  10.121   4.198   2.198 -0.2822  0.1907  0.0320
10843WAT    EPW45179  10.123   4.258   2.261  0.1273 -0.2091  0.4029
10844WAT      O45180   6.461   5.746   5.118 -0.0592 -0.3663  0.3242
10844WAT     H145181   6.451   5.664   5.069 -0.0959 -0.3049  0.2289
10844WAT     H245182   6.373   5.783   5.121  0.1369  0.2116 -0.5780
10844WAT    EPW45183   6.448   5.740   5.112 -0.0384 -0.2818  0.1924
10845WAT      O45184   9.064   3.457   2.114 -0.0227 -0.5582 -1.2364
10845WAT     H145185   9.034   3.439   2.025 -1.6432  0.4515 -0.9338
10845WAT     H245186   9.020   3.390   2.168  2.2298 -2.2210 -1.3266
10845WAT    EPW45187   9.054   3.445   2.110  0.0606 -0.6443 -1.2083
10846WAT      O45188  10.525   3.979   5.387 -0.6068 -0.2755  0.3088
10846WAT     H145189  10.607   4.011   5.349 -1.2571 -0.5955 -1.4780
10846WAT     H245190  10.462   4.049   5.370 -1.0076 -0.6002  0.4499
10846WAT    EPW45191  10.527   3.992   5.380 -0.7458 -0.3605  0.0916
10847WAT      O45192   1.622   1.770   2.912  0.3138 -0.6739 -0.5809
10847WAT     H145193   1.637   1.856   2.873  1.2059 -0.3009  0.5380
10847WAT     H245194   1.669   1.773   2.996  1.5762 -2.7473 -1.1521
10847WAT    EPW45195   1.630   1.782   2.918  0.5980 -0.8981 -0.5085
10848WAT      O45196  10.480   6.185   6.164 -0.5779  0.2445 -0.3243
10848WAT     H145197  10.450   6.204   6.253 -1.4570 -0.3674 -0.4644
10848WAT     H245198  10.563   6.231   6.155 -1.0569  1.2800  0.4104
10848WAT    EPW45199  10.487   6.193   6.174 -0.7567  0.3004 -0.2460
10849WAT      O45200   8.783   7.637   5.073 -0.1221  0.4177  0.2309
10849WAT     H145201   8.790   7.558   5.019 -1.5715  0.0721  0.4951
10849WAT     H245202   8.767   7.604   5.162 -0.8685  0.9911  0.3225
10849WAT    EPW45203   8.782   7.622   5.078 -0.4115  0.4478  0.2780
10850WAT      O45204   8.297   4.344   5.606 -0.0709  0.0100 -0.7920
10850WAT     H145205   8.238   4.271   5.590  2.4444 -2.5993  0.7752
10850WAT     H245206   8.240   4.419   5.622 -2.9412 -2.3127  0.7515
10850WAT    EPW45207   8.282   4.344   5.606 -0.1173 -0.6404 -0.3817
10851WAT      O45208   9.913   6.636   3.072  0.6214 -0.0892  0.1876
10851WAT     H145209   9.962   6.629   2.990 -1.6507  0.1167 -1.2676
10851WAT     H245210   9.934   6.556   3.120 -0.8586 -2.1001 -2.2955
10851WAT    EPW45211   9.922   6.624   3.068  0.1264 -0.3273 -0.3320
10852WAT      O45212   0.903   8.135   0.207 -0.5121  1.0241  0.1220
10852WAT     H145213   0.924   8.194   0.134  1.7619 -1.5051 -1.4491
10852WAT     H245214   0.809   8.119   0.198 -0.2695  0.6414 -2.4645
10852WAT    EPW45215   0.893   8.141   0.196 -0.1802  0.6399 -0.4263
10853WAT      O45216   9.067   3.327   2.833 -0.8771 -0.0551  0.0519
10853WAT     H145217   9.092   3.384   2.761  2.4446  0.9828  1.7931
10853WAT     H245218   9.038   3.386   2.903 -4.4322 -1.0556 -0.3785
10853WAT    EPW45219   9.067   3.342   2.833 -0.9079 -0.0503  0.2247
10854WAT      O45220   9.298   5.073   3.916 -0.1530  0.3748  0.1609
10854WAT     H145221   9.323   5.065   3.824 -1.0133  0.3619 -0.0868
10854WAT     H245222   9.203   5.086   3.913 -0.1454  0.6571  1.0355
10854WAT    EPW45223   9.289   5.074   3.903 -0.2651  0.4103  0.2435
10855WAT      O45224  10.681   4.383   5.775 -0.0861  0.7077 -0.6584
10855WAT     H145225  10.638   4.353   5.695 -2.5815  1.2130  0.4143
10855WAT     H245226  10.686   4.306   5.831 -0.6281  0.8957 -0.3492
10855WAT    EPW45227  10.676   4.369   5.772 -0.4873  0.7992 -0.4764
10856WAT      O45228   0.112   5.560   7.852  0.1293 -0.0102  0.7086
10856WAT     H145229   0.165   5.602   7.784  0.6119  2.5856  2.5314
10856WAT     H245230   0.070   5.486   7.808  4.3400 -1.6270 -1.1550
10856WAT    EPW45231   0.113   5.556   7.837  0.7483  0.1190  0.7031
10857WAT      O45232   7.607   5.179   5.296  0.6098  0.8863  0.1390
10857WAT     H145233   7.590   5.247   5.231  0.2696  1.1347  0.4764
10857WAT     H245234   7.698   5.192   5.323  0.1620  2.1014  1.1979
10857WAT    EPW45235   7.617   5.190   5.291  0.5057  1.0793  0.3233
10858WAT      O45236   4.045   0.738   0.307  0.1041  0.2885  0.0258
10858WAT     H145237   4.037   0.829   0.334 -1.9837  0.7311 -1.7908
10858WAT     H245238   4.035   0.688   0.388 -1.0764  1.6164  0.7360
10858WAT    EPW45239   4.043   0.743   0.321 -0.3269  0.5220 -0.1201
10859WAT      O45240  10.515   6.079   4.464  0.3000 -0.4002 -0.6416
10859WAT     H145241  10.593   6.045   4.508  0.2557 -0.0333 -0.2667
10859WAT     H245242  10.456   6.004   4.458  0.1575 -0.3713  0.2745
10859WAT    EPW45243  10.518   6.065   4.469  0.2761 -0.3481 -0.4714
10860WAT      O45244   8.609   5.516   5.907  0.2597 -0.6427 -0.2733
10860WAT     H145245   8.595   5.610   5.920 -1.2964 -0.7505 -1.0098
10860WAT     H245246   8.685   5.496   5.962  2.1144  1.4728 -1.8786
10860WAT    EPW45247   8.617   5.526   5.916  0.2995 -0.3777 -0.5820
10861WAT      O45248   6.979   6.485   6.627 -0.7933  0.6028 -0.2663
10861WAT     H145249   7.008   6.471   6.717  0.0365  1.8494 -0.3162
10861WAT     H245250   6.940   6.572   6.628 -1.1642  0.4481 -1.0192
10861WAT    EPW45251   6.978   6.495   6.639 -0.7331  0.7467 -0.3717
10862WAT      O45252   8.308   6.504   5.648  0.1837 -0.1066 -0.4884
10862WAT     H145253   8.370   6.482   5.717 -0.1423 -0.6134 -0.3499
10862WAT     H245254   8.358   6.496   5.567  0.8202  1.4027 -0.2655
10862WAT    EPW45255   8.322   6.500   5.647  0.2246  0.0257 -0.4408
10863WAT      O45256   7.581   7.105   7.688 -0.0389 -0.5250 -0.0069
10863WAT     H145257   7.511   7.141   7.634 -0.4016 -1.7858 -0.3965
10863WAT     H245258   7.646   7.072   7.626  0.9914  0.7124  0.3470
10863WAT    EPW45259   7.580   7.106   7.673  0.0494 -0.5276 -0.0117
10864WAT      O45260   8.414   6.331   6.589  0.3318  0.3784  0.0908
10864WAT     H145261   8.477   6.263   6.564 -1.0525 -0.5036 -1.1528
10864WAT     H245262   8.413   6.391   6.515 -0.7683  0.0101 -0.2096
10864WAT    EPW45263   8.422   6.330   6.576  0.0038  0.2136 -0.1128
10865WAT      O45264   6.241   5.388   5.628 -0.2034 -0.0319 -0.4043
10865WAT     H145265   6.250   5.344   5.713  0.3152 -3.0677 -1.9067
10865WAT     H245266   6.161   5.353   5.591  0.1119  0.4794 -1.6045
10865WAT    EPW45267   6.232   5.378   5.635 -0.0935 -0.3650 -0.7608
10866WAT      O45268   8.901   5.480   5.985  0.5616  0.0039  0.1973
10866WAT     H145269   8.978   5.532   6.005  3.3366 -2.7513 -2.2460
10866WAT     H245270   8.879   5.505   5.895 -0.2168 -0.6184  0.2059
10866WAT    EPW45271   8.908   5.491   5.976  0.8249 -0.4418 -0.1237
10867WAT      O45272   8.304   5.517   6.075 -0.6325 -0.7510 -0.3631
10867WAT     H145273   8.379   5.500   6.018  1.1989 -1.0627  1.9732
10867WAT     H245274   8.277   5.431   6.105  2.9993 -0.6004  4.5551
10867WAT    EPW45275   8.311   5.504   6.071  0.0882 -0.7725  0.5937
10868WAT      O45276   0.557   6.671   6.508  0.4064  0.0937 -0.9301
10868WAT     H145277   0.482   6.689   6.564  1.1754  0.1170  0.1159
10868WAT     H245278   0.541   6.583   6.473 -0.2385  0.2151 -0.9531
10868WAT    EPW45279   0.545   6.662   6.511  0.4227  0.1128 -0.7949
10869WAT      O45280   8.540   6.744   5.221 -0.1734 -1.3957 -0.3546
10869WAT     H145281   8.527   6.780   5.308 -0.4488  1.9780 -1.6373
10869WAT     H245282   8.506   6.811   5.162  5.0033 -0.8690 -3.2884
10869WAT    EPW45283   8.534   6.758   5.224  0.4735 -0.8812 -0.9105
10870WAT      O45284   8.474   4.299   5.377  0.8995 -0.0494 -0.2045
10870WAT     H145285   8.433   4.214   5.362  0.9699 -0.1620  0.2258
10870WAT     H245286   8.424   4.337   5.449  0.9246  0.2366 -0.3367
10870WAT    EPW45287   8.462   4.293   5.384  0.9117 -0.0265 -0.1652
10871WAT      O45288   9.378   4.341   4.322  0.0061  0.0670  0.2662
10871WAT     H145289   9.450   4.363   4.381 -0.5109  0.4364  0.7673
10871WAT     H245290   9.299   4.354   4.374 -0.6192  2.6780 -1.1694
10871WAT    EPW45291   9.377   4.345   4.336 -0.1445  0.4601  0.1428
10872WAT      O45292   6.825   6.680   4.995 -0.0352 -0.2754  0.0299
10872WAT     H145293   6.790   6.752   4.942 -1.1919 -0.3267  0.6934
10872WAT     H245294   6.909   6.711   5.026 -0.4464  0.7322  0.1636
10872WAT    EPW45295   6.831   6.693   4.992 -0.2420 -0.1490  0.1349
10873WAT      O45296   2.443   2.643   2.539  0.2878  0.2275  0.1077
10873WAT     H145297   2.470   2.697   2.465  4.5322  0.6574  1.7013
10873WAT     H245298   2.405   2.705   2.601 -1.8728  0.0732 -0.9355
10873WAT    EPW45299   2.441   2.658   2.537  0.5627  0.2639  0.1804
10874WAT      O45300   6.626   3.564   6.603  0.3044  0.4094  0.6276
10874WAT     H145301   6.621   3.584   6.509  0.6492  0.5042  0.6300
10874WAT     H245302   6.662   3.643   6.642 -1.4643  1.0498  1.0713
10874WAT    EPW45303   6.630   3.577   6.596  0.1166  0.5064  0.6866
10875WAT      O45304   9.616   4.885   4.907  0.4884  0.3131 -0.2011
10875WAT     H145305   9.576   4.798   4.913  1.6218 -0.4213 -2.2395
10875WAT     H245306   9.551   4.944   4.944  0.2062 -1.5083  2.4389
10875WAT    EPW45307   9.602   4.882   4.912  0.6003 -0.0238 -0.1221
10876WAT      O45308   7.215   4.511   5.790 -0.5029 -0.6066 -0.3875
10876WAT     H145309   7.221   4.447   5.718  0.5741  0.5100 -1.3262
10876WAT     H245310   7.292   4.495   5.843 -0.2538 -0.1155 -0.6013
10876WAT    EPW45311   7.226   4.500   5.787 -0.3278 -0.3946 -0.5393
10877WAT      O45312   2.100   4.194   1.321  0.1271  0.5217 -0.2210
10877WAT     H145313   2.183   4.202   1.368  0.6873  0.4454 -1.1770
10877WAT     H245314   2.101   4.104   1.287 -0.4360  0.4631 -0.0899
10877WAT    EPW45315   2.111   4.183   1.323  0.1268  0.5040 -0.3298
10878WAT      O45316   5.865   5.875   5.541 -0.2106 -0.2628 -0.1094
10878WAT     H145317   5.905   5.794   5.573  1.7399  1.8175  3.3267
10878WAT     H245318   5.882   5.874   5.447  1.0341 -3.1309  0.0446
10878WAT    EPW45319   5.873   5.864   5.533  0.2110 -0.3667  0.3638
10879WAT      O45320   7.011   5.165   6.619  0.0777  0.1966  0.0611
10879WAT     H145321   7.087   5.195   6.670 -0.3861  0.1645  0.7912
10879WAT     H245322   7.049   5.120   6.544  0.7833  0.5296  0.2067
10879WAT    EPW45323   7.026   5.163   6.616  0.1097  0.2363  0.1764
10880WAT      O45324   9.038   6.432   5.243 -0.0334  0.2494  0.5763
10880WAT     H145325   8.961   6.479   5.212  0.1327 -0.8343 -1.6442
10880WAT     H245326   9.086   6.409   5.164  1.4201 -1.0640  1.7653
10880WAT    EPW45327   9.034   6.435   5.229  0.1798 -0.0668  0.4401
10881WAT      O45328   9.312   7.364   4.954  0.2345 -0.0591  0.8283
10881WAT     H145329   9.282   7.379   5.044 -0.4885  0.5805  0.4972
10881WAT     H245330   9.299   7.448   4.910 -0.2243 -0.5869 -0.0894
10881WAT    EPW45331   9.306   7.377   4.960  0.0787 -0.0443  0.6638
10882WAT      O45332   0.292   3.639   8.461  0.0882  0.3048  0.0056
10882WAT     H145333   0.232   3.584   8.410 -0.4934  1.2177 -0.3251
10882WAT     H245334   0.324   3.704   8.398 -1.5394  2.1756  0.9812
10882WAT    EPW45335   0.288   3.641   8.446 -0.2031  0.6719  0.0901
10883WAT      O45336   1.183   3.833   6.335 -0.7629 -0.2008  0.1367
10883WAT     H145337   1.097   3.858   6.300 -1.4756 -0.9434  1.2771
10883WAT     H245338   1.241   3.836   6.259 -1.9006 -0.1668 -0.7732
10883WAT    EPW45339   1.179   3.837   6.320 -1.0069 -0.2942  0.1671
10884WAT      O45340   7.573   5.390   4.448  0.0476  0.2502 -0.1493
10884WAT     H145341   7.491   5.376   4.400 -0.1471 -1.1553  0.5639
10884WAT     H245342   7.639   5.345   4.396  0.7781  2.8529 -1.6958
10884WAT    EPW45343   7.571   5.383   4.435  0.1183  0.4079 -0.2592
10885WAT      O45344   5.417   3.879   2.076  0.0646  0.1456 -0.1749
10885WAT     H145345   5.454   3.792   2.063  2.0285  0.8885  0.0459
10885WAT     H245346   5.444   3.904   2.164  0.2604  1.2992 -0.5405
10885WAT    EPW45347   5.425   3.871   2.086  0.3493  0.3958 -0.1940
10886WAT      O45348   9.313   4.197   5.786 -0.6293  0.5291  0.1317
10886WAT     H145349   9.266   4.262   5.839 -0.3037  1.1166 -0.2851
10886WAT     H245350   9.388   4.245   5.751 -0.7561  0.1108 -0.7343
10886WAT    EPW45351   9.316   4.212   5.789 -0.6027  0.5512 -0.0377
10887WAT      O45352   8.621   3.488   6.893  0.7782  0.1041 -0.1822
10887WAT     H145353   8.627   3.397   6.924  1.2086  1.0818  2.8949
10887WAT     H245354   8.711   3.512   6.871  1.1374  0.6215  1.7471
10887WAT    EPW45355   8.634   3.479   6.894  0.8821  0.3011  0.4783
10888WAT      O45356   5.942   5.514   6.922  0.1939  0.1536  0.7885
10888WAT     H145357   5.872   5.576   6.903 -0.0569 -0.0250  1.1148
10888WAT     H245358   5.918   5.436   6.872  0.7318  0.4535  0.0383
10888WAT    EPW45359   5.929   5.512   6.913  0.2317  0.1695  0.7327
10889WAT      O45360   0.888   7.286   6.215 -0.2918  0.0332 -0.0591
10889WAT     H145361   0.908   7.193   6.206  0.1501  0.1276 -0.1223
10889WAT     H245362   0.798   7.295   6.185 -0.0756 -0.2542 -0.8333
10889WAT    EPW45363   0.879   7.275   6.210 -0.2050  0.0079 -0.1693
10890WAT      O45364   6.228   7.016   7.573  0.1912  0.7820  0.3727
10890WAT     H145365   6.249   6.973   7.490 -0.3385  1.0215  0.1107
10890WAT     H245366   6.145   7.061   7.557 -1.9071 -2.1309  2.0322
10890WAT    EPW45367   6.219   7.016   7.560 -0.1552  0.4294  0.5572
10891WAT      O45368   5.026   4.688   7.597  0.4391 -0.0547 -0.8008
10891WAT     H145369   5.013   4.743   7.520  0.8772  1.9175  0.4539
10891WAT     H245370   4.939   4.677   7.635  0.3207 -0.4246 -1.1760
10891WAT    EPW45371   5.013   4.694   7.592  0.4811  0.1566 -0.6845
10892WAT      O45372   0.830   5.446   7.079 -0.1682  0.2040  0.2653
10892WAT     H145373   0.763   5.510   7.101 -0.4408  1.1402 -2.7477
10892WAT     H245374   0.805   5.367   7.125 -2.2169  1.1110  0.7935
10892WAT    EPW45375   0.818   5.444   7.088 -0.4744  0.4470 -0.0625
10893WAT      O45376   9.850   7.702   4.881 -0.4176 -0.3729  0.2959
10893WAT     H145377   9.887   7.789   4.864 -4.3883  1.0635 -2.6765
10893WAT     H245378   9.821   7.705   4.972 -0.2222  1.3363  0.3366
10893WAT    EPW45379   9.851   7.714   4.890 -0.9160  0.0420 -0.0906
10894WAT      O45380   7.514   4.009   4.514  0.2502  0.2137  0.1649
10894WAT     H145381   7.453   4.074   4.480  0.6806  0.2905 -0.4767
10894WAT     H245382   7.600   4.050   4.504  0.4482 -0.0742  0.6373
10894WAT    EPW45383   7.518   4.023   4.508  0.3331  0.1860  0.1426
10895WAT      O45384   0.067   5.150   4.751 -0.0384 -0.3666 -0.0931
10895WAT     H145385   0.115   5.091   4.693 -0.3995  1.0789 -1.9532
10895WAT     H245386   0.126   5.225   4.763 -1.2016  0.7808 -1.2432
10895WAT    EPW45387   0.081   5.153   4.745 -0.2395 -0.0246 -0.4902
10896WAT      O45388   0.787   7.875   1.975 -0.0779  0.1216  0.0658
10896WAT     H145389   0.702   7.912   1.951  0.8728  0.4523 -3.3511
10896WAT     H245390   0.820   7.934   2.042 -1.2749  1.8510 -0.7727
10896WAT    EPW45391   0.780   7.888   1.980 -0.1104  0.3932 -0.4954
10897WAT      O45392  10.592   4.089   4.504 -0.4809  0.0384 -0.4774
10897WAT     H145393  10.508   4.045   4.518 -1.0661  0.7783 -1.5194
10897WAT     H245394  10.580   4.138   4.423 -0.4579  3.5763  1.4843
10897WAT    EPW45395  10.579   4.090   4.495 -0.5546  0.6025 -0.3562
10898WAT      O45396   6.726   6.676   4.259 -0.7328 -0.6172 -0.3897
10898WAT     H145397   6.657   6.742   4.254 -1.5405 -1.3164  0.8850
10898WAT     H245398   6.705   6.614   4.189 -1.6006 -0.9967  0.1969
10898WAT    EPW45399   6.714   6.676   4.249 -0.9539 -0.7594 -0.1442
10899WAT      O45400   1.600   6.376   7.049 -1.0143  0.3513  0.6135
10899WAT     H145401   1.689   6.347   7.068 -0.6449  0.4757 -0.8621
10899WAT     H245402   1.601   6.470   7.066  0.0043  0.9396 -2.2461
10899WAT    EPW45403   1.612   6.384   7.054 -0.8312  0.4454  0.0415
10900WAT      O45404   0.306   6.871   4.863  0.5294 -0.2593  0.6120
10900WAT     H145405   0.401   6.866   4.871  0.5436 -1.0952  0.0113
10900WAT     H245406   0.284   6.958   4.896  1.8497  1.3509 -2.3873
10900WAT    EPW45407   0.315   6.882   4.868  0.7055 -0.1571  0.1371
10901WAT      O45408   5.787   3.694   7.462  0.4232  0.1299 -0.0058
10901WAT     H145409   5.821   3.676   7.549  2.1005  0.1054 -0.6215
10901WAT     H245410   5.751   3.610   7.432  1.5823 -0.3714 -0.0529
10901WAT    EPW45411   5.786   3.680   7.469  0.7975  0.0607 -0.0932
10902WAT      O45412   8.192   4.959   4.496  0.3188 -0.3395 -0.1579
10902WAT     H145413   8.212   4.962   4.402 -0.8988  3.3431 -0.4651
10902WAT     H245414   8.100   4.985   4.502  0.0008 -1.7108  2.0330
10902WAT    EPW45415   8.183   4.963   4.484  0.1163 -0.0346  0.0906
10903WAT      O45416   7.636   5.199   6.560 -0.3045  0.1143 -0.2219
10903WAT     H145417   7.562   5.138   6.554 -2.1082  2.2572 -0.9489
10903WAT     H245418   7.690   5.178   6.484 -1.9375  0.6489 -1.5867
10903WAT    EPW45419   7.633   5.188   6.549 -0.7579  0.4673 -0.4978
10904WAT      O45420   5.011   7.368   6.436 -0.1941  0.1164 -0.3226
10904WAT     H145421   5.009   7.309   6.511 -1.2799  1.9932  1.2078
10904WAT     H245422   5.088   7.423   6.451 -1.1960  1.4196  0.2043
10904WAT    EPW45423   5.021   7.367   6.448 -0.4694  0.5357 -0.0517
10905WAT      O45424   8.738   2.750   4.797  0.2291  1.1451 -0.1444
10905WAT     H145425   8.770   2.729   4.710  0.1146 -0.1490  0.1086
10905WAT     H245426   8.777   2.684   4.854  0.5915  2.1816  0.8595
10905WAT    EPW45427   8.747   2.739   4.793  0.2618  1.1110  0.0212
10906WAT      O45428   0.929   7.394   5.659  0.2458 -0.4145  0.3242
10906WAT     H145429   0.952   7.428   5.745 -0.6058  0.2194  0.3242
10906WAT     H245430   1.009   7.403   5.607  0.3077  0.7960  0.5885
10906WAT    EPW45431   0.943   7.400   5.663  0.1416 -0.1714  0.3591
10907WAT      O45432   0.402   5.399   6.051 -0.4601  0.1891 -0.6563
10907WAT     H145433   0.381   5.364   6.137  2.1744 -0.7841 -0.3273
10907WAT     H245434   0.377   5.329   5.990  2.7576 -1.5649 -0.1633
10907WAT    EPW45435   0.396   5.385   6.054  0.3118 -0.1707 -0.5479
10908WAT      O45436   7.929   6.761   6.460 -0.3735 -0.0281  0.4819
10908WAT     H145437   7.861   6.697   6.483  0.6710 -1.6846 -0.8363
10908WAT     H245438   8.002   6.741   6.519  0.1124 -0.3420 -0.2143
10908WAT    EPW45439   7.930   6.750   6.471 -0.1717 -0.2880  0.2160
10909WAT      O45440   8.309   9.119   2.635  0.1463  0.0164  0.8593
10909WAT     H145441   8.246   9.105   2.706 -2.6392  3.0782 -0.7471
10909WAT     H245442   8.357   9.197   2.662  1.1619 -0.5127  0.6368
10909WAT    EPW45443   8.307   9.127   2.648 -0.0873  0.3510  0.6181
10910WAT      O45444  10.304   5.668   5.800  0.5793  0.8609 -0.1859
10910WAT     H145445  10.266   5.751   5.770  0.7546  1.5756  1.4678
10910WAT     H245446  10.278   5.604   5.733 -0.7400  1.9603 -0.7743
10910WAT    EPW45447  10.296   5.671   5.787  0.4292  1.1001 -0.0455
10911WAT      O45448   6.013   5.979   5.756 -0.3010 -0.0327 -0.3852
10911WAT     H145449   5.957   5.945   5.686  1.2696 -0.0920 -1.6798
10911WAT     H245450   6.103   5.965   5.724  0.4588  0.3981  1.4362
10911WAT    EPW45451   6.018   5.973   5.743  0.0062  0.0160 -0.3159
10912WAT      O45452  10.512   5.496   6.205  0.7827  0.5351 -0.5467
10912WAT     H145453  10.598   5.520   6.239 -0.4560  1.7124  2.0305
10912WAT     H245454  10.499   5.406   6.236  0.7449  0.6570 -0.2065
10912WAT    EPW45455  10.522   5.487   6.213  0.6137  0.7064 -0.1621
10913WAT      O45456   0.591   4.148   6.201 -0.6851  0.1515  0.6261
10913WAT     H145457   0.514   4.195   6.233  0.6891  2.4273  0.8103
10913WAT     H245458   0.657   4.161   6.269  0.7199  0.7036 -0.7822
10913WAT    EPW45459   0.590   4.155   6.215 -0.3185  0.5243  0.4647
10914WAT      O45460   1.452   6.688   5.611 -0.6272 -1.0373  0.1227
10914WAT     H145461   1.370   6.645   5.635  0.6191 -2.7850  1.4920
10914WAT     H245462   1.432   6.782   5.614 -2.8953 -1.4344 -0.8920
10914WAT    EPW45463   1.439   6.695   5.615 -0.7619 -1.3201  0.1695
10915WAT      O45464  10.521   6.435   3.047  0.6350 -0.3304  0.0584
10915WAT     H145465  10.548   6.367   2.985  1.0917  0.0664 -0.1879
10915WAT     H245466  10.594   6.497   3.047  0.1676  0.2278  0.1800
10915WAT    EPW45467  10.534   6.434   3.039  0.6332 -0.2046  0.0417
10916WAT      O45468   7.193   3.817   6.060 -0.0134 -0.3046  0.4966
10916WAT     H145469   7.147   3.888   6.104  0.6375  1.1243 -0.9946
10916WAT     H245470   7.142   3.739   6.079 -1.7604  0.8519  0.7488
10916WAT    EPW45471   7.180   3.816   6.068 -0.1581  0.0364  0.3328
10917WAT      O45472   0.639   5.189   8.131  0.2447 -0.5413  0.3091
10917WAT     H145473   0.655   5.099   8.102  2.4636 -0.6465  1.6432
10917WAT     H245474   0.720   5.235   8.111 -0.6388  1.0470  0.1997
10917WAT    EPW45475   0.652   5.183   8.124  0.4208 -0.3459  0.4706
10918WAT      O45476   1.029  10.034   5.975 -0.7330 -0.1392 -0.1907
10918WAT     H145477   0.938  10.018   5.999 -0.2713 -0.6223  1.3421
10918WAT     H245478   1.075  10.044   6.058  0.2349  2.3933 -0.9207
10918WAT    EPW45479   1.023  10.034   5.989 -0.5444  0.1311 -0.0849
10919WAT      O45480   8.986   7.858   4.647 -0.7094 -0.0498 -0.1340
10919WAT     H145481   8.910   7.800   4.654 -1.6936  1.2576  0.5999
10919WAT     H245482   8.979   7.915   4.724  0.5656  0.6229 -0.4933
10919WAT    EPW45483   8.975   7.858   4.658 -0.6709  0.2115 -0.0844
10920WAT      O45484   7.890   8.796   6.915  0.9251 -0.1658 -0.2455
10920WAT     H145485   7.925   8.707   6.920 -1.5346 -1.3832 -2.3329
10920WAT     H245486   7.906   8.822   6.825  2.4643  1.9786  0.5814
10920WAT    EPW45487   7.896   8.787   6.904  0.8039 -0.0434 -0.4115
10921WAT      O45488   9.542   9.010   4.999  0.4648  0.0356 -0.7012
10921WAT     H145489   9.528   9.084   4.940 -0.4076  0.8995  0.5357
10921WAT     H245490   9.630   9.023   5.034  0.0839  0.8692 -0.0105
10921WAT    EPW45491   9.552   9.022   4.996  0.2990  0.2594 -0.4470
10922WAT      O45492   8.454   9.195   5.753  0.4680  1.0370  0.8903
10922WAT     H145493   8.533   9.221   5.706  0.1249  0.4493 -0.0381
10922WAT     H245494   8.434   9.107   5.719 -1.6603  1.9294 -0.3118
10922WAT    EPW45495   8.462   9.187   5.742  0.1426  1.0772  0.6094
10923WAT      O45496   3.427   9.004   3.682 -0.0416 -0.0744 -0.1108
10923WAT     H145497   3.371   9.062   3.630 -1.6114 -1.7646 -0.4130
10923WAT     H245498   3.367   8.958   3.741  1.1283 -1.3442  0.1558
10923WAT    EPW45499   3.412   9.005   3.683 -0.0942 -0.4649 -0.1156
10924WAT      O45500   8.960   7.137   7.046 -0.3682 -0.1592  0.2531
10924WAT     H145501   8.965   7.097   6.959 -1.6636 -2.8065  1.2847
10924WAT     H245502   9.031   7.096   7.095 -2.0426 -1.7806  1.4897
10924WAT    EPW45503   8.970   7.126   7.041 -0.7601 -0.7224  0.5519
10925WAT      O45504  10.729   6.541   7.313  0.2874  0.3667  0.1176
10925WAT     H145505  10.782   6.468   7.281 -1.1446 -0.0215 -1.4924
10925WAT     H245506  10.741   6.538   7.408  3.3116  0.4791 -0.1433
10925WAT    EPW45507  10.738   6.531   7.321  0.4973  0.3302 -0.1292
10926WAT      O45508   7.013   5.597   5.242  0.5130 -0.2420  0.2424
10926WAT     H145509   7.095   5.554   5.214 -0.1740 -1.4386 -0.0070
10926WAT     H245510   6.998   5.563   5.330  0.2569 -0.0628  0.2665
10926WAT    EPW45511   7.022   5.587   5.250  0.3886 -0.3760  0.2124
10927WAT      O45512   8.484   7.293   4.028  0.4286 -0.6469  0.0577
10927WAT     H145513   8.521   7.345   3.957  0.3586 -0.4976  0.1319
10927WAT     H245514   8.479   7.204   3.992 -2.1203 -0.1442 -1.1318
10927WAT    EPW45515   8.488   7.288   4.014  0.0830 -0.5610 -0.0892
10928WAT      O45516   8.108   5.411   5.074  0.2351 -0.1931  0.2779
10928WAT     H145517   8.018   5.389   5.047  0.8499 -0.1527 -2.0584
10928WAT     H245518   8.163   5.353   5.022  1.6185  1.2604  0.0416
10928WAT    EPW45519   8.103   5.401   5.063  0.4983  0.0038 -0.0615
10929WAT      O45520   9.097   8.599   2.938  0.2101 -0.0308  0.1204
10929WAT     H145521   9.188   8.593   2.911 -0.4318 -0.6818 -2.1238
10929WAT     H245522   9.093   8.551   3.021  2.2096  1.5943  1.2394
10929WAT    EPW45523   9.108   8.592   2.945  0.3891  0.0973 -0.0279
10930WAT      O45524  10.812   8.605   5.845 -0.0809  0.1523  0.2522
10930WAT     H145525  10.874   8.676   5.825  0.8943 -0.7257  0.0629
10930WAT     H245526  10.751   8.605   5.772 -0.3805  1.1011  0.4885
10930WAT    EPW45527  10.812   8.614   5.833  0.0081  0.1616  0.2584
10931WAT      O45528   9.114   7.759   5.283 -0.5088 -0.3367  0.0931
10931WAT     H145529   9.099   7.808   5.202  0.0799 -0.6679 -0.2237
10931WAT     H245530   9.141   7.825   5.346 -3.3780  0.3377  0.7617
10931WAT    EPW45531   9.116   7.774   5.280 -0.8097 -0.2913  0.1395
10932WAT      O45532   0.925   7.441   5.936  0.0050 -0.2846  0.2581
10932WAT     H145533   0.909   7.348   5.950  2.3143 -0.3429  4.0741
10932WAT     H245534   0.840   7.483   5.947 -0.7523 -1.7934  0.3246
10932WAT    EPW45535   0.912   7.434   5.939  0.2097 -0.4911  0.7703
10933WAT      O45536  10.460   7.980   2.711 -0.0900  1.0962  0.1568
10933WAT     H145537  10.385   7.963   2.769 -0.7519  2.3900 -0.2942
10933WAT     H245538  10.499   8.060   2.745  0.4906  0.9837 -0.2307
10933WAT    EPW45539  10.455   7.988   2.723 -0.1011  1.2519  0.0464
10934WAT      O45540  10.784   7.021   3.989  0.9832 -0.1101 -0.3752
10934WAT     H145541  10.795   7.007   3.895  0.8274  1.5527 -0.6676
10934WAT     H245542  10.763   7.114   3.998 -0.8468 -0.6109  1.1697
10934WAT    EPW45543  10.783   7.031   3.978  0.7215  0.0432 -0.2102
10935WAT      O45544  10.147   8.960   6.790  0.3201 -0.2021  0.1193
10935WAT     H145545  10.065   9.002   6.815 -0.8585 -1.9193 -0.6511
10935WAT     H245546  10.160   8.984   6.698 -0.1154 -1.0959 -0.1879
10935WAT    EPW45547  10.138   8.969   6.781  0.1068 -0.5465 -0.0231
10936WAT      O45548  10.527   6.195   0.342 -0.4833  0.2850  0.0806
10936WAT     H145549  10.602   6.250   0.320  0.4793 -1.1198 -0.2711
10936WAT     H245550  10.537   6.117   0.286 -2.7586  0.4991 -0.7475
10936WAT    EPW45551  10.538   6.192   0.331 -0.6566  0.1280 -0.0750
10937WAT      O45552   0.902   8.483   6.059  0.0611 -0.1396 -0.0349
10937WAT     H145553   0.908   8.561   6.005 -1.3095 -0.3029 -0.4523
10937WAT     H245554   0.870   8.514   6.144  0.1372 -0.1617  0.0024
10937WAT    EPW45555   0.899   8.497   6.063 -0.1096 -0.1640 -0.0849
10938WAT      O45556   8.182   0.329   7.041  0.2129  0.3428 -0.5026
10938WAT     H145557   8.219   0.412   7.072  1.1236  0.3720 -1.6362
10938WAT     H245558   8.110   0.356   6.984 -1.7321  0.2869  1.7414
10938WAT    EPW45559   8.177   0.344   7.038  0.0758  0.3393 -0.3560
10939WAT      O45560   9.482   6.598   4.257 -0.6441 -0.0433  0.1050
10939WAT     H145561   9.505   6.674   4.310 -1.9842  1.3707 -1.2493
10939WAT     H245562   9.431   6.542   4.316  2.0073 -0.9403  1.7048
10939WAT    EPW45563   9.478   6.600   4.272 -0.4711  0.0248  0.1371
10940WAT      O45564   7.885   5.526   5.284  0.1779  0.0663  0.2930
10940WAT     H145565   7.791   5.538   5.266 -0.0788 -0.3059  1.2842
10940WAT     H245566   7.927   5.604   5.246 -0.6404  0.6928  0.6372
10940WAT    EPW45567   7.878   5.538   5.277  0.0360  0.0999  0.4692
10941WAT      O45568  10.962   8.829   5.780  0.6229 -0.1995 -0.3416
10941WAT     H145569  10.904   8.878   5.722  0.0684  1.2679  1.3619
10941WAT     H245570  11.041   8.814   5.728 -0.0649  0.5604 -1.6511
10941WAT    EPW45571  10.965   8.834   5.766  0.4592  0.0939 -0.2899
10942WAT      O45572   2.420   1.840   3.261 -0.4832  0.1621  0.0399
10942WAT     H145573   2.480   1.904   3.299 -0.7247  0.2292  0.3120
10942WAT     H245574   2.384   1.793   3.336 -1.6929  0.9444 -0.0158
10942WAT    EPW45575   2.423   1.842   3.276 -0.6746  0.2741  0.0684
10943WAT      O45576  10.754   7.736   4.087 -0.3195  0.1220 -0.5083
10943WAT     H145577  10.805   7.730   4.167 -1.5534 -3.4186  0.2033
10943WAT     H245578  10.805   7.687   4.022 -1.2243 -0.5854 -0.7055
10943WAT    EPW45579  10.768   7.729   4.089 -0.6013 -0.4382 -0.4404
10944WAT      O45580   8.861   6.150   5.945 -0.4263 -0.7737 -0.0971
10944WAT     H145581   8.781   6.152   5.893  0.0459 -0.7995 -0.8351
10944WAT     H245582   8.894   6.060   5.935 -1.0531 -1.1998  1.3763
10944WAT    EPW45583   8.855   6.138   5.937 -0.4468 -0.8335  0.0002
10945WAT      O45584  10.734   8.731   8.593  0.5179 -0.8146 -0.4537
10945WAT     H145585  10.829   8.728   8.609  0.7446 -1.6317 -1.7493
10945WAT     H245586  10.716   8.651   8.543 -1.1215 -1.4119  0.9901
10945WAT    EPW45587  10.744   8.720   8.588  0.3319 -1.0009 -0.4339
10946WAT      O45588   9.657   6.728   6.512 -1.1692  0.5297  0.3799
10946WAT     H145589   9.599   6.654   6.528  0.1869 -0.2813  1.8188
10946WAT     H245590   9.722   6.696   6.450 -0.1186  0.2043  1.5990
10946WAT    EPW45591   9.658   6.714   6.506 -0.8521  0.3798  0.7303
10947WAT      O45592   9.641   6.094   2.904 -0.2217  0.2064 -0.2593
10947WAT     H145593   9.578   6.164   2.925 -1.9522 -0.2281 -3.3089
10947WAT     H245594   9.623   6.025   2.968 -0.4333  1.4327  1.0511
10947WAT    EPW45595   9.630   6.094   2.915 -0.4778  0.3109 -0.4886
10948WAT      O45596   9.362   8.619   4.457  0.3597 -0.4866 -0.1179
10948WAT     H145597   9.456   8.614   4.437  0.6608 -0.7245  1.2278
10948WAT     H245598   9.326   8.536   4.425  0.7899 -0.8017  0.2042
10948WAT    EPW45599   9.370   8.607   4.450  0.4563 -0.5593  0.1020
10949WAT      O45600   8.845   8.099   5.950  0.4380  0.1794  0.0676
10949WAT     H145601   8.865   8.181   5.905  1.0047  0.4646  0.8374
10949WAT     H245602   8.779   8.122   6.016  1.0183  0.1276  0.6695
10949WAT    EPW45603   8.839   8.113   5.952  0.5889  0.2098  0.2487
10950WAT      O45604  10.028   1.523   8.293 -0.1156  0.0152 -0.4949
10950WAT     H145605  10.086   1.491   8.362  0.9732 -0.6356 -1.6554
10950WAT     H245606   9.976   1.592   8.334  1.1315  0.2573  0.7270
10950WAT    EPW45607  10.029   1.528   8.307  0.1922 -0.0387 -0.4869
10951WAT      O45608   8.838   7.512   6.613  0.1031 -0.0445 -0.3419
10951WAT     H145609   8.875   7.595   6.644 -0.1169  0.0537 -0.3394
10951WAT     H245610   8.806   7.469   6.693  0.1752 -0.1116 -0.3487
10951WAT    EPW45611   8.839   7.517   6.628  0.0834 -0.0403 -0.3426
10952WAT      O45612  10.167   6.562   1.671 -0.0154  0.9548  0.9362
10952WAT     H145613  10.159   6.468   1.652 -0.6451  0.9175  1.3667
10952WAT     H245614  10.221   6.566   1.750 -1.4967  0.8399  2.0008
10952WAT    EPW45615  10.173   6.550   1.679 -0.2947  0.9348  1.1334
10953WAT      O45616   0.735   3.727   3.782  0.7276 -0.2197 -0.1968
10953WAT     H145617   0.726   3.815   3.820  1.2241 -0.2606  0.0264
10953WAT     H245618   0.646   3.692   3.782  0.6926 -0.1868  0.8609
10953WAT    EPW45619   0.722   3.734   3.787  0.7885 -0.2208 -0.0279
10954WAT      O45620  10.309   6.045   7.326 -0.1987  0.0284 -0.2527
10954WAT     H145621  10.329   5.955   7.298  1.7503  0.5977 -0.8742
10954WAT     H245622  10.229   6.067   7.279  1.1112 -0.2654 -2.7748
10954WAT    EPW45623  10.302   6.036   7.316  0.2308  0.0644 -0.6673
10955WAT      O45624   8.309   6.827   4.665  0.1535 -0.1184 -0.2131
10955WAT     H145625   8.237   6.800   4.609  0.2700  0.2243 -0.5336
10955WAT     H245626   8.338   6.911   4.629  0.0359  0.2569  0.5430
10955WAT    EPW45627   8.304   6.834   4.653  0.1535 -0.0236 -0.1557
10956WAT      O45628   7.623   7.691   3.645 -0.2661  0.1919 -0.1211
10956WAT     H145629   7.654   7.635   3.716  1.1074  1.8144  0.5951
10956WAT     H245630   7.566   7.755   3.687 -1.7658 -0.5413 -0.9275
10956WAT    EPW45631   7.619   7.692   3.660 -0.2828  0.3092 -0.1330
10957WAT      O45632  10.246   7.543   3.117  0.4109  0.1126 -0.4014
10957WAT     H145633  10.284   7.554   3.204  0.1154 -1.4975 -0.0272
10957WAT     H245634  10.292   7.468   3.080 -1.3401 -0.9748 -0.5109
10957WAT    EPW45635  10.257   7.534   3.123  0.1411 -0.2434 -0.3664
10958WAT      O45636   9.550   3.743   3.905 -0.5746  0.1358  0.3664
10958WAT     H145637   9.608   3.753   3.829 -1.4187  2.6531 -0.0526
10958WAT     H245638   9.462   3.742   3.867 -1.0240  1.7714  1.2657
10958WAT    EPW45639   9.546   3.744   3.890 -0.7448  0.6837  0.4297
10959WAT      O45640   9.568   3.252   5.352 -0.5468 -0.2015 -0.0506
10959WAT     H145641   9.605   3.189   5.414  1.6701 -0.4799 -1.5134
10959WAT     H245642   9.510   3.200   5.297 -0.1538 -0.6148 -0.0854
10959WAT    EPW45643   9.565   3.237   5.353 -0.2022 -0.2928 -0.2482
10960WAT      O45644   8.986   6.065   3.532 -0.5392 -0.3355  0.2645
10960WAT     H145645   8.896   6.037   3.522  0.3068 -2.9522 -0.7743
10960WAT     H245646   9.019   6.077   3.443  0.5060 -0.8208  0.5585
10960WAT    EPW45647   8.979   6.063   3.519 -0.2899 -0.7446  0.1661
10961WAT      O45648   8.130   4.549   6.140  0.7444 -0.6384 -0.4859
10961WAT     H145649   8.225   4.556   6.132  1.0760  0.0329  2.6513
10961WAT     H245650   8.097   4.626   6.093  2.0500  1.1984  1.4165
10961WAT    EPW45651   8.138   4.560   6.133  0.9599 -0.3076  0.1788
10962WAT      O45652   1.424   5.167   5.937  0.2693  0.0236  0.5737
10962WAT     H145653   1.467   5.082   5.927 -0.4238 -0.3408  0.6380
10962WAT     H245654   1.470   5.224   5.876  0.4042 -0.5296  0.1506
10962WAT    EPW45655   1.436   5.163   5.927  0.1957 -0.0975  0.5267
10963WAT      O45656   7.550   6.427   3.792 -0.2312  0.3990  0.2515
10963WAT     H145657   7.530   6.355   3.852 -3.5203  0.9123 -0.0547
10963WAT     H245658   7.556   6.386   3.706 -1.0977  0.3406  0.2124
10963WAT    EPW45659   7.548   6.412   3.789 -0.7794  0.4590  0.2059
10964WAT      O45660   9.873   7.917   2.939 -0.4037  0.3098  0.1445
10964WAT     H145661   9.915   8.000   2.918  0.2295 -0.0638 -0.0998
10964WAT     H245662   9.931   7.878   3.005 -0.5786 -0.0324  0.0956
10964WAT    EPW45663   9.886   7.923   2.945 -0.3433  0.2153  0.1057
10965WAT      O45664   8.882   6.349   3.052  0.2215  0.3320 -0.0372
10965WAT     H145665   8.845   6.392   3.130 -2.4323 -1.0224 -0.4134
10965WAT     H245666   8.860   6.407   2.980 -0.4835 -0.0711 -0.1590
10965WAT    EPW45667   8.874   6.362   3.053 -0.2217  0.1001 -0.1030
10966WAT      O45668   0.665   6.067   1.106  0.5762 -0.5374  0.1667
10966WAT     H145669   0.753   6.062   1.069  0.0373  1.3895 -1.4883
10966WAT     H245670   0.607   6.080   1.031 -1.0979 -1.1876  1.2737
10966WAT    EPW45671   0.669   6.068   1.091  0.2844 -0.3688  0.0945
10967WAT      O45672   8.668   7.922   2.256  0.2395 -0.0616 -0.0549
10967WAT     H145673   8.699   7.900   2.343 -1.7624  0.6959  0.9142
10967WAT     H245674   8.687   8.015   2.247 -1.5693  0.3968  0.5273
10967WAT    EPW45675   8.674   7.931   2.266 -0.2632  0.0989  0.1497
10968WAT      O45676   9.345   6.092   3.378  0.6217  0.6888 -0.6571
10968WAT     H145677   9.441   6.097   3.371  0.6823  0.2582 -0.2090
10968WAT     H245678   9.323   6.158   3.443  0.5183  1.4278 -1.4269
10968WAT    EPW45679   9.355   6.101   3.386  0.6156  0.7296 -0.6994
10969WAT      O45680   1.003   7.935   5.521  0.3735  0.5000 -0.2054
10969WAT     H145681   1.049   7.877   5.582 -1.8486  0.3004  1.4143
10969WAT     H245682   0.960   8.000   5.577 -2.0223  0.1304 -1.4511
10969WAT    EPW45683   1.003   7.936   5.536 -0.2356  0.4249 -0.1562
10970WAT      O45684   5.775   7.059   5.192 -0.7293 -0.1807 -0.7617
10970WAT     H145685   5.797   6.973   5.155  0.7830 -0.1627  0.0232
10970WAT     H245686   5.749   7.041   5.282  1.1907  0.3140 -0.0774
10970WAT    EPW45687   5.774   7.045   5.199 -0.2768 -0.1130 -0.5679
10971WAT      O45688   0.256   6.285   7.749  0.1389  0.8461  0.0624
10971WAT     H145689   0.277   6.218   7.814  0.1868  0.8556  0.0571
10971WAT     H245690   0.300   6.255   7.669  0.7256  1.2250  0.2323
10971WAT    EPW45691   0.265   6.272   7.747  0.2226  0.8976  0.0842
10972WAT      O45692   1.970   5.625   5.826  0.3629  0.2055  0.2954
10972WAT     H145693   1.909   5.674   5.881 -0.4087 -0.7575  0.3233
10972WAT     H245694   1.917   5.592   5.754  0.2599 -2.6298  1.5279
10972WAT    EPW45695   1.955   5.627   5.824  0.2476 -0.2954  0.4616
10973WAT      O45696   1.105  10.067   7.059 -0.3383 -1.6235  0.6428
10973WAT     H145697   1.156   9.995   7.095 -0.6432 -1.8574  0.6096
10973WAT     H245698   1.021  10.028   7.035 -0.8373 -1.0790  1.4513
10973WAT    EPW45699   1.100  10.053   7.060 -0.4443 -1.5826  0.7451
10974WAT      O45700   9.067   3.202   1.434  0.4477  0.5003  0.0467
10974WAT     H145701   9.037   3.111   1.427  2.1077 -0.0783 -0.0403
10974WAT     H245702   9.132   3.211   1.365  0.8149  1.5366  0.5075
10974WAT    EPW45703   9.071   3.191   1.424  0.7153  0.5606  0.0959
10975WAT      O45704   8.894   5.415   4.704 -0.1433  0.6698  0.2255
10975WAT     H145705   8.967   5.438   4.761  2.8716 -1.1613 -2.5681
10975WAT     H245706   8.918   5.451   4.618 -1.5569 -1.5616 -1.2263
10975WAT    EPW45707   8.907   5.423   4.700  0.0677  0.1338 -0.3345
10976WAT      O45708   6.205   5.158   5.285  0.3176  0.0173 -0.1311
10976WAT     H145709   6.260   5.094   5.331 -0.6649 -1.8559 -1.4096
10976WAT     H245710   6.266   5.224   5.254  1.4674 -0.5790  0.7703
10976WAT    EPW45711   6.220   5.158   5.287  0.3397 -0.3085 -0.1810
10977WAT      O45712  10.275   7.596   4.923  0.4489 -0.2251 -0.0421
10977WAT     H145713  10.202   7.534   4.925 -0.2323  0.5723  0.8199
10977WAT     H245714  10.328   7.568   4.849 -0.4776 -1.1131 -0.4000
10977WAT    EPW45715  10.272   7.584   4.914  0.2370 -0.2370  0.0243
10978WAT      O45716   6.370   3.014   0.139  0.2815 -0.0024 -0.2090
10978WAT     H145717   6.461   3.027   0.166  0.2870 -1.2851  0.4283
10978WAT     H245718   6.319   3.067   0.201  0.5211 -0.1250  0.0948
10978WAT    EPW45719   6.376   3.023   0.150  0.3140 -0.1879 -0.0849
10979WAT      O45720  10.083   6.723   7.761 -0.5599 -0.2560 -0.0177
10979WAT     H145721  10.101   6.740   7.854 -2.2702 -0.5289  0.3875
10979WAT     H245722  10.127   6.640   7.743  0.2471  0.0735  0.3917
10979WAT    EPW45723  10.091   6.714   7.771 -0.6790 -0.2487  0.0899
10980WAT      O45724   0.601   5.268   2.140  0.3315  0.4815  0.3779
10980WAT     H145725   0.625   5.194   2.084  1.8255  1.3251 -0.1725
10980WAT     H245726   0.616   5.345   2.085 -1.7531  1.1987  0.7347
10980WAT    EPW45727   0.606   5.268   2.125  0.2536  0.6871  0.3524
10981WAT      O45728   1.553   6.686   5.345 -0.5127  0.5185  0.2893
10981WAT     H145729   1.546   6.780   5.328 -2.8405  0.2525 -0.5348
10981WAT     H245730   1.516   6.674   5.433 -1.6961  0.2091 -0.2363
10981WAT    EPW45731   1.547   6.697   5.355 -0.9758  0.4427  0.1113
10982WAT      O45732   8.799   8.220   7.529 -0.7540 -0.3230  0.7107
10982WAT     H145733   8.742   8.257   7.463 -0.5017 -1.7833 -0.3746
10982WAT     H245734   8.757   8.243   7.612  0.0857  3.5098  0.2767
10982WAT    EPW45735   8.786   8.228   7.531 -0.6099 -0.0100  0.5105
10983WAT      O45736   9.168   6.813   7.183  1.0663 -0.0268 -0.0819
10983WAT     H145737   9.086   6.794   7.138 -0.6610  2.4715  1.7706
10983WAT     H245738   9.161   6.766   7.266  0.4353  1.8528  1.0006
10983WAT    EPW45739   9.156   6.804   7.188  0.7558  0.5507  0.3052
10984WAT      O45740   0.642   8.468   5.870 -0.2043  0.4229  0.1579
10984WAT     H145741   0.679   8.513   5.794 -0.4916 -1.6185 -1.2838
10984WAT     H245742   0.717   8.422   5.909 -0.5820 -1.1387 -0.8696
10984WAT    EPW45743   0.657   8.467   5.865 -0.2921 -0.0520 -0.1676
10985WAT      O45744   7.640   7.590   2.192 -0.2102  0.2584 -0.3504
10985WAT     H145745   7.590   7.641   2.128 -1.4821  2.0878  1.9820
10985WAT     H245746   7.686   7.525   2.139 -0.4703  2.2311 -3.2269
10985WAT    EPW45747   7.640   7.588   2.176 -0.4122  0.7601 -0.4224
10986WAT      O45748  10.934   9.060   6.015  0.5867 -0.5387 -0.2559
10986WAT     H145749  10.987   9.132   5.982  3.0112 -1.8354  0.5178
10986WAT     H245750  10.927   9.000   5.941 -0.1723 -0.1696 -0.4821
10986WAT    EPW45751  10.940   9.061   6.001  0.8063 -0.6614 -0.1838
10987WAT      O45752   8.600   8.732   7.188  0.3977 -0.1621  0.3769
10987WAT     H145753   8.653   8.711   7.265 -0.9626  2.4253  2.1807
10987WAT     H245754   8.663   8.748   7.119  1.7901 -0.2867  1.5789
10987WAT    EPW45755   8.615   8.731   7.189  0.4020  0.1626  0.7732
10988WAT      O45756   9.367   8.918   6.068  0.2864 -0.2522 -0.1104
10988WAT     H145757   9.394   8.830   6.094 -0.0349 -0.0873  0.8173
10988WAT     H245758   9.415   8.976   6.127  0.1480  0.1704 -0.4114
10988WAT    EPW45759   9.377   8.914   6.080  0.2255 -0.1740 -0.0277
10989WAT      O45760  10.320   4.390   6.463 -0.7052  0.2580 -0.4341
10989WAT     H145761  10.337   4.327   6.533  0.3911 -0.2342 -1.0969
10989WAT     H245762  10.292   4.335   6.389 -1.7094  0.7532 -0.4390
10989WAT    EPW45763  10.319   4.374   6.462 -0.6933  0.2582 -0.5224
10990WAT      O45764   4.764   0.326   8.547  0.0136  0.0185 -0.6853
10990WAT     H145765   4.840   0.365   8.504  0.7828  0.3128  0.8312
10990WAT     H245766   4.701   0.398   8.555 -0.2386 -0.1067 -1.5346
10990WAT    EPW45767   4.766   0.341   8.543  0.0815  0.0408 -0.5975
10991WAT      O45768   9.262   9.050   4.325  1.1886 -0.3648 -0.0835
10991WAT     H145769   9.342   9.030   4.374  0.4341  0.7535  1.6902
10991WAT     H245770   9.195   9.058   4.392 -0.0054  0.7710 -1.3696
10991WAT    EPW45771   9.264   9.048   4.340  0.9317 -0.0672 -0.0193
10992WAT      O45772   9.037   6.715   6.566  0.0617 -0.2710  0.1004
10992WAT     H145773   9.116   6.690   6.517 -1.3054 -2.6794 -1.0288
10992WAT     H245774   8.986   6.767   6.504 -0.3500 -0.8393 -0.0429
10992WAT    EPW45775   9.041   6.719   6.551 -0.1731 -0.6638 -0.0672
10993WAT      O45776   8.804   5.340   3.917 -0.2533  0.5970 -0.0434
10993WAT     H145777   8.796   5.343   3.822  0.8758 -2.1688 -0.3331
10993WAT     H245778   8.872   5.274   3.933  0.7176  2.0903  2.6682
10993WAT    EPW45779   8.812   5.332   3.907  0.0238  0.4292  0.2759
10994WAT      O45780   0.524   7.912   2.032  0.3896  0.3347  0.0282
10994WAT     H145781   0.481   7.997   2.044 -0.7544 -0.3060  0.6511
10994WAT     H245782   0.476   7.871   1.960  0.3145 -0.1504  0.3442
10994WAT    EPW45783   0.512   7.918   2.024  0.2289  0.1860  0.1521
10995WAT      O45784   0.260   7.321   0.898 -0.2638 -0.1850 -0.0297
10995WAT     H145785   0.204   7.249   0.926  1.0322 -0.4949  2.0321
10995WAT     H245786   0.308   7.286   0.823  0.4752 -1.5837  1.0421
10995WAT    EPW45787   0.259   7.307   0.892  0.0046 -0.4106  0.3836
10996WAT      O45788   8.398   8.545   3.992 -0.6605  0.1892  0.2978
10996WAT     H145789   8.447   8.499   3.923 -1.7169 -2.9629  1.4550
10996WAT     H245790   8.311   8.505   3.990 -0.8092  0.1491  3.2560
10996WAT    EPW45791   8.393   8.534   3.982 -0.8187 -0.2317  0.8405
10997WAT      O45792   6.640   7.807   6.116  0.0323 -0.6337  0.8885
10997WAT     H145793   6.563   7.758   6.088  0.7323 -0.8600 -0.7758
10997WAT     H245794   6.621   7.833   6.206 -2.9575  1.2539 -0.1426
10997WAT    EPW45795   6.628   7.804   6.124 -0.2697 -0.4146  0.5326
10998WAT      O45796   9.453   9.671   3.252  0.0711 -0.0197 -0.2619
10998WAT     H145797   9.495   9.589   3.223 -1.6688 -0.6586 -1.1487
10998WAT     H245798   9.436   9.657   3.345  0.4496 -0.3766 -0.2416
10998WAT    EPW45799   9.456   9.658   3.261 -0.1087 -0.1507 -0.3763
10999WAT      O45800   7.225   8.382   3.674  0.1493  0.0094  0.3704
10999WAT     H145801   7.272   8.366   3.593  0.5637 -1.9699  0.9567
10999WAT     H245802   7.178   8.464   3.658  1.2038  0.3325 -1.3909
10999WAT    EPW45803   7.225   8.391   3.661  0.3431 -0.2089  0.2154
11000WAT      O45804   0.805   8.942   7.407 -1.2798 -0.0242 -0.3325
11000WAT     H145805   0.884   8.936   7.354 -2.0112 -1.6609 -1.3524
11000WAT     H245806   0.772   9.030   7.391  2.1005  2.1161  2.9323
11000WAT    EPW45807   0.811   8.952   7.398 -0.9304  0.0424 -0.0362
11001WAT      O45808   8.519   7.795   5.564  0.0702  0.1736 -0.2950
11001WAT     H145809   8.575   7.736   5.513 -1.5745 -0.5479 -1.3726
11001WAT     H245810   8.504   7.869   5.505  1.9328  1.6416  0.9661
11001WAT    EPW45811   8.525   7.797   5.549  0.0992  0.2723 -0.2708
11002WAT      O45812  10.446   8.864   1.592  0.0820 -1.2776 -0.1559
11002WAT     H145813  10.367   8.835   1.545 -1.6312  0.7740  1.2682
11002WAT     H245814  10.505   8.894   1.523 -0.4191 -2.7036 -1.2465
11002WAT    EPW45815  10.443   8.865   1.577 -0.2098 -1.1950 -0.1119
11003WAT      O45816  10.437   4.335   0.996  0.6193  0.8126 -0.9320
11003WAT     H145817  10.507   4.387   0.955 -1.3910  2.4500 -2.5843
11003WAT     H245818  10.370   4.329   0.928 -1.5685  0.8164  1.0958
11003WAT    EPW45819  10.437   4.341   0.981  0.0658  1.0290 -0.8825
11004WAT      O45820   1.489   5.189   4.334  0.3621  0.1176 -0.2301
11004WAT     H145821   1.415   5.194   4.394 -0.6577 -0.0916 -1.4426
11004WAT     H245822   1.544   5.264   4.357  1.0003 -1.0114  2.2193
11004WAT    EPW45823   1.487   5.200   4.345  0.3118 -0.0589 -0.0670
11005WAT      O45824   9.629   5.743   6.817  0.2345  0.0633  0.7302
11005WAT     H145825   9.544   5.718   6.780 -1.5506  1.1344  3.7092
11005WAT     H245826   9.660   5.664   6.861  1.2722 -0.5691 -1.0422
11005WAT    EPW45827   9.622   5.729   6.818  0.1364  0.1214  0.8895
11006WAT      O45828   8.364   9.899   7.021  0.1234 -0.0297 -0.3525
11006WAT     H145829   8.383   9.806   7.009 -3.4655 -0.9628  0.1761
11006WAT     H245830   8.442   9.943   6.988  1.7794 -3.1758 -1.0619
11006WAT    EPW45831   8.377   9.893   7.015 -0.1316 -0.5674 -0.3767
11007WAT      O45832   0.681   6.353   1.248 -1.1352 -0.0042 -0.2736
11007WAT     H145833   0.690   6.258   1.238 -0.6737 -0.1786  1.4415
11007WAT     H245834   0.605   6.376   1.195 -2.3880 -1.6336  0.7101
11007WAT    EPW45835   0.672   6.344   1.240 -1.2396 -0.2422  0.0823
11008WAT      O45836   7.840   8.226   7.331  0.3592  0.4181  0.2884
11008WAT     H145837   7.888   8.217   7.248  0.2333  2.0536  0.0085
11008WAT     H245838   7.752   8.252   7.304  0.0291 -0.0387  0.9111
11008WAT    EPW45839   7.834   8.228   7.316  0.2992  0.5736  0.3335
11009WAT      O45840  10.527   8.790   6.975 -0.0199  0.2553  0.0953
11009WAT     H145841  10.463   8.861   6.972  0.5324  0.7505 -0.3442
11009WAT     H245842  10.484   8.717   6.931 -1.4980 -0.4739  2.5748
11009WAT    EPW45843  10.513   8.790   6.968 -0.1421  0.2246  0.3643
11010WAT      O45844   9.166   9.264   7.437 -0.7418 -0.3993 -0.1362
11010WAT     H145845   9.197   9.354   7.439  0.9560 -0.8991 -1.4118
11010WAT     H245846   9.139   9.245   7.527  0.1100  0.9483  0.4267
11010WAT    EPW45847   9.166   9.273   7.449 -0.4048 -0.2875 -0.2306
11011WAT      O45848  10.349   0.789   7.495  0.1654  0.0624  0.0990
11011WAT     H145849  10.423   0.731   7.478 -1.9742 -2.2651 -2.2634
11011WAT     H245850  10.360   0.817   7.586  5.4289  2.3660 -0.8856
11011WAT    EPW45851  10.360   0.785   7.504  0.5770  0.0593 -0.3424
11012WAT      O45852   8.257   4.770   5.285  0.1071 -0.7765 -0.5392
11012WAT     H145853   8.247   4.818   5.368 -1.8946 -1.8818 -0.0848
11012WAT     H245854   8.172   4.731   5.269  0.7319 -1.4329 -2.6447
11012WAT    EPW45855   8.245   4.771   5.294 -0.0749 -1.0090 -0.7570
11013WAT      O45856   6.317   6.764   5.341  0.5481 -1.0112 -0.5542
11013WAT     H145857   6.307   6.843   5.395  3.2204 -0.7913 -0.2563
11013WAT     H245858   6.384   6.788   5.277 -1.1399 -1.9264 -2.7914
11013WAT    EPW45859   6.324   6.778   5.339  0.6783 -1.1032 -0.8097
11014WAT      O45860   1.057   7.612   6.457  0.0571 -0.0676  0.0644
11014WAT     H145861   0.969   7.580   6.479  0.3773  0.4976  2.4044
11014WAT     H245862   1.111   7.586   6.531  1.4586  1.3159 -0.4167
11014WAT    EPW45863   1.052   7.604   6.469  0.2841  0.1895  0.3095
11015WAT      O45864   9.540   8.316   7.410 -0.3193 -0.1852  0.0578
11015WAT     H145865   9.626   8.328   7.368 -0.5395 -0.5686 -0.5086
11015WAT     H245866   9.532   8.393   7.468  1.1485 -1.0032  1.4512
11015WAT    EPW45867   9.551   8.328   7.412 -0.1545 -0.3443  0.1669
11016WAT      O45868   9.403   7.264   7.431  0.6927  0.1520  0.3348
11016WAT     H145869   9.381   7.201   7.362  3.0737  0.7713 -1.0915
11016WAT     H245870   9.369   7.347   7.398  2.1576  0.5163 -0.3358
11016WAT    EPW45871   9.395   7.266   7.418  1.2007  0.2813  0.0582
11017WAT      O45872   0.061   6.023   3.564  0.0776  0.1200  0.2434
11017WAT     H145873   0.003   6.077   3.510  0.1366 -0.6567 -0.6251
11017WAT     H245874   0.146   6.030   3.521 -0.0457 -1.1363 -0.2663
11017WAT    EPW45875   0.064   6.031   3.551  0.0691 -0.1483  0.0616
11018WAT      O45876   2.118   6.077   4.673  0.0319  0.1947 -0.3699
11018WAT     H145877   2.065   6.007   4.711  1.0240 -0.7284 -0.6386
11018WAT     H245878   2.133   6.138   4.745  1.2111 -1.1301  0.5659
11018WAT    EPW45879   2.113   6.076   4.687  0.3183 -0.1018 -0.2820
11019WAT      O45880   7.325   8.068   4.014 -0.1299  0.5729  0.3766
11019WAT     H145881   7.330   7.982   4.056  1.4314  0.6507  0.3719
11019WAT     H245882   7.412   8.106   4.024 -0.1226  1.2189 -1.5811
11019WAT    EPW45883   7.337   8.061   4.021  0.0770  0.6690  0.1178
11020WAT      O45884   5.770   4.160   6.869 -0.3955  0.1637 -0.3234
11020WAT     H145885   5.746   4.251   6.852  1.8333  1.1920  1.3873
11020WAT     H245886   5.704   4.129   6.931 -1.6138  0.3301 -1.5060
11020WAT    EPW45887   5.758   4.168   6.875 -0.2623  0.3214 -0.2537
11021WAT      O45888  10.705   7.142   4.925 -0.1790 -0.0426 -0.1492
11021WAT     H145889  10.792   7.127   4.888  0.0247  2.7851 -1.0721
11021WAT     H245890  10.652   7.069   4.893  1.8901 -2.1101  0.8410
11021WAT    EPW45891  10.709   7.130   4.916  0.1206  0.0577 -0.1402
11022WAT      O45892   8.644   2.915   6.759  0.5337 -0.8731 -0.2172
11022WAT     H145893   8.632   3.009   6.745 -0.5430 -0.7239  1.4483
11022WAT     H245894   8.667   2.907   6.852 -0.0845 -2.3129 -0.1595
11022WAT    EPW45895   8.646   2.926   6.769  0.3099 -1.0433  0.0100
11023WAT      O45896   7.936   9.102   3.461 -0.1341  0.1788 -0.2435
11023WAT     H145897   7.880   9.163   3.413  0.9670  1.3511 -0.0834
11023WAT     H245898   7.999   9.158   3.507  3.6420 -1.0524 -3.3659
11023WAT    EPW45899   7.937   9.118   3.461  0.5093  0.1707 -0.6341
11024WAT      O45900   3.346  10.119   7.394 -0.2426 -0.5009 -0.4314
11024WAT     H145901   3.428  10.165   7.407 -0.3288 -0.4185 -0.1754
11024WAT     H245902   3.348  10.048   7.459 -0.9173  0.2412  0.4356
11024WAT    EPW45903   3.357  10.115   7.405 -0.3428 -0.3920 -0.2830
11025WAT      O45904   0.396   4.141   7.440 -0.6087 -0.2299  1.2871
11025WAT     H145905   0.306   4.161   7.417 -0.4618  0.6601  1.4402
11025WAT     H245906   0.409   4.050   7.412 -0.8531  0.3302 -0.8205
11025WAT    EPW45907   0.386   4.131   7.433 -0.6215 -0.0386  1.0293
11026WAT      O45908   9.580   7.229   8.176 -0.0845  0.2577 -0.2189
11026WAT     H145909   9.553   7.320   8.187 -1.0158 -0.1064  0.6617
11026WAT     H245910   9.540   7.183   8.249 -0.6311 -1.0622 -1.3007
11026WAT    EPW45911   9.571   7.235   8.187 -0.2794  0.0355 -0.2456
11027WAT      O45912   2.351   1.753   5.044  0.5515 -0.2653 -0.2315
11027WAT     H145913   2.320   1.663   5.050  0.2559 -0.2362 -1.1583
11027WAT     H245914   2.443   1.749   5.071  0.6181 -0.8924 -0.5290
11027WAT    EPW45915   2.359   1.741   5.048  0.5212 -0.3441 -0.3929
11028WAT      O45916   1.175   6.560   5.103  0.1581 -0.6910  0.1219
11028WAT     H145917   1.250   6.618   5.092 -0.4568  0.0806 -0.0546
11028WAT     H245918   1.107   6.596   5.046  0.0772 -2.1618 -0.7656
11028WAT    EPW45919   1.176   6.572   5.094  0.0663 -0.7832 -0.0184
11029WAT      O45920  10.126   6.191   6.186  0.1854 -0.4214  0.1470
11029WAT     H145921  10.126   6.151   6.273  1.0127 -1.4659 -0.2988
11029WAT     H245922  10.171   6.274   6.197  1.1504 -0.9802  0.5562
11029WAT    EPW45923  10.132   6.197   6.199  0.4215 -0.6330  0.1421
11030WAT      O45924  10.581   9.303   2.073 -0.0643 -0.6776 -0.7134
11030WAT     H145925  10.593   9.216   2.110 -0.6704 -0.5145 -0.1204
11030WAT     H245926  10.495   9.331   2.104 -1.4101 -1.2332 -3.6602
11030WAT    EPW45927  10.571   9.295   2.082 -0.3214 -0.7286 -1.0239
11031WAT      O45928   8.194   7.581   1.599 -0.1109 -0.0074 -0.7659
11031WAT     H145929   8.101   7.594   1.614  0.0245 -2.0385  3.1272
11031WAT     H245930   8.237   7.632   1.669  1.2956 -3.1686  0.8938
11031WAT    EPW45931   8.188   7.590   1.610  0.0930 -0.6924 -0.0336
11032WAT      O45932  10.327   8.998   4.602 -0.6128  0.5031  0.2161
11032WAT     H145933  10.404   9.049   4.628  0.2465 -1.3041  1.4906
11032WAT     H245934  10.360   8.938   4.535 -1.2375  0.5900 -0.1752
11032WAT    EPW45935  10.342   8.997   4.597 -0.5822  0.2761  0.3328
11033WAT      O45936   8.822   7.906   3.347 -0.3269 -0.5426 -0.3331
11033WAT     H145937   8.769   7.865   3.278  1.0908 -3.0956 -0.0023
11033WAT     H245938   8.870   7.975   3.301 -0.4710 -1.2551 -1.6057
11033WAT    EPW45939   8.821   7.910   3.332 -0.1588 -0.9732 -0.4574
11034WAT      O45940  10.791   6.380   6.571  0.7464 -0.3166  0.3073
11034WAT     H145941  10.717   6.368   6.631 -0.1699  1.1758 -0.4612
11034WAT     H245942  10.825   6.292   6.557 -1.1919 -1.1084  0.3194
11034WAT    EPW45943  10.786   6.367   6.577  0.3700 -0.2241  0.2077
11035WAT      O45944   1.227   5.104   6.107  0.3010 -0.1516  0.8508
11035WAT     H145945   1.299   5.121   6.046  1.5922  1.1306  2.6262
11035WAT     H245946   1.148   5.123   6.056  1.2509 -0.4497 -0.7986
11035WAT    EPW45947   1.226   5.109   6.092  0.5965 -0.0219  0.8671
11036WAT      O45948   0.156   6.074   1.950  0.2777  0.0024 -0.4131
11036WAT     H145949   0.086   6.118   1.902  1.6309  2.6047 -0.1835
11036WAT     H245950   0.162   6.121   2.033  1.9526 -0.4794 -0.2282
11036WAT    EPW45951   0.148   6.086   1.955  0.6771  0.2820 -0.3584
11037WAT      O45952   0.175   6.305   7.392  0.6650 -0.2160 -1.2514
11037WAT     H145953   0.176   6.218   7.350 -1.3123 -0.2876 -1.2542
11037WAT     H245954   0.264   6.337   7.381  1.0813 -1.6436 -2.5504
11037WAT    EPW45955   0.187   6.298   7.385  0.4591 -0.4139 -1.4234
11038WAT      O45956  10.965   6.715   0.800 -0.2801  0.1065  0.6125
11038WAT     H145957  10.944   6.800   0.838  0.9947  0.2549  1.0178
11038WAT     H245958  10.990   6.661   0.875  0.3424 -0.1932  0.1971
11038WAT    EPW45959  10.965   6.719   0.815 -0.0300  0.0865  0.6112
11039WAT      O45960   9.549   6.125   7.542  0.0807  0.0640  0.4449
11039WAT     H145961   9.474   6.137   7.484  1.2359 -2.8422 -1.9489
11039WAT     H245962   9.581   6.213   7.559 -1.2550  1.1526 -2.1351
11039WAT    EPW45963   9.543   6.138   7.537  0.0572 -0.1757 -0.2110
11040WAT      O45964   9.206   6.546   4.069  0.0073 -0.1266 -0.1962
11040WAT     H145965   9.150   6.536   4.145 -0.4596  1.1275 -0.3430
11040WAT     H245966   9.294   6.554   4.104 -0.0571 -0.7780  0.1232
11040WAT    EPW45967   9.210   6.546   4.083 -0.0625 -0.0474 -0.1736
11041WAT      O45968   7.869   8.274   2.711 -0.1142 -0.0516 -0.5267
11041WAT     H145969   7.931   8.312   2.773  0.9440 -0.9084 -1.0330
11041WAT     H245970   7.851   8.187   2.745 -0.3799 -0.1163 -0.8317
11041WAT    EPW45971   7.875   8.268   2.723 -0.0098 -0.1731 -0.6338
11042WAT      O45972   9.152   6.276   6.629  0.0926 -0.6347  0.3640
11042WAT     H145973   9.223   6.292   6.690  0.5861  1.3312 -0.6387
11042WAT     H245974   9.193   6.227   6.557  0.2015 -0.4076  0.2695
11042WAT    EPW45975   9.167   6.271   6.627  0.1726 -0.3455  0.2193
11043WAT      O45976  10.741   5.494   2.076  0.3668 -0.3166  0.3587
11043WAT     H145977  10.698   5.458   1.999 -0.8398 -0.2763  0.9920
11043WAT     H245978  10.831   5.512   2.047  0.6756 -2.6046 -0.3501
11043WAT    EPW45979  10.747   5.491   2.062  0.2480 -0.6132  0.3488
11044WAT      O45980   9.654   7.768   3.720 -0.0767  0.4609  0.0699
11044WAT     H145981   9.655   7.863   3.727  0.2137  0.4023  0.8794
11044WAT     H245982   9.631   7.737   3.807  2.7634 -0.2666  0.6859
11044WAT    EPW45983   9.651   7.776   3.732  0.3357  0.3574  0.2580
11045WAT      O45984   0.619   4.852   7.036  0.1090  0.3649 -0.0452
11045WAT     H145985   0.661   4.924   6.989  0.5980  0.3604  0.3784
11045WAT     H245986   0.677   4.834   7.110 -0.7905  0.5749  0.7506
11045WAT    EPW45987   0.632   4.859   7.040  0.0548  0.3922  0.1156
11046WAT      O45988   9.476   7.360   6.536 -0.1820  0.2264 -0.0767
11046WAT     H145989   9.547   7.323   6.588 -0.0410  0.2059 -0.2836
11046WAT     H245990   9.514   7.437   6.495 -0.5165  0.6776  0.4599
11046WAT    EPW45991   9.490   7.365   6.538 -0.2074  0.2830 -0.0331
11047WAT      O45992   9.889   6.349   7.177  0.5429 -0.2207  0.7195
11047WAT     H145993   9.881   6.317   7.087 -0.6277  0.2266  0.6586
11047WAT     H245994   9.800   6.350   7.211  0.9418 -0.1466  1.8111
11047WAT    EPW45995   9.877   6.345   7.170  0.4416 -0.1519  0.8554
11048WAT      O45996   0.791   5.908   5.305  0.1975  0.1347 -0.3478
11048WAT     H145997   0.819   5.818   5.324  0.6000  0.4506  0.6113
11048WAT     H245998   0.785   5.950   5.391 -1.8553  0.4985 -0.6168
11048WAT    EPW45999   0.793   5.902   5.319 -0.0201  0.2241 -0.2568
11049WAT      O46000   2.173   5.284   4.113  0.2029 -0.0565  0.4307
11049WAT     H146001   2.101   5.297   4.175  1.8576  0.3432  2.4169
11049WAT     H246002   2.203   5.194   4.129  1.4757  0.4726  1.2405
11049WAT    EPW46003   2.168   5.274   4.124  0.5890  0.0663  0.7994
11050WAT      O46004   0.930   7.347   6.618  0.4834  0.3690  0.0157
11050WAT     H146005   0.838   7.334   6.641  0.6243 -2.2931 -0.6154
11050WAT     H246006   0.978   7.316   6.694  0.8621  0.1090 -0.3250
11050WAT    EPW46007   0.924   7.341   6.631  0.5520 -0.0165 -0.1121
11051WAT      O46008   2.076   3.862   1.118  0.2644 -0.1053 -0.0313
11051WAT     H146009   2.103   3.933   1.060 -0.2074  0.3752  0.3349
11051WAT     H246010   1.982   3.876   1.131  0.7112  1.0992  2.6032
11051WAT    EPW46011   2.067   3.873   1.112  0.2612  0.1169  0.3645
11052WAT      O46012   2.679   6.450   5.551  0.6629  0.0893 -0.3553
11052WAT     H146013   2.600   6.464   5.604  1.0281  1.3866 -0.1231
11052WAT     H246014   2.751   6.455   5.614  0.9992 -0.0435 -0.7256
11052WAT    EPW46015   2.678   6.452   5.566  0.7554  0.2432 -0.3734
11053WAT      O46016   6.300   4.635   5.356 -0.7863 -0.2233 -0.0194
11053WAT     H146017   6.255   4.720   5.351  0.1057  0.2629  0.1026
11053WAT     H246018   6.251   4.587   5.423 -0.2904  0.8168  1.1200
11053WAT    EPW46019   6.287   4.640   5.364 -0.6034 -0.0217  0.1471
11054WAT      O46020   4.433   6.699   6.105 -0.8951  1.0752  0.0711
11054WAT     H146021   4.489   6.680   6.030 -2.8157  1.2416 -1.4928
11054WAT     H246022   4.344   6.696   6.070 -1.9081  0.7794  2.4403
11054WAT    EPW46023   4.429   6.696   6.091 -1.2817  1.0581  0.1774
11055WAT      O46024   2.213   7.755   4.293  0.7765 -0.0220  0.3488
11055WAT     H146025   2.240   7.843   4.266  0.7301  0.0329  0.4820
11055WAT     H246026   2.253   7.697   4.228  2.0009 -0.0172  1.0659
11055WAT    EPW46027   2.222   7.758   4.280  0.9319 -0.0145  0.4609
11056WAT      O46028   0.123   3.298   2.095 -0.5129 -0.4444 -0.2415
11056WAT     H146029   0.139   3.286   2.002  0.7856 -1.1385  0.0486
11056WAT     H246030   0.117   3.393   2.106  0.0621 -0.3158 -0.9305
11056WAT    EPW46031   0.125   3.309   2.084 -0.2658 -0.5189 -0.2942
11057WAT      O46032   4.808   9.608   3.527  0.7099 -0.0713  0.2619
11057WAT     H146033   4.827   9.701   3.539  2.0209 -0.0931 -1.3889
11057WAT     H246034   4.881   9.574   3.476  0.5984 -2.1854  1.3847
11057WAT    EPW46035   4.820   9.616   3.522  0.8681 -0.3524  0.1920
11058WAT      O46036   8.532   7.686   7.201  0.0416  0.3354 -0.6504
11058WAT     H146037   8.538   7.591   7.207 -0.4346  0.3625  0.6136
11058WAT     H246038   8.594   7.710   7.132  0.9055 -0.7964 -0.2986
11058WAT    EPW46039   8.541   7.677   7.193  0.0925  0.1895 -0.4375
11059WAT      O46040   9.486   5.356   3.328 -0.1809  0.2982  0.4077
11059WAT     H146041   9.578   5.331   3.332 -0.5690 -1.7110 -1.3539
11059WAT     H246042   9.443   5.302   3.395 -0.3233 -0.0346  0.0469
11059WAT    EPW46043   9.492   5.346   3.338 -0.2503 -0.0105  0.1276
11060WAT      O46044   4.316   8.884   8.572 -0.1074 -0.6768 -0.1238
11060WAT     H146045   4.403   8.845   8.582 -0.6415 -1.9630 -0.3506
11060WAT     H246046   4.262   8.839   8.637 -0.3058  1.1125  1.0149
11060WAT    EPW46047   4.321   8.873   8.582 -0.2043 -0.6108 -0.0033
11061WAT      O46048  10.041   8.582   5.893 -0.2057  0.0448 -0.2079
11061WAT     H146049   9.999   8.542   5.817  0.9600 -0.9659 -0.3496
11061WAT     H246050  10.114   8.524   5.914  0.8266  1.4722  0.3320
11061WAT    EPW46051  10.045   8.569   5.886  0.0849  0.1001 -0.1554
11062WAT      O46052   9.883   7.424   5.667 -0.3930  0.3635  0.2743
11062WAT     H146053   9.875   7.451   5.575 -0.8704 -0.4407  0.0649
11062WAT     H246054   9.977   7.415   5.681 -0.3460 -0.4430 -0.4402
11062WAT    EPW46055   9.894   7.426   5.657 -0.4497  0.1509  0.1523
11063WAT      O46056   0.246   9.147   6.548 -0.2647 -0.3924  0.1849
11063WAT     H146057   0.331   9.103   6.556  1.5728  3.0188  1.9964
11063WAT     H246058   0.227   9.177   6.637 -1.7340  1.6584 -0.7387
11063WAT    EPW46059   0.255   9.145   6.561 -0.2162  0.3285  0.3021
11064WAT      O46060   9.514   3.120   7.399  0.3177 -0.1117  0.5520
11064WAT     H146061   9.520   3.058   7.327 -1.4454 -1.4935  1.4958
11064WAT     H246062   9.443   3.179   7.374  1.4414  1.0625  0.0304
11064WAT    EPW46063   9.505   3.120   7.387  0.2337 -0.1391  0.6077
11065WAT      O46064  10.274   7.867   1.184 -0.2575 -0.8667  0.0153
11065WAT     H146065  10.348   7.855   1.243  1.9327 -0.4381 -2.4491
11065WAT     H246066  10.231   7.782   1.183 -0.5348 -0.8185  2.3349
11065WAT    EPW46067  10.278   7.854   1.192 -0.0052 -0.8037 -0.0038
11066WAT      O46068   2.423   3.271   0.460  0.8385  0.2215 -0.6049
11066WAT     H146069   2.478   3.296   0.387  2.8739 -0.5441  0.5716
11066WAT     H246070   2.437   3.340   0.525 -0.8692  0.8461 -0.8603
11066WAT    EPW46071   2.432   3.283   0.459  0.8817  0.2029 -0.4834
11067WAT      O46072  10.929   8.411   5.070 -0.0175  0.1563 -0.1755
11067WAT     H146073  10.961   8.498   5.097  1.1069 -0.1675 -0.4034
11067WAT     H246074  10.851   8.429   5.019  0.0354  1.0251  0.0347
11067WAT    EPW46075  10.923   8.425   5.067  0.1378  0.2284 -0.1774
11068WAT      O46076  10.797   5.816   3.651 -0.6070  0.9757 -0.4429
11068WAT     H146077  10.824   5.810   3.743 -2.9314 -0.9179  0.2221
11068WAT     H246078  10.874   5.791   3.601 -0.5548 -2.8091  1.2533
11068WAT    EPW46079  10.811   5.812   3.657 -0.9074  0.2267 -0.1314
11069WAT      O46080   0.855   7.106   2.588 -0.0337 -0.2366 -0.2212
11069WAT     H146081   0.774   7.156   2.573 -0.2635 -0.3961  0.4503
11069WAT     H246082   0.899   7.105   2.503 -1.2127 -0.9908 -0.8414
11069WAT    EPW46083   0.850   7.113   2.575 -0.2195 -0.3574 -0.2145
11070WAT      O46084   0.338   8.332   4.706  0.2122 -0.2448  0.8338
11070WAT     H146085   0.286   8.279   4.766  0.7194 -0.2877  1.2523
11070WAT     H246086   0.299   8.318   4.620  0.3333 -1.2945  0.9350
11070WAT    EPW46087   0.326   8.323   4.703  0.2951 -0.3891  0.9024
11071WAT      O46088  10.700   6.536   6.931 -0.2576 -0.0322  0.9345
11071WAT     H146089  10.793   6.545   6.912  0.3039 -1.8469  2.4888
11071WAT     H246090  10.659   6.613   6.891  1.9673  1.0880  0.6911
11071WAT    EPW46091  10.707   6.547   6.924  0.1101 -0.1237  1.1077
11072WAT      O46092   7.716   9.953   5.598  0.3613  0.9225 -0.1918
11072WAT     H146093   7.740   9.880   5.541  0.0579  1.9973 -1.7551
11072WAT     H246094   7.643   9.996   5.553 -1.5182  0.4257  2.2045
11072WAT    EPW46095   7.709   9.949   5.585  0.0732  0.9990 -0.0818
11073WAT      O46096   8.297   5.861   2.899 -0.3705 -0.1393 -0.9514
11073WAT     H146097   8.324   5.795   2.964 -0.2443  0.2408 -0.6171
11073WAT     H246098   8.207   5.882   2.923 -0.3279 -0.0072 -0.9090
11073WAT    EPW46099   8.289   5.855   2.911 -0.3490 -0.0718 -0.9017
11074WAT      O46100  10.698   8.029   2.417  0.0339 -0.1998  0.4680
11074WAT     H146101  10.632   8.099   2.412 -1.0794 -1.3037 -2.1886
11074WAT     H246102  10.654   7.958   2.462 -1.3611 -1.5334 -2.7067
11074WAT    EPW46103  10.684   8.029   2.422 -0.2971 -0.5212 -0.3010
11075WAT      O46104   2.269   7.326   2.831  0.4882  0.5684  0.0278
11075WAT     H146105   2.334   7.259   2.813 -0.4127  0.0584 -1.5992
11075WAT     H246106   2.306   7.406   2.795  0.0398  0.1767 -1.3617
11075WAT    EPW46107   2.282   7.328   2.824  0.3103  0.4494 -0.3699
11076WAT      O46108   0.056   4.184   4.157 -0.1204 -0.5521  0.1767
11076WAT     H146109   0.045   4.278   4.169 -1.0109 -0.6250 -0.0350
11076WAT     H246110   0.151   4.172   4.152 -0.0286  0.5341 -1.3317
11076WAT    EPW46111   0.067   4.194   4.158 -0.2257 -0.4184 -0.0501
11077WAT      O46112   1.921   9.568   7.840 -0.2909  0.1269  0.3943
11077WAT     H146113   1.962   9.544   7.757  1.0667  2.7889  0.1862
11077WAT     H246114   1.845   9.621   7.815 -1.8120 -1.6989  0.8698
11077WAT    EPW46115   1.916   9.572   7.826 -0.3124  0.2375  0.4294
11078WAT      O46116   1.943   7.464   2.486  0.6418  0.0549 -0.2097
11078WAT     H146117   1.913   7.402   2.419  2.1575  1.0965 -1.9468
11078WAT     H246118   1.877   7.533   2.486  0.3365 -0.2321 -0.1943
11078WAT    EPW46119   1.930   7.465   2.477  0.8014  0.1545 -0.4368
11079WAT      O46120   9.390   8.114   5.294 -0.3685 -0.6381 -0.4060
11079WAT     H146121   9.383   8.043   5.231 -0.9175 -0.8409 -0.1261
11079WAT     H246122   9.336   8.184   5.257  0.9010 -0.0139 -1.1346
11079WAT    EPW46123   9.382   8.114   5.281 -0.2737 -0.5827 -0.4652
11080WAT      O46124   9.295  10.172   4.902  0.1993 -0.1900  0.0126
11080WAT     H146125   9.276  10.266   4.902  2.1753  0.2598  0.1280
11080WAT     H246126   9.383  10.165   4.865  1.3153 -1.6868  2.6501
11080WAT    EPW46127   9.304  10.183   4.897  0.6070 -0.3281  0.3757
11081WAT      O46128   4.125   0.772   7.151  0.1073 -0.2407 -0.4476
11081WAT     H146129   4.119   0.824   7.071  1.8121 -0.8536 -1.0372
11081WAT     H246130   4.095   0.830   7.220  1.6786  1.4720 -1.1040
11081WAT    EPW46131   4.120   0.786   7.149  0.5393 -0.0956 -0.6123
11082WAT      O46132   0.158   6.452   8.575  0.1398  0.2959  0.4725
11082WAT     H146133   0.209   6.476   8.498  0.7052  1.4614  1.1798
11082WAT     H246134   0.162   6.529   8.632 -2.7175  0.5913  0.4205
11082WAT    EPW46135   0.166   6.465   8.573 -0.1625  0.4890  0.5593
11083WAT      O46136   0.661   8.740   6.048 -0.5553  0.2897  0.6155
11083WAT     H146137   0.620   8.807   5.992 -1.0331 -0.2741  0.2781
11083WAT     H246138   0.636   8.657   6.008 -1.0710 -0.1394  1.7840
11083WAT    EPW46139   0.652   8.738   6.035 -0.6863  0.1588  0.7255
11084WAT      O46140   8.071   8.364   6.693 -0.2174  0.1828  0.0604
11084WAT     H146141   8.154   8.363   6.741  2.3528  1.3305 -3.8336
11084WAT     H246142   8.025   8.286   6.722  2.8992 -1.3464  1.3629
11084WAT    EPW46143   8.076   8.354   6.703  0.5326  0.1321 -0.2816
11085WAT      O46144   0.351   7.553   4.846 -0.7454  0.3566 -0.3183
11085WAT     H146145   0.274   7.581   4.895  0.0045 -1.0689  1.8185
11085WAT     H246146   0.425   7.580   4.900  0.2518  0.9402 -1.9179
11085WAT    EPW46147   0.351   7.560   4.860 -0.5149  0.2456 -0.2472
11086WAT      O46148   9.229   6.461   3.778 -0.1152 -0.5171  0.2712
11086WAT     H146149   9.207   6.451   3.870  2.3262  1.4270  1.1945
11086WAT     H246150   9.188   6.543   3.751 -2.6221 -2.1067 -1.0998
11086WAT    EPW46151   9.221   6.470   3.786 -0.1240 -0.4702  0.2122
11087WAT      O46152   8.269   3.162   4.877 -0.2618  0.2135 -0.2844
11087WAT     H146153   8.235   3.080   4.841  1.3640 -0.5822 -0.1063
11087WAT     H246154   8.208   3.228   4.846 -1.8769 -1.1056 -0.0721
11087WAT    EPW46155   8.257   3.160   4.868 -0.2604 -0.0654 -0.2329
11088WAT      O46156   0.663   7.117   2.015  0.2902  0.9330 -0.3330
11088WAT     H146157   0.677   7.208   1.988  1.3500  0.9441  0.2207
11088WAT     H246158   0.576   7.095   1.981  0.4502  1.8191 -1.3586
11088WAT    EPW46159   0.653   7.126   2.007  0.4511  1.0514 -0.3952
11089WAT      O46160  10.202   7.941   3.579 -0.2371 -0.7299  0.0708
11089WAT     H146161  10.221   7.884   3.504 -1.3089 -2.4274  1.0383
11089WAT     H246162  10.278   7.930   3.637  0.8400  0.9786 -0.9119
11089WAT    EPW46163  10.215   7.932   3.577 -0.2360 -0.7281  0.0687
11090WAT      O46164   1.385   5.723   5.314  0.8276 -0.0471 -0.2322
11090WAT     H146165   1.400   5.774   5.235  2.2442  2.4233  1.4797
11090WAT     H246166   1.303   5.758   5.350  0.5161 -0.7335 -0.2388
11090WAT    EPW46167   1.376   5.734   5.308  0.9733  0.1881 -0.0074
11091WAT      O46168  10.486   6.624   6.332 -0.2425 -0.5380  0.0782
11091WAT     H146169  10.463   6.654   6.420  0.7100 -0.9439  0.4905
11091WAT     H246170  10.578   6.598   6.340  0.0449  0.0411 -1.2073
11091WAT    EPW46171  10.495   6.624   6.345 -0.0792 -0.5155 -0.0370
11092WAT      O46172   6.228   7.131   6.537 -0.7244 -0.6268 -0.0749
11092WAT     H146173   6.228   7.119   6.442  0.8014 -0.5145 -0.1179
11092WAT     H246174   6.318   7.156   6.557 -1.3076  0.5166  1.2600
11092WAT    EPW46175   6.240   7.133   6.527 -0.6001 -0.4613  0.0954
11093WAT      O46176   6.609   5.078   6.330  0.0478  0.1326  0.1094
11093WAT     H146177   6.671   5.013   6.297  0.5556 -0.2845  1.7731
11093WAT     H246178   6.654   5.162   6.321  0.4651 -0.0587  0.3608
11093WAT    EPW46179   6.623   5.080   6.325  0.1700  0.0520  0.3619
11094WAT      O46180   9.976   8.309   8.349 -0.1543  0.2653  0.1649
11094WAT     H146181   9.979   8.215   8.363 -1.1871 -0.2163 -2.4198
11094WAT     H246182   9.883   8.330   8.341  0.0362  1.5919  1.0086
11094WAT    EPW46183   9.964   8.299   8.350 -0.2651  0.3767 -0.0648
11095WAT      O46184  10.045   3.598   6.025 -1.0724  0.0378  0.0293
11095WAT     H146185  10.106   3.556   6.085  0.7576  1.9484 -0.3515
11095WAT     H246186   9.958   3.573   6.057 -0.1816  0.2896  2.9716
11095WAT    EPW46187  10.041   3.589   6.037 -0.7133  0.3231  0.3674
11096WAT      O46188   1.647   8.220   8.084  0.0035 -0.2636  0.1966
11096WAT     H146189   1.614   8.307   8.108 -1.8788 -0.4977 -1.3415
11096WAT     H246190   1.657   8.174   8.167 -2.1249  0.3619  0.8510
11096WAT    EPW46191   1.644   8.226   8.098 -0.5254 -0.2117  0.0806
11097WAT      O46192   4.822   7.026   4.627 -0.5256  0.3389  0.2550
11097WAT     H146193   4.743   6.993   4.584  0.0564 -3.6169  1.7970
11097WAT     H246194   4.892   7.008   4.565 -0.4438  0.9349  0.1674
11097WAT    EPW46195   4.821   7.019   4.613 -0.4380 -0.1042  0.4468
11098WAT      O46196   8.833   4.842   5.782  0.8594  0.3746  0.7097
11098WAT     H146197   8.897   4.833   5.711  0.7474  2.6901  0.2178
11098WAT     H246198   8.851   4.768   5.840  2.3002 -0.4532 -0.7037
11098WAT    EPW46199   8.844   4.831   5.781  1.0352  0.5710  0.4582
11099WAT      O46200  10.813   7.029   3.712  0.2376 -0.5805 -0.5754
11099WAT     H146201  10.836   6.936   3.717  0.0007 -0.6149 -0.0512
11099WAT     H246202  10.881   7.068   3.657  2.4375 -0.4337  1.9931
11099WAT    EPW46203  10.825   7.022   3.706  0.4973 -0.5658 -0.1675
11100WAT      O46204  10.922   9.425   6.592 -0.3146 -0.3859  0.3583
11100WAT     H146205  10.938   9.341   6.550  1.8624 -0.6578  1.5960
11100WAT     H246206  10.975   9.423   6.672  0.8163  2.6145 -0.1832
11100WAT    EPW46207  10.931   9.414   6.597  0.1221 -0.0262  0.4499
11101WAT      O46208  10.666   5.276   6.568 -0.7096 -0.0284 -0.3854
11101WAT     H146209  10.595   5.313   6.514 -0.2637  0.4767 -0.6376
11101WAT     H246210  10.677   5.339   6.639  1.8225  1.8103 -2.2135
11101WAT    EPW46211  10.658   5.290   6.570 -0.3166  0.2806 -0.6599
11102WAT      O46212   0.889   5.502   7.454 -0.3484 -0.3624  0.4614
11102WAT     H146213   0.937   5.452   7.521  0.0352 -0.2333  0.2822
11102WAT     H246214   0.957   5.547   7.404 -0.4802 -1.8900 -1.2068
11102WAT    EPW46215   0.905   5.501   7.457 -0.3152 -0.5469  0.2177
11103WAT      O46216   9.537   5.126   6.676  0.0370 -0.2868  0.3346
11103WAT     H146217   9.506   5.050   6.726  0.1203 -1.3059 -1.1152
11103WAT     H246218   9.457   5.163   6.637  0.2970 -1.4421 -1.3868
11103WAT    EPW46219   9.522   5.121   6.678  0.0820 -0.5734 -0.0837
11104WAT      O46220   0.578   8.286   6.261  0.8874  0.1888  0.0158
11104WAT     H146221   0.491   8.249   6.272  0.6859  0.4429 -0.6980
11104WAT     H246222   0.566   8.380   6.276  1.3751  0.0041  1.7092
11104WAT    EPW46223   0.565   8.294   6.264  0.9251  0.1979  0.1450
11105WAT      O46224   8.466   7.387   4.679 -0.2159  0.0515  0.2420
11105WAT     H146225   8.394   7.417   4.735 -1.0168  0.2017 -0.8254
11105WAT     H246226   8.471   7.453   4.610  2.7074  1.4933  1.6662
11105WAT    EPW46227   8.457   7.400   4.678  0.0639  0.2615  0.2890
11106WAT      O46228   8.914   7.320   8.898 -0.4051  0.1434  0.4185
11106WAT     H146229   8.848   7.356   8.840  0.3501 -1.9647 -1.9358
11106WAT     H246230   8.997   7.351   8.862  0.0473 -0.4151  0.9601
11106WAT    EPW46231   8.917   7.329   8.886 -0.2460 -0.2081  0.1798
11107WAT      O46232   2.223   6.573   5.309  0.5817  0.1567 -0.3996
11107WAT     H146233   2.205   6.598   5.219  0.1219 -1.5654 -0.8296
11107WAT     H246234   2.311   6.535   5.307  2.3801  3.7862  0.7179
11107WAT    EPW46235   2.232   6.571   5.297  0.7583  0.4079 -0.3088
11108WAT      O46236  10.869   8.184   3.611  0.1763 -0.2550 -0.0067
11108WAT     H146237  10.950   8.154   3.570  0.3516 -1.9819  1.4830
11108WAT     H246238  10.850   8.119   3.679 -2.3258  0.2270 -0.1186
11108WAT    EPW46239  10.877   8.172   3.614 -0.1307 -0.4191  0.1750
11109WAT      O46240   9.827   6.274   4.484 -0.2777 -0.2361  0.4685
11109WAT     H146241   9.788   6.270   4.397  0.3211  2.4669  0.0033
11109WAT     H246242   9.764   6.323   4.537  0.8975  1.2222  0.5863
11109WAT    EPW46243   9.814   6.280   4.480 -0.0434  0.3128  0.4225
11110WAT      O46244   6.600   5.458   5.543  0.5422 -0.2991  0.3583
11110WAT     H146245   6.513   5.491   5.565  0.1497 -0.8103 -0.4003
11110WAT     H246246   6.620   5.499   5.458  1.4544  0.5720  0.9714
11110WAT    EPW46247   6.592   5.468   5.534  0.6108 -0.2518  0.3390
11111WAT      O46248   1.275   6.060   7.513  0.2271  0.6270 -0.8530
11111WAT     H146249   1.340   6.068   7.583 -1.1646  3.4245  0.2688
11111WAT     H246250   1.320   6.089   7.434  0.6059  1.7632 -0.2412
11111WAT    EPW46251   1.290   6.065   7.512  0.0936  1.1461 -0.6247
11112WAT      O46252   2.223   4.778   5.910  0.1010 -0.1829  0.1725
11112WAT     H146253   2.246   4.837   5.838  0.2492 -1.5012 -0.9095
11112WAT     H246254   2.185   4.835   5.976 -0.5786  1.0227 -1.1835
11112WAT    EPW46255   2.221   4.793   5.909  0.0309 -0.1979 -0.1490
11113WAT      O46256   2.112   8.426   6.182  0.5756  0.1566 -0.0543
11113WAT     H146257   2.177   8.435   6.252 -0.5163 -0.6012  1.0833
11113WAT     H246258   2.074   8.339   6.195 -1.0067  0.7650 -0.3899
11113WAT    EPW46259   2.116   8.416   6.193  0.2230  0.1369  0.0513
11114WAT      O46260   2.673   8.576   0.689 -0.4217  0.3680  0.2340
11114WAT     H146261   2.732   8.506   0.718 -1.3923 -1.1312 -1.1631
11114WAT     H246262   2.585   8.539   0.702 -1.0415  2.1429  1.3195
11114WAT    EPW46263   2.669   8.562   0.694 -0.6315  0.4044  0.1929
11115WAT      O46264   8.363   8.803   5.023 -0.4648 -0.2821  0.5554
11115WAT     H146265   8.422   8.875   5.045 -0.6865  0.4149 -1.0274
11115WAT     H246266   8.275   8.842   5.026 -0.8568 -1.1724  2.3286
11115WAT    EPW46267   8.359   8.818   5.026 -0.5460 -0.3076  0.5805
11116WAT      O46268   2.169   4.896   6.431  0.6292  0.1821 -0.4719
11116WAT     H146269   2.147   4.897   6.524  1.5789  1.5564 -0.2287
11116WAT     H246270   2.261   4.924   6.428  1.9078 -3.5319 -1.5497
11116WAT    EPW46271   2.178   4.900   6.443  0.9230 -0.1264 -0.5820
11117WAT      O46272  10.279   7.958   1.703  0.4787 -0.0622  0.4227
11117WAT     H146273  10.348   7.988   1.643  0.6922  0.4226  0.8939
11117WAT     H246274  10.228   8.037   1.722 -0.7406 -0.5831 -0.5921
11117WAT    EPW46275  10.281   7.973   1.698  0.3462 -0.0672  0.3510
11118WAT      O46276   0.366   7.326   1.854 -0.6893 -0.2771  0.8978
11118WAT     H146277   0.442   7.336   1.797 -0.1820 -0.1157  1.5791
11118WAT     H246278   0.300   7.284   1.800 -0.3522  0.2104  0.0893
11118WAT    EPW46279   0.367   7.322   1.839 -0.5779 -0.1917  0.8810
11119WAT      O46280   6.976   0.673   0.010 -0.1300  0.3180 -0.2386
11119WAT     H146281   7.046   0.621  -0.028  1.8114  1.6244  1.3439
11119WAT     H246282   7.017   0.756   0.034 -1.5768  0.3057  2.8811
11119WAT    EPW46283   6.990   0.677   0.008 -0.0646  0.4887  0.3816
11120WAT      O46284   3.332   1.697   0.129 -0.3846 -0.2081 -0.0215
11120WAT     H146285   3.369   1.656   0.051  0.5312  0.6224 -0.0387
11120WAT     H246286   3.379   1.658   0.202  2.1393  2.2817 -0.1204
11120WAT    EPW46287   3.343   1.687   0.129  0.0690  0.2298 -0.0368
11121WAT      O46288   0.485   6.399   3.452 -0.4568 -0.0745  0.4107
11121WAT     H146289   0.429   6.411   3.375  1.2848  1.3928 -0.7142
11121WAT     H246290   0.426   6.364   3.519 -2.0548 -1.3558 -1.5442
11121WAT    EPW46291   0.470   6.396   3.450 -0.4378 -0.0501  0.0044
11122WAT      O46292   1.737   1.284   3.286  1.0164 -0.1363 -0.5842
11122WAT     H146293   1.657   1.285   3.338  0.2598  1.4363 -1.7062
11122WAT     H246294   1.744   1.194   3.254  1.9417 -1.4171  2.7457
11122WAT    EPW46295   1.727   1.272   3.289  1.0387 -0.0979 -0.2931
11123WAT      O46296   0.220   6.008   1.672 -0.0997  0.2401 -0.0991
11123WAT     H146297   0.223   6.049   1.758 -0.5645 -1.5452  0.8187
11123WAT     H246298   0.152   5.941   1.680  0.4913 -0.5790 -1.5684
11123WAT    EPW46299   0.212   6.004   1.684 -0.0831 -0.1035 -0.1718
11124WAT      O46300   1.438   9.650   5.361 -0.1932 -0.8813  0.9706
11124WAT     H146301   1.452   9.573   5.306 -2.1715  0.6494 -1.9403
11124WAT     H246302   1.526   9.679   5.385  0.8301 -1.5312 -1.6632
11124WAT    EPW46303   1.452   9.644   5.357 -0.3192 -0.7653  0.2394
11125WAT      O46304   0.738   5.434   2.787  0.0361  0.2061 -0.1210
11125WAT     H146305   0.704   5.491   2.855  0.2258 -0.5162  0.5957
11125WAT     H246306   0.765   5.494   2.717 -2.2601  0.8288 -0.5503
11125WAT    EPW46307   0.737   5.449   2.787 -0.2418  0.1926 -0.0831
11126WAT      O46308   6.634   5.969   5.469  0.4060  0.0174  0.4189
11126WAT     H146309   6.589   5.884   5.463  0.4352 -0.0595  1.2305
11126WAT     H246310   6.590   6.014   5.540  1.0197  0.3057  0.6193
11126WAT    EPW46311   6.622   5.963   5.477  0.4909  0.0448  0.5524
11127WAT      O46312  10.374   6.012   4.736 -0.1260  0.5645  0.6425
11127WAT     H146313  10.412   6.055   4.659 -0.1038  1.4745  1.1528
11127WAT     H246314  10.288   6.053   4.747 -1.4697 -1.6563 -0.6642
11127WAT    EPW46315  10.367   6.023   4.727 -0.3004  0.3917  0.5374
11128WAT      O46316   0.899   7.307   5.242 -0.3327 -0.2390 -0.0554
11128WAT     H146317   0.899   7.227   5.190  1.0223 -0.1493 -0.2201
11128WAT     H246318   0.965   7.291   5.310 -0.0720  0.7222 -0.0703
11128WAT    EPW46319   0.908   7.295   5.244 -0.1196 -0.1004 -0.0792
11129WAT      O46320   9.301   7.529   7.359 -0.3847  0.2010  0.2990
11129WAT     H146321   9.229   7.487   7.311 -0.2987  1.3847 -0.9210
11129WAT     H246322   9.261   7.605   7.401  0.0310  0.5353  0.0969
11129WAT    EPW46323   9.286   7.533   7.358 -0.3185  0.4013  0.1116
11130WAT      O46324   2.492   6.186   8.338  0.2074  0.8492  0.3612
11130WAT     H146325   2.556   6.243   8.296 -0.8896  3.1617  1.6517
11130WAT     H246326   2.453   6.137   8.266 -0.6315  3.6414 -1.2184
11130WAT    EPW46327   2.495   6.187   8.323 -0.0479  1.5225  0.3228
11131WAT      O46328   1.490   9.293   3.706 -0.4808 -0.2580 -0.3261
11131WAT     H146329   1.465   9.260   3.620  1.5813  0.8791 -1.4221
11131WAT     H246330   1.576   9.254   3.723 -0.5851  0.0222  0.9554
11131WAT    EPW46331   1.498   9.283   3.697 -0.2226 -0.0715 -0.3016
11132WAT      O46332   9.966   6.384   8.612  0.2523  0.3299  0.3038
11132WAT     H146333   9.945   6.389   8.705  0.6360  0.0122  0.4127
11132WAT     H246334  10.046   6.435   8.603  1.7047 -1.7596  0.6354
11132WAT    EPW46335   9.974   6.391   8.623  0.4945  0.0124  0.3619
11133WAT      O46336   8.023   8.680   7.400 -0.1844 -0.3694 -0.0140
11133WAT     H146337   8.003   8.759   7.451 -0.0836 -1.3640  1.6317
11133WAT     H246338   7.989   8.699   7.313  0.0126  1.5610  0.2901
11133WAT    EPW46339   8.016   8.693   7.396 -0.1450 -0.2460  0.2432
11134WAT      O46340   0.854   9.420   2.712  0.9878 -0.2674  0.1103
11134WAT     H146341   0.841   9.509   2.679 -1.0166  0.5509  2.7913
11134WAT     H246342   0.948   9.414   2.729  1.0905  1.5031  0.3029
11134WAT    EPW46343   0.864   9.431   2.710  0.7370  0.0734  0.4892
11135WAT      O46344   9.075   9.233   7.705 -0.4838  0.0112  0.3112
11135WAT     H146345   9.042   9.148   7.733 -1.5009  1.6940  5.0977
11135WAT     H246346   8.998   9.281   7.677 -0.3366  0.2759  0.3553
11135WAT    EPW46347   9.061   9.228   7.705 -0.5989  0.2680  0.9484
11136WAT      O46348  10.697   8.450   5.310 -0.2557 -0.8669 -0.3194
11136WAT     H146349  10.766   8.442   5.245 -0.1260  1.4146 -0.5507
11136WAT     H246350  10.616   8.452   5.259 -0.2602 -0.5238 -0.3027
11136WAT    EPW46351  10.695   8.449   5.295 -0.2394 -0.5207 -0.3476
11137WAT      O46352  10.975  10.218   5.144 -0.0298  0.2919  0.1139
11137WAT     H146353  10.903  10.264   5.188 -3.0043 -2.8792 -0.8740
11137WAT     H246354  11.023  10.176   5.215 -1.2923 -0.2000  0.7221
11137WAT    EPW46355  10.972  10.218   5.159 -0.5884 -0.1912  0.0637
11138WAT      O46356   6.678   3.476   2.597  0.2057  0.2171 -0.8850
11138WAT     H146357   6.687   3.408   2.530 -0.0539  0.0874 -0.7940
11138WAT     H246358   6.639   3.550   2.551  0.0761  0.1464 -0.8921
11138WAT    EPW46359   6.674   3.477   2.582  0.1545  0.1909 -0.8739
11139WAT      O46360   0.025  10.367   5.466 -0.0566 -0.3273  0.0998
11139WAT     H146361  -0.059  10.377   5.422 -1.0240  0.5816  2.0370
11139WAT     H246362   0.008  10.305   5.537  1.0977 -0.6704  0.0970
11139WAT    EPW46363   0.012  10.360   5.469 -0.0321 -0.2527  0.3545
11140WAT      O46364   9.609   8.437   6.209 -0.2545  0.6610  0.4566
11140WAT     H146365   9.649   8.410   6.292 -1.0143 -3.7943 -0.3454
11140WAT     H246366   9.684   8.458   6.153  0.5196  0.0502  1.2305
11140WAT    EPW46367   9.624   8.436   6.212 -0.2527 -0.0072  0.4530
11141WAT      O46368   6.584   4.495   0.900  0.3000 -0.1413 -0.4544
11141WAT     H146369   6.576   4.434   0.826 -0.1995 -2.3165  1.2706
11141WAT     H246370   6.657   4.461   0.951  0.3806  1.0770  0.2711
11141WAT    EPW46371   6.593   4.483   0.897  0.2449 -0.2673 -0.1312
11142WAT      O46372   0.315   7.784   2.369  0.8187  0.3452  0.2106
11142WAT     H146373   0.332   7.721   2.439 -0.6442 -0.4746 -0.1277
11142WAT     H246374   0.400   7.796   2.326  1.7961  1.0562  2.2381
11142WAT    EPW46375   0.329   7.777   2.373  0.7546  0.3307  0.4334
11143WAT      O46376   8.612   7.681   8.479 -0.1284  0.3872 -0.4108
11143WAT     H146377   8.539   7.623   8.500 -0.3649  0.7637 -0.1862
11143WAT     H246378   8.689   7.625   8.487 -0.3416  0.1363 -0.0552
11143WAT    EPW46379   8.612   7.666   8.483 -0.1879  0.4039 -0.3343
11144WAT      O46380   0.568   5.277   5.552  0.5264  0.8235  0.3751
11144WAT     H146381   0.656   5.251   5.580  0.6838  1.8918  0.9405
11144WAT     H246382   0.567   5.263   5.458  0.6693 -0.9551  0.6094
11144WAT    EPW46383   0.580   5.272   5.543  0.5660  0.7300  0.4804
11145WAT      O46384   1.526   8.303   6.363 -0.1738 -0.5253 -0.4498
11145WAT     H146385   1.604   8.283   6.310  1.0052  0.4392  0.8458
11145WAT     H246386   1.544   8.389   6.400 -3.5493  1.5946 -3.1028
11145WAT    EPW46387   1.539   8.312   6.361 -0.4635 -0.1187 -0.6289
11146WAT      O46388   4.830   2.709   0.897  0.0381  0.0694  0.5091
11146WAT     H146389   4.741   2.681   0.878  0.7122 -1.2163 -0.9974
11146WAT     H246390   4.820   2.792   0.944 -1.9321  0.5140 -0.5939
11146WAT    EPW46391   4.817   2.716   0.900 -0.1330 -0.0416  0.1649
11147WAT      O46392   3.426  10.257   5.835  0.2986  0.2869 -0.5337
11147WAT     H146393   3.522  10.260   5.842  0.3954  0.3316 -1.7843
11147WAT     H246394   3.408  10.274   5.743 -0.9532  0.9413 -0.1813
11147WAT    EPW46395   3.436  10.260   5.824  0.1463  0.3786 -0.6523
11148WAT      O46396   0.358   4.678   6.023 -0.4643  0.7998  0.1035
11148WAT     H146397   0.405   4.598   5.998  1.1987  0.9091  2.5544
11148WAT     H246398   0.361   4.733   5.945  0.9949 -0.3424 -0.6946
11148WAT    EPW46399   0.365   4.674   6.009 -0.0525  0.6635  0.3216
11149WAT      O46400   5.254   0.245   5.757  0.7064  0.1858 -0.3057
11149WAT     H146401   5.285   0.335   5.765 -1.3527  0.9795 -0.5457
11149WAT     H246402   5.287   0.216   5.672  1.5723  0.6240 -0.1266
11149WAT    EPW46403   5.263   0.253   5.746  0.5491  0.3483 -0.3138
11150WAT      O46404   8.666   9.175   5.541 -0.6287  1.0844 -0.3676
11150WAT     H146405   8.724   9.128   5.601  0.1133  2.1839 -0.1904
11150WAT     H246406   8.719   9.191   5.463 -1.3953  0.2145 -1.0936
11150WAT    EPW46407   8.680   9.171   5.539 -0.6323  1.1144 -0.4399
11151WAT      O46408   9.489   0.848   8.531 -0.2444  0.4943 -0.9299
11151WAT     H146409   9.478   0.762   8.492  0.1350  0.7859 -1.6968
11151WAT     H246410   9.583   0.856   8.546 -0.3681  0.4368 -0.0490
11151WAT    EPW46411   9.500   0.838   8.528 -0.2103  0.5252 -0.9151
11152WAT      O46412  10.776   8.012   6.977 -0.1996 -0.5285 -0.2328
11152WAT     H146413  10.748   8.085   6.921  1.5981  0.5127  0.1413
11152WAT     H246414  10.695   7.973   7.007 -1.2247  0.7897 -1.1357
11152WAT    EPW46415  10.762   8.017   6.973 -0.0978 -0.2170 -0.3028
11153WAT      O46416   8.983   9.478   8.470 -0.0864 -0.0118  0.0377
11153WAT     H146417   9.046   9.456   8.401 -1.5567 -1.5306 -0.9015
11153WAT     H246418   9.015   9.433   8.548 -0.9953 -2.5258 -0.9326
11153WAT    EPW46419   8.995   9.469   8.471 -0.4001 -0.5441 -0.2136
11154WAT      O46420   5.994   0.494   3.410  0.1210 -0.1676  0.0518
11154WAT     H146421   5.940   0.526   3.482 -3.3315  0.7385 -2.6681
11154WAT     H246422   6.011   0.572   3.357  1.8205 -0.9395 -0.6189
11154WAT    EPW46423   5.989   0.509   3.412 -0.1101 -0.1499 -0.3954
11155WAT      O46424   9.627   8.700   4.382  0.2166  0.3623 -0.3714
11155WAT     H146425   9.688   8.628   4.367 -2.8634 -2.6753  0.3571
11155WAT     H246426   9.583   8.712   4.298  0.7432  1.4637 -0.4978
11155WAT    EPW46427   9.629   8.692   4.369 -0.1206  0.1068 -0.2921
11156WAT      O46428   3.707   0.563   0.536 -0.4734 -0.2181  0.1926
11156WAT     H146429   3.649   0.577   0.462 -0.1495  1.0509  0.1525
11156WAT     H246430   3.664   0.607   0.609  0.2554  0.4339  0.2425
11156WAT    EPW46431   3.694   0.570   0.536 -0.3346  0.0353  0.1939
11157WAT      O46432   0.688   8.080   3.478  0.2654  0.1393 -0.1377
11157WAT     H146433   0.606   8.129   3.483 -0.1919 -0.5055 -1.0083
11157WAT     H246434   0.734   8.103   3.559 -1.3975 -0.5828  1.0892
11157WAT    EPW46435   0.683   8.090   3.490 -0.0142 -0.0410 -0.0907
11158WAT      O46436   0.765  10.349   1.371 -0.5573  0.2400  0.8794
11158WAT     H146437   0.673  10.376   1.361 -0.9872 -1.4413 -0.1475
11158WAT     H246438   0.766  10.297   1.452 -1.0709 -1.6713 -0.2600
11158WAT    EPW46439   0.753  10.345   1.380 -0.6818 -0.2337  0.5936
11159WAT      O46440  10.460  10.199   5.391 -0.4778 -0.2099  0.4941
11159WAT     H146441  10.457  10.289   5.422 -0.0596 -0.6370  1.8372
11159WAT     H246442  10.420  10.202   5.304  1.2301  1.5790 -0.2925
11159WAT    EPW46443  10.454  10.211   5.384 -0.1974 -0.0300  0.5677
11160WAT      O46444   8.556   0.818   4.404  0.5366 -0.1871  0.4488
11160WAT     H146445   8.572   0.789   4.494  0.1449 -0.3215  0.4777
11160WAT     H246446   8.505   0.898   4.414  1.4742  0.4422  0.3650
11160WAT    EPW46447   8.552   0.824   4.417  0.6084 -0.1218  0.4416
11161WAT      O46448   1.825   0.258   3.337 -0.0377  0.0851 -0.7098
11161WAT     H146449   1.883   0.302   3.275  0.5846  1.8849  1.0292
11161WAT     H246450   1.882   0.233   3.409 -0.7989 -1.6287 -0.6559
11161WAT    EPW46451   1.840   0.261   3.338 -0.0560  0.0965 -0.4734
11162WAT      O46452   8.777   9.069   4.583 -0.2406  0.0319 -0.1273
11162WAT     H146453   8.850   9.126   4.609  0.8489 -1.4957  0.3040
11162WAT     H246454   8.713   9.079   4.653  0.0918  0.4484  0.1239
11162WAT    EPW46455   8.778   9.078   4.595 -0.0525 -0.1149 -0.0374
11163WAT      O46456   7.450   9.004   8.715  0.3961 -0.4081  0.8686
11163WAT     H146457   7.530   9.001   8.663 -0.7254  1.4953 -1.1393
11163WAT     H246458   7.443   8.917   8.754  2.0638 -1.4786 -1.0476
11163WAT    EPW46459   7.460   8.992   8.713  0.4678 -0.2985  0.3510
11164WAT      O46460   0.091   9.561   5.322 -0.5958 -0.6432 -0.1776
11164WAT     H146461   0.015   9.562   5.380  0.8453  0.6044  1.8257
11164WAT     H246462   0.095   9.650   5.288  1.4505  0.1808  1.9413
11164WAT    EPW46463   0.081   9.573   5.325 -0.1358 -0.3700  0.3660
11165WAT      O46464   0.922   4.884   4.894 -0.1137  0.0203  0.2033
11165WAT     H146465   0.949   4.949   4.828  2.0453 -2.2225 -1.3372
11165WAT     H246466   0.954   4.919   4.977 -1.2504  2.0541 -0.1631
11165WAT    EPW46467   0.930   4.897   4.896  0.0212 -0.0074 -0.0484
11166WAT      O46468   2.020   3.461   6.311 -0.2977 -0.0341  0.1774
11166WAT     H146469   2.076   3.410   6.252 -3.2975 -3.3407 -0.1542
11166WAT     H246470   2.070   3.467   6.392  1.4416 -0.8222 -0.7854
11166WAT    EPW46471   2.034   3.455   6.314 -0.4641 -0.5741  0.0069
11167WAT      O46472   1.409   0.651   7.988 -0.0785 -0.6582  0.3858
11167WAT     H146473   1.403   0.714   8.061  0.0196  0.0914 -0.2420
11167WAT     H246474   1.487   0.600   8.008  0.8125  0.5349  0.0555
11167WAT    EPW46475   1.418   0.653   8.000  0.0520 -0.4019  0.2594
11168WAT      O46476   1.237   5.750   1.677 -0.6750  0.0655 -0.0112
11168WAT     H146477   1.268   5.670   1.635  0.5864  0.9273 -0.7676
11168WAT     H246478   1.281   5.751   1.762 -1.4572 -0.5106  0.4241
11168WAT    EPW46479   1.247   5.739   1.683 -0.6118  0.1032 -0.0535
11169WAT      O46480   8.500   7.177   4.846  0.3614 -0.4588  0.3737
11169WAT     H146481   8.408   7.185   4.870  0.5520  3.3436  0.4977
11169WAT     H246482   8.507   7.226   4.764  2.5882  1.3729  1.5504
11169WAT    EPW46483   8.489   7.185   4.838  0.6804  0.2844  0.5455
11170WAT      O46484   7.573   8.204   5.077  0.1823 -0.2206 -0.6136
11170WAT     H146485   7.553   8.213   5.170  0.7434 -0.2105 -0.4867
11170WAT     H246486   7.595   8.111   5.066  3.2377  0.3260 -0.0570
11170WAT    EPW46487   7.574   8.193   5.088  0.6595 -0.1473 -0.5233
11171WAT      O46488   0.322   8.154   5.525  0.1041 -0.1255  0.1572
11171WAT     H146489   0.256   8.221   5.510  1.0785  0.5720 -1.2923
11171WAT     H246490   0.384   8.195   5.586 -0.7322 -0.7785  1.5151
11171WAT    EPW46491   0.322   8.168   5.531  0.1223 -0.1192  0.1452
11172WAT      O46492   3.956   0.897   5.972  0.1868 -0.6622  0.2477
11172WAT     H146493   3.974   0.811   6.009 -0.3592 -1.2266 -0.7422
11172WAT     H246494   3.895   0.880   5.899 -0.4676  0.6217  0.4474
11172WAT    EPW46495   3.950   0.884   5.967  0.0285 -0.5673  0.1435
11173WAT      O46496   0.009   5.918   4.186 -0.3255 -1.2950 -0.3653
11173WAT     H146497  -0.014   5.888   4.098 -2.7708 -2.8797  0.7082
11173WAT     H246498  -0.071   5.905   4.238  1.1179 -0.7406  2.1800
11173WAT    EPW46499  -0.005   5.913   4.181 -0.4576 -1.4310  0.1121
11174WAT      O46500   1.090   8.253   5.989  0.0919  0.5043  0.1793
11174WAT     H146501   1.151   8.247   6.062 -1.9661  0.2397  1.9698
11174WAT     H246502   1.047   8.337   6.000  0.1463  0.7269 -1.1096
11174WAT    EPW46503   1.093   8.263   6.000 -0.1723  0.4988  0.2456
11175WAT      O46504   9.643   7.722   2.311 -0.7160  0.0943  0.1817
11175WAT     H146505   9.722   7.762   2.347  1.6696 -0.8524 -3.4902
11175WAT     H246506   9.572   7.754   2.368  1.9647  2.8578  2.2977
11175WAT    EPW46507   9.644   7.732   2.324 -0.0482  0.3340 -0.0236
11176WAT      O46508   7.516   1.017   2.437  0.5464 -0.1784  0.2299
11176WAT     H146509   7.452   0.948   2.421 -0.3523  0.7016 -0.1023
11176WAT     H246510   7.601   0.972   2.435 -0.0036 -1.2397 -0.1240
11176WAT    EPW46511   7.519   1.002   2.434  0.3550 -0.2023  0.1395
11177WAT      O46512   1.326   6.374   7.017  0.0188  0.0824 -1.2085
11177WAT     H146513   1.419   6.373   7.041 -0.2655  0.4206 -0.0222
11177WAT     H246514   1.308   6.466   6.998  0.2369 -0.1768 -2.8180
11177WAT    EPW46515   1.336   6.386   7.018  0.0101  0.0930 -1.2643
11178WAT      O46516   4.250   3.472   3.794 -0.8780 -0.4323  0.2049
11178WAT     H146517   4.314   3.529   3.836 -0.6508 -0.1308 -0.5248
11178WAT     H246518   4.303   3.406   3.749 -0.9186  1.0822 -2.2575
11178WAT    EPW46519   4.265   3.471   3.793 -0.8533 -0.1928 -0.2160
11179WAT      O46520   2.674   9.466   0.565 -0.2416 -0.7247  0.4606
11179WAT     H146521   2.633   9.384   0.538 -0.1812  0.2368 -3.1844
11179WAT     H246522   2.612   9.534   0.537  1.8191  0.5869 -1.3067
11179WAT    EPW46523   2.660   9.464   0.558  0.0383 -0.4249 -0.2533
11180WAT      O46524   7.450   9.481   5.774  0.3481 -0.0153  0.2884
11180WAT     H146525   7.526   9.483   5.833  0.4054 -1.5265  0.3242
11180WAT     H246526   7.486   9.497   5.687  0.8597 -1.3895  0.2104
11180WAT    EPW46527   7.464   9.483   5.771  0.4232 -0.3958  0.2828
11181WAT      O46528   9.607   8.726   4.911  0.1603 -0.0088 -0.0569
11181WAT     H146529   9.566   8.747   4.827 -2.0000 -1.3828  0.5825
11181WAT     H246530   9.595   8.805   4.964 -2.3355 -0.5410  0.3017
11181WAT    EPW46531   9.600   8.739   4.907 -0.4539 -0.2608  0.0749
11182WAT      O46532   3.240   1.142   3.074  0.0255  0.2622 -0.4032
11182WAT     H146533   3.169   1.159   3.013 -0.6767  0.2338  0.3907
11182WAT     H246534   3.214   1.187   3.154  0.3141 -0.7688  0.2874
11182WAT    EPW46535   3.227   1.151   3.076 -0.0291  0.1225 -0.2074
11183WAT      O46536   9.113  10.177   3.780 -0.7176 -0.0781 -0.3477
11183WAT     H146537   9.146  10.191   3.869 -0.8962  0.0545 -0.3019
11183WAT     H246538   9.146  10.091   3.756 -0.0698  0.1784 -0.4220
11183WAT    EPW46539   9.122  10.168   3.788 -0.6557 -0.0262 -0.3513
11184WAT      O46540   8.100   9.982   5.841  0.0683 -0.0323  0.2398
11184WAT     H146541   8.105   9.900   5.793 -0.2487 -0.1365  0.3778
11184WAT     H246542   8.015  10.019   5.816 -0.7355 -0.7496  1.7445
11184WAT    EPW46543   8.089   9.976   5.831 -0.0796 -0.1407  0.4568
11185WAT      O46544   0.798   0.156   8.427  0.6693  0.0520 -0.1188
11185WAT     H146545   0.734   0.216   8.466 -1.9664 -1.4614 -1.8148
11185WAT     H246546   0.849   0.124   8.501 -1.0491  0.7592  1.4511
11185WAT    EPW46547   0.796   0.160   8.442  0.0950 -0.0543 -0.1354
11186WAT      O46548   0.194   8.875   5.623 -0.9582  0.2596 -0.1515
11186WAT     H146549   0.146   8.944   5.579  1.6061  1.0429 -1.9858
11186WAT     H246550   0.256   8.921   5.680  1.2508 -0.3523 -1.8939
11186WAT    EPW46551   0.196   8.890   5.625 -0.3286  0.2823 -0.6230
11187WAT      O46552   1.367   0.414   1.317 -0.9164 -0.4493 -0.1916
11187WAT     H146553   1.425   0.417   1.393 -0.7657 -1.6446 -0.2331
11187WAT     H246554   1.419   0.452   1.246  0.0027 -1.8710 -0.3248
11187WAT    EPW46555   1.382   0.419   1.318 -0.7753 -0.7945 -0.2146
11188WAT      O46556   9.297   6.953   3.690  0.0942 -0.8336 -0.2226
11188WAT     H146557   9.378   6.984   3.731 -0.0103  0.3335 -0.8480
11188WAT     H246558   9.300   6.989   3.602  0.1938 -3.0938 -1.2009
11188WAT    EPW46559   9.308   6.962   3.684  0.0930 -0.9782 -0.4342
11189WAT      O46560   9.573   5.977   1.808 -0.1382 -0.2383  0.1148
11189WAT     H146561   9.592   6.039   1.878 -2.0734 -0.7915  1.2251
11189WAT     H246562   9.566   6.031   1.729  0.5887  0.6102  0.6126
11189WAT    EPW46563   9.575   5.992   1.807 -0.2971 -0.1996  0.3269
11190WAT      O46564   4.515   0.760   5.082 -0.3451  0.2976  0.2175
11190WAT     H146565   4.596   0.747   5.131 -0.7545  0.9075  1.0801
11190WAT     H246566   4.543   0.765   4.991  0.4991 -0.2559  0.4359
11190WAT    EPW46567   4.529   0.759   5.077 -0.2875  0.3051  0.3600
11191WAT      O46568   0.213   8.991   4.569 -0.1481 -0.5906 -0.3292
11191WAT     H146569   0.127   9.023   4.596  0.0403 -1.4325  1.4332
11191WAT     H246570   0.197   8.902   4.538  0.0068 -0.5213 -0.6146
11191WAT    EPW46571   0.199   8.984   4.568 -0.1028 -0.6928 -0.1342
11192WAT      O46572   0.547   8.897   4.428  0.3316  0.4113 -0.5996
11192WAT     H146573   0.459   8.900   4.391 -0.5521  2.4318  1.4296
11192WAT     H246574   0.600   8.952   4.370 -0.7399  2.5019  0.2829
11192WAT    EPW46575   0.542   8.905   4.416  0.0737  0.9537 -0.2155
11193WAT      O46576   6.831   0.639   5.173  0.1706 -0.0036 -0.0678
11193WAT     H146577   6.760   0.620   5.235  1.7769 -1.9472  1.2827
11193WAT     H246578   6.792   0.622   5.087 -1.3991  0.3512  0.5305
11193WAT    EPW46579   6.817   0.634   5.170  0.1752 -0.2131  0.1895
11194WAT      O46580   8.062   8.615   4.705 -0.1946 -0.0600  1.1697
11194WAT     H146581   8.097   8.570   4.782  1.4390 -1.3289 -0.2376
11194WAT     H246582   8.126   8.596   4.636 -1.7153  0.8644 -0.5474
11194WAT    EPW46583   8.075   8.606   4.706 -0.1798 -0.1059  0.7577
11195WAT      O46584   0.629   8.828   4.916 -0.4600 -0.4219 -0.7650
11195WAT     H146585   0.675   8.903   4.879 -1.3651  1.0147  0.9293
11195WAT     H246586   0.537   8.854   4.917 -0.7386 -1.3861  0.2229
11195WAT    EPW46587   0.623   8.841   4.911 -0.6161 -0.3600 -0.4113
11196WAT      O46588   2.282   1.211   4.684 -0.1900 -0.4673 -0.1116
11196WAT     H146589   2.257   1.213   4.592 -1.0252 -0.4925  0.1082
11196WAT     H246590   2.376   1.191   4.683 -0.3697 -1.3183 -0.9245
11196WAT    EPW46591   2.291   1.209   4.672 -0.3239 -0.5828 -0.1898
11197WAT      O46592   6.662   9.116   6.843 -0.3999 -0.0381  0.0247
11197WAT     H146593   6.635   9.144   6.756 -1.4442  1.2493  0.7308
11197WAT     H246594   6.630   9.185   6.901  1.0688 -0.4162  1.3380
11197WAT    EPW46595   6.654   9.129   6.839 -0.3440  0.0820  0.2911
11198WAT      O46596   6.106   2.609   0.676  0.1458  1.1383 -0.2748
11198WAT     H146597   6.097   2.575   0.587  2.3381  0.5251 -0.3358
11198WAT     H246598   6.069   2.541   0.732  2.3683 -0.4384 -0.5484
11198WAT    EPW46599   6.100   2.596   0.672  0.7279  0.8496 -0.3189
11199WAT      O46600   0.296   6.078   6.298 -0.5367  0.0121  0.2482
11199WAT     H146601   0.328   6.147   6.241 -1.2855  0.3981  0.2737
11199WAT     H246602   0.213   6.112   6.333 -1.0151 -0.9635  0.1179
11199WAT    EPW46603   0.289   6.092   6.295 -0.6986 -0.0656  0.2346
11200WAT      O46604   1.252   1.087   8.226  0.0171  0.0225  0.2522
11200WAT     H146605   1.208   1.084   8.311  1.1841  1.8042  0.9706
11200WAT     H246606   1.185   1.058   8.164 -0.8838 -1.2786  1.7285
11200WAT    EPW46607   1.237   1.083   8.229  0.0521  0.0859  0.5412
11201WAT      O46608   1.653   1.239   4.184 -0.2824  0.3750 -1.0361
11201WAT     H146609   1.711   1.195   4.246 -2.0812  0.0418  0.5342
11201WAT     H246610   1.706   1.307   4.144  1.5294 -0.7761 -0.7008
11201WAT    EPW46611   1.667   1.242   4.187 -0.2807  0.1793 -0.7849
11202WAT      O46612   3.850   1.073   4.843  0.0968  0.2071 -0.5322
11202WAT     H146613   3.838   1.148   4.785  0.4020  1.4165  0.9088
11202WAT     H246614   3.765   1.030   4.845 -0.7248  1.7986  0.3272
11202WAT    EPW46615   3.838   1.077   4.835  0.0287  0.5765 -0.2286
11203WAT      O46616  10.068   0.816   8.826  0.0747 -0.1445  0.1353
11203WAT     H146617  10.010   0.797   8.900 -2.0570 -0.8838 -1.6269
11203WAT     H246618  10.048   0.907   8.802  0.8294  0.1264  0.4859
11203WAT    EPW46619  10.058   0.826   8.833 -0.1068 -0.2063 -0.0510
11204WAT      O46620   7.802   8.797   5.865 -0.8289 -0.6767  0.2124
11204WAT     H146621   7.712   8.774   5.885 -1.6141  1.3474 -0.6987
11204WAT     H246622   7.810   8.889   5.890  1.3565 -1.0946  1.3553
11204WAT    EPW46623   7.792   8.806   5.871 -0.6440 -0.4649  0.2429
11205WAT      O46624   5.142   1.233   5.107  0.5523  0.3319  0.5374
11205WAT     H146625   5.107   1.205   5.023  2.7935 -0.9998 -0.0580
11205WAT     H246626   5.210   1.168   5.127 -0.4451  0.1208  3.7974
11205WAT    EPW46627   5.146   1.220   5.099  0.7164  0.1284  0.8886
11206WAT      O46628  10.955   6.131   1.761  0.8707 -0.3711  0.2857
11206WAT     H146629  10.980   6.221   1.740 -1.0119 -0.4320 -2.7695
11206WAT     H246630  10.865   6.139   1.793  0.5337 -1.1680 -0.4292
11206WAT    EPW46631  10.947   6.144   1.763  0.5779 -0.4845 -0.2115
11207WAT      O46632   4.155   0.148   3.068 -0.2508  0.0539 -0.5204
11207WAT     H146633   4.209   0.228   3.064 -1.0568  0.6064 -0.5315
11207WAT     H246634   4.166   0.108   2.982 -1.3064  1.1411 -1.1874
11207WAT    EPW46635   4.164   0.153   3.056 -0.4961  0.2701 -0.6098
11208WAT      O46636   0.068   8.185   6.803 -0.8037  0.1486 -0.7136
11208WAT     H146637   0.090   8.278   6.791 -2.2620  0.3976 -1.6633
11208WAT     H246638  -0.026   8.185   6.819 -0.8163 -1.1769 -0.7258
11208WAT    EPW46639   0.059   8.197   6.803 -0.9977  0.0062 -0.8404
11209WAT      O46640   9.650   7.160   6.074 -0.2819 -0.5613 -0.4066
11209WAT     H146641   9.700   7.089   6.113 -1.4607 -0.9540  0.4408
11209WAT     H246642   9.714   7.208   6.021  1.3667 -0.1456  1.7925
11209WAT    EPW46643   9.665   7.157   6.072 -0.2203 -0.5584 -0.0050
11210WAT      O46644   8.199   9.450   7.405  0.4509  0.2480 -0.4695
11210WAT     H146645   8.127   9.508   7.430  0.1596 -0.5918  0.7310
11210WAT     H246646   8.194   9.446   7.310 -1.9285 -0.7682 -0.3802
11210WAT    EPW46647   8.189   9.457   7.396  0.0992  0.0033 -0.2992
11211WAT      O46648   1.915   9.182   6.640  0.5671  0.2863  0.0699
11211WAT     H146649   1.972   9.244   6.686  0.8962  1.5484 -1.9002
11211WAT     H246650   1.841   9.235   6.610  0.1193 -0.5890 -0.4044
11211WAT    EPW46651   1.913   9.198   6.642  0.5514  0.3376 -0.2525
11212WAT      O46652   8.337   1.598   2.361 -0.6214 -0.2079 -0.4189
11212WAT     H146653   8.282   1.519   2.360 -1.5717  0.4477 -1.9990
11212WAT     H246654   8.370   1.605   2.272  0.0642  0.7874 -0.0978
11212WAT    EPW46655   8.334   1.588   2.349 -0.6566  0.0098 -0.5848
11213WAT      O46656   0.425   7.960   6.539  0.5643 -0.2143 -0.0615
11213WAT     H146657   0.421   7.975   6.444  1.7829  0.4905 -0.0214
11213WAT     H246658   0.356   8.016   6.575 -0.1541 -0.7611 -0.5444
11213WAT    EPW46659   0.415   7.969   6.531  0.6303 -0.1934 -0.1197
11214WAT      O46660   7.496   7.573   6.329  0.5011  0.2166 -0.0035
11214WAT     H146661   7.589   7.553   6.317  0.6259  0.9284 -0.2874
11214WAT     H246662   7.476   7.544   6.417  1.3219  1.2171  0.5427
11214WAT    EPW46663   7.506   7.567   6.339  0.6258  0.4427  0.0312
11215WAT      O46664   8.403   7.534   8.539 -0.3771 -0.1565  0.2103
11215WAT     H146665   8.332   7.540   8.603  0.3262 -0.7352  1.0659
11215WAT     H246666   8.417   7.440   8.528  0.5164 -0.0470  0.3489
11215WAT    EPW46667   8.395   7.522   8.546 -0.1664 -0.2184  0.3414
11216WAT      O46668   0.492   0.919   7.117 -0.2941  0.1758  0.0297
11216WAT     H146669   0.505   0.834   7.073 -0.8892  0.0814  0.0161
11216WAT     H246670   0.441   0.897   7.195 -2.7783  0.8021 -1.3126
11216WAT    EPW46671   0.487   0.905   7.121 -0.7003  0.2459 -0.1493
11217WAT      O46672   0.285   9.516   4.876  0.2723 -0.3256  0.0280
11217WAT     H146673   0.284   9.420   4.886  3.9187 -0.6176 -0.9633
11217WAT     H246674   0.229   9.532   4.800 -1.6576 -1.4187  1.1179
11217WAT    EPW46675   0.277   9.505   4.868  0.4987 -0.5083  0.0408
11218WAT      O46676   9.642   8.416   6.906 -1.0654  0.2580  0.7081
11218WAT     H146677   9.550   8.419   6.882 -0.7793  0.5991 -0.4397
11218WAT     H246678   9.678   8.343   6.856 -0.4875  0.8691  0.1914
11218WAT    EPW46679   9.635   8.407   6.896 -0.9508  0.3834  0.4888
11219WAT      O46680   3.433   1.780   7.096 -0.1660 -0.1657 -0.1064
11219WAT     H146681   3.357   1.728   7.121  1.1617 -2.3157 -0.2781
11219WAT     H246682   3.459   1.746   7.010  0.8781  0.6367 -0.1289
11219WAT    EPW46683   3.427   1.769   7.088  0.1469 -0.3436 -0.1318
11220WAT      O46684   1.450   7.385   5.946 -0.6937  0.1597 -0.0607
11220WAT     H146685   1.488   7.472   5.958 -0.7711  0.5990 -2.5224
11220WAT     H246686   1.507   7.326   5.995  0.7993  1.3053 -0.3763
11220WAT    EPW46687   1.462   7.389   5.954 -0.5070  0.3688 -0.4270
11221WAT      O46688   3.383   9.110   6.660  0.2330 -1.2327 -0.3121
11221WAT     H146689   3.358   9.182   6.718 -1.3758 -1.8996 -0.1234
11221WAT     H246690   3.462   9.142   6.616  1.0829 -0.4004  1.6542
11221WAT    EPW46691   3.390   9.124   6.662  0.1329 -1.2107 -0.0274
11222WAT      O46692  10.745   8.885   5.617 -0.4205  0.3758 -0.0764
11222WAT     H146693  10.662   8.850   5.653 -1.5172  0.7769 -2.0924
11222WAT     H246694  10.747   8.976   5.646  0.7934 -0.3178  2.3558
11222WAT    EPW46695  10.734   8.892   5.626 -0.4048  0.3376 -0.0212
11223WAT      O46696   2.480   6.738   5.766  0.0564  0.0767 -0.1636
11223WAT     H146697   2.442   6.806   5.823  0.4073  1.1857 -1.2180
11223WAT     H246698   2.470   6.773   5.678  1.3511 -0.6976 -0.6376
11223WAT    EPW46699   2.474   6.752   5.762  0.2733  0.1209 -0.3653
11224WAT      O46700   9.659  10.183   4.328  0.3322  0.0914 -0.8354
11224WAT     H146701   9.729  10.225   4.278 -0.8657 -0.1701 -2.8665
11224WAT     H246702   9.702  10.111   4.374  2.0295  2.1652  1.0113
11224WAT    EPW46703   9.674  10.179   4.327  0.3977  0.3295 -0.8597
11225WAT      O46704   3.468   0.441   8.224 -0.0361  0.1750 -0.0557
11225WAT     H146705   3.423   0.376   8.170 -1.3479  1.0721 -0.0676
11225WAT     H246706   3.425   0.524   8.203 -0.9226  0.4988  2.6830
11225WAT    EPW46707   3.457   0.443   8.214 -0.3260  0.3361  0.3037
11226WAT      O46708   0.311   9.539   6.779  0.6491 -0.2140  0.1884
11226WAT     H146709   0.353   9.590   6.710  0.1882 -0.7917 -0.5524
11226WAT     H246710   0.366   9.461   6.789 -0.0021 -0.7900 -0.5190
11226WAT    EPW46711   0.324   9.535   6.771  0.5024 -0.3657 -0.0029
11227WAT      O46712   3.151   8.317   7.429 -0.5557  0.8000 -0.0790
11227WAT     H146713   3.135   8.231   7.388  2.0619 -0.0906  0.5670
11227WAT     H246714   3.119   8.306   7.518 -0.2978  0.5069 -0.0190
11227WAT    EPW46715   3.145   8.304   7.435 -0.1765  0.6437  0.0145
11228WAT      O46716   9.970   9.999   8.048  0.2832 -0.2962  0.1086
11228WAT     H146717   9.928   9.994   8.134 -0.8378 -1.7578 -0.4748
11228WAT     H246718   9.906  10.044   7.993  1.5345  1.8492  0.2785
11228WAT    EPW46719   9.956  10.004   8.052  0.3009 -0.2055  0.0539
11229WAT      O46720   1.292   9.871   7.109  0.4305  0.3327 -0.4724
11229WAT     H146721   1.313   9.829   7.192 -2.0251 -2.4234 -1.0735
11229WAT     H246722   1.354   9.834   7.046  1.4389  1.4302 -0.1577
11229WAT    EPW46723   1.303   9.861   7.112  0.2396  0.1144 -0.5102
11230WAT      O46724   2.973   7.958   6.450 -0.0878 -0.4115 -0.1542
11230WAT     H146725   2.967   7.904   6.529  1.8665 -1.4903 -0.6757
11230WAT     H246726   2.882   7.972   6.424 -0.7053 -2.6251  0.5907
11230WAT    EPW46727   2.960   7.953   6.457  0.0885 -0.8452 -0.1249
11231WAT      O46728   0.233  10.020   3.298  0.4450 -0.4118  0.3262
11231WAT     H146729   0.138  10.019   3.288  0.3275  1.6781  0.7418
11231WAT     H246730   0.257  10.111   3.281  2.2432 -0.6720  1.3088
11231WAT    EPW46731   0.223  10.032   3.294  0.6666 -0.1702  0.5107
11232WAT      O46732   5.802   2.682   8.747 -0.1758 -0.1777  0.7505
11232WAT     H146733   5.859   2.733   8.689 -0.6486  0.2730  0.6743
11232WAT     H246734   5.813   2.591   8.718  0.7316 -0.1370  0.9349
11232WAT    EPW46735   5.811   2.677   8.736 -0.1185 -0.1130  0.7648
11233WAT      O46736   8.425   6.824   0.807  0.4038  0.3591  0.8081
11233WAT     H146737   8.481   6.873   0.866 -1.0240  1.1455  1.5535
11233WAT     H246738   8.357   6.787   0.863 -0.8101  0.8670 -0.2610
11233WAT    EPW46739   8.424   6.825   0.822  0.0548  0.5298  0.7654
11234WAT      O46740  10.615   8.075   4.181  0.9937 -0.2328 -0.4399
11234WAT     H146741  10.621   8.133   4.105  1.1058 -1.4026 -1.3510
11234WAT     H246742  10.633   8.132   4.256 -1.4009  1.4535 -1.0267
11234WAT    EPW46743  10.618   8.090   4.181  0.6928 -0.1645 -0.6373
11235WAT      O46744   0.076   6.531   6.505 -0.1835 -0.4479 -0.1748
11235WAT     H146745   0.002   6.504   6.450  0.6848 -2.2713 -0.5017
11235WAT     H246746   0.147   6.472   6.481  0.7002 -0.2704  1.8188
11235WAT    EPW46747   0.076   6.520   6.494  0.0476 -0.6649  0.0451
11236WAT      O46748   1.321   0.134   2.651  0.6179  0.4818  0.3908
11236WAT     H146749   1.400   0.174   2.687  1.1209  1.8743 -2.0469
11236WAT     H246750   1.354   0.066   2.591  0.1034  1.8128 -1.4951
11236WAT    EPW46751   1.336   0.130   2.647  0.6164  0.8411 -0.1794
11237WAT      O46752  10.405   9.081   3.248  0.4036  0.4548 -0.0029
11237WAT     H146753  10.397   9.013   3.181 -1.5751 -1.0748  1.6621
11237WAT     H246754  10.492   9.119   3.232  0.5764 -0.7519 -2.5351
11237WAT    EPW46755  10.416   9.077   3.237  0.1655  0.0939 -0.1173
11238WAT      O46756   0.510   6.986   4.610 -0.0740  0.0423 -0.2236
11238WAT     H146757   0.559   7.019   4.535 -0.1016 -1.3821 -0.9104
11238WAT     H246758   0.440   7.050   4.623 -0.2135  0.2007 -1.5713
11238WAT    EPW46759   0.508   6.999   4.602 -0.0961 -0.1245 -0.4919
11239WAT      O46760   9.867   8.371   5.779  0.0528  0.0557  0.0975
11239WAT     H146761   9.785   8.328   5.804 -1.3118  3.4620  2.1081
11239WAT     H246762   9.851   8.404   5.691  1.1927 -3.2840 -1.5734
11239WAT    EPW46763   9.854   8.369   5.771  0.0234  0.0644  0.1421
11240WAT      O46764   6.645   7.245   7.062 -1.0033 -0.3458  0.3416
11240WAT     H146765   6.570   7.260   7.005  0.0905 -2.6660 -1.9208
11240WAT     H246766   6.622   7.166   7.112 -0.6880 -0.1563  0.7980
11240WAT    EPW46767   6.632   7.236   7.061 -0.8173 -0.6268  0.1030
11241WAT      O46768   3.158   0.049   8.107 -0.2495  0.6586  0.7812
11241WAT     H146769   3.148   0.049   8.012 -0.3855  0.4104  0.7924
11241WAT     H246770   3.111  -0.030   8.135 -0.6077  0.9824  1.0942
11241WAT    EPW46771   3.150   0.038   8.098 -0.3146  0.6686  0.8235
11242WAT      O46772   1.204   8.073   6.679 -0.2691  0.5397  0.5258
11242WAT     H146773   1.169   8.160   6.659 -1.8836  0.0019  0.9009
11242WAT     H246774   1.278   8.090   6.737 -0.2021  1.6873  0.1261
11242WAT    EPW46775   1.209   8.087   6.684 -0.4733  0.6199  0.5226
11243WAT      O46776  10.554   7.125   3.657 -0.1779 -0.9883  0.2332
11243WAT     H146777  10.556   7.216   3.685 -2.4199 -1.1919  1.2635
11243WAT     H246778  10.628   7.085   3.703 -1.4043 -0.4412  2.8899
11243WAT    EPW46779  10.564   7.131   3.667 -0.6351 -0.9427  0.7195
11244WAT      O46780   3.471   0.313   5.005  0.6454  0.6702  0.3247
11244WAT     H146781   3.557   0.292   5.040  0.6973 -1.6578 -0.9613
11244WAT     H246782   3.486   0.385   4.944  1.4725  1.0769  1.0041
11244WAT    EPW46783   3.484   0.320   5.001  0.7613  0.4168  0.2449
11245WAT      O46784   0.302   8.295   2.760 -0.3147  0.1204 -0.3218
11245WAT     H146785   0.237   8.359   2.730  0.4444  0.9584 -0.2016
11245WAT     H246786   0.372   8.299   2.696  0.8257  1.1345  0.9328
11245WAT    EPW46787   0.302   8.304   2.748 -0.0642  0.3643 -0.1404
11246WAT      O46788   7.947   2.280   1.702 -0.6281 -0.5499  0.1980
11246WAT     H146789   7.888   2.207   1.687 -1.0386  0.0054 -0.9729
11246WAT     H246790   8.035   2.243   1.692 -0.7758 -1.1827  1.0831
11246WAT    EPW46791   7.951   2.266   1.699 -0.7017 -0.5603  0.1603
11247WAT      O46792   1.046   5.159   0.478 -0.1008  0.2650 -0.3193
11247WAT     H146793   1.099   5.228   0.438 -0.9180  1.7511  1.0371
11247WAT     H246794   0.957   5.192   0.473 -0.3235  0.1512  1.9261
11247WAT    EPW46795   1.041   5.173   0.472 -0.2380  0.4461  0.1558
11248WAT      O46796   7.648   2.251   5.663  0.1501 -0.3962  0.1314
11248WAT     H146797   7.594   2.184   5.704 -1.0845  1.1513  1.1564
11248WAT     H246798   7.610   2.334   5.693  4.4849  0.8997  3.0427
11248WAT    EPW46799   7.636   2.253   5.672  0.5593 -0.0210  0.6506
11249WAT      O46800   7.797   2.669   5.913  0.5142 -0.2972 -0.8872
11249WAT     H146801   7.804   2.721   5.833  0.5285 -0.2571 -0.8596
11249WAT     H246802   7.865   2.602   5.903 -1.7274 -2.5714 -2.5992
11249WAT    EPW46803   7.807   2.667   5.901  0.2203 -0.5918 -1.1094
11250WAT      O46804   9.990   1.673   4.609 -0.4859  0.4964  0.0366
11250WAT     H146805  10.012   1.755   4.565 -0.5658  0.3657 -0.2456
11250WAT     H246806   9.895   1.667   4.604 -0.4223  0.0221 -0.5902
11250WAT    EPW46807   9.981   1.683   4.603 -0.4883  0.4167 -0.0834
11251WAT      O46808   6.058   3.790   5.981 -0.1091  0.3082 -0.4147
11251WAT     H146809   6.130   3.756   5.928  0.8011  1.2355  0.1856
11251WAT     H246810   6.078   3.760   6.070 -3.3301 -4.1226 -0.8471
11251WAT    EPW46811   6.071   3.782   5.986 -0.4139 -0.1539 -0.3927
11252WAT      O46812  10.328   0.462   0.403 -0.7584  0.3186  0.0893
11252WAT     H146813  10.279   0.380   0.409 -0.7193  0.1534 -1.4347
11252WAT     H246814  10.277   0.524   0.454 -1.1796 -0.4732  0.6540
11252WAT    EPW46815  10.315   0.459   0.410 -0.8087  0.1923 -0.0372
11253WAT      O46816   6.602   1.054   3.248 -0.4291 -0.0131  0.6924
11253WAT     H146817   6.639   1.142   3.250  1.1625 -0.6578  1.1506
11253WAT     H246818   6.547   1.052   3.169  1.9324  0.4733 -1.0578
11253WAT    EPW46819   6.600   1.065   3.237  0.0923 -0.0340  0.5220
11254WAT      O46820   7.866   9.756   0.893 -0.6370 -0.0096  0.3885
11254WAT     H146821   7.912   9.809   0.958 -0.3332  0.6296 -0.3473
11254WAT     H246822   7.896   9.666   0.910  1.2073  0.4353 -0.3273
11254WAT    EPW46823   7.876   9.751   0.904 -0.3538  0.1335  0.1971
11255WAT      O46824   9.390   3.320   4.974 -0.1725 -0.0064 -0.0952
11255WAT     H146825   9.431   3.368   5.046  1.3291  0.0414 -0.9289
11255WAT     H246826   9.357   3.388   4.915  0.3183 -0.0043 -0.3761
11255WAT    EPW46827   9.391   3.335   4.976  0.0906  0.0002 -0.2422
11256WAT      O46828   7.316   0.743   4.060  0.0291 -0.8333  0.1337
11256WAT     H146829   7.233   0.712   4.025 -0.0244 -1.1455  0.5206
11256WAT     H246830   7.375   0.668   4.050  0.8218  0.0111 -1.9485
11256WAT    EPW46831   7.313   0.729   4.054  0.1264 -0.7631 -0.0899
11257WAT      O46832   4.174   8.420   0.270 -0.2546  0.0385 -0.3485
11257WAT     H146833   4.254   8.446   0.315 -1.3021  0.4421  1.3580
11257WAT     H246834   4.134   8.502   0.242  0.2420 -0.1928 -1.8310
11257WAT    EPW46835   4.179   8.434   0.272 -0.3273  0.0610 -0.3190
11258WAT      O46836   9.919   2.468   0.980 -0.2294  0.0942 -0.0027
11258WAT     H146837   9.891   2.451   1.070  0.3076 -0.1727  0.1212
11258WAT     H246838   9.966   2.388   0.954 -0.5867  0.0712 -0.6063
11258WAT    EPW46839   9.921   2.455   0.988 -0.2055  0.0559 -0.0660
11259WAT      O46840   6.560   1.398   3.075 -0.3932  0.3062  0.7611
11259WAT     H146841   6.541   1.319   3.023 -0.1059 -0.6542  2.0702
11259WAT     H246842   6.604   1.456   3.013  1.5884 -1.5154  0.3301
11259WAT    EPW46843   6.564   1.395   3.060 -0.0939 -0.0607  0.8770
11260WAT      O46844   3.284   2.478   4.026 -0.1943 -0.0694 -0.7819
11260WAT     H146845   3.311   2.524   4.105 -1.5339 -1.3858  0.5329
11260WAT     H246846   3.356   2.489   3.965  1.3450  0.1468  0.9939
11260WAT    EPW46847   3.297   2.485   4.029 -0.1680 -0.2145 -0.3743
11261WAT      O46848   1.793   9.039   2.158 -0.8589 -0.5808 -0.4493
11261WAT     H146849   1.756   8.997   2.236  1.1067  0.7728  1.3369
11261WAT     H246850   1.747   9.123   2.153  1.0690  0.6522  1.1564
11261WAT    EPW46851   1.782   9.044   2.168 -0.3455 -0.2398 -0.0018
11262WAT      O46852   3.628   9.411   4.235 -0.4556 -0.1206 -0.1623
11262WAT     H146853   3.671   9.424   4.319  0.3340 -1.7352 -0.2867
11262WAT     H246854   3.642   9.318   4.214 -0.3619  0.3103 -2.2239
11262WAT    EPW46855   3.635   9.400   4.243 -0.3390 -0.2766 -0.4506
11263WAT      O46856   2.364   9.289   3.151 -0.0666 -0.4112 -0.6707
11263WAT     H146857   2.401   9.347   3.217  2.3680 -0.6326 -1.7139
11263WAT     H246858   2.434   9.226   3.133 -2.7353 -4.1479  0.8067
11263WAT    EPW46859   2.378   9.288   3.157 -0.0975 -0.9336 -0.6136
11264WAT      O46860   8.780   1.931   0.810  0.6498  0.5219 -0.1435
11264WAT     H146861   8.839   1.888   0.749  3.2831  2.9029  0.5191
11264WAT     H246862   8.693   1.916   0.773  1.7403 -1.7414 -2.0837
11264WAT    EPW46863   8.776   1.924   0.797  1.1411  0.5375 -0.3120
11265WAT      O46864   5.983   0.342   1.160  0.4364  0.7347  0.3497
11265WAT     H146865   5.934   0.389   1.227 -0.4658  0.1572  0.1092
11265WAT     H246866   5.942   0.256   1.155  2.6094 -0.4497  1.4141
11265WAT    EPW46867   5.971   0.337   1.168  0.6042  0.5023  0.4584
11266WAT      O46868   8.261   1.266   3.102 -0.1204  0.6371 -0.4488
11266WAT     H146869   8.198   1.261   3.031  0.0144  2.5376 -0.7500
11266WAT     H246870   8.259   1.179   3.142 -1.4298  0.0505 -1.7052
11266WAT    EPW46871   8.253   1.254   3.098 -0.2751  0.8104 -0.6542
11267WAT      O46872   7.622   0.060   1.449 -0.4312  0.3762 -0.1852
11267WAT     H146873   7.638   0.134   1.509  1.5272 -0.1679  0.0200
11267WAT     H246874   7.585   0.101   1.371 -0.0259  1.4993  0.1854
11267WAT    EPW46875   7.619   0.075   1.447 -0.1194  0.4525 -0.1093
11268WAT      O46876   5.256   1.326   6.671 -0.3516 -0.6792 -0.3209
11268WAT     H146877   5.346   1.349   6.649 -0.4898 -1.4155 -1.8458
11268WAT     H246878   5.219   1.295   6.588 -2.3929  0.7801 -0.0262
11268WAT    EPW46879   5.263   1.325   6.657 -0.6387 -0.5839 -0.4833
11269WAT      O46880   7.550   0.695   3.228  0.4053 -0.4201  0.3218
11269WAT     H146881   7.472   0.724   3.181  0.1984  1.6129  1.7777
11269WAT     H246882   7.566   0.606   3.195 -1.7940 -0.4437 -0.9020
11269WAT    EPW46883   7.542   0.687   3.218  0.0882 -0.1550  0.3524
11270WAT      O46884   3.642   2.074   1.053 -0.5762 -0.0048 -0.4457
11270WAT     H146885   3.592   2.006   1.008 -0.5395 -0.4160  0.1220
11270WAT     H246886   3.733   2.043   1.051 -0.7154 -0.5904  0.8669
11270WAT    EPW46887   3.647   2.061   1.047 -0.5897 -0.1363 -0.1978
11271WAT      O46888   2.606  10.115   4.293 -0.8628  0.1982 -0.0378
11271WAT     H146889   2.642  10.071   4.216  0.5344 -2.1595  1.8588
11271WAT     H246890   2.682  10.153   4.337 -1.1248 -1.4421  1.9406
11271WAT    EPW46891   2.621  10.114   4.289 -0.7131 -0.3295  0.4735
11272WAT      O46892   2.906   9.132   4.491 -0.6899 -0.2405  0.2619
11272WAT     H146893   2.943   9.092   4.570  1.1006 -0.0031 -0.4064
11272WAT     H246894   2.958   9.097   4.419  0.7963  2.9612 -0.3864
11272WAT    EPW46895   2.918   9.122   4.492 -0.2577  0.2136  0.0882
11273WAT      O46896   9.665   9.792   2.994 -0.1459 -0.7065 -0.2738
11273WAT     H146897   9.600   9.734   2.954  0.2843 -2.9325  1.9919
11273WAT     H246898   9.624   9.823   3.075  1.0049 -0.9193  0.4214
11273WAT    EPW46899   9.651   9.788   2.999  0.0625 -1.0281  0.1167
11274WAT      O46900   5.660   3.528   1.915  0.1362  0.1169  0.3623
11274WAT     H146901   5.631   3.507   1.826 -0.7581  3.0308 -0.1566
11274WAT     H246902   5.755   3.523   1.911  0.0831 -0.6014 -0.5019
11274WAT    EPW46903   5.669   3.524   1.903  0.0110  0.4064  0.1799
11275WAT      O46904   1.521   7.143   4.046 -0.4337  0.2087  0.4888
11275WAT     H146905   1.516   7.134   4.141 -1.4990 -0.9037  0.3518
11275WAT     H246906   1.436   7.178   4.020  0.3925  2.0418  0.0570
11275WAT    EPW46907   1.509   7.146   4.055 -0.4652  0.3035  0.4139
11276WAT      O46908   5.681   2.467   2.515  0.0680  0.3065  0.8326
11276WAT     H146909   5.706   2.558   2.528 -0.3540  0.4319  0.7892
11276WAT     H246910   5.756   2.427   2.471  0.4027  0.5421  1.1917
11276WAT    EPW46911   5.694   2.474   2.511  0.0565  0.3541  0.8743
11277WAT      O46912   8.566   3.795   0.009 -0.7957  0.2087 -0.0483
11277WAT     H146913   8.513   3.716   0.014  1.5347 -1.6127 -1.9701
11277WAT     H246914   8.598   3.808   0.098  0.3409 -2.2365 -0.0254
11277WAT    EPW46915   8.563   3.786   0.022 -0.3381 -0.3539 -0.2987
11278WAT      O46916   4.445   9.832   1.158 -0.0630  0.5013  0.1430
11278WAT     H146917   4.367   9.816   1.104 -0.5376  1.5308  0.5111
11278WAT     H246918   4.488   9.907   1.117  2.3895 -1.7551 -1.8302
11278WAT    EPW46919   4.440   9.840   1.145  0.1981  0.3395 -0.0687
11279WAT      O46920   6.634   1.124   7.929 -0.0511  0.6750  0.2261
11279WAT     H146921   6.594   1.040   7.907  0.7248  0.6603 -1.2516
11279WAT     H246922   6.679   1.151   7.849 -1.5584  3.2722  0.1162
11279WAT    EPW46923   6.634   1.116   7.916 -0.1476  1.0157  0.0167
11280WAT      O46924   6.159   1.033   3.470 -0.4669 -0.1148  0.3421
11280WAT     H146925   6.190   0.963   3.413  1.6426  0.7013  0.3876
11280WAT     H246926   6.110   1.092   3.413 -1.8516 -1.3377  0.2162
11280WAT    EPW46927   6.157   1.031   3.455 -0.3712 -0.1686  0.3313
11281WAT      O46928   7.581   8.451   1.691  0.0918 -0.0058 -0.2746
11281WAT     H146929   7.516   8.388   1.659 -1.2932  1.1551  0.1294
11281WAT     H246930   7.580   8.440   1.786 -0.4274  0.8248 -0.1675
11281WAT    EPW46931   7.572   8.441   1.700 -0.1593  0.2561 -0.2072
11282WAT      O46932   6.921   0.797   3.521  0.2284  0.4881  0.0025
11282WAT     H146933   6.857   0.833   3.582  0.1925  2.4133 -1.0997
11282WAT     H246934   6.969   0.731   3.572  0.0223  1.8230  2.0128
11282WAT    EPW46935   6.919   0.793   3.536  0.1965  0.9181  0.1223
11283WAT      O46936   5.280   2.570   7.307  0.0947  0.1777  0.1400
11283WAT     H146937   5.282   2.580   7.402 -1.6024 -0.0541  0.2291
11283WAT     H246938   5.206   2.511   7.291  1.1612 -0.8490 -1.2541
11283WAT    EPW46939   5.270   2.563   7.318  0.0114  0.0117 -0.0322
11284WAT      O46940   4.026   8.861   0.998 -0.3816 -0.6193  0.6569
11284WAT     H146941   4.018   8.895   1.087 -1.9889  0.9547 -0.0256
11284WAT     H246942   4.117   8.877   0.974 -0.4055  0.6748  1.3664
11284WAT    EPW46943   4.037   8.868   1.007 -0.5968 -0.2408  0.6605
11285WAT      O46944   2.159   9.868   2.230 -0.1734 -0.0511  0.3600
11285WAT     H146945   2.134   9.960   2.237  1.3980  0.4045  0.3296
11285WAT     H246946   2.078   9.820   2.243 -1.0342  1.3421  0.3048
11285WAT    EPW46947   2.145   9.874   2.232 -0.0798  0.1926  0.3488
11286WAT      O46948   6.650   0.359   8.249  0.2404  0.1605 -0.0181
11286WAT     H146949   6.696   0.425   8.196  0.1759 -0.2638 -0.6071
11286WAT     H246950   6.639   0.401   8.334  0.1524  0.9374 -0.4030
11286WAT    EPW46951   6.655   0.373   8.253  0.2203  0.2070 -0.1469
11287WAT      O46952   5.005   0.166   4.031 -0.2292  0.1543  0.2070
11287WAT     H146953   5.095   0.177   4.063  0.7661 -0.0491 -2.2460
11287WAT     H246954   4.950   0.208   4.097  1.5137 -0.9989  2.5303
11287WAT    EPW46955   5.010   0.173   4.044  0.1318 -0.0246  0.1898
11288WAT      O46956  10.524   5.545   5.923 -0.1941 -0.1991  0.1274
11288WAT     H146957  10.438   5.577   5.895  0.1569  0.9865  0.3528
11288WAT     H246958  10.531   5.571   6.014  0.6977  0.3573 -0.0902
11288WAT    EPW46959  10.514   5.553   5.931 -0.0300  0.0305  0.1283
11289WAT      O46960   8.613   1.910   5.968  0.1501  0.1093 -0.1175
11289WAT     H146961   8.522   1.936   5.950  0.5383  1.0787 -0.7427
11289WAT     H246962   8.606   1.851   6.043 -1.0290 -0.0735 -0.3427
11289WAT    EPW46963   8.600   1.905   5.975  0.0458  0.2130 -0.2296
11290WAT      O46964   5.234   1.118   2.917 -0.4375 -0.6046  0.2956
11290WAT     H146965   5.197   1.106   3.005 -1.7954 -1.2492 -0.3360
11290WAT     H246966   5.321   1.153   2.933 -0.3043 -1.5496  1.9466
11290WAT    EPW46967   5.240   1.121   2.931 -0.5989 -0.8143  0.4301
11291WAT      O46968   3.859   0.705   4.562  0.3042  0.5394  0.5892
11291WAT     H146969   3.825   0.667   4.643 -1.2428  2.5139  0.9554
11291WAT     H246970   3.815   0.658   4.492  0.6458 -0.2910  0.9266
11291WAT    EPW46971   3.849   0.694   4.564  0.1452  0.6903  0.6819
11292WAT      O46972   2.599   8.361   1.412 -0.0514  0.0482  0.3359
11292WAT     H146973   2.597   8.418   1.489  1.2834 -0.6165  0.8985
11292WAT     H246974   2.508   8.357   1.382 -0.3601  1.4473  1.0286
11292WAT    EPW46975   2.586   8.368   1.418  0.0839  0.1454  0.5015
11293WAT      O46976   3.151   0.191   2.595 -0.4465 -0.4948  0.2561
11293WAT     H146977   3.150   0.166   2.502 -0.8428  2.1564 -0.5527
11293WAT     H246978   3.061   0.219   2.613  0.2166  1.5998  0.5950
11293WAT    EPW46979   3.139   0.192   2.585 -0.4113  0.1311  0.1942
11294WAT      O46980   0.323   9.804   3.094  0.2216 -0.2317  0.5768
11294WAT     H146981   0.397   9.846   3.050 -0.0030 -1.2020 -0.7726
11294WAT     H246982   0.290   9.872   3.153  0.7299  1.0378 -0.5223
11294WAT    EPW46983   0.328   9.819   3.096  0.2590 -0.1926  0.2538
11295WAT      O46984   8.330   0.196   1.822  0.3518  0.0435  0.2394
11295WAT     H146985   8.401   0.169   1.763 -0.5608  0.8479 -1.2820
11295WAT     H246986   8.269   0.122   1.822 -0.2526  0.5271 -0.8406
11295WAT    EPW46987   8.332   0.183   1.814  0.1516  0.2134 -0.1037
11296WAT      O46988   6.955   1.213   3.485  0.2600 -0.1347 -0.5162
11296WAT     H146989   6.915   1.196   3.400 -0.6202 -1.3908  0.1088
11296WAT     H246990   6.886   1.258   3.535  1.0429  1.3322 -0.6895
11296WAT    EPW46991   6.941   1.217   3.481  0.2472 -0.1068 -0.4566
11297WAT      O46992   2.503   6.491   1.575 -0.0561 -0.8841  0.1763
11297WAT     H146993   2.461   6.563   1.622  0.4137 -0.2187 -0.3860
11297WAT     H246994   2.537   6.532   1.495  4.9556 -0.4656  2.1911
11297WAT    EPW46995   2.502   6.506   1.571  0.6670 -0.7412  0.3679
11298WAT      O46996   7.051   2.737   5.079  0.6945 -0.0493 -0.4168
11298WAT     H146997   7.036   2.828   5.102  0.7123  0.1676 -1.2235
11298WAT     H246998   6.980   2.689   5.122  0.4506  0.3916 -0.3240
11298WAT    EPW46999   7.040   2.743   5.088  0.6647  0.0374 -0.5107
11299WAT      O47000   3.671   9.079   3.902 -0.5855  0.1307 -0.6283
11299WAT     H147001   3.587   9.125   3.911 -0.2941  0.6083 -0.2916
11299WAT     H247002   3.652   8.989   3.928 -0.6432  0.6066  1.0696
11299WAT    EPW47003   3.657   9.073   3.907 -0.5547  0.2561 -0.3599
11300WAT      O47004   2.988   3.850   3.307 -0.5310 -0.2395 -0.0423
11300WAT     H147005   2.901   3.888   3.300 -1.3503 -2.2672 -3.4693
11300WAT     H247006   3.048   3.923   3.289 -1.6973  0.6042 -0.6091
11300WAT    EPW47007   2.985   3.864   3.303 -0.7929 -0.3959 -0.5691
11301WAT      O47008   7.094   3.197   4.510  1.0624  0.6457 -0.7378
11301WAT     H147009   7.035   3.244   4.452 -0.6406 -1.1270 -0.5686
11301WAT     H247010   7.086   3.243   4.594 -1.1487 -0.2666 -0.3714
11301WAT    EPW47011   7.085   3.209   4.514  0.5462  0.2917 -0.6673
11302WAT      O47012   1.670   8.471   1.136 -0.3950  0.0156 -0.3901
11302WAT     H147013   1.682   8.549   1.191 -2.1627  0.1676 -0.1646
11302WAT     H247014   1.668   8.505   1.047  2.8642 -0.2747 -0.6724
11302WAT    EPW47015   1.671   8.486   1.132 -0.1982 -0.0029 -0.3976
11303WAT      O47016   0.881   6.334   8.261 -0.3996  0.2216  0.5506
11303WAT     H147017   0.929   6.281   8.324  2.4698  1.1996 -0.6330
11303WAT     H247018   0.851   6.271   8.195  0.1593 -0.3225  0.8079
11303WAT    EPW47019   0.883   6.319   8.260  0.0525  0.2789  0.4282
11304WAT      O47020   6.364   2.643   3.484  0.4406  0.0311 -0.0298
11304WAT     H147021   6.399   2.557   3.464  0.3116 -0.2033  0.7102
11304WAT     H247022   6.315   2.630   3.566  0.9972  0.9493  0.4622
11304WAT    EPW47023   6.362   2.630   3.492  0.4971  0.1212  0.1326
11305WAT      O47024   3.791   0.365   2.129 -0.5386 -0.1472 -0.2052
11305WAT     H147025   3.804   0.460   2.136 -1.7642 -0.0466  0.9568
11305WAT     H247026   3.876   0.332   2.099  0.3241  1.1740  0.6731
11305WAT    EPW47027   3.804   0.373   2.126 -0.5864  0.0403  0.0639
11306WAT      O47028   2.218   8.144   4.260  0.2887  0.4969  0.1036
11306WAT     H147029   2.283   8.143   4.331 -0.7639 -0.6763  1.0898
11306WAT     H247030   2.135   8.163   4.304 -0.4266 -0.5068 -0.7645
11306WAT    EPW47031   2.216   8.147   4.275  0.0556  0.2103  0.1187
11307WAT      O47032   4.543   0.584   3.737 -0.3852 -0.3822 -0.5745
11307WAT     H147033   4.461   0.616   3.774  0.1946 -1.5623  2.0131
11307WAT     H247034   4.607   0.653   3.755 -0.4221 -0.2974 -0.7734
11307WAT    EPW47035   4.541   0.597   3.745 -0.3140 -0.5266 -0.2594
11308WAT      O47036   5.521   7.399   1.729  0.1387  0.8006 -0.1083
11308WAT     H147037   5.543   7.351   1.650 -0.3648  1.3027 -0.5578
11308WAT     H247038   5.600   7.392   1.784 -0.0255 -0.8084 -0.0118
11308WAT    EPW47039   5.534   7.392   1.726  0.0508  0.6545 -0.1549
11309WAT      O47040   4.404   8.818   2.300 -0.8064 -1.0168  0.2204
11309WAT     H147041   4.394   8.913   2.296  2.9193 -0.4178  1.3280
11309WAT     H247042   4.345   8.785   2.231 -1.6949  2.0902 -0.6729
11309WAT    EPW47043   4.395   8.826   2.290 -0.4320 -0.5283  0.2487
11310WAT      O47044   5.123   1.053   3.789 -0.0507 -0.5721 -0.2311
11310WAT     H147045   5.174   0.991   3.737  2.1035 -0.9458  2.1457
11310WAT     H247046   5.172   1.135   3.784 -1.6647  0.3746 -1.4912
11310WAT    EPW47047   5.136   1.056   3.782  0.0207 -0.4964 -0.0838
11311WAT      O47048   2.546   8.634   2.493  0.1550  0.0550 -0.4423
11311WAT     H147049   2.466   8.604   2.450  0.1865  0.5707 -0.8650
11311WAT     H247050   2.517   8.658   2.582 -0.2844  0.7952 -0.7709
11311WAT    EPW47051   2.532   8.634   2.499  0.1013  0.2213 -0.5413
11312WAT      O47052   9.303   1.867   4.522 -0.2284 -0.1238  0.2011
11312WAT     H147053   9.250   1.795   4.490 -2.0713  1.6618 -0.9887
11312WAT     H247054   9.307   1.853   4.617 -2.0802 -0.8153  0.2139
11312WAT    EPW47055   9.297   1.856   4.531 -0.7157  0.0204  0.0458
11313WAT      O47056   3.681  10.047   5.723  0.1920 -1.0757 -0.2947
11313WAT     H147057   3.690   9.956   5.751  0.8821 -0.7649  0.5401
11313WAT     H247058   3.632  10.042   5.641 -1.3440 -2.0558  0.6335
11313WAT    EPW47059   3.676  10.034   5.716  0.0805 -1.1640 -0.0622
11314WAT      O47060   4.313   3.027   3.145  0.1281  0.8114 -0.2638
11314WAT     H147061   4.378   3.079   3.098  0.5784  0.5253  0.0358
11314WAT     H247062   4.360   2.948   3.171 -0.7055 -0.0241 -1.2259
11314WAT    EPW47063   4.328   3.024   3.142  0.0777  0.6635 -0.3513
11315WAT      O47064   0.565  10.271   1.848  0.0703  0.2829  0.1064
11315WAT     H147065   0.483  10.228   1.824  0.1030  0.2655  0.0233
11315WAT     H247066   0.608  10.209   1.906 -0.7544  1.0250  1.5561
11315WAT    EPW47067   0.560  10.257   1.852 -0.0342  0.3791  0.2866
11316WAT      O47068   3.362   9.363   0.698 -0.4407 -0.3121 -0.0395
11316WAT     H147069   3.370   9.431   0.632  2.8806  1.0319  1.5053
11316WAT     H247070   3.355   9.282   0.649  0.8029  0.7189 -2.0235
11316WAT    EPW47071   3.362   9.361   0.683  0.1614  0.0005 -0.0974
11317WAT      O47072   3.277  10.058   3.812 -0.1357  0.2903  0.6679
11317WAT     H147073   3.221   9.985   3.840 -0.0820  0.2864  0.7669
11317WAT     H247074   3.357  10.047   3.863  0.1179  0.0614  0.2245
11317WAT    EPW47075   3.280  10.047   3.823 -0.0952  0.2599  0.6225
11318WAT      O47076   2.208   9.800   4.882 -0.1330  0.3391 -0.7255
11318WAT     H147077   2.275   9.835   4.941 -2.6444  2.0763  1.2963
11318WAT     H247078   2.142   9.763   4.940 -0.9065 -1.4805 -2.6590
11318WAT    EPW47079   2.208   9.800   4.897 -0.5661  0.3285 -0.7138
11319WAT      O47080   2.994   1.677   8.874  0.1138  0.2155 -0.1011
11319WAT     H147081   2.931   1.708   8.809  2.3590  3.1199 -1.1673
11319WAT     H247082   2.983   1.736   8.948 -0.7394 -1.5058  1.1999
11319WAT    EPW47083   2.984   1.689   8.875  0.2974  0.3715 -0.0701
11320WAT      O47084   2.759   0.270   1.750 -0.3809 -0.4318 -0.1333
11320WAT     H147085   2.806   0.188   1.737  0.4999  0.2486 -1.4707
11320WAT     H247086   2.798   0.330   1.687 -2.0365  0.5914 -0.2413
11320WAT    EPW47087   2.770   0.267   1.740 -0.4830 -0.2071 -0.3239
11321WAT      O47088   3.956   9.639   3.927 -0.9078 -0.3237  0.6625
11321WAT     H147089   3.893   9.622   3.997 -0.7574 -2.4080  0.3446
11321WAT     H247090   3.940   9.571   3.862  0.8549 -0.1644  0.0053
11321WAT    EPW47091   3.946   9.628   3.928 -0.6554 -0.5774  0.5341
11322WAT      O47092  10.438   1.207   7.847 -0.3175  0.0222  0.1901
11322WAT     H147093  10.346   1.179   7.847 -1.0300  2.0708 -0.5796
11322WAT     H247094  10.448   1.253   7.763  1.5754 -0.5843  0.0435
11322WAT    EPW47095  10.427   1.210   7.836 -0.1616  0.2124  0.0694
11323WAT      O47096   7.076   2.616   2.476  0.1584  0.5249 -0.5010
11323WAT     H147097   6.999   2.668   2.454  0.0301  0.3852 -0.3886
11323WAT     H247098   7.091   2.635   2.569  0.4120  0.7470 -0.5841
11323WAT    EPW47099   7.068   2.625   2.486  0.1750  0.5357 -0.4971
11324WAT      O47100   6.605   2.183   3.169 -0.0347 -0.5306 -0.1844
11324WAT     H147101   6.616   2.271   3.205  1.3641 -1.5791  2.2430
11324WAT     H247102   6.681   2.169   3.113  0.1419 -0.4601  0.0371
11324WAT    EPW47103   6.616   2.193   3.167  0.1733 -0.6596  0.1649
11325WAT      O47104   9.419   1.911   3.641 -0.3103 -0.1708 -0.5861
11325WAT     H147105   9.380   1.960   3.713 -0.3865 -0.7352 -0.2313
11325WAT     H247106   9.512   1.909   3.661 -0.4714 -1.3775  0.1749
11325WAT    EPW47107   9.426   1.917   3.653 -0.3414 -0.4044 -0.4388
11326WAT      O47108   8.660   2.986   6.172  0.6891 -0.3079 -0.3663
11326WAT     H147109   8.745   3.014   6.138  0.3803  0.7352 -0.3278
11326WAT     H247110   8.661   3.014   6.264  0.3866 -0.4856 -0.3083
11326WAT    EPW47111   8.672   2.994   6.180  0.6084 -0.1937 -0.3533
11327WAT      O47112   9.536   2.627   6.564  0.6624  0.1298 -0.3449
11327WAT     H147113   9.583   2.580   6.495  1.6493 -2.2509  1.8031
11327WAT     H247114   9.605   2.663   6.620 -0.1203  1.0743  0.0490
11327WAT    EPW47115   9.552   2.626   6.562  0.6895 -0.0596 -0.0098
11328WAT      O47116   3.555   8.795   2.361 -0.1269  0.2178 -0.0239
11328WAT     H147117   3.648   8.772   2.364  0.1385  1.2668  0.2429
11328WAT     H247118   3.548   8.856   2.288 -0.4114  0.8905  0.5507
11328WAT    EPW47119   3.567   8.800   2.352 -0.1293  0.4449  0.0871
11329WAT      O47120   2.331  10.262   2.053 -0.1388  0.5848  0.3698
11329WAT     H147121   2.253  10.206   2.063  0.1839  0.3038  1.4987
11329WAT     H247122   2.379  10.251   2.135  3.3065 -2.5323 -1.7798
11329WAT    EPW47123   2.327  10.253   2.065  0.3582  0.1364  0.2352
11330WAT      O47124   7.221   1.604   1.535  0.1022 -1.0548  0.0825
11330WAT     H147125   7.278   1.680   1.524  0.5429 -1.3669  0.1860
11330WAT     H247126   7.249   1.544   1.465  0.9003 -1.8168  1.0275
11330WAT    EPW47127   7.232   1.606   1.524  0.2656 -1.1964  0.2208
11331WAT      O47128   1.096   8.284   6.537 -0.3303  1.0130  0.6429
11331WAT     H147129   1.125   8.352   6.476 -0.2726  1.5972  1.3013
11331WAT     H247130   1.056   8.217   6.482 -0.9595  1.8743  0.0184
11331WAT    EPW47131   1.094   8.284   6.522 -0.4055  1.2035  0.6473
11332WAT      O47132   6.222   4.028   3.037  0.1597 -0.1001  0.0425
11332WAT     H147133   6.293   4.039   3.100 -0.2050 -2.2318  0.9285
11332WAT     H247134   6.164   3.963   3.078 -0.9846 -0.2827 -1.7526
11332WAT    EPW47135   6.224   4.021   3.051 -0.0393 -0.4053 -0.0775
11333WAT      O47136   7.098   0.906   2.179  0.1285  0.2401 -0.9107
11333WAT     H147137   7.141   0.889   2.095 -0.9673  1.8370 -1.8548
11333WAT     H247138   7.105   1.000   2.191  0.4888  0.0146  0.9518
11333WAT    EPW47139   7.105   0.916   2.170  0.0315  0.4210 -0.7896
11334WAT      O47140   3.899   2.310   4.610 -0.3629  0.3181 -0.5545
11334WAT     H147141   3.938   2.268   4.686  0.4405 -0.2431 -1.2476
11334WAT     H247142   3.910   2.404   4.625  0.1939  0.1954 -0.1851
11334WAT    EPW47143   3.906   2.317   4.622 -0.1835  0.2279 -0.5970
11335WAT      O47144   2.574   2.571   0.988 -0.0649  0.1391 -0.1385
11335WAT     H147145   2.591   2.507   1.058 -1.9095 -0.7272 -0.4213
11335WAT     H247146   2.588   2.522   0.907  0.5490  0.7058 -0.3847
11335WAT    EPW47147   2.578   2.556   0.987 -0.2272  0.0997 -0.2083
11336WAT      O47148   0.770   9.290   5.139 -0.1855 -0.2156  0.7096
11336WAT     H147149   0.747   9.300   5.046  1.2051  1.9351  0.5388
11336WAT     H247150   0.855   9.245   5.138 -0.7493 -1.3383  1.0355
11336WAT    EPW47151   0.778   9.285   5.126 -0.0764 -0.0806  0.7300
11337WAT      O47152   7.749   3.214   3.738 -0.3137 -0.0638  0.5869
11337WAT     H147153   7.803   3.293   3.745  1.0914 -0.8830 -0.4173
11337WAT     H247154   7.686   3.234   3.669 -0.7176  0.5724  1.1290
11337WAT    EPW47155   7.748   3.227   3.730 -0.1817 -0.0881  0.5260
11338WAT      O47156   4.922   8.661   5.149 -0.4109  0.0158  0.7402
11338WAT     H147157   4.990   8.642   5.214 -0.8633  0.4186  1.3419
11338WAT     H247158   4.914   8.756   5.150  0.2880  0.1143 -0.6520
11338WAT    EPW47159   4.930   8.671   5.158 -0.3786  0.0825  0.6359
11339WAT      O47160   8.083   1.216   2.878 -0.1189  0.0771 -0.2996
11339WAT     H147161   8.034   1.163   2.815  3.8611 -1.6703 -2.3009
11339WAT     H247162   8.086   1.303   2.839 -3.0832  0.7914  0.8546
11339WAT    EPW47163   8.077   1.220   2.865  0.0148 -0.0591 -0.4114
11340WAT      O47164   1.899   9.905   1.780  0.0879  0.2038  0.4926
11340WAT     H147165   1.994   9.906   1.786  0.1585  1.8403 -0.2253
11340WAT     H247166   1.870   9.854   1.856  1.5098  0.3083  1.1293
11340WAT    EPW47167   1.907   9.898   1.791  0.2847  0.4330  0.4819
11341WAT      O47168   0.439  10.332   3.667  0.0973  0.1935  0.0824
11341WAT     H147169   0.409  10.260   3.611  1.9406 -1.1843  0.7546
11341WAT     H247170   0.530  10.347   3.641  0.1811  1.3210  0.9419
11341WAT    EPW47171   0.447  10.324   3.656  0.3515  0.1607  0.2844
11342WAT      O47172   7.886   4.006   6.923  0.1537 -0.1709  1.0511
11342WAT     H147173   7.882   4.012   6.827  0.2290 -2.8111  0.8256
11342WAT     H247174   7.932   4.086   6.949  1.1019  0.1029 -1.1981
11342WAT    EPW47175   7.891   4.017   6.914  0.2887 -0.4830  0.7250
11343WAT      O47176   5.926   1.780   4.631 -0.1771 -0.2198 -0.0492
11343WAT     H147177   5.924   1.816   4.720 -0.4202  0.4815 -0.3298
11343WAT     H247178   5.961   1.852   4.577 -1.6769 -0.0146 -0.7904
11343WAT    EPW47179   5.931   1.794   4.636 -0.4070 -0.1003 -0.1838
11344WAT      O47180   9.826   0.949   5.440 -0.4251  0.5375  0.1865
11344WAT     H147181   9.744   0.922   5.480  0.2243 -0.6288  0.7887
11344WAT     H247182   9.802   1.018   5.378 -1.6879  1.0714  1.2347
11344WAT    EPW47183   9.812   0.955   5.437 -0.5064  0.4541  0.4044
11345WAT      O47184   9.135   0.907   2.554 -0.3801 -0.3119  0.4918
11345WAT     H147185   9.141   0.992   2.509  0.6946  0.7160  2.4384
11345WAT     H247186   9.086   0.927   2.634 -2.6115 -2.1731 -0.2970
11345WAT    EPW47187   9.129   0.921   2.559 -0.5322 -0.4218  0.6444
11346WAT      O47188   9.477   4.217   8.245 -0.5239  0.5722 -0.0122
11346WAT     H147189   9.537   4.217   8.320 -2.0686 -0.8226  1.2994
11346WAT     H247190   9.492   4.133   8.202 -1.0308  0.5095 -0.0755
11346WAT    EPW47191   9.487   4.206   8.249 -0.7944  0.3800  0.1531
11347WAT      O47192   2.024   9.496   4.078  0.0346 -0.8344 -0.8583
11347WAT     H147193   2.063   9.545   4.151 -0.1995 -1.4923 -0.2844
11347WAT     H247194   1.998   9.564   4.016  0.8845 -0.3067 -0.6564
11347WAT    EPW47195   2.026   9.512   4.079  0.1158 -0.8516 -0.7558
11348WAT      O47196   1.812   8.401   0.614 -0.4248 -0.1673  0.4161
11348WAT     H147197   1.860   8.480   0.641 -0.5916 -0.2431  0.9639
11348WAT     H247198   1.729   8.407   0.661 -1.5199  0.6147 -1.5025
11348WAT    EPW47199   1.808   8.412   0.624 -0.5912 -0.0744  0.2354
11349WAT      O47200   5.360   0.589   3.599 -0.2235  0.4176 -0.8614
11349WAT     H147201   5.448   0.581   3.638 -0.5875  0.1122 -0.0825
11349WAT     H247202   5.334   0.499   3.582  0.0763  0.5655 -2.1735
11349WAT    EPW47203   5.368   0.576   3.602 -0.2320  0.3968 -0.9317
11350WAT      O47204   9.142   0.091   2.734  0.1353 -0.1852 -0.2026
11350WAT     H147205   9.168   0.004   2.765  1.2062 -0.3234 -1.3999
11350WAT     H247206   9.138   0.083   2.639  0.7135  1.1733 -0.3785
11350WAT    EPW47207   9.145   0.079   2.726  0.3529 -0.0243 -0.3836
11351WAT      O47208  10.212   1.621   7.396  0.2383 -0.0582  0.7914
11351WAT     H147209  10.202   1.543   7.451  0.9322 -1.0024 -0.3712
11351WAT     H247210  10.147   1.609   7.326 -1.5948  1.7887  2.0413
11351WAT    EPW47211  10.202   1.609   7.394  0.0882  0.0608  0.8030
11352WAT      O47212   7.700   8.844   2.942  0.2171 -0.0799  0.3405
11352WAT     H147213   7.619   8.891   2.923  1.6027  1.5353 -2.0563
11352WAT     H247214   7.767   8.912   2.947  1.5706 -1.4312  1.5226
11352WAT    EPW47215   7.698   8.859   2.940  0.5784 -0.0448  0.1802
11353WAT      O47216  10.881   9.584   3.007 -0.3292  0.2406  0.0630
11353WAT     H147217  10.850   9.574   3.097 -0.4530 -3.0513 -0.2097
11353WAT     H247218  10.814   9.540   2.953  1.1588 -0.4970 -1.2859
11353WAT    EPW47219  10.868   9.577   3.011 -0.1493 -0.2909 -0.1510
11354WAT      O47220   8.747   4.225   6.543  0.1084 -0.3369 -0.3655
11354WAT     H147221   8.705   4.162   6.485  2.2355 -1.5210 -0.7246
11354WAT     H247222   8.814   4.267   6.489 -1.3962  2.5200 -0.2207
11354WAT    EPW47223   8.750   4.222   6.528  0.1912 -0.1161 -0.3939
11355WAT      O47224   5.609   9.646   4.075 -0.1678  1.6294 -0.7191
11355WAT     H147225   5.537   9.659   4.136  1.0898 -0.0524  1.2266
11355WAT     H247226   5.663   9.578   4.114  0.7807  0.5061 -3.6826
11355WAT    EPW47227   5.607   9.639   4.088  0.1233  1.2593 -0.8533
11356WAT      O47228   4.089  10.336   3.423 -0.0160  0.5649  0.0233
11356WAT     H147229   4.147  10.307   3.494 -0.8757 -1.0066  0.1147
11356WAT     H247230   4.147  10.384   3.364  1.2755 -0.4841  0.3843
11356WAT    EPW47231   4.105  10.339   3.425  0.0410  0.2193  0.0830
11357WAT      O47232   4.514   9.320   4.602 -0.0395  0.0886 -0.6433
11357WAT     H147233   4.505   9.225   4.604 -1.5648  0.2175  0.1277
11357WAT     H247234   4.607   9.335   4.583 -0.3581 -1.5360 -4.4660
11357WAT    EPW47235   4.525   9.310   4.599 -0.2825 -0.1082 -1.0459
11358WAT      O47236  10.018   1.702   3.607  0.1839 -0.1579  0.3847
11358WAT     H147237   9.975   1.655   3.535  1.1638  0.6064 -0.7276
11358WAT     H247238   9.946   1.727   3.665 -0.8947  0.8608 -1.3016
11358WAT    EPW47239  10.003   1.699   3.605  0.1712  0.0772  0.0155
11359WAT      O47240   3.746   9.278   4.726 -0.1367 -0.1561 -0.0446
11359WAT     H147241   3.750   9.184   4.708  1.3827  0.2326 -1.9892
11359WAT     H247242   3.758   9.285   4.821  2.1604 -1.8333 -0.1402
11359WAT    EPW47243   3.748   9.267   4.736  0.3667 -0.3262 -0.3140
11360WAT      O47244   8.216   3.430   2.339  0.7825 -0.1619  0.5831
11360WAT     H147245   8.199   3.523   2.355  0.3107 -0.0176 -0.6531
11360WAT     H247246   8.311   3.425   2.327  1.1239 -0.2233  2.8607
11360WAT    EPW47247   8.227   3.442   2.339  0.7653 -0.1509  0.7205
11361WAT      O47248  10.975   1.487   3.962 -0.1241 -1.3017  0.4723
11361WAT     H147249  11.010   1.436   4.035  1.5976 -2.6516 -1.1800
11361WAT     H247250  10.970   1.425   3.889 -1.0912  0.1503 -0.7733
11361WAT    EPW47251  10.979   1.472   3.962 -0.0248 -1.2882  0.0901
11362WAT      O47252   6.595   1.199   3.700  0.7553 -0.1563 -0.0546
11362WAT     H147253   6.507   1.219   3.669  0.9502  1.3435  0.2898
11362WAT     H247254   6.605   1.250   3.780  1.8399 -0.5258  0.0699
11362WAT    EPW47255   6.585   1.208   3.707  0.9239 -0.0073  0.0073
11363WAT      O47256   6.586   1.803   6.972 -0.2605 -0.0378  0.4264
11363WAT     H147257   6.649   1.783   6.902 -0.2898 -1.9960  0.9279
11363WAT     H247258   6.561   1.718   7.007 -0.7754  0.8752  2.3856
11363WAT    EPW47259   6.591   1.789   6.967 -0.3326 -0.1757  0.7508
11364WAT      O47260   6.503   0.790   1.732  0.2169 -0.9627 -0.3383
11364WAT     H147261   6.582   0.775   1.785  0.0630 -2.6931 -0.5539
11364WAT     H247262   6.535   0.830   1.652  0.6601 -0.0500  0.2717
11364WAT    EPW47263   6.518   0.793   1.729  0.2551 -1.0706 -0.2863
11365WAT      O47264   4.641   8.577   1.870 -0.5961  1.1848  0.1096
11365WAT     H147265   4.592   8.653   1.899  0.3560  1.3843  1.2814
11365WAT     H247266   4.724   8.582   1.918 -0.5499 -0.6262  0.2953
11365WAT    EPW47267   4.646   8.587   1.880 -0.4644  0.9718  0.2887
11366WAT      O47268   6.245   2.720   5.041  0.0964 -0.3819  0.7072
11366WAT     H147269   6.167   2.671   5.014 -0.7058  0.1709  1.9245
11366WAT     H247270   6.317   2.677   4.995 -0.7424 -1.8574  0.7004
11366WAT    EPW47271   6.244   2.708   5.031 -0.1199 -0.5035  0.8671
11367WAT      O47272   4.445   9.921   1.429  0.6682  0.7784 -0.3255
11367WAT     H147273   4.440   9.899   1.336  1.8230  1.8885 -0.6773
11367WAT     H247274   4.536   9.947   1.442  0.1453  2.1670  0.7641
11367WAT    EPW47275   4.457   9.921   1.419  0.7515  1.1082 -0.2282
11368WAT      O47276   8.974   0.745   1.915 -0.1560 -0.9943  0.4524
11368WAT     H147277   8.926   0.686   1.856  1.0725 -0.9179 -0.6672
11368WAT     H247278   8.965   0.705   2.001 -0.4055 -2.1458 -0.0861
11368WAT    EPW47279   8.966   0.732   1.918 -0.0267 -1.1361  0.2338
11369WAT      O47280   8.471   3.532   5.333  0.0579 -0.1659  0.6805
11369WAT     H147281   8.468   3.541   5.238 -0.0368 -0.3696  0.6654
11369WAT     H247282   8.384   3.500   5.358  0.1078 -0.1904  0.8269
11369WAT    EPW47283   8.459   3.529   5.324  0.0520 -0.1960  0.6976
11370WAT      O47284   4.903   3.018   3.469  0.0843 -0.5964 -0.6736
11370WAT     H147285   4.961   2.984   3.537  0.0941 -1.9415 -1.3047
11370WAT     H247286   4.824   3.045   3.515  1.1837  1.2854  0.2045
11370WAT    EPW47287   4.900   3.017   3.484  0.2303 -0.5256 -0.6412
11371WAT      O47288   8.748   3.467   2.319 -0.0698 -0.3654  0.2995
11371WAT     H147289   8.754   3.538   2.254 -0.5253 -1.0826 -0.5458
11371WAT     H247290   8.806   3.399   2.285  0.8338 -0.1963  1.4126
11371WAT    EPW47291   8.757   3.468   2.306 -0.0114 -0.4376  0.3347
11372WAT      O47292  10.972   3.305   3.187  0.3860  0.9677  0.0742
11372WAT     H147293  10.902   3.245   3.160  1.4508 -0.4086  0.2560
11372WAT     H247294  10.972   3.301   3.282  0.4195  1.3326  0.0913
11372WAT    EPW47295  10.963   3.297   3.196  0.5307  0.8342  0.1005
11373WAT      O47296   7.563   2.133   0.045  0.3635  0.4946  0.2249
11373WAT     H147297   7.586   2.053   0.093 -0.4041 -0.3674 -0.8136
11373WAT     H247298   7.642   2.187   0.050  1.2873 -0.7999 -0.0299
11373WAT    EPW47299   7.577   2.130   0.052  0.3840  0.2103  0.0544
11374WAT      O47300   5.220  10.015   4.967 -0.2907 -0.0536 -0.2580
11374WAT     H147301   5.307  10.011   4.926  0.5032  0.6171  1.2597
11374WAT     H247302   5.171  10.076   4.912 -0.4400 -1.8175 -2.1938
11374WAT    EPW47303   5.225  10.022   4.954 -0.2055 -0.1984 -0.3130
11375WAT      O47304   7.728   1.046   6.795 -0.2752 -0.4086 -0.4374
11375WAT     H147305   7.781   1.051   6.874 -1.2421 -1.2701  0.2926
11375WAT     H247306   7.740   1.130   6.752  0.6692 -0.1285  0.3582
11375WAT    EPW47307   7.736   1.057   6.800 -0.2782 -0.4852 -0.2363
11376WAT      O47308   4.632   4.456   3.740  0.0855  0.6113  0.3714
11376WAT     H147309   4.681   4.414   3.810  0.1434 -0.0174 -0.0333
11376WAT     H247310   4.570   4.514   3.784  1.5249  1.8366  0.8995
11376WAT    EPW47311   4.630   4.458   3.755  0.2832  0.6900  0.3878
11377WAT      O47312   9.925   3.179   8.439  0.6170  0.0388 -0.2528
11377WAT     H147313   9.865   3.224   8.380  0.7589  0.4825 -0.0604
11377WAT     H247314   9.868   3.140   8.506  0.4156 -0.8690 -0.9359
11377WAT    EPW47315   9.909   3.180   8.440  0.6089 -0.0225 -0.3176
11378WAT      O47316   5.079   9.892   5.379 -0.0722  0.5831 -0.6958
11378WAT     H147317   4.994   9.880   5.421  0.4917 -0.6291  0.1447
11378WAT     H247318   5.069   9.854   5.292 -0.4097  0.5301 -0.6324
11378WAT    EPW47319   5.067   9.886   5.373 -0.0420  0.4168 -0.5767
11379WAT      O47320   5.999  10.313   6.995 -0.7439 -0.6087  0.1809
11379WAT     H147321   5.934  10.243   6.998 -0.9997 -0.3402  1.4820
11379WAT     H247322   5.963  10.381   7.052  0.0792  0.0882 -0.1051
11379WAT    EPW47323   5.986  10.313   7.003 -0.6690 -0.4811  0.3147
11380WAT      O47324   1.177   7.067   8.931  0.2614 -0.2286  0.3675
11380WAT     H147325   1.227   7.148   8.921  3.4522 -2.1459 -0.6083
11380WAT     H247326   1.172   7.030   8.843  0.9489 -2.1796  1.0759
11380WAT    EPW47327   1.183   7.073   8.918  0.7728 -0.7386  0.3324
11381WAT      O47328   9.200   2.274   2.684  0.0331 -0.7690 -0.6057
11381WAT     H147329   9.177   2.360   2.719  0.2169 -0.8457 -0.2900
11381WAT     H247330   9.206   2.218   2.762 -2.3339 -1.6178 -0.9450
11381WAT    EPW47331   9.198   2.278   2.699 -0.2551 -0.8912 -0.6088
11382WAT      O47332   4.677   2.161   5.902  0.8608 -0.1778  0.3495
11382WAT     H147333   4.676   2.155   5.807  1.3743  1.1394  0.2391
11382WAT     H247334   4.655   2.073   5.932 -3.0756  0.1557 -0.9891
11382WAT    EPW47335   4.674   2.149   5.893  0.4094  0.0399  0.1585
11383WAT      O47336   7.411   2.334   4.975  0.2511  0.8741  0.5892
11383WAT     H147337   7.415   2.407   4.913  5.4322 -0.0606 -0.6149
11383WAT     H247338   7.425   2.375   5.060  0.3322  1.5442  0.2657
11383WAT    EPW47339   7.413   2.349   4.978  0.9451  0.8391  0.3877
11384WAT      O47340   4.064   8.901   4.373 -0.1749 -0.4695  0.7342
11384WAT     H147341   4.116   8.870   4.299  1.3558  0.0185  1.5610
11384WAT     H247342   4.050   8.994   4.356 -1.5836 -0.7803  0.0786
11384WAT    EPW47343   4.069   8.909   4.361 -0.1588 -0.4463  0.7567
11385WAT      O47344   8.644   1.162   7.338 -0.1982  0.2709  0.5990
11385WAT     H147345   8.600   1.117   7.266 -0.0038 -1.5507  1.5778
11385WAT     H247346   8.626   1.255   7.322  0.9949  0.0759 -2.5650
11385WAT    EPW47347   8.636   1.169   7.326 -0.0153  0.0049  0.3104
11386WAT      O47348   5.222   3.096   4.110 -0.2494 -0.0905  0.3495
11386WAT     H147349   5.283   3.068   4.178  0.5546 -0.5185 -0.5300
11386WAT     H247350   5.277   3.121   4.036 -1.1167  0.1329 -0.2463
11386WAT    EPW47351   5.237   3.096   4.109 -0.2575 -0.1174  0.1550
11387WAT      O47352   8.130   9.278   3.586 -0.1198 -0.5393  1.0266
11387WAT     H147353   8.128   9.355   3.530 -0.8379 -0.4019  1.2272
11387WAT     H247354   8.198   9.223   3.549  2.2082  1.2850  2.3309
11387WAT    EPW47355   8.138   9.281   3.574  0.0925 -0.2809  1.2250
11388WAT      O47356   5.112   1.934   0.578  0.2856  0.0643 -0.0662
11388WAT     H147357   5.205   1.930   0.597  0.3917  2.1703  0.1587
11388WAT     H247358   5.098   2.022   0.542 -1.7257  0.1197  0.6731
11388WAT    EPW47359   5.122   1.945   0.576  0.0341  0.3493  0.0610
11389WAT      O47360   6.268   5.206   1.618 -0.4855  0.6687 -1.2568
11389WAT     H147361   6.354   5.246   1.631 -0.4121 -0.1202  1.0458
11389WAT     H247362   6.216   5.235   1.693 -1.2159 -1.3936 -0.9020
11389WAT    EPW47363   6.273   5.215   1.629 -0.5720  0.2928 -0.9063
11390WAT      O47364   7.838   0.896   6.579 -0.1027 -0.2840 -0.0311
11390WAT     H147365   7.760   0.937   6.617 -0.1249 -0.1672 -0.1986
11390WAT     H247366   7.832   0.916   6.485  0.4537  0.2676  0.0403
11390WAT    EPW47367   7.827   0.904   6.571 -0.0324 -0.1959 -0.0436
11391WAT      O47368   7.274  10.048   7.795  0.3096  0.2669 -0.1020
11391WAT     H147369   7.333  10.115   7.830  0.3052  0.2569 -0.0757
11391WAT     H247370   7.249   9.996   7.871  0.7548 -0.1058 -0.2074
11391WAT    EPW47371   7.279  10.050   7.810  0.3679  0.2165 -0.1123
11392WAT      O47372  10.069   3.307   2.983  0.1113  0.5724 -0.1480
11392WAT     H147373  10.029   3.265   3.059 -3.3713  3.8728  0.0999
11392WAT     H247374  10.089   3.234   2.924 -3.9464 -1.7407  0.9165
11392WAT    EPW47375  10.066   3.292   2.985 -0.8826  0.7026  0.0250
11393WAT      O47376   9.047   3.769   5.621 -0.2563 -0.2141  0.1041
11393WAT     H147377   9.127   3.786   5.669 -0.5694  1.6278  0.0335
11393WAT     H247378   9.020   3.681   5.649  1.0147 -0.2768  1.1933
11393WAT    EPW47379   9.054   3.760   5.631 -0.1302  0.0205  0.2384
11394WAT      O47380   8.986   1.222   5.338  0.1766 -0.0448 -0.3032
11394WAT     H147381   8.905   1.175   5.319 -0.3015  0.0345  1.3722
11394WAT     H247382   9.042   1.157   5.382  0.8618  0.0227 -1.0497
11394WAT    EPW47383   8.983   1.207   5.341  0.2041 -0.0254 -0.1807
11395WAT      O47384   1.360   7.847   2.920 -0.5263 -0.3019 -0.0666
11395WAT     H147385   1.283   7.791   2.929  1.2220 -2.5250  3.8214
11395WAT     H247386   1.350   7.913   2.989  0.8198 -0.4169  0.2622
11395WAT    EPW47387   1.349   7.848   2.930 -0.1182 -0.6104  0.4895
11396WAT      O47388   9.252   2.065   1.661  0.4105  0.0822  0.3678
11396WAT     H147389   9.171   2.037   1.704  0.2393 -0.1383 -0.0918
11396WAT     H247390   9.225   2.132   1.598  0.4287 -0.7309 -0.5318
11396WAT    EPW47391   9.238   2.070   1.658  0.3901 -0.0541  0.1886
11397WAT      O47392   6.341   1.270   1.147  0.4185 -0.5128 -0.7310
11397WAT     H147393   6.292   1.334   1.199  0.6914 -1.1065  0.2940
11397WAT     H247394   6.431   1.302   1.149  0.0558  0.8822 -3.0831
11397WAT    EPW47395   6.347   1.282   1.154  0.4067 -0.4071 -0.9061
11398WAT      O47396   8.067   3.060   5.096  0.6809  0.3400  0.5664
11398WAT     H147397   8.039   3.106   5.017  0.8036  1.2972  1.0657
11398WAT     H247398   8.118   2.986   5.064 -0.6693 -0.2645 -0.2938
11398WAT    EPW47399   8.070   3.057   5.081  0.5188  0.3865  0.5188
11399WAT      O47400   1.289   8.946   0.390 -0.3143  0.7891 -0.1257
11399WAT     H147401   1.367   8.986   0.428  0.1864 -0.5370  0.2956
11399WAT     H247402   1.317   8.859   0.364 -0.9987  1.1561 -2.3077
11399WAT    EPW47403   1.303   8.940   0.391 -0.3386  0.6628 -0.3579
11400WAT      O47404  10.260   8.410   4.608  0.1815 -0.3054  0.1759
11400WAT     H147405  10.348   8.380   4.629  0.6490  0.4249 -0.6870
11400WAT     H247406  10.207   8.330   4.607  0.9842 -0.8491 -0.0676
11400WAT    EPW47407  10.264   8.396   4.611  0.3490 -0.2809  0.0300
11401WAT      O47408   9.156   1.772   3.325 -0.7201 -0.0710 -0.1042
11401WAT     H147409   9.194   1.753   3.239  1.1698 -0.5295  0.7748
11401WAT     H247410   9.166   1.866   3.336 -1.3779  0.0535 -0.5698
11401WAT    EPW47411   9.162   1.782   3.315 -0.5579 -0.1150 -0.0497
11402WAT      O47412   0.163   4.855   6.266  0.4169  0.1179  0.0823
11402WAT     H147413   0.088   4.854   6.326  0.2813  1.6402 -0.0018
11402WAT     H247414   0.237   4.827   6.319 -0.1853 -1.4018  0.1715
11402WAT    EPW47415   0.163   4.851   6.281  0.3196  0.1183  0.0832
11403WAT      O47416   5.360   1.434   4.411 -0.1920 -0.7452 -0.4000
11403WAT     H147417   5.454   1.429   4.393 -0.0161  0.5702  0.0275
11403WAT     H247418   5.319   1.388   4.338  0.8303 -3.0248  0.3680
11403WAT    EPW47419   5.367   1.427   4.399 -0.0339 -0.8724 -0.2422
11404WAT      O47420   6.807   1.333   2.343  0.4689  0.3732  0.0258
11404WAT     H147421   6.870   1.313   2.273 -3.1310 -3.1320 -2.7551
11404WAT     H247422   6.751   1.401   2.305 -0.4911 -0.3350  0.1328
11404WAT    EPW47423   6.808   1.339   2.329 -0.1326 -0.1825 -0.3270
11405WAT      O47424   3.238  10.076   7.771  0.2115 -0.5951  0.7271
11405WAT     H147425   3.319  10.110   7.807  0.5596  0.3813 -0.9183
11405WAT     H247426   3.187  10.049   7.848  1.7701 -0.5521  1.8096
11405WAT    EPW47427   3.242  10.077   7.786  0.4630 -0.4606  0.6530
11406WAT      O47428   0.084   2.989   5.935 -0.0838 -0.2657 -0.0162
11406WAT     H147429   0.023   3.002   5.863 -2.0304 -2.2965  1.1372
11406WAT     H247430   0.118   2.901   5.923  1.7404  0.3883  0.0522
11406WAT    EPW47431   0.080   2.979   5.924 -0.0999 -0.4475  0.1452
11407WAT      O47432   9.596   1.093   3.429  0.2468  0.4515 -0.2718
11407WAT     H147433   9.588   1.050   3.514 -0.1798  1.3901  0.1667
11407WAT     H247434   9.590   1.186   3.448  2.5899  0.8156 -1.0470
11407WAT    EPW47435   9.594   1.099   3.442  0.4992  0.6232 -0.3163
11408WAT      O47436   4.956   9.504   4.549  0.1608 -0.5204 -0.2333
11408WAT     H147437   5.043   9.499   4.510  0.1095  2.4218 -0.9868
11408WAT     H247438   4.896   9.506   4.475 -0.4692 -1.1849  0.2387
11408WAT    EPW47439   4.960   9.504   4.534  0.0708 -0.2198 -0.2704
11409WAT      O47440   6.773   2.669   3.899  0.6308  0.3691 -0.3987
11409WAT     H147441   6.721   2.707   3.969 -0.5194  2.0302 -2.0610
11409WAT     H247442   6.864   2.677   3.929  0.2604  2.2569  0.3528
11409WAT    EPW47443   6.778   2.675   3.912  0.4301  0.8371 -0.5189
11410WAT      O47444   5.763   0.834   2.149 -0.3711  0.2944  0.5017
11410WAT     H147445   5.732   0.915   2.190 -0.4657 -0.1200  1.2714
11410WAT     H247446   5.686   0.799   2.105 -0.7243 -0.1304  1.4246
11410WAT    EPW47447   5.748   0.840   2.149 -0.4301  0.1837  0.7249
11411WAT      O47448   9.479   2.249   5.437  0.4750  0.0969  0.2092
11411WAT     H147449   9.553   2.243   5.497 -1.1071 -3.1188  2.1287
11411WAT     H247450   9.413   2.300   5.484 -0.0761 -0.7845  0.4184
11411WAT    EPW47451   9.480   2.255   5.451  0.1931 -0.4435  0.4902
11412WAT      O47452   7.233   1.983   3.524 -0.3163 -0.3533 -0.2058
11412WAT     H147453   7.144   2.013   3.543  0.5520  1.4861  1.2205
11412WAT     H247454   7.223   1.889   3.506 -2.4799 -0.2809  0.3407
11412WAT    EPW47455   7.220   1.974   3.524 -0.4871 -0.1011  0.0542
11413WAT      O47456   5.898   1.150   2.971  0.9865  0.3276 -0.6054
11413WAT     H147457   5.933   1.239   2.970  2.9406 -0.3856 -2.1843
11413WAT     H247458   5.872   1.133   2.881 -2.8129  0.4574  0.2999
11413WAT    EPW47459   5.899   1.160   2.959  0.7434  0.2506 -0.6943
11414WAT      O47460   5.864   1.478   3.984  0.4046  0.3142 -0.4504
11414WAT     H147461   5.864   1.421   3.908  0.9490 -1.0117  0.5076
11414WAT     H247462   5.955   1.480   4.013  0.2396  0.9524  0.0638
11414WAT    EPW47463   5.876   1.471   3.978  0.4547  0.2235 -0.2563
11415WAT      O47464   9.558   1.685   4.798  0.1407  0.1176 -0.0884
11415WAT     H147465   9.597   1.769   4.820 -0.6750  0.6460 -0.6091
11415WAT     H247466   9.464   1.702   4.795 -0.1820 -1.1641  1.3587
11415WAT    EPW47467   9.550   1.698   4.800 -0.0091  0.0182  0.0336
11416WAT      O47468   6.911   1.479   1.951 -0.4706 -0.2954  0.4663
11416WAT     H147469   6.915   1.417   1.879  0.1557 -0.3667  0.5612
11416WAT     H247470   6.891   1.563   1.908  0.1663 -0.2850  0.1748
11416WAT    EPW47471   6.909   1.482   1.936 -0.3042 -0.3034  0.4404
11417WAT      O47472   3.793   2.871   4.438 -0.7203 -0.1701  0.8547
11417WAT     H147473   3.855   2.888   4.509 -0.6658  0.1514  0.7307
11417WAT     H247474   3.764   2.781   4.453 -0.0421 -0.4092  0.7709
11417WAT    EPW47475   3.797   2.861   4.449 -0.6236 -0.1593  0.8276
11418WAT      O47476   8.492   3.851   1.481 -0.1074  0.0913 -0.4703
11418WAT     H147477   8.466   3.760   1.469 -1.1096 -0.0034  1.8755
11418WAT     H247478   8.429   3.901   1.428 -0.9982 -0.4788  0.0222
11418WAT    EPW47479   8.480   3.846   1.472 -0.3567  0.0036 -0.0960
11419WAT      O47480   8.172   4.985   3.471 -0.0866 -1.0614  0.2440
11419WAT     H147481   8.240   5.031   3.520  1.4267 -3.6755  0.7505
11419WAT     H247482   8.159   4.903   3.518 -3.1044 -1.0024 -0.2843
11419WAT    EPW47483   8.179   4.980   3.483 -0.2856 -1.3983  0.2413
11420WAT      O47484   0.250   8.295   8.294 -0.5543 -0.0643  0.5685
11420WAT     H147485   0.240   8.379   8.250 -0.5963 -1.2251 -1.8325
11420WAT     H247486   0.274   8.234   8.223  0.4858 -1.8752  2.3720
11420WAT    EPW47487   0.252   8.298   8.279 -0.4226 -0.4563  0.4897
11421WAT      O47488   9.200   2.894   4.599 -0.0424 -0.2474  0.1069
11421WAT     H147489   9.277   2.918   4.650 -1.5579  0.8094  2.0288
11421WAT     H247490   9.188   2.800   4.617  1.2046 -0.6309 -0.8779
11421WAT    EPW47491   9.209   2.885   4.608 -0.0777 -0.1585  0.2306
11422WAT      O47492   2.234   9.227   5.000  0.0519 -0.5152  0.7007
11422WAT     H147493   2.311   9.205   4.949  0.0458  2.1558 -0.6257
11422WAT     H247494   2.227   9.323   4.994 -1.5558 -0.3422  3.4257
11422WAT    EPW47495   2.243   9.237   4.993 -0.1611 -0.1402  0.8852
11423WAT      O47496   9.019   1.651   3.578 -0.2788 -0.5024  0.3442
11423WAT     H147497   8.929   1.656   3.545 -1.4037  1.3825  3.3065
11423WAT     H247498   9.017   1.582   3.644  0.9590 -1.6360 -0.7468
11423WAT    EPW47499   9.007   1.643   3.582 -0.2637 -0.4033  0.5909
11424WAT      O47500   0.982   1.406   4.886  0.1334  0.0659  0.5870
11424WAT     H147501   0.992   1.418   4.792  2.4662 -0.9224  0.6515
11424WAT     H247502   1.003   1.492   4.923  0.3047  0.1691  0.2503
11424WAT    EPW47503   0.986   1.419   4.879  0.4637 -0.0508  0.5512
11425WAT      O47504  10.384   2.437   1.248  0.1882  0.4116  0.0282
11425WAT     H147505  10.372   2.490   1.169  0.7220 -0.8694 -0.9548
11425WAT     H247506  10.434   2.361   1.218 -0.4870 -0.6115  1.3959
11425WAT    EPW47507  10.389   2.434   1.234  0.1698  0.1076  0.0790
11426WAT      O47508   0.983   3.318   3.447  0.2761 -1.0792  0.6477
11426WAT     H147509   0.975   3.375   3.371 -0.4780  0.9192  2.1130
11426WAT     H247510   0.909   3.257   3.440  0.4697 -1.2044 -0.4081
11426WAT    EPW47511   0.972   3.317   3.436  0.2021 -0.8322  0.7015
11427WAT      O47512   6.318   0.514   3.131  0.2162 -0.2193 -0.0901
11427WAT     H147513   6.399   0.551   3.096  0.0411  0.5346  0.2705
11427WAT     H247514   6.346   0.437   3.181  0.7812  0.3803  0.5348
11427WAT    EPW47515   6.332   0.509   3.133  0.2677 -0.0408  0.0397
11428WAT      O47516   1.215   9.108   3.694 -0.3609  0.5319 -0.0628
11428WAT     H147517   1.133   9.135   3.653 -0.7029  2.0638  1.5033
11428WAT     H247518   1.208   9.013   3.702 -1.6307  0.5612 -0.6711
11428WAT    EPW47519   1.203   9.099   3.690 -0.5734  0.7381  0.0637
11429WAT      O47520   3.250   3.506   8.000  0.1248 -0.1742  0.8716
11429WAT     H147521   3.332   3.460   7.978  0.9029  1.2470  0.6761
11429WAT     H247522   3.244   3.498   8.096  1.2357  0.8554  1.0567
11429WAT    EPW47523   3.260   3.499   8.010  0.3740  0.1491  0.8702
11430WAT      O47524   5.822   1.457   3.278  0.4367  1.0346 -0.6735
11430WAT     H147525   5.780   1.537   3.245 -0.5729  1.2106  0.9095
11430WAT     H247526   5.879   1.487   3.348  2.9959  0.7338 -2.5017
11430WAT    EPW47527   5.824   1.472   3.283  0.6406  1.0181 -0.7058
11431WAT      O47528  10.193   2.571   5.249  0.3652 -1.0398 -0.0906
11431WAT     H147529  10.239   2.520   5.315  1.3070 -0.0649  0.0309
11431WAT     H247530  10.114   2.603   5.295  0.1620 -1.7327  0.0533
11431WAT    EPW47531  10.188   2.569   5.264  0.4625 -1.0024 -0.0556
11432WAT      O47532   6.243   1.426   2.986  1.1288  0.2421 -0.6766
11432WAT     H147533   6.314   1.491   2.980  1.0241  0.2748 -1.7870
11432WAT     H247534   6.239   1.403   3.079  2.3911  0.4672 -0.5514
11432WAT    EPW47535   6.252   1.432   2.998  1.2817  0.2762 -0.8063
11433WAT      O47536   9.007   0.677   6.156 -0.0005  0.6047 -0.3690
11433WAT     H147537   8.991   0.771   6.159 -0.8899  0.4244  1.0438
11433WAT     H247538   8.921   0.637   6.164  0.0788 -0.3685 -3.1705
11433WAT    EPW47539   8.994   0.684   6.157 -0.1073  0.4526 -0.5522
11434WAT      O47540   7.333   0.436   3.841  0.3767 -0.0005 -0.1818
11434WAT     H147541   7.309   0.524   3.813  1.3207  1.1370  2.2831
11434WAT     H247542   7.269   0.414   3.909  1.2592 -0.4125  0.5397
11434WAT    EPW47543   7.321   0.445   3.847  0.6175  0.0951  0.2384
11435WAT      O47544  10.969   1.542   5.744 -0.0953 -0.1133  0.2043
11435WAT     H147545  10.917   1.535   5.824  0.3182 -2.0479  0.3604
11435WAT     H247546  10.988   1.635   5.735 -0.5683  0.1964  2.0895
11435WAT    EPW47547  10.965   1.553   5.753 -0.1031 -0.3276  0.4735
11436WAT      O47548   4.930   2.171   1.973  0.2803 -0.5723 -0.2901
11436WAT     H147549   4.930   2.076   1.960  2.0981 -0.6918  0.2530
11436WAT     H247550   5.010   2.188   2.023 -0.6465  1.1121  0.7202
11436WAT    EPW47551   4.941   2.161   1.978  0.3977 -0.3659 -0.0852
11437WAT      O47552   3.224   9.655   2.264 -0.2534  0.2718  0.2949
11437WAT     H147553   3.133   9.635   2.284 -0.4723  1.6679  0.7847
11437WAT     H247554   3.273   9.620   2.338 -0.6367  1.5449  1.1767
11437WAT    EPW47555   3.219   9.647   2.276 -0.3328  0.6242  0.4759
11438WAT      O47556   7.044   3.351   3.487  1.1344 -0.1703 -0.3593
11438WAT     H147557   7.042   3.255   3.486 -4.0500 -0.4289  2.1611
11438WAT     H247558   6.960   3.376   3.449  1.3327  3.2428  1.1541
11438WAT    EPW47559   7.033   3.341   3.482  0.4768  0.2457  0.1727
11439WAT      O47560   4.311   2.882   3.842  0.0455 -0.2117  0.6697
11439WAT     H147561   4.318   2.798   3.797  1.6838 -0.0337  0.5619
11439WAT     H247562   4.218   2.888   3.865 -0.1922 -1.8338  0.2760
11439WAT    EPW47563   4.299   2.872   3.839  0.2298 -0.4022  0.6033
11440WAT      O47564   8.003   0.607   3.928  0.4639 -0.1859 -0.0269
11440WAT     H147565   7.974   0.658   3.852 -0.9089  2.1214  1.9177
11440WAT     H247566   8.047   0.670   3.985 -1.1451 -1.1102  2.4133
11440WAT    EPW47567   8.005   0.622   3.925  0.0710 -0.0035  0.5515
11441WAT      O47568   8.535   1.867   3.610  0.4063 -0.3955 -0.5877
11441WAT     H147569   8.486   1.890   3.688  0.6215  0.7473 -0.7589
11441WAT     H247570   8.626   1.886   3.633  0.4961 -0.2752 -1.0323
11441WAT    EPW47571   8.541   1.873   3.623  0.4463 -0.2289 -0.6689
11442WAT      O47572   9.014   0.612   5.282 -0.7482  0.2259  1.0523
11442WAT     H147573   9.078   0.617   5.212 -1.0120  0.6520  0.8438
11442WAT     H247574   9.053   0.663   5.354  0.1558 -1.3338  1.7296
11442WAT    EPW47575   9.028   0.619   5.283 -0.6642  0.0763  1.1144
11443WAT      O47576   9.444   0.921   4.769  0.1281 -0.2178  0.3385
11443WAT     H147577   9.419   1.006   4.804 -0.8907  0.0207 -0.9099
11443WAT     H247578   9.540   0.925   4.762  0.1612  0.4796  1.1253
11443WAT    EPW47579   9.454   0.933   4.772 -0.0019 -0.0944  0.2775
11444WAT      O47580   8.792   0.793   1.556 -0.6689  0.0751 -0.5084
11444WAT     H147581   8.825   0.862   1.614 -2.1049  1.2043 -0.9710
11444WAT     H247582   8.835   0.713   1.586 -0.3864  0.8569  1.2646
11444WAT    EPW47583   8.802   0.791   1.568 -0.8211  0.3271 -0.3356
11445WAT      O47584   6.356   3.822   4.101 -0.4730 -0.1383  0.9236
11445WAT     H147585   6.386   3.732   4.119  0.1445 -0.3214 -0.8364
11445WAT     H247586   6.293   3.812   4.029 -0.9434  0.7748  1.2023
11445WAT    EPW47587   6.352   3.809   4.094 -0.4539 -0.0420  0.7284
11446WAT      O47588   0.038   7.325   5.420  0.2510 -0.2285  0.1000
11446WAT     H147589   0.113   7.301   5.476 -1.2448 -0.9193  1.9504
11446WAT     H247590  -0.019   7.248   5.424 -1.8991  1.3169  1.1839
11446WAT    EPW47591   0.041   7.311   5.428 -0.2299 -0.1159  0.4871
11447WAT      O47592   9.481   1.853   1.883  0.3259 -0.6532  0.4427
11447WAT     H147593   9.474   1.946   1.864 -1.5713 -0.9548 -0.5778
11447WAT     H247594   9.392   1.819   1.869  1.2604 -2.8490 -0.5894
11447WAT    EPW47595   9.468   1.861   1.878  0.1993 -0.9825  0.1720
11448WAT      O47596   5.665   2.550   4.892  0.1311 -0.6963  0.5022
11448WAT     H147597   5.636   2.638   4.917  1.1524 -0.4663  0.9214
11448WAT     H247598   5.585   2.506   4.862 -0.8704 -0.4465  2.6282
11448WAT    EPW47599   5.651   2.556   4.891  0.1338 -0.6330  0.8378
11449WAT      O47600   8.797   1.406   3.626  0.1262 -0.1710  0.3733
11449WAT     H147601   8.798   1.316   3.596 -0.3758  0.6230 -2.2742
11449WAT     H247602   8.795   1.400   3.722 -0.3004 -2.9320  0.2510
11449WAT    EPW47603   8.797   1.393   3.635  0.0033 -0.4305  0.0080
11450WAT      O47604   5.253   1.148   1.805 -0.0363 -0.0634  0.3152
11450WAT     H147605   5.279   1.089   1.877  4.7004  0.2624 -0.7820
11450WAT     H247606   5.191   1.209   1.845  0.0992 -1.6945  3.2972
11450WAT    EPW47607   5.249   1.148   1.820  0.6065 -0.2356  0.5638
11451WAT      O47608   9.119   3.140   4.485  0.0500  0.0571  0.8274
11451WAT     H147609   9.134   3.052   4.519 -0.2704 -0.3255  0.0174
11451WAT     H247610   9.085   3.190   4.559 -0.6698 -0.7613  1.0595
11451WAT    EPW47611   9.117   3.135   4.499 -0.0868 -0.1012  0.7510
11452WAT      O47612   8.548   5.128   6.014  0.7609  0.1685  0.6089
11452WAT     H147613   8.600   5.129   5.934  2.1850 -2.5738  1.3818
11452WAT     H247614   8.459   5.150   5.985  1.1739 -1.0078 -1.7998
11452WAT    EPW47615   8.543   5.131   6.000  1.0028 -0.3486  0.3932
11453WAT      O47616   8.787   1.797   4.771 -0.7719 -0.2243 -0.4254
11453WAT     H147617   8.728   1.733   4.731 -0.1385 -0.0850 -1.6497
11453WAT     H247618   8.732   1.847   4.831 -1.9323 -0.0392 -1.6064
11453WAT    EPW47619   8.772   1.795   4.773 -0.8416 -0.1815 -0.7427
11454WAT      O47620   8.903   9.689   4.331  0.6815  0.6171 -0.5072
11454WAT     H147621   8.845   9.744   4.278 -1.9128  0.5534  2.0285
11454WAT     H247622   8.962   9.752   4.373 -1.8282  1.6065  1.8461
11454WAT    EPW47623   8.903   9.705   4.329  0.0081  0.7391  0.1378
11455WAT      O47624  10.518   0.609   3.933 -0.4381  0.0162 -0.6069
11455WAT     H147625  10.465   0.685   3.959  2.2633  1.4639  1.0974
11455WAT     H247626  10.465   0.534   3.959 -2.4854  1.2887 -0.8202
11455WAT    EPW47627  10.504   0.609   3.940 -0.3524  0.3750 -0.4103
11456WAT      O47628   5.643   1.906   5.889 -0.4250 -0.8352 -0.1750
11456WAT     H147629   5.668   1.999   5.892 -1.1889 -0.6353  0.5589
11456WAT     H247630   5.650   1.882   5.797  1.6853 -0.5985 -0.1368
11456WAT    EPW47631   5.647   1.915   5.877 -0.2477 -0.7777 -0.0730
11457WAT      O47632   5.673   0.463   2.034 -0.2533  0.7124  0.8064
11457WAT     H147633   5.670   0.368   2.020  1.2346 -0.0130  4.1686
11457WAT     H247634   5.697   0.499   1.949  0.8871 -2.1238 -0.2151
11457WAT    EPW47635   5.676   0.455   2.021  0.0935  0.2427  1.1151
11458WAT      O47636   7.891   0.525   5.270 -0.7218 -0.1377  0.1503
11458WAT     H147637   7.819   0.492   5.216 -0.4084 -0.6149  0.0183
11458WAT     H247638   7.963   0.537   5.208  0.0224 -1.8312  0.6312
11458WAT    EPW47639   7.891   0.522   5.255 -0.5827 -0.4240  0.1965
11459WAT      O47640   6.594   0.888   4.754  0.2702 -0.6033 -0.8650
11459WAT     H147641   6.578   0.877   4.660  0.8915 -1.6582 -0.8643
11459WAT     H247642   6.626   0.802   4.783 -0.7173 -0.5507  0.4890
11459WAT    EPW47643   6.596   0.875   4.745  0.2217 -0.7355 -0.6866
11460WAT      O47644   3.424   5.737   2.154  0.3707 -0.2132 -0.1952
11460WAT     H147645   3.434   5.799   2.226 -1.0211  0.4980 -0.5724
11460WAT     H247646   3.431   5.651   2.194 -1.6157  0.1477  1.0333
11460WAT    EPW47647   3.427   5.734   2.169 -0.0749 -0.0718 -0.0830
11461WAT      O47648   7.564   2.150   5.420 -0.2720  0.2041  0.6167
11461WAT     H147649   7.604   2.179   5.338 -3.1720  0.1709 -0.9319
11461WAT     H247650   7.601   2.208   5.487  1.4935  0.8257 -0.8140
11461WAT    EPW47651   7.574   2.161   5.418 -0.4215  0.2817  0.2239
11462WAT      O47652   6.895   3.791   5.135 -0.0234  0.0399 -0.5728
11462WAT     H147653   6.891   3.713   5.190  1.1650  1.2434  1.3322
11462WAT     H247654   6.807   3.799   5.099 -1.1001 -0.4286  1.7512
11462WAT    EPW47655   6.883   3.782   5.137 -0.0088  0.1369 -0.0153
11463WAT      O47656   5.771   0.513   2.506 -0.4063  0.4834 -0.7877
11463WAT     H147657   5.766   0.528   2.600 -0.2328  3.5201 -1.1725
11463WAT     H247658   5.864   0.498   2.488  0.0875  2.9711 -0.7461
11463WAT    EPW47659   5.783   0.513   2.516 -0.3183  1.2120 -0.8330
11464WAT      O47660   9.460   0.938   3.937  0.1311 -0.3111 -0.1966
11464WAT     H147661   9.379   0.887   3.930 -0.0140 -0.2746  0.9502
11464WAT     H247662   9.456   1.000   3.864 -0.9231 -0.2619 -0.1120
11464WAT    EPW47663   9.449   0.940   3.927 -0.0277 -0.2998 -0.0342
11465WAT      O47664   6.991   3.119   1.230 -0.2317  0.1297 -0.0063
11465WAT     H147665   6.938   3.057   1.181  1.0795 -2.8053  1.9742
11465WAT     H247666   7.082   3.094   1.211  0.3296  0.8017  1.5715
11465WAT    EPW47667   6.996   3.107   1.221  0.0150 -0.1687  0.4629
11466WAT      O47668   7.109   1.323   5.879  0.3575 -0.5620  0.3501
11466WAT     H147669   7.203   1.323   5.858  0.0893  0.8304 -1.1553
11466WAT     H247670   7.085   1.231   5.886  1.5976 -0.9746 -0.4986
11466WAT    EPW47671   7.118   1.311   5.877  0.4857 -0.4328  0.0396
11467WAT      O47672   0.386   9.560   2.406  0.0104 -0.0760  0.2564
11467WAT     H147673   0.376   9.496   2.476 -1.8995 -2.0968 -1.7058
11467WAT     H247674   0.313   9.621   2.419  0.0550 -0.0507  0.3909
11467WAT    EPW47675   0.375   9.560   2.417 -0.2356 -0.3386  0.0153
11468WAT      O47676   6.190  10.183   6.321  0.7296  0.8375  0.4277
11468WAT     H147677   6.211  10.273   6.345  0.9422  0.5750  1.2553
11468WAT     H247678   6.240  10.129   6.382  0.2020  0.1632  0.2782
11468WAT    EPW47679   6.199  10.188   6.332  0.6881  0.7133  0.5171
11469WAT      O47680   9.697   4.244   4.106 -0.0320 -0.6649  0.2417
11469WAT     H147681   9.630   4.213   4.168 -0.1972  1.5132  1.2789
11469WAT     H247682   9.647   4.271   4.029 -0.6306  2.0685  1.4555
11469WAT    EPW47683   9.682   4.244   4.104 -0.1330 -0.0169  0.5383
11470WAT      O47684   1.849  10.290   2.934  0.6808  0.0795 -0.2589
11470WAT     H147685   1.789  10.336   2.876 -1.2321 -1.2097  0.5751
11470WAT     H247686   1.865  10.351   3.006 -3.2665 -0.9313  1.7696
11470WAT    EPW47687   1.843  10.304   2.936 -0.0921 -0.2236  0.1186
11471WAT      O47688  10.994   3.882   7.512  0.4478  0.0697  0.2655
11471WAT     H147689  10.926   3.816   7.525  1.2551 -0.8190  0.1370
11471WAT     H247690  11.016   3.910   7.601  1.1347 -0.9418  0.4346
11471WAT    EPW47691  10.988   3.877   7.525  0.6447 -0.1810  0.2706
11472WAT      O47692   6.858   9.923   6.073 -0.0923 -0.2651  0.5391
11472WAT     H147693   6.797   9.864   6.029 -0.9386  0.1663  1.1211
11472WAT     H247694   6.932   9.867   6.097 -0.5831 -0.9520  0.4850
11472WAT    EPW47695   6.860   9.908   6.070 -0.2685 -0.2990  0.6089
11473WAT      O47696  10.058   2.129   2.581  0.9018  0.0095 -0.8317
11473WAT     H147697  10.081   2.209   2.533  3.2479 -0.8167 -1.2485
11473WAT     H247698  10.057   2.061   2.515 -2.0695 -0.2273 -0.6390
11473WAT    EPW47699  10.061   2.131   2.566  0.8192 -0.1309 -0.8613
11474WAT      O47700   9.825   1.889   3.379 -0.7395 -0.2729 -0.1896
11474WAT     H147701   9.757   1.830   3.347 -0.3507  0.8705 -3.5614
11474WAT     H247702   9.803   1.904   3.471 -4.8848 -0.1779 -1.0044
11474WAT    EPW47703   9.813   1.883   3.387 -1.2345 -0.1096 -0.7417
11475WAT      O47704  10.317   3.042   3.468 -0.0564 -0.8767  0.1515
11475WAT     H147705  10.347   3.000   3.548 -0.9121 -0.5034  0.6842
11475WAT     H247706  10.222   3.050   3.479  0.0025  0.6004 -0.2052
11475WAT    EPW47707  10.308   3.037   3.480 -0.1616 -0.6326  0.1749
11476WAT      O47708   7.267   2.569   5.081  0.1537  0.2337 -0.6450
11476WAT     H147709   7.193   2.624   5.106 -0.0476  0.8132 -2.3660
11476WAT     H247710   7.250   2.485   5.124  0.8799  1.6419  2.6948
11476WAT    EPW47711   7.255   2.565   5.090  0.2224  0.4958 -0.4315
11477WAT      O47712   7.533   7.023   7.959  0.6009  0.0046 -0.2911
11477WAT     H147713   7.610   6.970   7.941  2.0986  2.6014 -2.2271
11477WAT     H247714   7.532   7.089   7.890 -2.1925  1.3645  0.8744
11477WAT    EPW47715   7.543   7.025   7.948  0.4299  0.5264 -0.3927
11478WAT      O47716  10.064   0.811   7.695  0.7977 -0.1145  0.7568
11478WAT     H147717  10.102   0.898   7.710 -0.6836  0.5604  0.7566
11478WAT     H247718  10.066   0.769   7.781 -1.1456  1.0598  1.4372
11478WAT    EPW47719  10.069   0.817   7.709  0.3462  0.1294  0.8466
11479WAT      O47720  10.317   3.058   5.082 -0.0016  0.1812 -0.0402
11479WAT     H147721  10.398   3.028   5.122  0.0356 -0.7066 -0.7463
11479WAT     H247722  10.269   3.102   5.152  0.2339 -0.9828  0.8602
11479WAT    EPW47723  10.321   3.060   5.096  0.0343 -0.0894 -0.0148
11480WAT      O47724   6.388   4.037   3.839 -0.2814 -0.7361 -0.3432
11480WAT     H147725   6.426   4.107   3.786  1.8354 -1.0345  0.6624
11480WAT     H247726   6.309   4.011   3.791 -1.9119  3.1331 -0.1253
11480WAT    EPW47727   6.383   4.043   3.826 -0.2172 -0.2656 -0.1818
11481WAT      O47728   1.167   0.530   2.389  0.0944  0.5035  0.5578
11481WAT     H147729   1.077   0.562   2.397  0.0009  0.0360  1.6480
11481WAT     H247730   1.158   0.435   2.391  0.4123  0.3541 -2.1050
11481WAT    EPW47731   1.154   0.522   2.391  0.1240  0.4221  0.3504
11482WAT      O47732   8.175   5.035   1.688 -0.3311 -0.3510 -0.3589
11482WAT     H147733   8.163   5.129   1.671 -0.7249  0.1743  2.4740
11482WAT     H247734   8.266   5.027   1.716 -0.0676 -0.9816 -1.3402
11482WAT    EPW47735   8.185   5.047   1.689 -0.3486 -0.3648 -0.1147
11483WAT      O47736   4.490   9.345   5.154 -0.1901  0.5325  0.3184
11483WAT     H147737   4.492   9.257   5.115  0.9188  1.5300 -2.0954
11483WAT     H247738   4.424   9.392   5.103  1.4991  1.9768 -0.6314
11483WAT    EPW47739   4.481   9.339   5.142  0.1791  0.8545 -0.1252
11484WAT      O47740   8.826   0.366   1.980 -0.1911 -0.0612  0.1018
11484WAT     H147741   8.849   0.422   2.054  0.8619  1.3441 -1.2300
11484WAT     H247742   8.769   0.298   2.018 -0.1722  0.9522  2.0616
11484WAT    EPW47743   8.821   0.364   1.995 -0.0496  0.2578  0.1846
11485WAT      O47744   9.010   3.281   4.691 -0.0085 -0.3267 -0.0570
11485WAT     H147745   8.919   3.309   4.682 -0.1420  0.6067  2.9617
11485WAT     H247746   9.005   3.194   4.730  0.4694 -1.7731 -2.9604
11485WAT    EPW47747   8.998   3.273   4.695  0.0372 -0.3942 -0.0420
11486WAT      O47748   7.812   1.391   1.690 -0.1800  0.2059  0.2492
11486WAT     H147749   7.777   1.446   1.760 -1.2231  0.4982 -0.4883
11486WAT     H247750   7.798   1.301   1.722  1.8482  0.3132  1.6107
11486WAT    EPW47751   7.805   1.386   1.704 -0.0501  0.2587  0.3315
11487WAT      O47752   4.508  10.228   0.873  0.0421 -0.1070  0.8926
11487WAT     H147753   4.441  10.295   0.888  0.7914  1.1624 -0.9652
11487WAT     H247754   4.532  10.198   0.961 -0.0448  2.3828  1.8576
11487WAT    EPW47755   4.503  10.233   0.887  0.1295  0.3886  0.7748
11488WAT      O47756   6.890   1.326   5.718 -0.0019 -0.1899 -0.5797
11488WAT     H147757   6.963   1.317   5.779 -0.6922 -0.6929  0.1960
11488WAT     H247758   6.914   1.400   5.662  0.6336  0.2972  0.3180
11488WAT    EPW47759   6.903   1.335   5.719 -0.0091 -0.1920 -0.3591
11489WAT      O47760  10.171   5.277   4.968 -0.1320 -0.1948 -0.2702
11489WAT     H147761  10.256   5.321   4.963 -0.2161 -0.0826 -0.8589
11489WAT     H247762  10.188   5.189   4.934  0.0870 -0.7033  1.1229
11489WAT    EPW47763  10.185   5.271   4.963 -0.1140 -0.2468 -0.1640
11490WAT      O47764   1.558   9.233   0.749  0.1183  0.5022  0.0625
11490WAT     H147765   1.537   9.271   0.834 -0.4156  0.8905 -0.2378
11490WAT     H247766   1.564   9.308   0.690  0.5399  0.2403 -0.2389
11490WAT    EPW47767   1.556   9.248   0.752  0.1035  0.5193 -0.0168
11491WAT      O47768   7.943   1.279   4.989  0.1017  0.3256  0.0828
11491WAT     H147769   8.008   1.209   4.981 -0.2803 -0.4352  2.6612
11491WAT     H247770   7.920   1.279   5.082 -3.1593  0.9829 -0.6206
11491WAT    EPW47771   7.949   1.270   5.000 -0.3788  0.3120  0.3302
11492WAT      O47772   6.758   5.101   5.497  0.3738  0.6753 -0.2107
11492WAT     H147773   6.707   5.118   5.417 -0.0149 -1.8061 -0.5714
11492WAT     H247774   6.699   5.125   5.568 -0.3602  0.2923 -0.6704
11492WAT    EPW47775   6.743   5.106   5.496  0.2258  0.2978 -0.3190
11493WAT      O47776   4.101   0.748   4.451 -0.3080 -0.0467 -0.1680
11493WAT     H147777   4.094   0.678   4.385  0.9151 -2.0162  1.6643
11493WAT     H247778   4.027   0.733   4.510  0.5055 -0.4390  0.7788
11493WAT    EPW47779   4.090   0.737   4.450 -0.0396 -0.3581  0.1984
11494WAT      O47780   6.922   0.631   1.707  0.3310 -0.0993 -0.8035
11494WAT     H147781   6.945   0.595   1.793  1.1872 -0.6229 -1.2295
11494WAT     H247782   6.875   0.711   1.727 -0.9421 -1.0368  0.1745
11494WAT    EPW47783   6.919   0.637   1.721  0.2759 -0.2920 -0.7307
11495WAT      O47784   6.567   0.656   6.356 -0.4859  0.1576 -0.4371
11495WAT     H147785   6.572   0.751   6.355 -1.6066  0.2508  0.9260
11495WAT     H247786   6.547   0.633   6.447  3.4891 -1.6243  0.1857
11495WAT    EPW47787   6.565   0.665   6.368 -0.1094 -0.0651 -0.1752
11496WAT      O47788   7.160   3.226   5.184  0.1956  0.3296  0.9254
11496WAT     H147789   7.150   3.178   5.266 -0.9147  0.3541  0.8164
11496WAT     H247790   7.080   3.277   5.176  0.1780  0.1321 -0.2961
11496WAT    EPW47791   7.148   3.226   5.194  0.0470  0.3066  0.7501
11497WAT      O47792   7.894   1.953   5.320 -0.1339 -0.5031  0.1012
11497WAT     H147793   7.896   1.927   5.412  1.2462 -1.3638 -0.1481
11497WAT     H247794   7.803   1.941   5.294 -0.3982 -0.9380  1.1688
11497WAT    EPW47795   7.882   1.948   5.329  0.0129 -0.6740  0.2093
11498WAT      O47796   8.108   2.952   0.887  0.1058 -0.3746 -0.2146
11498WAT     H147797   8.091   2.899   0.965 -1.4820 -2.6401 -1.9660
11498WAT     H247798   8.022   2.964   0.847  0.9439  0.2506 -1.9221
11498WAT    EPW47799   8.095   2.947   0.892  0.0072 -0.5909 -0.6708
11499WAT      O47800  10.226   2.950   7.931  0.4486 -0.0084 -0.3026
11499WAT     H147801  10.235   2.925   7.839  1.1274 -0.1799 -0.1959
11499WAT     H247802  10.269   3.035   7.937 -0.7318  0.6149 -0.4012
11499WAT    EPW47803  10.233   2.958   7.920  0.3824  0.0514 -0.3016
11500WAT      O47804   5.919   2.405   5.598  0.4323  0.6189  0.2282
11500WAT     H147805   5.956   2.353   5.670 -2.1787 -0.8272  0.6840
11500WAT     H247806   5.908   2.342   5.527 -0.9701  0.9805  0.0980
11500WAT    EPW47807   5.922   2.390   5.598 -0.0968  0.4759  0.2711
11501WAT      O47808   4.963   9.779   2.853 -0.2906  0.0173 -0.6496
11501WAT     H147809   4.880   9.823   2.870  0.2901  1.0082 -0.3084
11501WAT     H247810   4.939   9.688   2.835 -1.2657 -0.2226  1.6291
11501WAT    EPW47811   4.949   9.773   2.853 -0.3426  0.1163 -0.3041
11502WAT      O47812  10.665   1.106   2.365 -0.4896 -0.3683  0.3882
11502WAT     H147813  10.698   1.104   2.455  0.5304 -1.4084  0.0227
11502WAT     H247814  10.732   1.061   2.314  0.6049  3.0469 -1.4793
11502WAT    EPW47815  10.678   1.100   2.370 -0.2108 -0.0551  0.0936
11503WAT      O47816   9.833   3.123   2.131 -1.0038 -0.2276 -0.0152
11503WAT     H147817   9.771   3.148   2.062  1.2966  2.4335 -1.3305
11503WAT     H247818   9.871   3.041   2.100 -2.6846 -1.1031  0.0861
11503WAT    EPW47819   9.830   3.115   2.118 -0.9222  0.0081 -0.1752
11504WAT      O47820   9.019   1.497   2.336  0.6330  0.1224  0.6974
11504WAT     H147821   8.989   1.444   2.409 -1.4910  0.9209  0.4684
11504WAT     H247822   9.008   1.587   2.366 -1.1850  0.4909 -0.8656
11504WAT    EPW47823   9.014   1.502   2.350  0.1130  0.2763  0.4610
11505WAT      O47824   9.645   0.763   2.584 -0.4078 -0.1738 -0.3819
11505WAT     H147825   9.739   0.767   2.605 -0.4373 -1.2196  0.0025
11505WAT     H247826   9.605   0.723   2.661 -1.4110  1.6921  0.1355
11505WAT    EPW47827   9.652   0.759   2.597 -0.5441 -0.0657 -0.2630
11506WAT      O47828   9.097   1.878   3.814 -0.1588 -0.3513 -0.6209
11506WAT     H147829   9.038   1.844   3.748  1.1660  0.5636 -2.3513
11506WAT     H247830   9.124   1.801   3.864  1.2922 -1.6481 -3.2085
11506WAT    EPW47831   9.093   1.863   3.812  0.2074 -0.4017 -1.1904
11507WAT      O47832   6.956   2.691   3.658 -0.3407 -0.5062  0.2920
11507WAT     H147833   6.925   2.776   3.690  0.3452 -1.1032  2.7467
11507WAT     H247834   6.985   2.645   3.737  1.6459 -2.0699 -1.2572
11507WAT    EPW47835   6.956   2.696   3.673  0.0117 -0.7912  0.4114
11508WAT      O47836   8.698   2.290   4.537 -0.0266 -0.3730  0.5369
11508WAT     H147837   8.716   2.322   4.449  0.5476 -2.4008 -0.1368
11508WAT     H247838   8.699   2.195   4.528 -3.2016 -0.6727  2.0726
11508WAT    EPW47839   8.700   2.282   4.524 -0.3695 -0.6801  0.6504
11509WAT      O47840   3.216   0.061   2.338  0.3105  0.2364  0.0545
11509WAT     H147841   3.289   0.111   2.303 -0.5914  1.1400 -0.5769
11509WAT     H247842   3.175   0.021   2.260  0.0572 -0.1683  0.3908
11509WAT    EPW47843   3.221   0.062   2.323  0.1581  0.3022  0.0155
11510WAT      O47844   6.821   1.658   6.192  0.5059 -0.2224 -0.5443
11510WAT     H147845   6.843   1.714   6.118 -0.3480 -0.0444 -0.6709
11510WAT     H247846   6.862   1.701   6.268  4.6555 -2.3220 -1.3081
11510WAT    EPW47847   6.829   1.671   6.192  0.9410 -0.4758 -0.6616
11511WAT      O47848  10.599   2.489   2.995 -0.3640  0.2178  0.0088
11511WAT     H147849  10.589   2.583   2.977 -1.2930 -0.2278 -2.0111
11511WAT     H247850  10.677   2.464   2.945  0.3733  0.0424  1.2031
11511WAT    EPW47851  10.608   2.498   2.986 -0.3896  0.1359 -0.1000
11512WAT      O47852   5.418  10.244   6.507  0.4772  0.1103  0.7549
11512WAT     H147853   5.353  10.278   6.569 -0.0166 -0.3903  0.5200
11512WAT     H247854   5.425  10.312   6.441 -2.1330 -1.0552 -0.9107
11512WAT    EPW47855   5.410  10.257   6.507  0.0677 -0.1097  0.5043
11513WAT      O47856   8.638   0.417   7.739  0.1478 -0.1839 -0.6739
11513WAT     H147857   8.551   0.455   7.746 -0.2535 -0.6008 -2.7719
11513WAT     H247858   8.631   0.354   7.667  2.1926 -0.1798 -0.9326
11513WAT    EPW47859   8.626   0.413   7.730  0.3643 -0.2383 -0.9847
11514WAT      O47860   1.384   6.925   4.386 -0.3045  0.3041 -0.9177
11514WAT     H147861   1.359   6.923   4.478 -0.1144  1.5056 -0.8303
11514WAT     H247862   1.309   6.886   4.340 -0.2281 -0.6713 -0.2397
11514WAT    EPW47863   1.370   6.919   4.392 -0.2694  0.3343 -0.8168
11515WAT      O47864   5.743   2.628   5.481 -1.4428 -0.5770 -0.5767
11515WAT     H147865   5.730   2.622   5.386 -2.3618 -1.0394 -0.4328
11515WAT     H247866   5.795   2.550   5.502 -1.8758 -0.8777 -0.6018
11515WAT    EPW47867   5.749   2.617   5.471 -1.6215 -0.6777 -0.5612
11516WAT      O47868   5.494   0.914   6.029 -0.2728  0.5532  0.0169
11516WAT     H147869   5.519   0.844   5.970 -1.3831  2.6227 -3.1523
11516WAT     H247870   5.399   0.920   6.021 -0.5836  0.4003  2.7224
11516WAT    EPW47871   5.485   0.906   6.020 -0.4604  0.8060 -0.0441
11517WAT      O47872  10.890   9.378   0.637  1.1499 -0.1507 -0.0919
11517WAT     H147873  10.906   9.469   0.614  0.1570 -0.3212 -1.5802
11517WAT     H247874  10.810   9.380   0.689  1.7100 -0.0864  0.7926
11517WAT    EPW47875  10.881   9.390   0.641  1.0934 -0.1645 -0.1716
11518WAT      O47876   8.467   1.154   1.374  0.6310 -0.7126  0.4131
11518WAT     H147877   8.378   1.186   1.384  0.6768 -1.0928  2.4689
11518WAT     H247878   8.467   1.110   1.289  0.2222  3.3540 -1.9539
11518WAT    EPW47879   8.455   1.152   1.364  0.5832 -0.2264  0.3720
11519WAT      O47880   8.265   0.926   4.716 -0.9962  0.7331 -0.2680
11519WAT     H147881   8.316   1.001   4.686  2.8225 -1.4854  0.0956
11519WAT     H247882   8.230   0.887   4.636 -0.6990  1.3200 -0.6915
11519WAT    EPW47883   8.267   0.931   4.702 -0.4535  0.5179 -0.2759
11520WAT      O47884   1.928   5.464   8.696  0.7425 -0.2561  0.1214
11520WAT     H147885   2.019   5.450   8.672  0.2092 -0.7414 -1.7788
11520WAT     H247886   1.899   5.380   8.731  0.9436 -0.1564  0.5457
11520WAT    EPW47887   1.936   5.451   8.698  0.6988 -0.3071 -0.0734
11521WAT      O47888   6.863   6.357   5.475 -0.4237 -0.0140 -0.2761
11521WAT     H147889   6.924   6.318   5.537 -1.2441  0.6583  1.0041
11521WAT     H247890   6.826   6.282   5.427  1.2992 -0.4305 -1.0270
11521WAT    EPW47891   6.866   6.342   5.477 -0.3045  0.0198 -0.2062
11522WAT      O47892   6.775   1.353   4.928 -0.0884 -0.5342  0.1618
11522WAT     H147893   6.740   1.433   4.889  1.0375 -0.4679 -0.7883
11522WAT     H247894   6.711   1.286   4.907 -1.5728  0.2853  1.8802
11522WAT    EPW47895   6.762   1.355   4.920 -0.1357 -0.4174  0.2632
11523WAT      O47896   0.095   4.272   2.338 -0.1149  0.0309 -1.1320
11523WAT     H147897   0.107   4.179   2.358 -0.3871 -0.1170 -1.6381
11523WAT     H247898   0.179   4.299   2.301 -0.4223 -0.3307 -2.1379
11523WAT    EPW47899   0.108   4.264   2.336 -0.1913 -0.0360 -1.3314
11524WAT      O47900  10.093   2.382   4.652 -0.5586  0.0039 -0.2002
11524WAT     H147901  10.095   2.431   4.569 -0.0236  0.9879  0.3827
11524WAT     H247902  10.023   2.423   4.702 -0.9258 -0.6357 -0.1824
11524WAT    EPW47903  10.084   2.394   4.647 -0.5364  0.0494 -0.1211
11525WAT      O47904   5.743   3.418   1.097 -0.5087  0.4044  0.1488
11525WAT     H147905   5.704   3.461   1.021  0.1737 -0.3802 -0.6625
11525WAT     H247906   5.831   3.395   1.069  0.7778  2.5397  2.0723
11525WAT    EPW47907   5.749   3.421   1.083 -0.2489  0.5825  0.2956
11526WAT      O47908   7.626   1.805   3.450 -0.9828 -0.7104  0.0776
11526WAT     H147909   7.690   1.871   3.423 -1.7421  0.4962  1.1041
11526WAT     H247910   7.552   1.819   3.390 -1.8424  0.5893  1.3769
11526WAT    EPW47911   7.625   1.816   3.438 -1.1964 -0.3799  0.3843
11527WAT      O47912   8.391   9.877   3.064 -0.3986  0.0442 -0.5780
11527WAT     H147913   8.342   9.809   3.111  1.3133 -0.7140  0.1888
11527WAT     H247914   8.416   9.940   3.132  2.4940 -1.2948 -0.2400
11527WAT    EPW47915   8.388   9.876   3.080  0.2089 -0.2327 -0.4323
11528WAT      O47916   8.360   1.916   4.320 -0.8597 -0.3526  0.6094
11528WAT     H147917   8.439   1.968   4.336 -0.9178  0.4336 -1.3527
11528WAT     H247918   8.383   1.861   4.246 -1.0919 -2.6251  2.1255
11528WAT    EPW47919   8.374   1.916   4.313 -0.8979 -0.5485  0.5505
11529WAT      O47920   7.981   1.632   5.818 -0.3072  0.8546  0.3439
11529WAT     H147921   7.976   1.671   5.730  1.2847  0.3774  0.0062
11529WAT     H247922   8.072   1.602   5.825 -0.7740 -0.3125  1.6559
11529WAT    EPW47923   7.992   1.633   5.807 -0.1588  0.6377  0.4723
11530WAT      O47924   9.625   0.989   2.055 -0.0590  0.3907  0.1016
11530WAT     H147925   9.582   1.045   1.990  0.9766 -0.0974 -1.0578
11530WAT     H247926   9.558   0.926   2.081 -0.4293  0.4196 -0.7281
11530WAT    EPW47927   9.611   0.988   2.050  0.0291  0.3301 -0.1607
11531WAT      O47928  10.737   3.087   5.538  1.0405 -0.2587  0.5450
11531WAT     H147929  10.717   3.173   5.500 -1.8186  0.2515  2.8438
11531WAT     H247930  10.739   3.028   5.464 -1.3375  1.1361 -0.7412
11531WAT    EPW47931  10.735   3.091   5.523  0.3495 -0.0074  0.6783
11532WAT      O47932   5.814   9.326   5.695  0.9666  0.5258  0.8852
11532WAT     H147933   5.740   9.318   5.755 -0.3020 -0.0181 -0.7025
11532WAT     H247934   5.891   9.308   5.750 -0.2316 -1.1829  2.1146
11532WAT    EPW47935   5.815   9.323   5.710  0.6413  0.2289  0.8378
11533WAT      O47936   8.022   2.559   5.373  0.1820  0.5827  0.2041
11533WAT     H147937   8.083   2.632   5.371 -0.5524  1.2437 -2.7459
11533WAT     H247938   8.078   2.481   5.370  0.8963  1.0969  0.0242
11533WAT    EPW47939   8.038   2.558   5.373  0.1793  0.7377 -0.2084
11534WAT      O47940   9.723   1.647   4.579 -0.9202 -0.1342  0.1268
11534WAT     H147941   9.660   1.660   4.508 -1.9584  1.0771  1.2188
11534WAT     H247942   9.673   1.664   4.659  0.5894  0.0214  1.0714
11534WAT    EPW47943   9.708   1.651   4.580 -0.8583  0.0460  0.3955
11535WAT      O47944   9.068   6.258   8.076 -0.3093 -0.3725  0.1573
11535WAT     H147945   9.062   6.168   8.044  0.0964 -0.4231  0.2197
11535WAT     H247946   9.044   6.252   8.168 -0.8424 -0.3261  0.0268
11535WAT    EPW47947   9.064   6.245   8.084 -0.3262 -0.3731  0.1483
11536WAT      O47948   8.617   3.123   5.765  0.5237  0.0887  0.9169
11536WAT     H147949   8.697   3.167   5.737  1.5173 -1.0022  1.9104
11536WAT     H247950   8.599   3.159   5.852 -1.4163  2.0003 -0.1678
11536WAT    EPW47951   8.625   3.134   5.773  0.3986  0.1971  0.9048
11537WAT      O47952  10.066   5.741   2.151 -0.0596 -0.0082 -0.0238
11537WAT     H147953  10.003   5.697   2.209  0.8017 -2.3557 -0.7377
11537WAT     H247954  10.151   5.711   2.182  0.4626 -0.4577 -1.7877
11537WAT    EPW47955  10.069   5.731   2.163  0.1225 -0.3772 -0.3506
11538WAT      O47956   3.783   0.754   1.809  0.2849 -0.5407 -0.3848
11538WAT     H147957   3.690   0.751   1.789 -0.0817 -0.7963  1.2255
11538WAT     H247958   3.826   0.724   1.729 -0.7896  2.6451 -2.3409
11538WAT    EPW47959   3.777   0.750   1.796  0.0948 -0.1542 -0.4304
11539WAT      O47960   0.776   2.812   1.958  0.3067  0.1109 -0.1536
11539WAT     H147961   0.744   2.899   1.982  3.2345  1.5175 -0.8787
11539WAT     H247962   0.754   2.756   2.032 -1.0344  1.6186  0.6300
11539WAT    EPW47963   0.769   2.816   1.971  0.5160  0.4953 -0.1459
11540WAT      O47964   8.886   2.728   3.518 -0.1202 -0.0375  0.4404
11540WAT     H147965   8.831   2.805   3.506 -4.3567 -2.6408  1.2027
11540WAT     H247966   8.875   2.678   3.437  0.6944 -0.9465  0.8681
11540WAT    EPW47967   8.878   2.732   3.506 -0.5717 -0.5009  0.5972
11541WAT      O47968   1.230   2.648   2.119  0.2402  0.9798 -0.1887
11541WAT     H147969   1.316   2.682   2.096  0.5236  0.3631 -0.0650
11541WAT     H247970   1.169   2.700   2.067  0.5932  2.2434  0.6282
11541WAT    EPW47971   1.233   2.659   2.109  0.3242  1.0651 -0.0646
11542WAT      O47972   0.251   9.337   2.663  0.6129 -0.4527 -1.1669
11542WAT     H147973   0.269   9.245   2.647  1.5250 -1.2733  3.2963
11542WAT     H247974   0.155   9.342   2.672  0.4353 -0.6243 -2.7178
11542WAT    EPW47975   0.240   9.326   2.662  0.7098 -0.5832 -0.7828
11543WAT      O47976   9.396   2.650   3.129 -0.0916 -0.4713  0.0491
11543WAT     H147977   9.361   2.693   3.051  2.2293 -0.0063 -0.8152
11543WAT     H247978   9.375   2.710   3.201 -1.3727 -0.4242 -0.3426
11543WAT    EPW47979   9.389   2.664   3.129  0.0458 -0.4038 -0.1166
11544WAT      O47980   8.001   1.934   6.946 -0.5141 -0.7035  0.0951
11544WAT     H147981   8.021   1.998   6.878  2.0168 -2.7881 -1.3334
11544WAT     H247982   7.992   1.985   7.026  0.0630  1.5271 -1.1917
11544WAT    EPW47983   8.002   1.949   6.948 -0.1040 -0.6843 -0.2630
11545WAT      O47984   5.089  10.365   2.992  0.2856  0.1273 -0.8417
11545WAT     H147985   5.006  10.339   3.030  0.5122 -0.1993 -0.5624
11545WAT     H247986   5.108  10.296   2.928  1.3635 -0.9700  0.5872
11545WAT    EPW47987   5.081  10.352   2.988  0.4580 -0.0606 -0.6164
11546WAT      O47988  10.915   0.346   3.079  0.0885 -0.3951 -0.0933
11546WAT     H147989  11.001   0.320   3.111  0.2262  1.8603  1.6419
11546WAT     H247990  10.855   0.325   3.151 -0.1190  1.7537  0.4249
11546WAT    EPW47991  10.919   0.340   3.093  0.0796  0.1858  0.2037
11547WAT      O47992   0.755   2.563   3.529  0.1362  0.2269 -0.0049
11547WAT     H147993   0.725   2.645   3.491 -0.7345  0.4033  1.0371
11547WAT     H247994   0.701   2.496   3.486  1.8410 -0.0132 -1.9588
11547WAT    EPW47995   0.744   2.565   3.518  0.2462  0.2186 -0.1252
11548WAT      O47996   5.034  10.077   5.677 -0.4599  0.1684 -0.7517
11548WAT     H147997   5.030  10.167   5.708 -0.9597  0.2472 -1.0515
11548WAT     H247998   5.096  10.079   5.604  1.6334 -0.2190  0.8887
11548WAT    EPW47999   5.042  10.089   5.671 -0.2496  0.1278 -0.5748
11549WAT      O48000   7.468   1.981   5.686 -0.2849  0.2424  0.2681
11549WAT     H148001   7.546   1.963   5.635 -0.2458  2.1670 -0.4639
11549WAT     H248002   7.404   2.012   5.622 -0.9136  0.7505  1.1085
11549WAT    EPW48003   7.470   1.983   5.671 -0.3629  0.5633  0.2825
11550WAT      O48004   9.080   0.977   3.806  0.2814 -0.5597  0.2195
11550WAT     H148005   9.121   0.899   3.843  1.5912  0.4787  1.0228
11550WAT     H248006   9.151   1.040   3.797 -0.7425  0.5370 -0.4540
11550WAT    EPW48007   9.095   0.975   3.810  0.3190 -0.2781  0.2365
11551WAT      O48008   8.847   1.224   4.740  0.2891  0.0844  0.4948
11551WAT     H148009   8.905   1.262   4.674 -0.9702 -1.6001 -1.7197
11551WAT     H248010   8.900   1.222   4.820  2.5891  0.4539 -0.9130
11551WAT    EPW48011   8.862   1.229   4.742  0.4268 -0.0890  0.0169
11552WAT      O48012   7.722   4.912   6.800 -0.1895 -0.0209 -0.4700
11552WAT     H148013   7.737   4.997   6.841  1.6981 -1.5647  2.4613
11552WAT     H248014   7.801   4.895   6.750 -1.6182  0.9222 -3.2395
11552WAT    EPW48015   7.734   4.921   6.799 -0.1290 -0.0999 -0.4489
11553WAT      O48016   6.784   1.924   3.108 -0.2474  0.2731  0.3175
11553WAT     H148017   6.869   1.924   3.151 -1.2554 -0.5722  2.4597
11553WAT     H248018   6.781   2.006   3.059  1.8970  0.1576 -0.0863
11553WAT    EPW48019   6.795   1.935   3.107 -0.0973  0.1464  0.5468
11554WAT      O48020   8.858   5.043   3.409 -0.2234  0.1190  0.3412
11554WAT     H148021   8.851   4.999   3.324  0.7650 -3.5412  1.9413
11554WAT     H248022   8.804   5.121   3.400 -2.8078 -1.7448 -2.6565
11554WAT    EPW48023   8.850   5.047   3.396 -0.4339 -0.6096  0.1568
11555WAT      O48024   7.309   2.184   5.329  0.1682  0.5529  0.4113
11555WAT     H148025   7.271   2.165   5.415 -0.0738 -1.0989 -0.0345
11555WAT     H248026   7.403   2.169   5.341  0.5591  2.9923  1.0606
11555WAT    EPW48027   7.317   2.180   5.342  0.1879  0.6568  0.4382
11556WAT      O48028   9.033   2.968   3.323  0.0445 -0.5859 -0.2719
11556WAT     H148029   9.080   2.892   3.357 -0.3526 -1.0328 -0.7017
11556WAT     H248030   9.096   3.040   3.329  1.4765 -1.5516 -2.6080
11556WAT    EPW48031   9.048   2.967   3.328  0.1812 -0.7721 -0.6367
11557WAT      O48032  10.594   2.454   1.481  0.0028  0.1861  0.2855
11557WAT     H148033  10.583   2.403   1.401  0.9525 -0.1430  0.3488
11557WAT     H248034  10.581   2.390   1.551  0.2393  0.2340  0.3751
11557WAT    EPW48035  10.591   2.438   1.480  0.1588  0.1490  0.3056
11558WAT      O48036   5.865   2.416   7.275 -0.2295 -0.4256  0.4042
11558WAT     H148037   5.789   2.378   7.319  0.9055 -3.3453  0.0765
11558WAT     H248038   5.836   2.434   7.186 -1.3534  1.5228  1.1029
11558WAT    EPW48039   5.851   2.413   7.269 -0.2282 -0.5538  0.4530
11559WAT      O48040   7.642   2.294   5.193  0.2335  0.3501 -0.4999
11559WAT     H148041   7.646   2.236   5.118 -0.4434  1.1296 -1.1547
11559WAT     H248042   7.733   2.321   5.208  0.4498 -0.2858 -0.6462
11559WAT    EPW48043   7.655   2.290   5.185  0.1726  0.3691 -0.6056
11560WAT      O48044   6.021   3.241   6.967  0.4300  0.2325 -0.3382
11560WAT     H148045   5.951   3.293   6.926  0.7002  0.0343 -1.0707
11560WAT     H248046   6.013   3.261   7.060 -0.8042 -0.0273 -0.3630
11560WAT    EPW48047   6.010   3.251   6.974  0.3030  0.1720 -0.4380
11561WAT      O48048   7.037   2.167   6.435  0.6349  0.0247 -0.5321
11561WAT     H148049   6.969   2.107   6.405  0.6858  0.8644 -2.4801
11561WAT     H248050   7.047   2.147   6.528 -1.9272 -0.4345 -0.2832
11561WAT    EPW48051   7.030   2.156   6.443  0.3040  0.0749 -0.7563
11562WAT      O48052   5.574   1.176   6.456  0.0406 -0.1722  0.3634
11562WAT     H148053   5.547   1.098   6.407  0.5510 -1.0890  1.5124
11562WAT     H248054   5.638   1.144   6.519  1.2293  1.3941  0.0002
11562WAT    EPW48055   5.579   1.161   6.458  0.2646 -0.0865  0.4673
11563WAT      O48056   9.595   0.862   5.876 -0.6894  0.7496  0.8586
11563WAT     H148057   9.599   0.850   5.782 -0.9060  0.1462  0.9180
11563WAT     H248058   9.680   0.898   5.900 -0.8691  1.5352  0.3578
11563WAT    EPW48059   9.606   0.865   5.867 -0.7420  0.7737  0.8006
11564WAT      O48060   5.880   3.398   6.564 -0.0985  0.2063  0.0068
11564WAT     H148061   5.942   3.471   6.571 -0.7091  0.7040  0.4070
11564WAT     H248062   5.817   3.427   6.498  0.9078 -0.9310 -1.5159
11564WAT    EPW48063   5.880   3.412   6.557 -0.0463  0.1220 -0.1414
11565WAT      O48064   0.547   2.266   2.633 -0.1505  0.4207  0.5118
11565WAT     H148065   0.468   2.249   2.582  0.1950  1.5879 -0.4467
11565WAT     H248066   0.521   2.334   2.695  0.2712  1.3423 -0.2978
11565WAT    EPW48067   0.533   2.272   2.635 -0.0494  0.6963  0.2788
11566WAT      O48068   5.828   9.997   6.087  0.4249 -0.4999 -0.2255
11566WAT     H148069   5.747   9.982   6.039 -0.2864  1.2087  0.3275
11566WAT     H248070   5.898   9.987   6.022 -0.4283  0.6890 -1.3736
11566WAT    EPW48071   5.827   9.994   6.072  0.2186 -0.1178 -0.3040
11567WAT      O48072  10.037   2.453   6.837  0.0730  0.3488  0.1585
11567WAT     H148073   9.962   2.509   6.819  0.4531  0.7397 -0.2021
11567WAT     H248074  10.081   2.443   6.753  2.5577  3.1915  0.9772
11567WAT    EPW48075  10.033   2.459   6.824  0.4511  0.7752  0.2189
11568WAT      O48076   6.890   9.812   2.239  0.9095 -0.1524  0.0126
11568WAT     H148077   6.825   9.744   2.256  0.7196 -0.4363 -1.7023
11568WAT     H248078   6.971   9.764   2.222  0.6874 -0.0083 -1.5885
11568WAT    EPW48079   6.892   9.797   2.239  0.8552 -0.1707 -0.4249
11569WAT      O48080  10.672   4.757   4.989 -1.0683  0.1988 -0.0167
11569WAT     H148081  10.599   4.761   5.052 -0.6067  0.5640  0.5076
11569WAT     H248082  10.677   4.665   4.964 -0.5809 -0.1658  1.3095
11569WAT    EPW48083  10.663   4.745   4.994 -0.9432  0.1988  0.2275
11570WAT      O48084   6.871   3.351   4.806  0.2286  0.4311 -0.1921
11570WAT     H148085   6.849   3.291   4.734 -0.7116  0.6174 -0.0790
11570WAT     H248086   6.966   3.348   4.812  0.3205  0.3586 -1.4058
11570WAT    EPW48087   6.880   3.343   4.797  0.1168  0.4462 -0.3371
11571WAT      O48088   6.610   2.832   3.295  0.1142 -0.0654  0.4401
11571WAT     H148089   6.622   2.761   3.358 -0.2936  0.6664  1.3752
11571WAT     H248090   6.571   2.790   3.219 -0.2737 -0.8261  1.0407
11571WAT    EPW48091   6.606   2.817   3.293  0.0093 -0.0693  0.6427
11572WAT      O48092   7.009   8.559   3.466 -0.3222  0.3978  0.4619
11572WAT     H148093   6.935   8.613   3.492 -0.3852 -0.6162  2.6550
11572WAT     H248094   6.972   8.495   3.405 -0.9047  0.8791  0.3020
11572WAT    EPW48095   6.995   8.557   3.461 -0.4070  0.3271  0.7302
11573WAT      O48096   5.783   9.602   5.681 -0.2544 -0.5005  0.6765
11573WAT     H148097   5.849   9.638   5.621  0.6081  0.2828  2.0475
11573WAT     H248098   5.795   9.507   5.676  1.0359 -0.3650  0.9463
11573WAT    EPW48099   5.793   9.594   5.672  0.0293 -0.3791  0.8929
11574WAT      O48100   8.425   1.991   5.425 -0.7104  0.2549  0.0423
11574WAT     H148101   8.412   1.929   5.496  1.5033  0.4768  0.7067
11574WAT     H248102   8.338   2.001   5.386 -1.0151 -4.2572 -0.9884
11574WAT    EPW48103   8.411   1.984   5.429 -0.4587 -0.3110 -0.0060
11575WAT      O48104   8.934   0.543   3.695  0.3450  0.1625 -0.2438
11575WAT     H148105   8.990   0.532   3.772  0.6068  0.5390 -0.3773
11575WAT     H248106   8.995   0.567   3.625 -0.0046  0.7076 -0.3577
11575WAT    EPW48107   8.950   0.544   3.696  0.3333  0.2841 -0.2764
11576WAT      O48108   8.969   4.815   1.717 -0.8709  0.9943  0.7799
11576WAT     H148109   8.875   4.801   1.721 -0.7232 -2.2151 -2.4090
11576WAT     H248110   8.983   4.866   1.637  0.1111  2.4917  1.8474
11576WAT    EPW48111   8.959   4.820   1.707 -0.7219  0.7684  0.5001
11577WAT      O48112   6.091   4.177   2.101 -0.2793 -0.3374  0.2677
11577WAT     H148113   6.166   4.139   2.148 -1.2864  0.1313  2.4066
11577WAT     H248114   6.049   4.103   2.058  0.7890 -0.7731 -0.0511
11577WAT    EPW48115   6.095   4.162   2.102 -0.2716 -0.3331  0.5077
11578WAT      O48116   8.461   2.556   7.338  0.1686 -0.2739 -0.4478
11578WAT     H148117   8.551   2.533   7.361  0.7462  1.4128 -0.9044
11578WAT     H248118   8.423   2.474   7.306  0.5576 -1.7891  2.5377
11578WAT    EPW48119   8.468   2.542   7.337  0.2961 -0.2513 -0.1140
11579WAT      O48120   9.447   0.157   3.593 -0.0697 -0.2540 -0.0943
11579WAT     H148121   9.430   0.247   3.621  1.0646 -0.1470  0.3037
11579WAT     H248122   9.541   0.154   3.575 -0.3341 -0.9845 -1.5369
11579WAT    EPW48123   9.457   0.168   3.594  0.0453 -0.3363 -0.2320
11580WAT      O48124   8.297   2.650   5.809  0.9563 -0.7092  0.1112
11580WAT     H148125   8.250   2.699   5.741  1.4691  1.8766  1.4950
11580WAT     H248126   8.259   2.681   5.891  4.4178  1.0182  1.2812
11580WAT    EPW48127   8.286   2.661   5.811  1.4806 -0.1402  0.4482
11581WAT      O48128   8.553   7.929   3.712  0.0433 -0.6221 -0.0694
11581WAT     H148129   8.485   7.864   3.694  0.7138 -1.3316 -0.0633
11581WAT     H248130   8.618   7.883   3.764  1.4384 -0.4928 -1.6004
11581WAT    EPW48131   8.552   7.914   3.716  0.3157 -0.6988 -0.2705
11582WAT      O48132   1.230   0.008   3.403  0.7385 -0.0791 -0.1088
11582WAT     H148133   1.223  -0.087   3.393  0.4170 -0.0313 -0.3499
11582WAT     H248134   1.139   0.039   3.404  0.8213  0.1706  0.5563
11582WAT    EPW48135   1.217  -0.001   3.402  0.7071 -0.0399 -0.0528
11583WAT      O48136   7.397   5.394   5.428  0.4157  0.6877 -0.0147
11583WAT     H148137   7.413   5.334   5.501  0.3969  0.9631  0.2175
11583WAT     H248138   7.419   5.344   5.350  1.1315  0.6270  0.2248
11583WAT    EPW48139   7.402   5.380   5.427  0.5076  0.7160  0.0474
11584WAT      O48140   6.820   3.517   6.922 -0.2043  0.4825 -0.5266
11584WAT     H148141   6.799   3.448   6.860  1.4886  1.2688 -2.0960
11584WAT     H248142   6.837   3.472   7.005  0.9330 -1.0187 -1.5264
11584WAT    EPW48143   6.819   3.502   6.925  0.1690  0.3881 -0.8655
11585WAT      O48144   2.662   9.630   0.157  0.0816 -0.6126 -0.0140
11585WAT     H148145   2.578   9.613   0.199 -0.9837  0.9495 -1.3463
11585WAT     H248146   2.697   9.707   0.202 -0.1331 -0.1259 -0.6474
11585WAT    EPW48147   2.655   9.638   0.168 -0.0874 -0.3424 -0.2733
11586WAT      O48148   7.556   4.787   2.317  0.0325  0.1007  0.2907
11586WAT     H148149   7.559   4.823   2.406 -2.5565  1.9376 -0.2385
11586WAT     H248150   7.645   4.756   2.300  1.2289  1.9523  2.6108
11586WAT    EPW48151   7.568   4.788   2.327 -0.1512  0.5872  0.5269
11587WAT      O48152  10.518   3.271   5.230 -0.0830 -0.0762 -0.4060
11587WAT     H148153  10.516   3.339   5.162 -3.1987 -0.0612 -0.4408
11587WAT     H248154  10.607   3.235   5.225  1.2500  3.0207 -1.3083
11587WAT    EPW48155  10.529   3.275   5.220 -0.3181  0.3344 -0.5295
11588WAT      O48156   0.140   4.560   3.867 -0.1056  0.1563 -1.0126
11588WAT     H148157   0.116   4.553   3.775  1.9715 -1.3136 -1.5063
11588WAT     H248158   0.198   4.636   3.871  2.4426 -1.6401 -1.6232
11588WAT    EPW48159   0.144   4.569   3.855  0.5044 -0.2747 -1.1582
11589WAT      O48160  10.801   2.695   4.190 -0.8023 -0.0626  0.5338
11589WAT     H148161  10.726   2.670   4.244  0.5959 -2.3266  1.5680
11589WAT     H248162  10.822   2.784   4.218 -2.1675  0.0529  1.2712
11589WAT    EPW48163  10.794   2.703   4.201 -0.7982 -0.3461  0.7675
11590WAT      O48164   8.131   9.408   3.998 -0.4544  0.7783  0.3946
11590WAT     H148165   8.079   9.424   3.919  1.9955  1.6865 -1.1395
11590WAT     H248166   8.090   9.462   4.066 -3.0756 -0.6046  0.0312
11590WAT    EPW48167   8.119   9.417   3.997 -0.4778  0.7153  0.1442
11591WAT      O48168   9.907   2.798   7.127 -0.4723  0.0915  0.0243
11591WAT     H148169   9.897   2.725   7.188 -1.8268 -0.3659 -0.7022
11591WAT     H248170   9.907   2.876   7.182 -1.2297 -0.3328  0.6536
11591WAT    EPW48171   9.906   2.799   7.142 -0.7505 -0.0248  0.0114
11592WAT      O48172  10.389   2.270   6.424 -0.1227 -0.3530  0.2571
11592WAT     H148173  10.379   2.325   6.346  2.0823  1.3664  1.1091
11592WAT     H248174  10.369   2.182   6.392  0.6569  0.2860 -2.2638
11592WAT    EPW48175  10.385   2.265   6.409  0.2708 -0.0420  0.0370
11593WAT      O48176  10.388   1.789   1.583 -0.3904  0.1145 -0.0721
11593WAT     H148177  10.373   1.714   1.525  1.4659 -0.6070  0.3152
11593WAT     H248178  10.408   1.861   1.523  3.4970 -1.0777 -0.4575
11593WAT    EPW48179  10.388   1.789   1.567  0.3672 -0.1379 -0.0719
11594WAT      O48180   8.562   3.227   6.010 -1.0079 -0.3144 -0.3360
11594WAT     H148181   8.497   3.275   6.061  0.7087  0.7047  0.9958
11594WAT     H248182   8.578   3.147   6.061 -0.7626 -0.2667 -0.3376
11594WAT    EPW48183   8.556   3.223   6.023 -0.7491 -0.1738 -0.1605
11595WAT      O48184   9.367   4.677   7.028  0.3348  0.0266 -0.1736
11595WAT     H148185   9.324   4.642   6.950  3.3264  0.5879 -2.2361
11595WAT     H248186   9.448   4.626   7.036 -0.1246 -0.4345  3.0184
11595WAT    EPW48187   9.372   4.666   7.019  0.6685  0.0398 -0.0246
11596WAT      O48188   8.330   4.154   3.577 -0.1895 -0.7591 -0.2586
11596WAT     H148189   8.369   4.183   3.660  0.7730 -1.5106 -0.4422
11596WAT     H248190   8.242   4.125   3.602  0.4073 -1.8526  0.6720
11596WAT    EPW48191   8.323   4.154   3.591  0.0162 -1.0021 -0.1601
11597WAT      O48192   9.048   5.744   5.030  0.0435  0.0064 -0.4491
11597WAT     H148193   9.012   5.673   5.083  0.2910  0.6708  0.6450
11597WAT     H248194   9.017   5.824   5.073  0.9341  0.5648 -0.8119
11597WAT    EPW48195   9.039   5.746   5.043  0.1936  0.1676 -0.3526
11598WAT      O48196  10.522   5.347   3.984  0.1762  0.1961  0.3197
11598WAT     H148197  10.612   5.373   4.002 -0.5022  1.3104  2.4225
11598WAT     H248198  10.527   5.254   3.964  1.6894  0.0639  1.2041
11598WAT    EPW48199  10.534   5.338   3.983  0.2866  0.3259  0.7137
11599WAT      O48200   1.143   0.487   5.554  0.3701  0.1599  0.6790
11599WAT     H148201   1.112   0.426   5.487  1.1827 -1.3498  1.6113
11599WAT     H248202   1.153   0.432   5.632  2.5487  1.1886  1.1769
11599WAT    EPW48203   1.140   0.472   5.555  0.7646  0.0965  0.8676
11600WAT      O48204   8.486   1.207   2.488  0.4371  0.0892  0.7515
11600WAT     H148205   8.390   1.209   2.488  0.3373 -2.2317  0.7267
11600WAT     H248206   8.509   1.183   2.578  1.0468  1.0620  0.8727
11600WAT    EPW48207   8.476   1.204   2.500  0.5040 -0.0886  0.7640
11601WAT      O48208   5.502   2.479   5.357 -0.0036  0.0896 -0.7270
11601WAT     H148209   5.418   2.454   5.395  0.6263  0.4167  0.9521
11601WAT     H248210   5.485   2.564   5.317 -0.4523  0.1909 -0.3361
11601WAT    EPW48211   5.488   2.487   5.356  0.0205  0.1462 -0.4542
11602WAT      O48212  10.033   1.419   1.632 -0.4139  0.1495 -0.2762
11602WAT     H148213  10.006   1.464   1.552  2.2092 -0.8362 -1.8191
11602WAT     H248214  10.032   1.487   1.699 -0.3645  1.5836 -1.6703
11602WAT    EPW48215  10.029   1.434   1.630 -0.0615  0.2087 -0.6635
11603WAT      O48216   0.950   4.200   4.773  0.1350  0.4606 -0.3105
11603WAT     H148217   1.038   4.162   4.777  0.8888  2.1625 -0.0832
11603WAT     H248218   0.947   4.261   4.846 -1.0409  0.8504 -0.6676
11603WAT    EPW48219   0.961   4.203   4.783  0.0793  0.7362 -0.3278
11604WAT      O48220   9.912   3.043   4.824 -0.2425 -0.0197 -0.5047
11604WAT     H148221   9.886   3.126   4.783 -0.4463  0.2776  0.2172
11604WAT     H248222  10.001   3.028   4.791 -0.1151  0.6070 -0.4613
11604WAT    EPW48223   9.921   3.052   4.814 -0.2527  0.1022 -0.4039
11605WAT      O48224   9.386   1.960   3.020 -0.7335  0.3377  0.1958
11605WAT     H148225   9.369   2.051   2.993  0.7373  0.3513 -0.7787
11605WAT     H248226   9.445   1.968   3.095  0.1196  0.1847 -0.4482
11605WAT    EPW48227   9.392   1.973   3.027 -0.4272  0.3193 -0.0179
11606WAT      O48228   1.162   3.169   2.548  0.0570  0.0668 -0.0350
11606WAT     H148229   1.249   3.208   2.547  0.1297 -0.0913  0.2109
11606WAT     H248230   1.106   3.237   2.511  0.2811  0.1746 -0.1792
11606WAT    EPW48231   1.166   3.184   2.543  0.0961  0.0602 -0.0213
11607WAT      O48232   6.324   3.379   3.574 -0.0013 -0.2653  0.1522
11607WAT     H148233   6.302   3.341   3.659 -1.4894 -2.0358 -0.9561
11607WAT     H248234   6.251   3.356   3.517  1.1653  0.4661 -1.7555
11607WAT    EPW48235   6.312   3.371   3.578 -0.0436 -0.4023 -0.2456
11608WAT      O48236   8.893   5.075   4.819  0.5038  0.2102 -0.0881
11608WAT     H148237   8.901   4.981   4.835  1.7028  0.0505 -1.4320
11608WAT     H248238   8.953   5.092   4.746  0.8152  2.1496  0.5725
11608WAT    EPW48239   8.902   5.065   4.811  0.7024  0.4447 -0.1783
11609WAT      O48240  10.849   3.788   5.230  0.1403 -0.8657 -0.2500
11609WAT     H148241  10.784   3.733   5.274  0.6700 -1.4310 -0.1762
11609WAT     H248242  10.823   3.878   5.253 -0.3054 -1.1065  0.2087
11609WAT    EPW48243  10.837   3.793   5.239  0.1507 -0.9720 -0.1798
11610WAT      O48244  10.519   5.095   3.781  0.0611 -0.1626 -0.2960
11610WAT     H148245  10.562   5.081   3.866  2.7081  2.6852 -1.0181
11610WAT     H248246  10.537   5.015   3.732 -0.9274 -1.5822  1.4986
11610WAT    EPW48247  10.527   5.082   3.786  0.2794  0.0257 -0.1545
11611WAT      O48248   9.378   4.263   6.858  0.9032 -0.1302 -0.2721
11611WAT     H148249   9.387   4.194   6.925 -0.4732 -1.6955 -1.6165
11611WAT     H248250   9.468   4.284   6.834  1.5632  1.5480  3.0051
11611WAT    EPW48251   9.391   4.256   6.864  0.8087 -0.1152 -0.0174
11612WAT      O48252   6.495   2.280   4.971  0.4348  0.0641 -1.1864
11612WAT     H148253   6.520   2.235   4.891  1.1358 -1.4221 -0.1699
11612WAT     H248254   6.566   2.342   4.987  0.6449 -0.1430 -1.3207
11612WAT    EPW48255   6.508   2.283   4.962  0.5550 -0.1594 -1.0700
11613WAT      O48256   8.448   3.159   4.380  0.7386 -0.8693 -0.3253
11613WAT     H148257   8.461   3.154   4.285  0.8623 -0.7853 -0.3125
11613WAT     H248258   8.507   3.229   4.409  0.0114 -0.2507 -0.3123
11613WAT    EPW48259   8.458   3.168   4.371  0.6595 -0.7766 -0.3219
11614WAT      O48260   9.161   3.859   2.774 -0.1547 -0.5143  0.8017
11614WAT     H148261   9.090   3.911   2.811  0.3207 -0.4006  1.5904
11614WAT     H248262   9.128   3.828   2.690 -0.7938  0.2948  0.7442
11614WAT    EPW48263   9.148   3.862   2.768 -0.1760 -0.3927  0.8981
11615WAT      O48264   7.948   4.893   2.183  0.1858  0.2962 -0.5328
11615WAT     H148265   7.945   4.987   2.170 -0.9401  0.2460 -0.7745
11615WAT     H248266   7.906   4.856   2.105 -0.4937 -0.3339  0.1088
11615WAT    EPW48267   7.942   4.900   2.171 -0.0522  0.2065 -0.4799
11616WAT      O48268   6.706   9.974   6.946 -0.1022 -0.3034  0.4619
11616WAT     H148269   6.774  10.013   6.891 -0.2125 -1.2780 -0.3918
11616WAT     H248270   6.625   9.987   6.897  0.0830 -3.1959 -0.8008
11616WAT    EPW48271   6.704   9.981   6.932 -0.0925 -0.8140  0.1826
11617WAT      O48272   9.299   1.575   5.667  0.1969  0.3106 -0.4379
11617WAT     H148273   9.391   1.552   5.678  0.4598  0.4397 -2.0662
11617WAT     H248274   9.253   1.491   5.672  0.9511 -0.5257 -4.3605
11617WAT    EPW48275   9.305   1.561   5.669  0.3300  0.2174 -1.1699
11618WAT      O48276   9.313   5.234   4.623  0.2997 -0.2505 -0.0926
11618WAT     H148277   9.298   5.310   4.567 -2.2551  1.1141  2.2548
11618WAT     H248278   9.237   5.178   4.608  1.4022 -1.6839 -0.6238
11618WAT    EPW48279   9.301   5.236   4.613  0.1087 -0.2596  0.1471
11619WAT      O48280   1.292   2.093   3.087  0.0963  0.1898 -0.1931
11619WAT     H148281   1.280   2.182   3.118  2.0358  0.2501  0.5207
11619WAT     H248282   1.293   2.039   3.166  0.3931 -0.2631 -0.4947
11619WAT    EPW48283   1.291   2.098   3.102  0.3913  0.1380 -0.1388
11620WAT      O48284   8.926   3.451   5.238 -0.1178 -0.3765  0.2126
11620WAT     H148285   8.875   3.470   5.316  2.4378  2.0791  1.4847
11620WAT     H248286   8.899   3.518   5.175  0.4815  0.0256  0.3755
11620WAT    EPW48287   8.916   3.462   5.240  0.2980  0.0005  0.4017
11621WAT      O48288  10.143   4.198   3.947 -0.4267 -0.5354 -0.5710
11621WAT     H148289  10.149   4.108   3.978  0.7172  0.1245  1.2477
11621WAT     H248290  10.094   4.244   4.015  2.3132  1.0038  0.4755
11621WAT    EPW48291  10.137   4.192   3.960  0.0854 -0.2451 -0.1932
11622WAT      O48292   1.921   1.040   5.610 -0.3606 -0.0361 -0.5057
11622WAT     H148293   1.917   1.093   5.690 -0.3037  0.8723 -1.0936
11622WAT     H248294   1.833   1.003   5.601 -0.6401  0.6251 -0.5292
11622WAT    EPW48295   1.909   1.042   5.620 -0.3900  0.1709 -0.5863
11623WAT      O48296  10.085   3.690   2.691 -0.1667  0.1779 -0.9000
11623WAT     H148297  10.119   3.757   2.632  1.5744 -0.1447 -0.3275
11623WAT     H248298  10.163   3.657   2.737 -1.4945  1.2249  2.4226
11623WAT    EPW48299  10.100   3.695   2.689 -0.1116  0.2733 -0.3864
11624WAT      O48300   7.423   2.865   5.153  0.3892  0.2637  0.5492
11624WAT     H148301   7.460   2.788   5.111  3.1332  0.4809  2.3690
11624WAT     H248302   7.483   2.886   5.224  0.1082  4.3995 -0.1455
11624WAT    EPW48303   7.436   2.858   5.157  0.7138  0.8378  0.6974
11625WAT      O48304  10.139   1.282   1.283  0.0780  0.8005 -0.3177
11625WAT     H148305  10.128   1.375   1.303  1.3211  0.9464 -0.2387
11625WAT     H248306  10.079   1.266   1.211  0.9056  2.0354 -1.3276
11625WAT    EPW48307  10.130   1.292   1.276  0.3514  0.9826 -0.4404
11626WAT      O48308   8.016   3.697   2.344  0.1022  0.3803 -0.5702
11626WAT     H148309   8.040   3.738   2.427  1.6611 -0.8978 -0.3420
11626WAT     H248310   7.933   3.653   2.361 -0.0254  0.8505  0.0574
11626WAT    EPW48311   8.008   3.697   2.357  0.2913  0.2738 -0.4573
11627WAT      O48312   7.838   6.931   1.866 -0.4086 -0.1253  0.0014
11627WAT     H148313   7.920   6.965   1.831 -1.0621  0.2222 -1.2465
11627WAT     H248314   7.858   6.842   1.893 -0.3052 -1.1498 -3.0994
11627WAT    EPW48315   7.851   6.924   1.865 -0.4811 -0.2148 -0.5721
11628WAT      O48316   7.833   0.649   1.938 -0.1470 -0.0225 -0.2659
11628WAT     H148317   7.813   0.573   1.993  3.1742 -0.5793  0.3553
11628WAT     H248318   7.821   0.616   1.848  1.2063 -1.3303 -0.0052
11628WAT    EPW48319   7.829   0.634   1.933  0.4694 -0.2684 -0.1495
11629WAT      O48320  10.743   2.727   3.402  0.0495  0.3899 -0.0351
11629WAT     H148321  10.836   2.721   3.381  0.5504 -0.7431  2.1096
11629WAT     H248322  10.705   2.647   3.365  0.6733 -0.9420  2.0252
11629WAT    EPW48323  10.750   2.715   3.395  0.1979  0.0647  0.5196
11630WAT      O48324   7.755   3.472   5.234 -0.2165  0.5218  0.4727
11630WAT     H148325   7.688   3.497   5.298 -0.5244  1.1735 -0.0902
11630WAT     H248326   7.837   3.504   5.272 -0.2274 -0.1929  1.1184
11630WAT    EPW48327   7.757   3.480   5.248 -0.2582  0.5136  0.4838
11631WAT      O48328  10.642   2.012   4.342  0.8210 -0.5079  0.3162
11631WAT     H148329  10.718   2.071   4.344  0.3075  0.3744 -2.3497
11631WAT     H248330  10.570   2.066   4.375  0.0276  1.0872 -3.5161
11631WAT    EPW48331  10.642   2.027   4.347  0.6485 -0.1812 -0.5410
11632WAT      O48332   8.750   1.332   3.910 -0.4610 -0.0434  0.3658
11632WAT     H148333   8.665   1.314   3.951 -1.6486 -0.3013 -2.0254
11632WAT     H248334   8.790   1.246   3.900 -0.0151  0.0529  1.2559
11632WAT    EPW48335   8.744   1.318   3.914 -0.5584 -0.0646  0.1680
11633WAT      O48336   8.460   0.639   5.562 -0.0307 -0.5359  0.5638
11633WAT     H148337   8.446   0.617   5.470  0.6116 -2.3472  0.8491
11633WAT     H248338   8.373   0.651   5.598 -0.3170 -0.5693 -0.1063
11633WAT    EPW48339   8.447   0.638   5.554  0.0167 -0.7792  0.5128
11634WAT      O48340   3.368   8.674   3.481  0.2102  0.5081 -0.4553
11634WAT     H148341   3.331   8.588   3.458  3.6288 -1.0371 -0.9059
11634WAT     H248342   3.366   8.723   3.400  2.7942 -1.1296 -1.6445
11634WAT    EPW48343   3.363   8.669   3.467  1.0017  0.0882 -0.6717
11635WAT      O48344  10.232   3.301   4.607 -0.5257 -0.7575  0.3670
11635WAT     H148345  10.197   3.382   4.642 -2.5897 -0.5525 -1.8861
11635WAT     H248346  10.326   3.304   4.628 -0.6562  1.8653  0.9200
11635WAT    EPW48347  10.240   3.312   4.614 -0.8149 -0.3844  0.1428
11636WAT      O48348   7.281   4.835   6.318 -0.4373 -0.7486  0.0059
11636WAT     H148349   7.375   4.848   6.305 -0.7486 -0.0370 -1.8693
11636WAT     H248350   7.260   4.760   6.262 -1.2123 -0.0213 -0.7067
11636WAT    EPW48351   7.291   4.827   6.309 -0.5805 -0.5589 -0.3352
11637WAT      O48352   8.631   3.318   3.123  0.1933  0.2071 -0.0064
11637WAT     H148353   8.635   3.224   3.109  0.5171  0.4907 -2.0585
11637WAT     H248354   8.539   3.335   3.146 -0.1912 -0.4596 -0.9863
11637WAT    EPW48355   8.619   3.308   3.124  0.1855  0.1566 -0.4063
11638WAT      O48356   7.217   4.327   5.096 -0.3860  0.7046 -0.5241
11638WAT     H148357   7.233   4.396   5.031  1.6239  2.3292  1.5274
11638WAT     H248358   7.209   4.373   5.179 -0.6838 -1.4415  0.7203
11638WAT    EPW48359   7.218   4.342   5.098 -0.1602  0.6356 -0.0894
11639WAT      O48360   9.707   5.363   4.965  0.5429 -0.0850 -0.6317
11639WAT     H148361   9.693   5.409   4.882  0.6655  1.2161  0.0401
11639WAT     H248362   9.699   5.431   5.032 -0.5383 -1.2732  0.5182
11639WAT    EPW48363   9.704   5.378   4.963  0.4163 -0.0703 -0.3915
11640WAT      O48364   1.570   2.215   4.570 -0.4643  0.3970  0.1153
11640WAT     H148365   1.658   2.196   4.602 -0.4565 -1.1982 -0.7306
11640WAT     H248366   1.513   2.193   4.644 -0.2558 -0.3610  0.0621
11640WAT    EPW48367   1.574   2.210   4.584 -0.4358  0.0865 -0.0033
11641WAT      O48368   8.980   0.141   3.058  0.4369 -0.2033 -0.0228
11641WAT     H148369   8.903   0.085   3.042 -0.1914  0.6691 -0.1182
11641WAT     H248370   9.054   0.080   3.058 -0.1055 -0.9070 -1.2105
11641WAT    EPW48371   8.979   0.125   3.056  0.2828 -0.1811 -0.1920
11642WAT      O48372   9.448   3.796   4.862 -0.2150  0.1454 -0.8041
11642WAT     H148373   9.427   3.855   4.934  0.5276  0.9392 -1.2159
11642WAT     H248374   9.542   3.779   4.872 -0.4074 -0.9617 -0.7076
11642WAT    EPW48375   9.458   3.802   4.873 -0.1421  0.1040 -0.8457
11643WAT      O48376   8.044   2.419   6.271  0.1464 -0.1024 -0.0560
11643WAT     H148377   8.118   2.392   6.217 -1.5134  0.0680 -2.5520
11643WAT     H248378   7.968   2.409   6.215 -1.8331 -0.6393  2.5363
11643WAT    EPW48379   8.044   2.414   6.256 -0.3338 -0.1507 -0.0432
11644WAT      O48380   9.743   2.762   7.904  0.1526 -0.2615 -0.3845
11644WAT     H148381   9.797   2.840   7.914 -1.6648  1.1037 -0.7223
11644WAT     H248382   9.721   2.737   7.994 -1.1733  1.0496 -0.3156
11644WAT    EPW48383   9.747   2.769   7.918 -0.2618  0.0916 -0.4199
11645WAT      O48384  10.015   7.187   3.911 -0.0581 -0.1251 -0.3457
11645WAT     H148385  10.013   7.100   3.949 -1.5302 -0.4212 -1.0429
11645WAT     H248386  10.067   7.239   3.973  0.4729 -1.3778  0.2871
11645WAT    EPW48387  10.022   7.183   3.924 -0.1822 -0.3295 -0.3542
11646WAT      O48388   9.087   6.031   3.271  0.8380 -0.4790 -0.3484
11646WAT     H148389   9.172   6.060   3.303  0.8683 -0.5029 -0.4069
11646WAT     H248390   9.106   5.956   3.215  0.8365 -0.1326 -0.8185
11646WAT    EPW48391   9.101   6.025   3.268  0.8421 -0.4368 -0.4183
11647WAT      O48392  10.694   3.668   3.815 -0.6293  0.2217  0.5478
11647WAT     H148393  10.759   3.680   3.747  1.0800 -1.6985  1.7003
11647WAT     H248394  10.614   3.645   3.768  0.2910 -0.2751 -0.8359
11647WAT    EPW48395  10.692   3.666   3.800 -0.2818 -0.0972  0.5172
11648WAT      O48396  10.469   1.468   2.650 -0.1029 -0.0740  0.3102
11648WAT     H148397  10.401   1.536   2.648 -2.3448 -1.9291  3.5590
11648WAT     H248398  10.450   1.413   2.575 -1.0936  0.4453  0.1631
11648WAT    EPW48399  10.457   1.470   2.640 -0.5298 -0.2502  0.7191
11649WAT      O48400   5.495   2.495   1.844  0.0674 -0.6596 -0.3166
11649WAT     H148401   5.551   2.484   1.920 -0.9943 -2.8855  0.2475
11649WAT     H248402   5.540   2.448   1.773  0.6867  0.7652 -0.9083
11649WAT    EPW48403   5.508   2.487   1.845  0.0091 -0.7652 -0.3203
11650WAT      O48404   4.042   0.324   3.400 -0.4158 -0.1289  0.0819
11650WAT     H148405   4.125   0.277   3.393 -2.2083 -3.6256 -0.1282
11650WAT     H248406   4.025   0.329   3.494  0.4208  1.4965  0.1787
11650WAT    EPW48407   4.051   0.318   3.412 -0.5419 -0.3757  0.0669
11651WAT      O48408   6.378   3.701   4.927 -0.3812  0.0792  0.0438
11651WAT     H148409   6.374   3.773   4.990  2.1637  0.2187  0.1294
11651WAT     H248410   6.288   3.667   4.924 -0.6133 -0.0609  3.8264
11651WAT    EPW48411   6.366   3.706   4.935 -0.0763  0.0792  0.5538
11652WAT      O48412   9.798   4.947   4.415 -0.2399 -0.1660 -0.7377
11652WAT     H148413   9.739   4.961   4.489  0.8047  3.1978 -0.3746
11652WAT     H248414   9.740   4.921   4.343 -1.5524 -1.2392  0.6539
11652WAT    EPW48415   9.782   4.946   4.415 -0.2751  0.1361 -0.5062
11653WAT      O48416  10.928   2.495   6.755 -0.1165  0.1694  0.6311
11653WAT     H148417  10.985   2.555   6.706  2.0766 -1.6823  0.7069
11653WAT     H248418  10.900   2.431   6.689 -0.4229 -0.1054  1.0251
11653WAT    EPW48419  10.932   2.494   6.740  0.1330 -0.1111  0.6931
11654WAT      O48420   7.352  10.290   4.207  0.2430  1.1940 -0.2671
11654WAT     H148421   7.292  10.216   4.216 -0.9792  2.0135 -1.3081
11654WAT     H248422   7.435  10.250   4.183  0.2095  0.0155  1.3954
11654WAT    EPW48423   7.355  10.275   4.205  0.0775  1.1468 -0.1850
11655WAT      O48424   8.771   3.491   4.315 -0.2107 -0.2236 -0.2011
11655WAT     H148425   8.737   3.515   4.229  1.0693  2.0426 -0.1576
11655WAT     H248426   8.788   3.575   4.358  0.7754 -1.2878  1.6202
11655WAT    EPW48427   8.769   3.505   4.309  0.0882 -0.0650  0.0446
11656WAT      O48428  10.416   2.630   1.067  0.5294 -0.1802  0.3493
11656WAT     H148429  10.489   2.666   1.016  0.6217 -0.5548  0.2149
11656WAT     H248430  10.340   2.639   1.010  0.5470 -0.1793  0.3250
11656WAT    EPW48431  10.415   2.636   1.053  0.5431 -0.2294  0.3284
11657WAT      O48432   9.843   0.692   5.279 -0.3400 -0.0012  0.2266
11657WAT     H148433   9.900   0.765   5.301 -0.2241  0.0617 -0.2663
11657WAT     H248434   9.903   0.622   5.253 -0.4452 -0.3161  0.8243
11657WAT    EPW48435   9.858   0.692   5.279 -0.3386 -0.0344  0.2406
11658WAT      O48436   7.055   4.927   5.260  0.0977 -0.7615 -0.1471
11658WAT     H148437   6.959   4.924   5.260  0.1114 -1.6477  0.3532
11658WAT     H248438   7.079   4.903   5.171 -0.1460 -0.1853 -0.3730
11658WAT    EPW48439   7.045   4.923   5.248  0.0670 -0.8023 -0.1109
11659WAT      O48440   6.381   0.076   3.039  0.3749  0.6070 -0.1857
11659WAT     H148441   6.406   0.122   3.119 -1.1214 -0.1784  0.7849
11659WAT     H248442   6.464   0.056   2.995  1.2692  0.4690  1.5095
11659WAT    EPW48443   6.396   0.079   3.044  0.2954  0.4852  0.1659
11660WAT      O48444   2.105   5.288   3.844  0.2718 -1.0609  0.5679
11660WAT     H148445   2.192   5.288   3.803 -0.1269 -1.2109 -0.3138
11660WAT     H248446   2.120   5.257   3.933  1.0071 -1.9093  0.1624
11660WAT    EPW48447   2.119   5.284   3.850  0.3163 -1.1926  0.3980
11661WAT      O48448   9.001   4.125   5.179 -0.2891 -0.2306 -0.1879
11661WAT     H148449   8.919   4.153   5.220  0.2028  1.4637 -0.2614
11661WAT     H248450   9.069   4.153   5.241  0.2468 -1.4688 -0.1996
11661WAT    EPW48451   8.999   4.133   5.193 -0.1535 -0.1707 -0.1991
11662WAT      O48452  10.301   4.905   3.649 -0.4418 -0.6705 -0.3975
11662WAT     H148453  10.245   4.954   3.589 -0.0652  0.7891  0.3877
11662WAT     H248454  10.301   4.816   3.616 -2.5796 -0.5254 -0.8705
11662WAT    EPW48455  10.294   4.900   3.637 -0.6742 -0.4587 -0.3563
11663WAT      O48456   0.640   4.848   6.437  0.2539 -0.0258  0.2324
11663WAT     H148457   0.712   4.786   6.425 -1.6991 -2.3019 -0.6176
11663WAT     H248458   0.653   4.883   6.525  0.9964 -2.3492  1.1293
11663WAT    EPW48459   0.651   4.844   6.447  0.0942 -0.6325  0.2389
11664WAT      O48460   9.154   2.133   4.553 -0.1695  0.6261 -0.0413
11664WAT     H148461   9.065   2.099   4.538 -0.5483  0.1478  2.7468
11664WAT     H248462   9.212   2.065   4.520 -0.9319 -1.6730  2.9420
11664WAT    EPW48463   9.150   2.120   4.546 -0.3204  0.2598  0.7198
11665WAT      O48464   8.853   2.850   7.290 -0.2627 -0.4771 -0.3604
11665WAT     H148465   8.843   2.802   7.372  1.6751 -1.0359 -0.4039
11665WAT     H248466   8.841   2.784   7.222  1.8907 -0.8655 -0.4279
11665WAT    EPW48467   8.850   2.835   7.292  0.2766 -0.6021 -0.3750
11666WAT      O48468   4.018   9.842   5.595 -0.3373 -0.1404 -0.1138
11666WAT     H148469   4.072   9.834   5.516  1.0804  0.0781  0.7823
11666WAT     H248470   4.017   9.936   5.614 -0.3989 -0.2209  0.2945
11666WAT    EPW48471   4.025   9.853   5.587 -0.1581 -0.1225  0.0582
11667WAT      O48472   2.380  10.049   4.441 -0.1828 -0.0957  0.4001
11667WAT     H148473   2.358  10.123   4.496  1.0518 -0.4647  1.4441
11667WAT     H248474   2.469  10.066   4.411 -0.3764 -0.5102 -0.4563
11667WAT    EPW48475   2.389  10.061   4.444 -0.0454 -0.1988  0.4246
11668WAT      O48476   9.066   4.664   3.387 -0.4851  0.5552 -0.0414
11668WAT     H148477   9.046   4.571   3.372 -0.0204  0.2872  0.9103
11668WAT     H248478   9.055   4.705   3.301  0.3168 -0.5666 -0.7072
11668WAT    EPW48479   9.062   4.657   3.373 -0.3185  0.3719 -0.0038
11669WAT      O48480   7.943   2.293   4.638  0.1710  0.3510  0.4313
11669WAT     H148481   7.848   2.288   4.627  0.3665  0.8935 -2.1326
11669WAT     H248482   7.978   2.234   4.571  1.6740 -0.4251  1.8257
11669WAT    EPW48483   7.935   2.285   4.628  0.3951  0.3202  0.2768
11670WAT      O48484   8.404   3.234   7.373  0.3910  0.3784  0.7017
11670WAT     H148485   8.371   3.152   7.410  0.5907  1.8355  4.5291
11670WAT     H248486   8.381   3.300   7.437  2.1806  3.0172 -1.1814
11670WAT    EPW48487   8.397   3.232   7.386  0.6537  0.9185  0.9580
11671WAT      O48488   8.734   4.560   3.247  0.8405  0.9758 -0.0445
11671WAT     H148489   8.738   4.512   3.164  2.3317 -0.2113  0.6556
11671WAT     H248490   8.812   4.531   3.295 -0.8635  0.2998  2.4889
11671WAT    EPW48491   8.745   4.550   3.242  0.8125  0.7300  0.3821
11672WAT      O48492   7.422   6.838   7.623 -0.2952  0.0250  0.6866
11672WAT     H148493   7.423   6.891   7.544  1.1387 -1.0992 -0.1058
11672WAT     H248494   7.439   6.900   7.694 -1.3645  1.0113  0.1010
11672WAT    EPW48495   7.424   6.853   7.622 -0.2472  0.0069  0.5050
11673WAT      O48496   8.681   2.873   7.022 -0.6400 -0.3014 -0.1206
11673WAT     H148497   8.596   2.842   7.053 -0.8407 -0.6233 -0.9626
11673WAT     H248498   8.691   2.959   7.063 -2.4602  0.7930 -1.8080
11673WAT    EPW48499   8.671   2.880   7.031 -0.9069 -0.1994 -0.4544
11674WAT      O48500   7.728   4.141   3.594 -0.2009 -0.1018  0.1649
11674WAT     H148501   7.666   4.122   3.664 -0.5554 -0.1742 -0.1621
11674WAT     H248502   7.795   4.073   3.601 -1.2879 -1.3306 -0.8024
11674WAT    EPW48503   7.729   4.130   3.604 -0.3912 -0.2735 -0.0057
11675WAT      O48504  10.897   3.598   3.172  0.1070  0.4525 -0.5223
11675WAT     H148505  10.940   3.513   3.180 -1.4453 -0.2697  0.5917
11675WAT     H248506  10.962   3.661   3.205  0.5963 -0.5169  0.4236
11675WAT    EPW48507  10.912   3.595   3.178 -0.0329  0.2292 -0.2507
11676WAT      O48508   7.818   1.662   4.672  0.2518  0.4913  0.1241
11676WAT     H148509   7.910   1.636   4.670 -0.2023 -1.3192 -2.4546
11676WAT     H248510   7.815   1.746   4.625  0.7113  1.2159  1.3563
11676WAT    EPW48511   7.829   1.670   4.665  0.2525  0.3482 -0.0536
11677WAT      O48512   0.424   2.854   0.433 -0.1923 -0.3486  0.3762
11677WAT     H148513   0.393   2.819   0.350 -1.9291  2.0117 -0.0667
11677WAT     H248514   0.363   2.820   0.498 -2.8143  2.6880 -0.2393
11677WAT    EPW48515   0.412   2.845   0.430 -0.7672  0.3633  0.2366
11678WAT      O48516   7.572   8.266   7.283  0.3693 -0.7491  0.4476
11678WAT     H148517   7.487   8.267   7.326  0.1742 -1.2896  0.0884
11678WAT     H248518   7.583   8.355   7.248 -0.9886 -1.2014 -1.2999
11678WAT    EPW48519   7.562   8.278   7.284  0.1645 -0.8802  0.1698
11679WAT      O48520   8.672   4.313   5.573  0.2317 -0.2159  0.3080
11679WAT     H148521   8.609   4.323   5.501 -1.4125 -2.6670  1.2648
11679WAT     H248522   8.743   4.261   5.535 -0.0548 -0.5000  0.1564
11679WAT    EPW48523   8.673   4.308   5.558 -0.0219 -0.5770  0.4141
11680WAT      O48524   9.108   6.473   4.948 -1.2075 -0.5052 -0.6500
11680WAT     H148525   9.120   6.502   4.857 -2.1815 -2.9720 -1.6645
11680WAT     H248526   9.140   6.383   4.948 -1.5911 -0.6759  1.3958
11680WAT    EPW48527   9.114   6.465   4.936 -1.3862 -0.8528 -0.5138
11681WAT      O48528   7.247   2.439   1.857  0.3210 -0.2547  0.1289
11681WAT     H148529   7.339   2.445   1.831 -0.2763 -0.7773 -2.2918
11681WAT     H248530   7.244   2.364   1.916  1.2963 -0.8174 -0.5141
11681WAT    EPW48531   7.259   2.430   1.862  0.3707 -0.3979 -0.2751
11682WAT      O48532   7.084   9.670   7.866 -0.3300 -0.0502  0.7072
11682WAT     H148533   7.055   9.641   7.953 -0.6652  1.6953  1.2254
11682WAT     H248534   7.174   9.697   7.879 -1.1072  2.6113  1.1963
11682WAT    EPW48535   7.092   9.669   7.879 -0.4766  0.5312  0.8402
11683WAT      O48536   8.885   1.006   1.706  0.1593  0.6247  0.1064
11683WAT     H148537   8.896   0.973   1.795 -1.4916  1.4641  0.6682
11683WAT     H248538   8.973   1.027   1.677  0.5814  2.0216  2.2290
11683WAT    EPW48539   8.898   1.004   1.714 -0.0029  0.9196  0.4604
11684WAT      O48540   0.102   3.925   3.982  0.0989 -0.5717  0.3400
11684WAT     H148541   0.105   3.969   4.067 -0.2961  2.6781 -1.1871
11684WAT     H248542   0.028   3.966   3.936 -0.7684 -3.3798 -1.0647
11684WAT    EPW48543   0.092   3.936   3.987 -0.0676 -0.5133 -0.0466
11685WAT      O48544   8.325   3.348   3.828  1.0448  0.1225  0.2688
11685WAT     H148545   8.266   3.341   3.753  0.9698  2.6674 -0.0036
11685WAT     H248546   8.403   3.299   3.802  0.5786  0.0215 -1.0064
11685WAT    EPW48547   8.328   3.341   3.814  0.9737  0.4448  0.0646
11686WAT      O48548   8.088   4.265   4.049 -0.1329 -0.1199  0.3773
11686WAT     H148549   8.139   4.346   4.052 -1.1823  0.5972 -0.0860
11686WAT     H248550   8.133   4.210   3.984  0.0542  0.4950 -0.0216
11686WAT    EPW48551   8.101   4.268   4.041 -0.2465  0.0556  0.2635
11687WAT      O48552   9.223   0.808   3.292 -0.1192 -0.1445 -0.3541
11687WAT     H148553   9.267   0.861   3.358 -0.2737 -0.1893 -0.2141
11687WAT     H248554   9.284   0.805   3.218  0.2184 -0.4043 -0.0688
11687WAT    EPW48555   9.237   0.814   3.291 -0.0949 -0.1847 -0.2980
11688WAT      O48556  10.463   3.574   3.666 -0.0454 -0.0522  0.4132
11688WAT     H148557  10.443   3.617   3.583  2.8578 -1.7199 -1.3457
11688WAT     H248558  10.410   3.495   3.666  0.1988 -0.2190 -0.0455
11688WAT    EPW48559  10.453   3.569   3.655  0.3695 -0.2943  0.1208
11689WAT      O48560   9.564   0.336   3.309 -0.4895 -0.1153 -0.2235
11689WAT     H148561   9.562   0.432   3.314  2.3586 -0.0326  1.1864
11689WAT     H248562   9.583   0.317   3.218  0.5544  0.7717 -0.2129
11689WAT    EPW48563   9.566   0.346   3.298  0.0243  0.0126 -0.0361
11690WAT      O48564  10.835   0.241   8.658 -0.1200 -0.4286  0.2177
11690WAT     H148565  10.879   0.249   8.742 -1.0509  0.1492  0.6756
11690WAT     H248566  10.742   0.236   8.681 -0.5314  1.3961 -0.8139
11690WAT    EPW48567  10.828   0.242   8.672 -0.2971 -0.1117  0.1421
11691WAT      O48568   9.493   0.512   0.514 -0.5118 -0.6985  0.2720
11691WAT     H148569   9.559   0.580   0.529  0.5578 -2.1949  3.2115
11691WAT     H248570   9.520   0.469   0.433 -1.4030  2.3992 -1.8726
11691WAT    EPW48571   9.505   0.515   0.506 -0.4883 -0.4873  0.3769
11692WAT      O48572   8.123   2.654   8.474 -0.2206 -0.4103  0.4046
11692WAT     H148573   8.070   2.622   8.547  0.6918 -0.2272  1.1695
11692WAT     H248574   8.158   2.738   8.504 -0.2068 -0.1072 -0.4294
11692WAT    EPW48575   8.120   2.661   8.488 -0.0982 -0.3462  0.3953
11693WAT      O48576  10.210   3.815   6.009  0.3167  1.0211  0.1270
11693WAT     H148577  10.160   3.876   5.954 -0.8681 -0.1813 -0.1710
11693WAT     H248578  10.163   3.732   6.002 -0.3588  0.9453  3.5017
11693WAT    EPW48579  10.197   3.812   6.001  0.0710  0.8523  0.5329
11694WAT      O48580   8.679   9.917   5.478  0.1877  0.3508  0.4954
11694WAT     H148581   8.590   9.883   5.487  0.0598  0.3452 -0.6504
11694WAT     H248582   8.670  10.012   5.488  0.5374  0.1630  3.6390
11694WAT    EPW48583   8.666   9.925   5.480  0.2165  0.3252  0.7589
11695WAT      O48584   7.518   3.764   1.906 -0.3651 -0.1581 -0.3342
11695WAT     H148585   7.569   3.845   1.912  0.5847 -0.7446 -0.3300
11695WAT     H248586   7.434   3.786   1.945 -0.4197  1.0668 -1.0990
11695WAT    EPW48587   7.514   3.777   1.912 -0.2472 -0.0739 -0.4345
11696WAT      O48588   8.892   3.152   4.261  0.0747 -0.3716  0.5175
11696WAT     H148589   8.828   3.143   4.331  0.7747 -0.9076  1.1082
11696WAT     H248590   8.840   3.158   4.181 -0.7523  0.9303  1.1332
11696WAT    EPW48591   8.877   3.151   4.259  0.0582 -0.2706  0.6764
11697WAT      O48592   8.411   6.372   4.676  0.3024  0.4451 -0.1671
11697WAT     H148593   8.383   6.427   4.603 -0.9873  0.4710  0.3301
11697WAT     H248594   8.497   6.338   4.648 -0.1324  0.4910 -1.6572
11697WAT    EPW48595   8.419   6.375   4.663  0.0749  0.4547 -0.2980
11698WAT      O48596   9.490   1.716   4.396  0.2045  0.2847 -0.4995
11698WAT     H148597   9.464   1.774   4.468 -1.9590 -1.0304 -0.1293
11698WAT     H248598   9.481   1.769   4.317  0.3542  1.0615 -0.0072
11698WAT    EPW48599   9.486   1.731   4.395 -0.0610  0.2137 -0.3860
11699WAT      O48600   8.030   2.751   5.662 -0.5252 -0.2251 -0.3331
11699WAT     H148601   8.033   2.723   5.571 -2.8710  0.7182 -0.7822
11699WAT     H248602   8.024   2.847   5.658  1.0061 -0.0220  0.9156
11699WAT    EPW48603   8.030   2.760   5.650 -0.6323 -0.0738 -0.2279
11700WAT      O48604   7.838   3.878   5.270 -0.8133 -0.4825  0.6246
11700WAT     H148605   7.793   3.933   5.334 -1.6137 -0.6730  0.2448
11700WAT     H248606   7.852   3.936   5.194 -0.2586 -0.3781  0.8015
11700WAT    EPW48607   7.834   3.893   5.268 -0.8454 -0.4940  0.5980
11701WAT      O48608   8.887   3.996   2.855  0.7018 -0.6778 -0.0696
11701WAT     H148609   8.839   3.935   2.799  0.9880 -0.7133 -0.2800
11701WAT     H248610   8.883   4.079   2.807 -0.2545 -0.3543  0.5245
11701WAT    EPW48611   8.880   3.999   2.841  0.6137 -0.6398 -0.0191
11702WAT      O48612   4.062   0.178   2.712  0.1601  0.0806  0.5946
11702WAT     H148613   4.144   0.131   2.724 -1.1667 -2.7880 -0.7524
11702WAT     H248614   4.012   0.162   2.792  1.3279  3.1362  2.1276
11702WAT    EPW48615   4.067   0.170   2.724  0.1392  0.1053  0.6192
11703WAT      O48616   5.832   3.028   5.794  0.2417 -0.2496  0.5461
11703WAT     H148617   5.776   2.953   5.774  0.2339  0.3331 -1.9279
11703WAT     H248618   5.848   3.021   5.888 -0.4509 -2.8557  0.5558
11703WAT    EPW48619   5.827   3.017   5.804  0.1490 -0.5163  0.2210
11704WAT      O48620   7.872   3.776   7.221  0.4073 -0.4583 -0.1893
11704WAT     H148621   7.877   3.699   7.165  0.9328 -1.2513  0.9238
11704WAT     H248622   7.862   3.741   7.309 -1.5776  0.7664  0.1453
11704WAT    EPW48623   7.871   3.761   7.225  0.2148 -0.4014  0.0017
11705WAT      O48624   2.624   2.057   4.041  0.3095 -0.1444 -0.0487
11705WAT     H148625   2.577   2.047   4.123  0.6072  0.5608  0.2058
11705WAT     H248626   2.555   2.060   3.974  0.0790 -0.9615  0.1424
11705WAT    EPW48627   2.609   2.056   4.043  0.3184 -0.1591  0.0100
11706WAT      O48628  10.304   4.633   3.600 -0.5349 -0.3643  0.5061
11706WAT     H148629  10.211   4.645   3.584 -0.5191 -1.1598 -0.3127
11706WAT     H248630  10.335   4.584   3.524  0.6325  0.2186  0.5778
11706WAT    EPW48631  10.296   4.628   3.588 -0.3791 -0.3924  0.4075
11707WAT      O48632  10.449   4.546   2.325  0.2682 -0.6862 -0.4065
11707WAT     H148633  10.522   4.600   2.356  0.6079 -1.5460  0.3385
11707WAT     H248634  10.490   4.476   2.276  0.0273 -1.6274  0.6878
11707WAT    EPW48635  10.464   4.544   2.323  0.2818 -0.9241 -0.1640
11708WAT      O48636   0.251   2.581   2.986 -0.0635  0.0176 -0.3539
11708WAT     H148637   0.267   2.675   2.988 -1.4795  0.2888  1.9741
11708WAT     H248638   0.159   2.572   3.010 -0.1117 -1.9646 -1.0676
11708WAT    EPW48639   0.241   2.592   2.989 -0.2566 -0.2081 -0.1410
11709WAT      O48640   7.493   3.867   3.417  0.1772  0.7387  0.0347
11709WAT     H148641   7.458   3.852   3.504 -0.3822 -0.4733 -0.3694
11709WAT     H248642   7.485   3.961   3.403  0.3427  0.9551  1.3070
11709WAT    EPW48643   7.487   3.877   3.426  0.1252  0.6075  0.1494
11710WAT      O48644   4.264   6.221   8.800 -0.4947 -0.0641 -0.5402
11710WAT     H148645   4.273   6.178   8.885 -3.1771  1.5086  0.6910
11710WAT     H248646   4.252   6.150   8.738 -1.0984 -1.1955  0.8236
11710WAT    EPW48647   4.264   6.206   8.803 -0.9282 -0.0060 -0.1979
11711WAT      O48648  10.242   4.055   8.180 -0.2872 -0.4497  0.0250
11711WAT     H148649  10.196   3.994   8.122  1.0277 -0.3287 -1.2079
11711WAT     H248650  10.241   4.138   8.133 -0.4619  0.0317  0.8591
11711WAT    EPW48651  10.236   4.058   8.166 -0.1364 -0.3703 -0.0281
11712WAT      O48652   7.706   3.125   2.158  0.0622 -0.8153 -0.4296
11712WAT     H148653   7.751   3.078   2.088 -0.9234 -2.7387  0.1421
11712WAT     H248654   7.619   3.145   2.123  0.1314 -0.2961 -0.3179
11712WAT    EPW48655   7.700   3.122   2.144 -0.0587 -1.0005 -0.3395
11713WAT      O48656   9.806   3.354   4.137  0.6574 -0.0256 -0.0622
11713WAT     H148657   9.879   3.304   4.173  1.3914  0.5179 -0.7715
11713WAT     H248658   9.803   3.329   4.044 -0.9602 -1.1133  0.2321
11713WAT    EPW48659   9.815   3.344   4.129  0.5412 -0.0973 -0.1168
11714WAT      O48660  10.970   3.840   6.912  0.0544 -0.5401  0.5571
11714WAT     H148661  10.965   3.863   7.005  1.3258  1.6750  0.1627
11714WAT     H248662  10.886   3.867   6.875  0.4403  0.8654  0.6589
11714WAT    EPW48663  10.958   3.847   6.919  0.2728 -0.0626  0.5186
11715WAT      O48664  10.524   2.263   2.855  0.1023 -0.0886 -0.8703
11715WAT     H148665  10.429   2.259   2.849  0.0040 -1.5826  0.9080
11715WAT     H248666  10.542   2.346   2.900 -0.2802  0.4941 -1.7484
11715WAT    EPW48667  10.514   2.274   2.860  0.0386 -0.2087 -0.7516
11716WAT      O48668   7.392   5.693   7.904 -0.2189  0.0919 -0.3680
11716WAT     H148669   7.442   5.613   7.921 -0.1847 -0.0000 -0.8888
11716WAT     H248670   7.382   5.734   7.990 -0.7332 -0.7624 -0.0101
11716WAT    EPW48671   7.398   5.688   7.918 -0.2820 -0.0331 -0.3896
11717WAT      O48672   6.623   4.759   5.191  0.0627 -1.2842  0.0934
11717WAT     H148673   6.647   4.841   5.148  0.2691 -1.8124 -0.8253
11717WAT     H248674   6.527   4.756   5.185 -0.1929 -0.0432  2.1698
11717WAT    EPW48675   6.613   4.770   5.185  0.0560 -1.1902  0.2463
11718WAT      O48676   7.560   3.606   3.257 -0.2315  0.9612  0.4011
11718WAT     H148677   7.488   3.653   3.300 -0.2034 -1.4369  3.4252
11718WAT     H248678   7.522   3.523   3.230  0.9622  0.4077  0.3712
11718WAT    EPW48679   7.546   3.602   3.259 -0.0701  0.5720  0.7961
11719WAT      O48680   8.857   2.106   1.893  0.1546  0.0680 -0.5313
11719WAT     H148681   8.777   2.115   1.945 -0.0995  1.3827 -1.1113
11719WAT     H248682   8.845   2.167   1.820  2.2007  1.2084  0.0065
11719WAT    EPW48683   8.844   2.115   1.890  0.3910  0.3917 -0.5369
11720WAT      O48684   4.732   2.895   4.269 -0.5925  0.3176 -0.1158
11720WAT     H148685   4.766   2.932   4.187  1.1002 -0.8852 -0.0024
11720WAT     H248686   4.784   2.936   4.338 -2.4295  1.7959  0.4631
11720WAT    EPW48687   4.743   2.905   4.267 -0.6118  0.3539 -0.0248
11721WAT      O48688   7.879   3.657   2.947 -0.3285 -0.2095 -0.3363
11721WAT     H148689   7.854   3.659   3.039  0.5388 -0.5389 -0.0829
11721WAT     H248690   7.896   3.749   2.924 -5.5822  0.7511 -1.6718
11721WAT    EPW48691   7.878   3.669   2.956 -0.9069 -0.1264 -0.4790
11722WAT      O48692   8.489   1.617   5.777 -0.2894 -0.1676  0.4982
11722WAT     H148693   8.564   1.560   5.790  1.2245  1.2888 -1.2023
11722WAT     H248694   8.423   1.584   5.837 -0.3590 -5.0236 -1.7295
11722WAT    EPW48695   8.490   1.605   5.786 -0.0992 -0.6160 -0.0198
11723WAT      O48696   0.687   4.216   5.317 -0.4224  0.8190 -0.1370
11723WAT     H148697   0.775   4.247   5.337  0.3612 -2.1495  1.5042
11723WAT     H248698   0.682   4.220   5.221  1.8081  0.3174 -0.3337
11723WAT    EPW48699   0.698   4.221   5.307 -0.0249  0.3614  0.0534
11724WAT      O48700   0.086   2.549   0.732  0.3850  0.1354 -0.1822
11724WAT     H148701   0.104   2.464   0.694 -1.9390 -0.6032  0.1696
11724WAT     H248702   0.160   2.566   0.790  0.7960 -1.7559 -0.0847
11724WAT    EPW48703   0.098   2.540   0.734  0.1326 -0.2117 -0.1230
11725WAT      O48704   8.709   4.000   1.789 -0.6835 -0.9704  0.5160
11725WAT     H148705   8.778   4.061   1.815  0.5419 -1.6804 -0.9497
11725WAT     H248706   8.724   3.986   1.696 -1.7697 -2.4777  0.5488
11725WAT    EPW48707   8.720   4.007   1.780 -0.6652 -1.2629  0.3270
11726WAT      O48708   7.267   4.034   5.822  0.0426 -0.1443 -0.2485
11726WAT     H148709   7.227   4.116   5.850  0.4910  0.4014 -1.1774
11726WAT     H248710   7.203   3.967   5.844 -0.4748  0.4934  0.1968
11726WAT    EPW48711   7.254   4.036   5.829  0.0336  0.0117 -0.3123
11727WAT      O48712   7.718   1.924   4.200  0.1020 -0.3378  0.1148
11727WAT     H148713   7.701   1.981   4.275  2.7176 -0.1950  0.6737
11727WAT     H248714   7.679   1.971   4.125 -2.3691 -0.3899  1.2616
11727WAT    EPW48715   7.710   1.938   4.200  0.1211 -0.3259  0.3397
11728WAT      O48716   9.212   5.111   1.418  0.1926 -0.0482  0.2525
11728WAT     H148717   9.142   5.129   1.481 -0.6057 -1.5867 -0.1271
11728WAT     H248718   9.290   5.149   1.457 -0.8780  1.9003  0.5926
11728WAT    EPW48719   9.213   5.118   1.431 -0.0534  0.0060  0.2473
11729WAT      O48720   8.717   1.966   4.968 -0.2055  0.1321 -0.2857
11729WAT     H148721   8.626   1.994   4.974 -0.0952  0.2893  0.9295
11729WAT     H248722   8.758   2.028   4.908 -0.4959  1.1832  0.5658
11729WAT    EPW48723   8.710   1.978   4.961 -0.2294  0.2915 -0.0131
11730WAT      O48724   1.143   2.024   3.712 -0.5199 -0.6921 -0.3926
11730WAT     H148725   1.075   1.992   3.654  0.3601 -1.2139 -1.1636
11730WAT     H248726   1.225   2.008   3.665  0.6009 -4.5626  2.3530
11730WAT    EPW48727   1.145   2.018   3.698 -0.2560 -1.2714 -0.1322
11731WAT      O48728  10.716   1.911   6.209 -0.2825 -0.4676  0.0330
11731WAT     H148729  10.662   1.871   6.141 -0.8680 -1.8194  1.2535
11731WAT     H248730  10.790   1.852   6.220  1.1265  0.9873 -1.0828
11731WAT    EPW48731  10.718   1.898   6.201 -0.1740 -0.4541  0.0470
11732WAT      O48732   7.812   1.719   5.143 -0.6044  0.1599  0.2242
11732WAT     H148733   7.721   1.740   5.165 -0.7275 -0.2902  0.1583
11732WAT     H248734   7.863   1.786   5.187 -0.9226 -0.0385  0.9112
11732WAT    EPW48735   7.806   1.731   5.152 -0.6626  0.0743  0.3064
11733WAT      O48736   6.171   3.558   6.264 -0.2798  0.2119 -0.1734
11733WAT     H148737   6.134   3.470   6.266 -0.0780  0.1219 -0.3928
11733WAT     H248738   6.248   3.551   6.207 -2.0679  1.1873 -2.9436
11733WAT    EPW48739   6.176   3.546   6.257 -0.4892  0.3288 -0.5674
11734WAT      O48740   0.287   5.456   2.405  0.6080 -0.0020 -0.7510
11734WAT     H148741   0.233   5.402   2.348 -0.7315  1.2565 -0.7470
11734WAT     H248742   0.224   5.497   2.465  1.7367  0.4315  0.1840
11734WAT    EPW48743   0.271   5.454   2.406  0.5802  0.2213 -0.6272
11735WAT      O48744  10.857   5.903   4.825 -0.0027  0.4178 -0.2750
11735WAT     H148745  10.812   5.987   4.816  1.0137  0.8927 -1.2293
11735WAT     H248746  10.796   5.839   4.787 -0.0134  1.0077 -1.2998
11735WAT    EPW48747  10.843   5.905   4.818  0.1297  0.5581 -0.5360
11736WAT      O48748   8.903   3.060   5.223 -0.2819  0.0020  0.7113
11736WAT     H148749   8.963   2.986   5.211  0.4286  0.6679  0.0803
11736WAT     H248750   8.836   3.048   5.157  1.0311  1.0822 -0.8916
11736WAT    EPW48751   8.902   3.048   5.213 -0.0143  0.2323  0.4165
11737WAT      O48752   9.441   4.476   5.915  0.2104  0.5351  0.5023
11737WAT     H148753   9.401   4.444   5.995 -0.3270 -2.4192 -0.8215
11737WAT     H248754   9.522   4.425   5.906  1.1407  2.0125 -0.0257
11737WAT    EPW48755   9.447   4.465   5.924  0.2627  0.3405  0.2582
11738WAT      O48756   7.700   2.029   2.853  0.0945 -0.1750  0.2842
11738WAT     H148757   7.636   2.038   2.782  1.5464  1.1892 -0.9286
11738WAT     H248758   7.681   2.102   2.912  1.2329  0.9723 -0.7116
11738WAT    EPW48759   7.689   2.040   2.851  0.4363  0.1563 -0.0072
11739WAT      O48760   8.545   3.162   4.868  0.3433  0.1402  0.2950
11739WAT     H148761   8.566   3.123   4.783 -0.2424  1.9806 -0.7415
11739WAT     H248762   8.449   3.154   4.874  0.1688  1.6514 -0.0985
11739WAT    EPW48763   8.535   3.156   4.857  0.2432  0.5822  0.1061
11740WAT      O48764   9.528   3.239   2.236 -0.4292 -0.9868  0.1004
11740WAT     H148765   9.555   3.246   2.327 -0.0848  0.8074 -0.0958
11740WAT     H248766   9.564   3.317   2.194  0.3265 -2.2865 -1.8228
11740WAT    EPW48767   9.536   3.250   2.242 -0.2832 -0.9215 -0.1791
11741WAT      O48768   8.393   9.959   3.766  0.0853  0.5732  0.9370
11741WAT     H148769   8.337   9.905   3.823 -0.7308  1.1242  0.6896
11741WAT     H248770   8.454  10.001   3.826 -0.1273  0.3876  1.2891
11741WAT    EPW48771   8.393   9.958   3.782 -0.0505  0.6213  0.9509
11742WAT      O48772   7.828   8.580   3.437 -0.4655 -0.0808 -0.2140
11742WAT     H148773   7.844   8.587   3.342  0.0188  1.2710 -0.0563
11742WAT     H248774   7.733   8.587   3.446 -0.5379 -0.4976 -0.6149
11742WAT    EPW48775   7.818   8.582   3.425 -0.4110  0.0420 -0.2462
11743WAT      O48776  10.605   2.638   4.351 -0.7970  0.0330 -0.3295
11743WAT     H148777  10.613   2.591   4.434 -0.3951 -1.8398 -1.3699
11743WAT     H248778  10.527   2.693   4.362 -1.3406 -0.9420  0.9223
11743WAT    EPW48779  10.596   2.639   4.363 -0.8159 -0.3426 -0.3018
11744WAT      O48780   8.686   1.532   4.593 -0.5398  0.1514 -0.8843
11744WAT     H148781   8.643   1.448   4.578 -1.7556  0.5468  0.2170
11744WAT     H248782   8.714   1.560   4.505  0.2246 -1.5515 -1.2197
11744WAT    EPW48783   8.684   1.525   4.579 -0.5994 -0.0210 -0.7834
11745WAT      O48784   1.056   4.783   3.693  0.3561 -0.4555 -0.1322
11745WAT     H148785   1.088   4.697   3.719  0.5153  0.0326  1.3697
11745WAT     H248786   0.961   4.777   3.698  0.3743 -0.4829  0.2044
11745WAT    EPW48787   1.048   4.771   3.697  0.3796 -0.3951  0.1104
11746WAT      O48788   6.025   2.845   6.183  0.7089 -0.5290  0.5494
11746WAT     H148789   5.977   2.763   6.172  0.2589 -0.0729 -1.2469
11746WAT     H248790   6.056   2.867   6.095  1.7089  0.7094  1.1697
11746WAT    EPW48791   6.023   2.837   6.170  0.7813 -0.3057  0.3941
11747WAT      O48792   7.170   2.869   4.849 -0.0561 -0.1068  0.7209
11747WAT     H148793   7.241   2.921   4.887  1.4373 -2.9137  2.0647
11747WAT     H248794   7.133   2.820   4.922 -0.1136 -2.3343 -0.6922
11747WAT    EPW48795   7.174   2.869   4.864  0.1330 -0.7708  0.7119
11748WAT      O48796   7.775   2.410   7.410 -0.0125  0.0626  0.2323
11748WAT     H148797   7.858   2.442   7.446  0.3433 -1.4535  0.8342
11748WAT     H248798   7.709   2.465   7.452  0.6600  1.1709 -0.1140
11748WAT    EPW48799   7.777   2.421   7.420  0.1230  0.0087  0.2658
11749WAT      O48800  10.732   0.781   7.670  0.0556 -0.1841  0.2155
11749WAT     H148801  10.809   0.737   7.634 -0.6137  0.4752 -2.2535
11749WAT     H248802  10.759   0.809   7.757  2.2226 -0.9498 -0.1352
11749WAT    EPW48803  10.746   0.779   7.677  0.2532 -0.1982 -0.1564
11750WAT      O48804   7.689   1.673   3.077 -0.1007 -0.2650  0.0295
11750WAT     H148805   7.663   1.581   3.074 -1.0033 -0.0005 -1.8131
11750WAT     H248806   7.771   1.677   3.027 -0.4242  0.0149 -0.4906
11750WAT    EPW48807   7.696   1.661   3.070 -0.2623 -0.1932 -0.2820
11751WAT      O48808   2.350   9.343   4.504  0.8491 -0.0251 -0.4934
11751WAT     H148809   2.299   9.370   4.428 -0.2416 -0.5424  0.0353
11751WAT     H248810   2.285   9.316   4.568  1.6939  1.2988  0.9963
11751WAT    EPW48811   2.334   9.343   4.502  0.8166  0.0811 -0.2272
11752WAT      O48812   7.463   2.952   5.997  0.5383  0.0908 -0.2794
11752WAT     H148813   7.487   2.934   5.906  1.2244 -0.5409  0.0265
11752WAT     H248814   7.455   3.047   6.000 -0.1795  0.0790 -1.1679
11752WAT    EPW48815   7.465   2.962   5.985  0.5338  0.0060 -0.3562
11753WAT      O48816  10.190   2.763   3.939 -0.1008  0.7621  0.3766
11753WAT     H148817  10.270   2.711   3.933 -0.8542 -0.3220 -0.7062
11753WAT     H248818  10.212   2.834   3.999  1.2602 -0.2667  1.1480
11753WAT    EPW48819  10.204   2.765   3.946 -0.0210  0.4835  0.3356
11754WAT      O48820   0.861   2.034   2.239 -0.1636  0.1268 -1.0070
11754WAT     H148821   0.821   2.115   2.205  0.6676  1.3569  0.7882
11754WAT     H248822   0.949   2.034   2.201  0.8243  1.5881  1.1032
11754WAT    EPW48823   0.867   2.045   2.229  0.0764  0.4817 -0.4919
11755WAT      O48824   0.322   2.266   3.356  0.4961 -0.1941  0.0037
11755WAT     H148825   0.253   2.200   3.345  0.7642 -0.5528  0.4925
11755WAT     H248826   0.356   2.252   3.444 -1.6768  2.7122  1.4814
11755WAT    EPW48827   0.317   2.256   3.366  0.2448  0.1419  0.2630
11756WAT      O48828   0.545   5.652   4.487 -0.6079  0.1208  0.9950
11756WAT     H148829   0.460   5.621   4.457 -0.1486 -1.5014  1.2816
11756WAT     H248830   0.582   5.697   4.412 -0.7088 -1.3090  0.0475
11756WAT    EPW48831   0.539   5.654   4.474 -0.5606 -0.2816  0.9079
11757WAT      O48832   7.758   4.203   6.113  0.0864 -0.1686 -0.7631
11757WAT     H148833   7.720   4.217   6.026  1.1897  0.1246 -1.2254
11757WAT     H248834   7.841   4.252   6.110  0.2965 -0.4422  0.3344
11757WAT    EPW48835   7.764   4.211   6.101  0.2596 -0.1659 -0.6795
11758WAT      O48836   9.802   5.053   0.047 -0.3845  0.0270 -0.4347
11758WAT     H148837   9.723   5.042  -0.005 -1.6429 -0.1432  1.4417
11758WAT     H248838   9.872   5.020  -0.010 -1.5320  0.7220 -2.3682
11758WAT    EPW48839   9.801   5.048   0.032 -0.7014  0.0963 -0.4422
11759WAT      O48840   7.225   4.435   4.414  0.2011  0.7203 -0.4257
11759WAT     H148841   7.259   4.510   4.462 -0.8253  1.4169 -0.7487
11759WAT     H248842   7.290   4.419   4.346  0.8129  0.8192  0.1271
11759WAT    EPW48843   7.238   4.443   4.411  0.1464  0.8252 -0.3955
11760WAT      O48844   2.382   2.615   8.045  0.1711 -0.0034 -0.0776
11760WAT     H148845   2.347   2.655   7.965 -1.7949  0.9936  1.1824
11760WAT     H248846   2.317   2.636   8.112  2.0570 -0.2525  1.9433
11760WAT    EPW48847   2.369   2.623   8.043  0.1606  0.0952  0.3548
11761WAT      O48848  10.490   4.973   7.241  0.0250 -0.4074 -0.2140
11761WAT     H148849  10.492   4.970   7.337 -1.1581 -0.6428 -0.1868
11761WAT     H248850  10.550   4.902   7.215 -0.6848 -1.2436  0.3655
11761WAT    EPW48851  10.498   4.963   7.250 -0.2246 -0.5486 -0.1338
11762WAT      O48852   7.647   2.185   3.753 -0.0004  0.2178  0.0011
11762WAT     H148853   7.581   2.169   3.685  1.6221 -1.7517 -1.2083
11762WAT     H248854   7.692   2.264   3.725 -2.6214  2.4481  1.5809
11762WAT    EPW48855   7.644   2.193   3.740 -0.1321  0.2522  0.0499
11763WAT      O48856   8.204   2.669   7.944  0.6111  0.0924  0.2064
11763WAT     H148857   8.268   2.731   7.910 -0.0809  1.5093  1.3826
11763WAT     H248858   8.119   2.702   7.913  0.0968  0.6421  2.0491
11763WAT    EPW48859   8.201   2.682   7.935  0.4525  0.3519  0.6046
11764WAT      O48860   1.051   1.067   7.678 -0.4677 -0.0472  0.0660
11764WAT     H148861   1.020   1.118   7.603  2.3260  0.6913 -0.7353
11764WAT     H248862   1.033   0.976   7.655  0.0826  0.1884 -1.4262
11764WAT    EPW48863   1.045   1.062   7.666 -0.0266  0.0814 -0.2365
11765WAT      O48864   0.375   7.163   0.241 -0.4991  0.0997 -0.2127
11765WAT     H148865   0.381   7.075   0.279  0.3893  0.4800  0.5475
11765WAT     H248866   0.408   7.221   0.309 -1.8070  1.1258 -0.4134
11765WAT    EPW48867   0.380   7.159   0.255 -0.5544  0.2854 -0.1389
11766WAT      O48868   9.619   0.636   1.177  0.1688 -0.7180  0.3023
11766WAT     H148869   9.544   0.645   1.237  1.7326 -2.1235  2.6660
11766WAT     H248870   9.628   0.541   1.165 -0.2192 -0.4839 -2.4812
11766WAT    EPW48871   9.610   0.625   1.184  0.3238 -0.8725  0.2469
11767WAT      O48872   6.917   4.069   6.550 -0.3197  0.5320 -0.4954
11767WAT     H148873   6.843   4.090   6.492 -0.9841 -1.8590 -0.6306
11767WAT     H248874   6.904   4.125   6.626 -2.5029 -0.0132 -0.3824
11767WAT    EPW48875   6.905   4.079   6.553 -0.6955  0.1450 -0.4983
11768WAT      O48876   0.077   4.544   6.731  0.3602 -0.2044  0.1926
11768WAT     H148877   0.133   4.468   6.719  0.7191 -0.1440  1.3757
11768WAT     H248878   0.081   4.590   6.647 -0.0315 -1.5789 -0.6064
11768WAT    EPW48879   0.085   4.540   6.719  0.3559 -0.3774  0.2432
11769WAT      O48880   7.919   4.092   4.208 -0.0332 -0.1149  0.2307
11769WAT     H148881   7.989   4.154   4.187 -1.2080  1.3479  0.4308
11769WAT     H248882   7.857   4.100   4.135 -0.5726 -0.4921  0.6367
11769WAT    EPW48883   7.920   4.101   4.196 -0.2592  0.0279  0.3107
11770WAT      O48884   8.231   3.249   2.769  0.2960  0.0343 -0.1935
11770WAT     H148885   8.309   3.259   2.714 -0.9321 -2.4039 -2.6551
11770WAT     H248886   8.162   3.297   2.722 -0.1388  0.5401  0.9236
11770WAT    EPW48887   8.232   3.257   2.755  0.0768 -0.2207 -0.3709
11771WAT      O48888   8.860   0.518   5.724  1.3735 -0.4929 -0.3841
11771WAT     H148889   8.909   0.600   5.724  1.1241 -0.0961 -5.1082
11771WAT     H248890   8.770   0.544   5.745  2.0765 -0.4729  3.1572
11771WAT    EPW48891   8.854   0.532   5.727  1.4338 -0.4379 -0.5400
11772WAT      O48892   0.879   2.815   1.450 -0.6198  0.0301  0.3259
11772WAT     H148893   0.917   2.741   1.403  0.6327  0.8568 -0.0100
11772WAT     H248894   0.918   2.811   1.537  1.6957  1.8449 -0.5114
11772WAT    EPW48895   0.889   2.805   1.455 -0.1492  0.3784  0.1712
11773WAT      O48896   8.878   4.478   7.351  0.2517 -0.8011  0.0013
11773WAT     H148897   8.803   4.422   7.330  1.5568 -1.8972 -2.0609
11773WAT     H248898   8.946   4.451   7.289  2.5357 -0.1905  2.0842
11773WAT    EPW48899   8.877   4.467   7.340  0.7248 -0.8652  0.0038
11774WAT      O48900   0.588   4.288   2.519 -0.4449  0.0638 -0.1954
11774WAT     H148901   0.529   4.235   2.465 -0.6739  1.6964 -1.6334
11774WAT     H248902   0.529   4.335   2.579 -0.2687 -1.0229  0.8583
11774WAT    EPW48903   0.572   4.287   2.519 -0.4519  0.1357 -0.2460
11775WAT      O48904  10.591   3.425   1.125 -0.6820  0.3056  0.5422
11775WAT     H148905  10.500   3.449   1.107 -0.6789  0.9048  1.2657
11775WAT     H248906  10.625   3.397   1.041 -2.3292 -2.6909  0.7396
11775WAT    EPW48907  10.583   3.425   1.112 -0.8988 -0.0106  0.6636
11776WAT      O48908   0.396   7.555   2.862  0.1483 -0.2060 -0.0687
11776WAT     H148909   0.375   7.633   2.811 -1.0063 -2.0284 -2.5996
11776WAT     H248910   0.341   7.561   2.940  1.2574  2.2004  0.6115
11776WAT    EPW48911   0.386   7.566   2.866  0.1423 -0.1287 -0.3127
11777WAT      O48912   7.754   3.084   7.924 -0.6113 -0.5367 -0.5803
11777WAT     H148913   7.840   3.072   7.965 -0.8940  0.2802  0.2816
11777WAT     H248914   7.766   3.052   7.835 -0.6149 -4.8055  0.6956
11777WAT    EPW48915   7.767   3.078   7.918 -0.6490 -0.9921 -0.2985
11778WAT      O48916   1.149   2.143   5.876 -0.4756  0.1080  0.5620
11778WAT     H148917   1.162   2.074   5.812 -1.1035 -0.3016  0.8712
11778WAT     H248918   1.071   2.190   5.846 -1.1497 -0.4732  1.3481
11778WAT    EPW48919   1.140   2.140   5.864 -0.6474 -0.0226  0.7067
11779WAT      O48920  10.354   3.616   1.405 -0.1786  0.0762 -0.3289
11779WAT     H148921  10.326   3.699   1.365 -0.5686  0.2000  0.1897
11779WAT     H248922  10.449   3.619   1.402 -0.0651  1.7931  2.1196
11779WAT    EPW48923  10.363   3.627   1.400 -0.2146  0.3190  0.0625
11780WAT      O48924   8.384   4.004   1.771  0.6836  0.4050 -0.6378
11780WAT     H148925   8.403   3.937   1.706  0.5874  0.4893 -0.7537
11780WAT     H248926   8.453   3.995   1.836  0.5729  0.0789 -0.5649
11780WAT    EPW48927   8.395   3.994   1.771  0.6561  0.3731 -0.6436
11781WAT      O48928   7.094   5.710   2.325  0.0878 -0.4010 -0.4992
11781WAT     H148929   7.007   5.693   2.363 -0.2834 -0.7719 -1.4769
11781WAT     H248930   7.150   5.642   2.362 -0.0926 -0.3231 -0.0705
11781WAT    EPW48931   7.090   5.699   2.335  0.0153 -0.4396 -0.5715
11782WAT      O48932  10.699   1.229   5.920 -0.0329 -0.0863 -0.1972
11782WAT     H148933  10.749   1.153   5.947 -0.3340  0.4745  2.1740
11782WAT     H248934  10.626   1.193   5.870 -0.4012 -1.4163  1.2229
11782WAT    EPW48935  10.696   1.214   5.917 -0.1216 -0.1878  0.3028
11783WAT      O48936   9.358   3.054   5.819 -0.4015 -0.6215 -0.3722
11783WAT     H148937   9.337   3.147   5.818  0.6034 -0.3714  0.2700
11783WAT     H248938   9.367   3.030   5.727 -2.7388 -0.6127 -0.6802
11783WAT    EPW48939   9.356   3.063   5.807 -0.5770 -0.5873 -0.3283
11784WAT      O48940   0.655   3.580   5.943 -0.5762  0.6880  0.0924
11784WAT     H148941   0.729   3.641   5.935 -1.1178  1.1729 -1.8918
11784WAT     H248942   0.608   3.611   6.020  1.1661  0.4667  1.3050
11784WAT    EPW48943   0.659   3.592   5.952 -0.4178  0.7229 -0.0093
11785WAT      O48944   7.616   5.844   7.199  0.2194 -0.3767  0.9814
11785WAT     H148945   7.579   5.910   7.140  0.4682 -1.2301 -0.1824
11785WAT     H248946   7.696   5.883   7.233  1.9094 -1.0320 -1.8931
11785WAT    EPW48947   7.622   5.858   7.195  0.4752 -0.5755  0.4487
11786WAT      O48948   7.370   1.824   3.851 -0.1735  0.5968 -0.3185
11786WAT     H148949   7.425   1.902   3.857  0.0195  0.5063 -0.8773
11786WAT     H248950   7.417   1.757   3.901 -1.0874  1.2448  1.4965
11786WAT    EPW48951   7.383   1.825   3.858 -0.2685  0.6704 -0.1528
11787WAT      O48952   7.068   4.051   5.483  0.2637 -0.6783  0.0219
11787WAT     H148953   7.160   4.071   5.464  0.3054 -0.9840 -0.1123
11787WAT     H248954   7.036   4.127   5.532  1.4183 -1.8429  2.7594
11787WAT    EPW48955   7.076   4.064   5.487  0.4218 -0.8719  0.3653
11788WAT      O48956   8.893   4.528   4.026  0.0973 -0.6779 -0.6745
11788WAT     H148957   8.848   4.474   3.961  1.5535 -1.0722 -1.3998
11788WAT     H248958   8.986   4.515   4.008  0.5139  0.5283  0.4238
11788WAT    EPW48959   8.900   4.519   4.015  0.3448 -0.5710 -0.6254
11789WAT      O48960  10.085   4.164   3.537 -1.1226  0.3999 -0.3576
11789WAT     H148961  10.078   4.250   3.495 -0.7955  0.2361 -0.7588
11789WAT     H248962  10.035   4.105   3.480  0.2379 -0.0410 -1.1663
11789WAT    EPW48963  10.078   4.167   3.524 -0.9003  0.3200 -0.5172
11790WAT      O48964   7.102   3.568   4.349 -0.2503 -0.3077 -0.0508
11790WAT     H148965   7.140   3.546   4.264  0.4000 -2.3608  0.7186
11790WAT     H248966   7.027   3.510   4.357 -0.1792 -0.2756  0.8655
11790WAT    EPW48967   7.097   3.557   4.339 -0.1552 -0.5742  0.1717
11791WAT      O48968  10.871   5.308   6.139 -0.4667 -0.0225 -0.1021
11791WAT     H148969  10.779   5.287   6.124 -0.4740 -1.2549  1.4431
11791WAT     H248970  10.902   5.240   6.199  0.9913  1.3523  0.7862
11791WAT    EPW48971  10.863   5.296   6.145 -0.2756 -0.0036  0.2186
11792WAT      O48972   0.497   8.340   1.689  0.3388  0.6180  0.6047
11792WAT     H148973   0.458   8.427   1.688 -0.4108  0.3318 -2.1886
11792WAT     H248974   0.423   8.281   1.705  0.4428  0.3534  0.1104
11792WAT    EPW48975   0.482   8.343   1.691  0.2537  0.5455  0.1711
11793WAT      O48976   8.728   6.466   3.263 -0.1545 -0.1468  0.1347
11793WAT     H148977   8.676   6.389   3.242 -1.7651  0.4937  1.5881
11793WAT     H248978   8.668   6.540   3.254  0.8794  0.7781  0.5062
11793WAT    EPW48979   8.713   6.466   3.259 -0.2303  0.0598  0.3754
11794WAT      O48980   0.547   4.417   4.112  0.4011  0.1055  0.0898
11794WAT     H148981   0.608   4.443   4.182  0.9283 -1.4181  0.2238
11794WAT     H248982   0.505   4.499   4.087 -0.3785  0.6124  2.7062
11794WAT    EPW48983   0.550   4.432   4.118  0.3678 -0.0284  0.4523
11795WAT      O48984  10.189   3.849   2.033 -0.0533  0.3687  0.1184
11795WAT     H148985  10.128   3.792   2.080  0.1988  0.8990  1.1232
11795WAT     H248986  10.251   3.877   2.099  0.9129  0.3603 -0.7570
11795WAT    EPW48987  10.189   3.845   2.048  0.1073  0.4376  0.1354
11796WAT      O48988   1.072   7.417   3.686 -0.1191  0.0550  0.9632
11796WAT     H148989   1.077   7.456   3.773  0.9305  1.1196  0.4456
11796WAT     H248990   0.994   7.456   3.646  2.3063  3.9080 -0.5428
11796WAT    EPW48991   1.062   7.427   3.692  0.3392  0.7036  0.6962
11797WAT      O48992   8.395   4.499   4.507 -0.4214 -0.2704 -0.2488
11797WAT     H148993   8.352   4.429   4.458 -0.8678 -0.9944  1.1278
11797WAT     H248994   8.324   4.558   4.532  0.0637  1.3239 -2.2856
11797WAT    EPW48995   8.380   4.498   4.504 -0.4163 -0.1557 -0.3362
11798WAT      O48996  10.985   5.051   3.051 -0.2143 -0.4103 -0.4766
11798WAT     H148997  11.019   5.027   3.137 -0.9542 -1.3027 -0.4089
11798WAT     H248998  10.922   5.121   3.068 -0.5609 -0.7697 -0.2426
11798WAT    EPW48999  10.981   5.057   3.064 -0.3576 -0.5753 -0.4369
11799WAT      O49000  10.187   3.819   0.411  0.5535 -0.0427 -0.0847
11799WAT     H149001  10.172   3.776   0.495  2.0451 -1.6515 -0.5759
11799WAT     H249002  10.099   3.844   0.381 -0.1909 -1.1655  1.0629
11799WAT    EPW49003  10.173   3.817   0.418  0.6518 -0.4030  0.0019
11800WAT      O49004   0.002   5.353   3.697 -0.2246  0.0041 -0.0528
11800WAT     H149005  -0.090   5.329   3.708 -0.5022 -0.0185 -1.9866
11800WAT     H249006   0.022   5.328   3.607  1.1062  1.8082 -0.3197
11800WAT    EPW49007  -0.008   5.346   3.686 -0.0857  0.2394 -0.3430
11801WAT      O49008   1.043   4.739   1.675  0.5034 -0.1360  0.4829
11801WAT     H149009   1.113   4.739   1.610  0.3288  0.0873  0.2926
11801WAT     H249010   1.059   4.817   1.728  1.3000 -0.9095  1.4305
11801WAT    EPW49011   1.054   4.749   1.674  0.5853 -0.2089  0.5827
11802WAT      O49012   8.302   3.077   6.302  0.2111 -0.3077 -0.7977
11802WAT     H149013   8.294   3.023   6.223  0.1736 -1.8185  0.1892
11802WAT     H249014   8.327   3.163   6.270  0.9738 -1.0809 -2.4166
11802WAT    EPW49015   8.305   3.081   6.288  0.3066 -0.6090 -0.8810
11803WAT      O49016  10.153   6.179   1.035 -0.1578 -0.6212  0.1434
11803WAT     H149017  10.225   6.126   1.001  1.5407  1.2684  0.6561
11803WAT     H249018  10.195   6.254   1.076 -2.4632  0.9041 -0.1111
11803WAT    EPW49019  10.168   6.182   1.036 -0.2379 -0.1707  0.1774
11804WAT      O49020   7.746   4.401   4.780 -0.0930  0.8422  0.1465
11804WAT     H149021   7.700   4.421   4.698 -2.4028 -2.1676  0.5015
11804WAT     H249022   7.699   4.450   4.847  0.6433  1.8810 -0.0747
11804WAT    EPW49023   7.734   4.410   4.778 -0.3004  0.5822  0.1643
11805WAT      O49024   3.086   7.957   4.166 -0.1436  0.4137 -0.3252
11805WAT     H149025   2.992   7.953   4.151 -0.3420 -2.3676  0.8665
11805WAT     H249026   3.094   7.990   4.256  0.0442  0.9425 -0.5349
11805WAT    EPW49027   3.075   7.961   4.176 -0.1450  0.1168 -0.1960
11806WAT      O49028   0.062   8.592   4.157  0.4191 -0.0252  0.2343
11806WAT     H149029   0.122   8.524   4.187  1.9085 -0.5202 -3.3508
11806WAT     H249030   0.017   8.553   4.082 -0.1803  2.2676 -0.6777
11806WAT    EPW49031   0.064   8.578   4.151  0.5365  0.2122 -0.3593
11807WAT      O49032   8.599   5.607   1.145 -0.0627  0.7308  0.7794
11807WAT     H149033   8.565   5.596   1.057  0.2978 -0.9841  0.8000
11807WAT     H249034   8.522   5.619   1.200 -0.2737  2.0028  0.2252
11807WAT    EPW49035   8.585   5.607   1.141 -0.0424  0.6721  0.7091
11808WAT      O49036   2.542   3.729   5.394 -0.5956 -0.3599  0.0867
11808WAT     H149037   2.496   3.774   5.465  0.2491  2.7106 -1.1143
11808WAT     H249038   2.475   3.680   5.348 -2.1380  1.5948  0.1380
11808WAT    EPW49039   2.527   3.729   5.398 -0.6876  0.3029 -0.0651
11809WAT      O49040  10.491   2.744   2.499  0.2884 -0.6949 -0.0308
11809WAT     H149041  10.519   2.679   2.565  2.5623  0.6512  0.4548
11809WAT     H249042  10.457   2.691   2.427  1.2088 -2.4107  0.7154
11809WAT    EPW49043  10.490   2.728   2.498  0.7095 -0.7436  0.1316
11810WAT      O49044   0.993   4.579   5.434 -0.5673 -0.4300 -0.9998
11810WAT     H149045   0.997   4.486   5.415 -0.5111 -0.2019 -2.1898
11810WAT     H249046   1.071   4.597   5.486 -0.6391 -1.0576 -0.6680
11810WAT    EPW49047   1.004   4.569   5.438 -0.5694 -0.4828 -1.1129
11811WAT      O49048   3.155   7.188   3.205  0.5993 -0.0099 -0.0586
11811WAT     H149049   3.230   7.217   3.257 -1.5647  1.3721  2.5782
11811WAT     H249050   3.126   7.268   3.160 -1.5135  0.5363  2.0749
11811WAT    EPW49051   3.161   7.203   3.206  0.0352  0.2444  0.5707
11812WAT      O49052   0.010   2.450   1.048  1.1410 -0.3135 -0.0722
11812WAT     H149053   0.028   2.421   1.138  3.2638  0.2697 -0.2578
11812WAT     H249054  -0.036   2.376   1.008  0.7873 -0.8630  1.2883
11812WAT    EPW49055   0.007   2.436   1.055  1.3742 -0.3091  0.0828
11813WAT      O49056  10.080   5.430   0.550  0.2007 -0.6876 -0.9993
11813WAT     H149057  10.066   5.486   0.474  1.4019  1.7749  0.4531
11813WAT     H249058  10.033   5.474   0.621  2.7749 -0.3697  0.6307
11813WAT    EPW49059  10.072   5.443   0.550  0.6990 -0.3209 -0.5927
11814WAT      O49060  10.701   3.505   7.186 -0.2509  0.9230 -0.1603
11814WAT     H149061  10.713   3.468   7.098  1.8232  1.3413 -0.1139
11814WAT     H249062  10.701   3.430   7.244  2.2544  0.8121 -0.2187
11814WAT    EPW49063  10.703   3.491   7.182  0.3524  0.9634 -0.1619
11815WAT      O49064   8.016   3.767   4.065 -0.0912 -0.1868  0.3835
11815WAT     H149065   8.084   3.726   4.119  0.6534 -0.7353 -0.9107
11815WAT     H249066   8.038   3.860   4.067 -1.1958  0.0791  2.5176
11815WAT    EPW49067   8.028   3.774   4.073 -0.1388 -0.2240  0.4945
11816WAT      O49068  10.075   5.360   4.336 -0.3942 -0.1470  0.2738
11816WAT     H149069   9.986   5.351   4.372 -0.6583  0.5441 -0.1763
11816WAT     H249070  10.069   5.326   4.247  0.3230 -2.0903  0.9255
11816WAT    EPW49071  10.062   5.355   4.329 -0.3343 -0.3121  0.3004
11817WAT      O49072   9.067   5.360   3.194  0.2876  0.0345 -0.9702
11817WAT     H149073   9.005   5.329   3.129 -0.5210  0.7102 -0.5379
11817WAT     H249074   9.085   5.284   3.249 -1.6687  0.2835  0.0852
11817WAT    EPW49075   9.061   5.346   3.193 -0.0772  0.1564 -0.7741
11818WAT      O49076   9.470   5.432   1.290 -0.3167 -0.6559  0.1863
11818WAT     H149077   9.540   5.385   1.335 -1.1141 -0.2675  1.9085
11818WAT     H249078   9.461   5.514   1.337 -1.8504 -0.6520 -0.0348
11818WAT    EPW49079   9.478   5.436   1.302 -0.6242 -0.6044  0.3843
11819WAT      O49080   8.186   5.750   4.837 -0.1609  0.6487  0.1133
11819WAT     H149081   8.201   5.712   4.924 -0.1223  0.2737 -0.0572
11819WAT     H249082   8.271   5.747   4.794  0.0639  1.8233  0.4427
11819WAT    EPW49083   8.199   5.745   4.843 -0.1264  0.7541  0.1342
11820WAT      O49084  10.495   2.567   8.794  0.0256 -0.9273 -0.1040
11820WAT     H149085  10.555   2.592   8.724 -0.5739  1.4602  0.1150
11820WAT     H249086  10.548   2.516   8.855  1.7377  0.6572 -0.1773
11820WAT    EPW49087  10.510   2.564   8.793  0.1721 -0.4033 -0.0854
11821WAT      O49088   8.709   8.167   1.873 -0.2594 -0.9739  0.7490
11821WAT     H149089   8.678   8.078   1.890  0.0698 -1.1243  0.5617
11821WAT     H249090   8.803   8.158   1.860 -0.2944 -0.6674  0.2411
11821WAT    EPW49091   8.717   8.154   1.874 -0.2198 -0.9527  0.6573
11822WAT      O49092   9.372   3.641   2.850  0.1335  0.2481  0.9952
11822WAT     H149093   9.350   3.656   2.942 -1.0515  1.4076  0.5479
11822WAT     H249094   9.333   3.715   2.804  0.1221 -0.6693 -0.5240
11822WAT    EPW49095   9.364   3.653   2.856 -0.0238  0.2800  0.7358
11823WAT      O49096   0.960   3.616   5.396  0.0493 -0.0528 -0.2243
11823WAT     H149097   0.921   3.641   5.480 -1.9578  0.5847 -1.2743
11823WAT     H249098   0.961   3.521   5.397 -0.5477 -0.0622  0.2969
11823WAT    EPW49099   0.955   3.607   5.407 -0.2942  0.0302 -0.2942
11824WAT      O49100   2.488   7.860   4.326  0.3380 -0.1362  0.0529
11824WAT     H149101   2.437   7.800   4.380  0.8747  2.4206  3.7815
11824WAT     H249102   2.578   7.828   4.334  0.2961 -0.2731 -0.0343
11824WAT    EPW49103   2.493   7.848   4.334  0.4033  0.1833  0.5331
11825WAT      O49104  10.584   5.605   4.864 -0.0446 -0.2793  0.1279
11825WAT     H149105  10.609   5.662   4.936  2.9383 -0.2800 -0.7912
11825WAT     H249106  10.500   5.640   4.834 -0.3939  0.8997  2.2986
11825WAT    EPW49107  10.576   5.617   4.869  0.3028 -0.1240  0.2933
11826WAT      O49108   0.083   0.349   4.686 -0.2654  0.4098  0.2741
11826WAT     H149109   0.149   0.281   4.695 -0.4172  0.0713 -1.0527
11826WAT     H249110   0.120   0.424   4.732  1.7290  0.7132 -1.6892
11826WAT    EPW49111   0.097   0.350   4.693 -0.0223  0.4052 -0.1597
11827WAT      O49112   7.943   7.259   5.046 -0.4276  0.5850 -0.1325
11827WAT     H149113   7.896   7.244   5.128  0.6716 -0.2035  0.3780
11827WAT     H249114   7.918   7.348   5.020  0.2699  1.3881  1.7825
11827WAT    EPW49115   7.933   7.268   5.053 -0.1907  0.5870  0.1874
11828WAT      O49116   8.002   5.753   4.555 -0.6370 -0.5290 -0.2520
11828WAT     H149117   7.908   5.761   4.569 -0.4903 -1.4021  1.5567
11828WAT     H249118   8.039   5.743   4.643  1.1217 -0.5123 -0.9357
11828WAT    EPW49119   7.995   5.753   4.568 -0.3858 -0.6421 -0.1035
11829WAT      O49120   1.294   6.431   3.936 -0.1949  0.3592 -0.2071
11829WAT     H149121   1.383   6.399   3.950  1.0068  1.7273 -3.6576
11829WAT     H249122   1.245   6.353   3.909  0.3655 -0.1010  0.0678
11829WAT    EPW49123   1.299   6.416   3.934  0.0375  0.4787 -0.6260
11830WAT      O49124   1.812   4.424   6.521 -0.6090 -0.2167 -0.2754
11830WAT     H149125   1.881   4.490   6.516  0.1807 -1.0682 -0.8338
11830WAT     H249126   1.733   4.474   6.543  0.4291  0.6065  1.8729
11830WAT    EPW49127   1.811   4.439   6.523 -0.3679 -0.2203 -0.0658
11831WAT      O49128   2.608   3.621   2.747  0.1331  0.8692  0.0258
11831WAT     H149129   2.532   3.564   2.757 -0.2558  1.3634 -0.1190
11831WAT     H249130   2.627   3.652   2.836  1.4905 -0.9269  0.4330
11831WAT    EPW49131   2.601   3.617   2.760  0.2608  0.6975  0.0603
11832WAT      O49132  10.808   1.432   1.955 -0.5127  0.0575  0.6543
11832WAT     H149133  10.861   1.388   2.021  2.3120 -0.6528 -1.8804
11832WAT     H249134  10.834   1.524   1.962 -0.3512  0.0138  0.6253
11832WAT    EPW49135  10.819   1.439   1.965 -0.1187 -0.0419  0.3161
11833WAT      O49136   5.497   4.165   5.011  0.1880 -0.3176  0.5649
11833WAT     H149137   5.402   4.171   5.004  0.2518  0.1552  0.0093
11833WAT     H249138   5.518   4.079   4.976  0.2337  0.8448 -2.5330
11833WAT    EPW49139   5.487   4.155   5.005  0.2024 -0.1018  0.0830
11834WAT      O49140   1.510   4.514   4.021 -0.1825 -1.0742 -0.6843
11834WAT     H149141   1.532   4.573   3.949 -0.4275 -0.0495  0.0471
11834WAT     H249142   1.582   4.451   4.024  0.1354 -0.7587 -1.4244
11834WAT    EPW49143   1.522   4.514   4.012 -0.1729 -0.8976 -0.6855
11835WAT      O49144   9.094   5.781   2.555 -0.1243  0.1090  0.2519
11835WAT     H149145   9.146   5.861   2.559 -0.2670  0.1815  3.1217
11835WAT     H249146   9.137   5.722   2.617  0.1830 -2.2395 -2.0308
11835WAT    EPW49147   9.106   5.784   2.564 -0.1025 -0.1912  0.3294
11836WAT      O49148   9.160   8.018   3.015 -0.6308  0.3076  0.1629
11836WAT     H149149   9.169   7.944   2.954  0.2223  1.2338 -0.8820
11836WAT     H249150   9.198   7.986   3.097  0.3628 -0.1998 -0.4681
11836WAT    EPW49151   9.166   8.004   3.017 -0.3872  0.3629 -0.0582
11837WAT      O49152   9.096   4.832   5.304  0.8460  0.1572 -0.5804
11837WAT     H149153   9.005   4.863   5.299  0.2848 -0.6503  2.4290
11837WAT     H249154   9.145   4.908   5.335  1.0206  0.2850 -1.1561
11837WAT    EPW49155   9.090   4.846   5.308  0.7949  0.0672 -0.2594
11838WAT      O49156   2.255   3.088   3.686 -0.1883 -0.2229  0.4894
11838WAT     H149157   2.213   3.151   3.744  0.8950 -0.5546  1.6913
11838WAT     H249158   2.192   3.017   3.678 -0.3586 -0.1746  1.2996
11838WAT    EPW49159   2.241   3.087   3.693 -0.0678 -0.2602  0.7548
11839WAT      O49160   0.041   5.359   4.093 -0.4664 -0.1571  0.2884
11839WAT     H149161   0.115   5.329   4.040  0.7728 -0.1049  1.9089
11839WAT     H249162   0.033   5.293   4.162 -1.4067  0.2864  0.6138
11839WAT    EPW49163   0.050   5.346   4.095 -0.4270 -0.0916  0.5453
11840WAT      O49164   9.890   8.323   1.085  0.0692  1.0285 -0.8736
11840WAT     H149165   9.962   8.360   1.135 -0.0454 -0.0535  0.1443
11840WAT     H249166   9.897   8.364   0.998  0.5257  2.6311 -0.1194
11840WAT    EPW49167   9.900   8.333   1.080  0.1144  1.0972 -0.6399
11841WAT      O49168   1.455   3.426   4.598  0.4054  0.4055 -0.4551
11841WAT     H149169   1.444   3.333   4.620  2.5718 -0.4667 -2.5978
11841WAT     H249170   1.375   3.449   4.551  1.8948 -2.0342 -4.6271
11841WAT    EPW49171   1.443   3.417   4.595  0.8876 -0.0312 -1.2879
11842WAT      O49172  10.943   5.692   7.161  0.3822  0.3804 -0.0238
11842WAT     H149173  10.878   5.638   7.114 -0.6851  0.8419  0.8699
11842WAT     H249174  10.890   5.752   7.213  1.5288  2.3308 -0.9984
11842WAT    EPW49175  10.927   5.693   7.162  0.3934  0.6988 -0.0343
11843WAT      O49176   3.071   3.580   5.828  0.0835 -0.0094 -0.5930
11843WAT     H149177   2.999   3.641   5.814 -0.2037 -0.3475 -0.5920
11843WAT     H249178   3.124   3.586   5.749 -0.2268 -0.1448 -0.8100
11843WAT    EPW49179   3.069   3.589   5.816  0.0046 -0.0719 -0.6216
11844WAT      O49180   0.282   8.556   0.833  0.4531  0.0975  0.1821
11844WAT     H149181   0.356   8.546   0.893 -1.3287  0.3459  2.5908
11844WAT     H249182   0.251   8.467   0.817 -0.1246  0.1108  1.1229
11844WAT    EPW49183   0.288   8.543   0.839  0.1419  0.1321  0.6239
11845WAT      O49184  10.089   1.866   6.392  0.0163 -0.5612 -0.1915
11845WAT     H149185  10.118   1.954   6.371 -1.0527 -0.7848 -3.1858
11845WAT     H249186  10.156   1.832   6.451  1.3517  1.6655 -0.3033
11845WAT    EPW49187  10.102   1.873   6.397  0.0520 -0.2970 -0.6011
11846WAT      O49188  10.227   6.565   3.841  0.1311  0.0705 -0.2180
11846WAT     H149189  10.175   6.629   3.793  1.0020 -0.5924 -2.1686
11846WAT     H249190  10.272   6.515   3.773  0.2807 -1.9437  1.2626
11846WAT    EPW49191  10.226   6.567   3.826  0.2656 -0.2828 -0.2799
11847WAT      O49192   0.360   7.859   3.025 -0.6767  0.0874  0.7534
11847WAT     H149193   0.365   7.775   3.071  0.8639  0.0038  0.5013
11847WAT     H249194   0.331   7.836   2.937 -0.6615 -0.1345  0.8056
11847WAT    EPW49195   0.357   7.845   3.020 -0.4715  0.0470  0.7271
11848WAT      O49196   4.403   3.317   3.323 -0.5666  0.4936 -0.0682
11848WAT     H149197   4.486   3.365   3.333  0.7111 -1.3292 -1.2653
11848WAT     H249198   4.417   3.236   3.371 -0.9284 -0.6438 -1.8152
11848WAT    EPW49199   4.416   3.313   3.331 -0.4458  0.1030 -0.4565
11849WAT      O49200   0.215   3.184   4.822  0.4505  0.3096 -0.3301
11849WAT     H149201   0.247   3.267   4.857  0.4763 -0.0294  0.4834
11849WAT     H249202   0.292   3.143   4.783  0.8798 -0.1747  0.9693
11849WAT    EPW49203   0.229   3.190   4.821  0.5105  0.2010 -0.0513
11850WAT      O49204   8.278   5.580   5.568  0.1106  0.2783  0.1834
11850WAT     H149205   8.258   5.668   5.535  1.7097  0.8324  0.6273
11850WAT     H249206   8.372   5.581   5.585  0.4299 -1.9154 -0.9767
11850WAT    EPW49207   8.288   5.592   5.566  0.3638  0.0622  0.0892
11851WAT      O49208   2.343   9.204   0.595 -0.8557 -1.1739  0.4652
11851WAT     H149209   2.438   9.190   0.592 -0.8247 -0.8294 -0.7917
11851WAT     H249210   2.317   9.174   0.682  0.4367 -1.0868  0.9066
11851WAT    EPW49211   2.352   9.199   0.606 -0.6812 -1.1172  0.3577
11852WAT      O49212   0.156   2.965   7.620 -0.2688 -0.3567  0.2530
11852WAT     H149213   0.117   2.898   7.565  0.6802 -1.8757  1.3591
11852WAT     H249214   0.082   3.020   7.648 -1.3352 -1.9548  0.6904
11852WAT    EPW49215   0.141   2.964   7.616 -0.2843 -0.7677  0.4568
11853WAT      O49216   1.870   4.093   1.509  0.1023 -0.0289  0.1580
11853WAT     H149217   1.936   4.113   1.442  1.0618 -1.3434  0.6652
11853WAT     H249218   1.869   4.170   1.565 -0.7411  1.1055 -1.3535
11853WAT    EPW49219   1.879   4.106   1.507  0.1175 -0.0527  0.0256
11854WAT      O49220   8.092   3.924   4.984 -0.3475  0.3464  0.2941
11854WAT     H149221   8.138   3.885   5.058 -1.8719  0.7319  1.4911
11854WAT     H249222   8.138   3.890   4.907 -0.3563 -2.1860  1.3268
11854WAT    EPW49223   8.104   3.915   4.984 -0.5503  0.0632  0.5879
11855WAT      O49224  10.211   5.541   4.485 -0.3474  0.4648  0.2009
11855WAT     H149225  10.174   5.462   4.445  2.6052 -0.0194 -1.8884
11855WAT     H249226  10.136   5.600   4.496 -2.1176 -1.3617 -1.2704
11855WAT    EPW49227  10.196   5.538   4.481 -0.1912  0.1597 -0.2689
11856WAT      O49228   0.281   4.723   5.284 -0.2331 -0.4118  0.1710
11856WAT     H149229   0.269   4.750   5.193  0.9807 -1.5477 -0.3520
11856WAT     H249230   0.335   4.791   5.323  0.1223 -0.4423 -0.2584
11856WAT    EPW49231   0.286   4.735   5.278 -0.0261 -0.5655  0.0453
11857WAT      O49232  10.422   6.114   2.241  0.4552  0.4023  0.0726
11857WAT     H149233  10.462   6.165   2.311 -1.3989  0.2995  1.2868
11857WAT     H249234  10.363   6.176   2.197  1.7211  0.5129 -1.5461
11857WAT    EPW49235  10.419   6.129   2.244  0.3772  0.4034  0.0192
11858WAT      O49236   9.908   0.034   5.829  0.1153  0.2183 -0.0678
11858WAT     H149237   9.819   0.069   5.829 -0.0986 -0.2923 -1.0770
11858WAT     H249238   9.910  -0.027   5.903 -0.4030  0.1584 -0.1026
11858WAT    EPW49239   9.897   0.030   5.839  0.0186  0.1430 -0.2055
11859WAT      O49240   9.353   7.107   1.511 -0.5474  0.2539  0.1209
11859WAT     H149241   9.443   7.080   1.529 -0.8676 -1.6358 -0.8219
11859WAT     H249242   9.357   7.146   1.423 -1.1502 -3.3227 -1.6676
11859WAT    EPW49243   9.366   7.109   1.502 -0.6685 -0.4673 -0.2394
11860WAT      O49244  10.056   4.688   3.538  0.6868  0.0625  0.2384
11860WAT     H149245  10.053   4.783   3.548 -0.0656  0.3585 -2.0558
11860WAT     H249246  10.090   4.675   3.449 -0.1007 -1.7643  0.1555
11860WAT    EPW49247  10.060   4.699   3.527  0.4835 -0.1395 -0.0750
11861WAT      O49248   0.379   1.469   7.070 -0.0430 -1.0298 -0.1294
11861WAT     H149249   0.411   1.558   7.085  4.0399 -2.4958  1.2591
11861WAT     H249250   0.335   1.473   6.986 -1.0445  2.4722  0.3947
11861WAT    EPW49251   0.378   1.482   7.061  0.3634 -0.7613  0.1228
11862WAT      O49252   9.313   4.486   1.321  0.0453  0.1544  0.0926
11862WAT     H149253   9.399   4.510   1.355 -0.3108  0.5053  0.7822
11862WAT     H249254   9.271   4.570   1.303 -0.7849  0.0499  1.4151
11862WAT    EPW49255   9.319   4.500   1.323 -0.1116  0.1867  0.3580
11863WAT      O49256   0.657   2.340   6.011 -0.2793  0.2287  0.0445
11863WAT     H149257   0.706   2.379   5.939  1.5417  1.0398  1.5970
11863WAT     H249258   0.674   2.246   6.003 -1.1620  0.1636 -1.2860
11863WAT    EPW49259   0.666   2.333   6.001 -0.1555  0.3272  0.0739
11864WAT      O49260   9.710   0.201   8.124 -0.3785 -0.0720  0.6355
11864WAT     H149261   9.737   0.109   8.124  1.0116  0.3157  0.9998
11864WAT     H249262   9.709   0.225   8.216  0.3150  0.5629  0.4820
11864WAT    EPW49263   9.713   0.192   8.136 -0.1035  0.0629  0.6638
11865WAT      O49264   9.844   4.658   1.334  0.2805 -0.0535 -0.1525
11865WAT     H149265   9.756   4.621   1.335  1.3403 -2.7806  0.5760
11865WAT     H249266   9.858   4.689   1.424 -0.3981  1.7222 -0.6211
11865WAT    EPW49267   9.834   4.657   1.346  0.3309 -0.1788 -0.1182
11866WAT      O49268   9.949   5.163   2.757 -0.6156  0.3184  0.2866
11866WAT     H149269   9.955   5.088   2.817 -1.7476  0.2846  0.3741
11866WAT     H249270   9.909   5.127   2.678 -0.8008  0.7436  0.1855
11866WAT    EPW49271   9.944   5.148   2.755 -0.7896  0.3703  0.2849
11867WAT      O49272   0.732   4.974   2.289 -0.2224 -0.0888 -0.1032
11867WAT     H149273   0.736   4.912   2.362  0.9950 -0.2796 -0.3139
11867WAT     H249274   0.710   5.058   2.330 -2.9089 -0.7932  0.0753
11867WAT    EPW49275   0.729   4.977   2.304 -0.4161 -0.2065 -0.1075
11868WAT      O49276   7.898   4.761   3.596  0.1639  0.2505 -0.0871
11868WAT     H149277   7.912   4.700   3.668 -3.4878 -0.9069 -0.1916
11868WAT     H249278   7.883   4.845   3.639  2.9275  0.7226  0.1513
11868WAT    EPW49279   7.898   4.764   3.611  0.0470  0.1600 -0.0693
11869WAT      O49280  10.240   2.919   1.573  0.1461  0.4391  0.2732
11869WAT     H149281  10.222   2.999   1.622 -1.0794  0.6043 -0.4208
11869WAT     H249282  10.157   2.897   1.531  0.6179 -0.8824 -0.0132
11869WAT    EPW49283  10.227   2.927   1.574  0.0463  0.2866  0.1439
11870WAT      O49284   0.402   6.325   5.356  0.5599 -0.4612  0.1135
11870WAT     H149285   0.315   6.303   5.324  0.1012 -0.1393  1.0845
11870WAT     H249286   0.460   6.311   5.281 -0.5505  0.9595 -1.0596
11870WAT    EPW49287   0.398   6.320   5.342  0.3529 -0.2310  0.0868
11871WAT      O49288   6.641   4.227   1.657  0.2190 -0.1452 -0.6012
11871WAT     H149289   6.551   4.194   1.661 -0.0244  0.4662 -1.0207
11871WAT     H249290   6.635   4.317   1.688  0.5394  0.1992 -1.5213
11871WAT    EPW49291   6.629   4.234   1.662  0.2289 -0.0191 -0.7779
11872WAT      O49292   8.946   6.653   2.371 -0.7516  0.1823  0.0428
11872WAT     H149293   8.904   6.731   2.336  0.7590  1.0436  0.0931
11872WAT     H249294   9.007   6.625   2.302  0.8111  0.7494  1.1469
11872WAT    EPW49295   8.948   6.659   2.357 -0.3462  0.3705  0.1951
11873WAT      O49296  10.527   6.258   3.395  0.3738 -0.3477  0.0567
11873WAT     H149297  10.547   6.200   3.469 -0.6131 -0.5654  0.1639
11873WAT     H249298  10.447   6.222   3.358  0.5865  0.0640 -0.8139
11873WAT    EPW49299  10.519   6.246   3.400  0.2723 -0.3223 -0.0441
11874WAT      O49300   9.142   4.512   8.333  0.0785 -0.2303  0.4858
11874WAT     H149301   9.163   4.485   8.243  0.6065  0.9415  0.2444
11874WAT     H249302   9.170   4.438   8.387 -2.3091 -1.9624 -0.4421
11874WAT    EPW49303   9.148   4.499   8.328 -0.1669 -0.3042  0.3324
11875WAT      O49304   0.698   5.116   4.910 -0.4722 -0.3916 -0.3268
11875WAT     H149305   0.765   5.172   4.871  0.3745 -0.6434  0.7096
11875WAT     H249306   0.736   5.028   4.907 -1.2060 -0.7046 -0.6807
11875WAT    EPW49307   0.712   5.111   4.904 -0.4573 -0.4661 -0.2370
11876WAT      O49308   3.854   4.265   7.161  0.9712 -0.2460  0.3307
11876WAT     H149309   3.857   4.344   7.107 -0.5558 -1.2534 -1.3624
11876WAT     H249310   3.890   4.197   7.105  0.4595 -1.1102  1.0267
11876WAT    EPW49311   3.859   4.266   7.147  0.7024 -0.4930  0.1991
11877WAT      O49312   1.101   7.527   2.217 -0.3617 -0.3113 -0.0200
11877WAT     H149313   1.131   7.474   2.143  0.3510 -1.1493  0.8413
11877WAT     H249314   1.007   7.538   2.203 -0.2616 -0.6158 -0.9460
11877WAT    EPW49315   1.093   7.521   2.206 -0.2545 -0.4621 -0.0285
11878WAT      O49316   0.578   3.609   6.652 -0.4438  0.3622  0.3551
11878WAT     H149317   0.596   3.589   6.560  2.6860 -0.5982  1.0371
11878WAT     H249318   0.567   3.524   6.693  1.4832  0.5211  1.3404
11878WAT    EPW49319   0.579   3.595   6.645  0.2232  0.2565  0.5748
11879WAT      O49320   8.899   6.803   5.293 -0.8472 -0.2552  0.5769
11879WAT     H149321   8.889   6.739   5.364 -1.0467 -1.4358 -0.4907
11879WAT     H249322   8.856   6.882   5.327 -1.9554 -1.1458  1.3342
11879WAT    EPW49323   8.892   6.805   5.307 -1.0200 -0.5283  0.5357
11880WAT      O49324   0.010   7.083   4.493  0.5142 -0.5929  0.3882
11880WAT     H149325   0.089   7.121   4.453  1.6183 -0.4505  2.5433
11880WAT     H249326  -0.060   7.144   4.471  1.1727 -0.2409 -0.8156
11880WAT    EPW49327   0.011   7.096   4.485  0.7463 -0.5276  0.5136
11881WAT      O49328   9.648   4.164   6.390 -0.3614 -0.0050  0.3061
11881WAT     H149329   9.660   4.175   6.484  1.0944  1.0992  0.0253
11881WAT     H249330   9.608   4.078   6.381  0.4014 -0.5607  1.8748
11881WAT    EPW49331   9.644   4.154   6.401 -0.0687  0.0672  0.4759
11882WAT      O49332   8.878   3.830   2.317  0.9665  0.0433  0.8120
11882WAT     H149333   8.832   3.751   2.290  0.7409 -0.4169  2.4148
11882WAT     H249334   8.862   3.893   2.246 -0.9690 -0.5537  0.6636
11882WAT    EPW49335   8.870   3.828   2.304  0.6814 -0.0961  1.0040
11883WAT      O49336   7.470   3.524   3.806  0.5472  0.2750  0.3985
11883WAT     H149337   7.414   3.470   3.750  1.0306  0.3679 -0.1865
11883WAT     H249338   7.418   3.603   3.822  0.8061  0.7295 -0.8252
11883WAT    EPW49339   7.455   3.527   3.800  0.6452  0.3471  0.1599
11884WAT      O49340  10.385   4.123   3.220  0.1368 -0.0420  0.0095
11884WAT     H149341  10.403   4.051   3.159 -0.5552 -0.3215  0.1201
11884WAT     H249342  10.347   4.192   3.166 -0.2297 -0.1882  0.0761
11884WAT    EPW49343  10.382   4.122   3.205 -0.0029 -0.0980  0.0328
11885WAT      O49344   0.836   7.267   3.191  0.3524  0.6594  0.5439
11885WAT     H149345   0.867   7.312   3.112 -1.4716  0.9021 -0.0887
11885WAT     H249346   0.802   7.337   3.246 -0.5797  0.2735  0.4749
11885WAT    EPW49347   0.836   7.282   3.188 -0.0111  0.6404  0.4513
11886WAT      O49348  10.392   7.015   5.627  0.4338 -0.5561  0.4425
11886WAT     H149349  10.407   7.049   5.716 -0.5464 -2.6452  1.4828
11886WAT     H249350  10.470   7.042   5.578  0.3308  1.9412  1.4837
11886WAT    EPW49351  10.405   7.023   5.632  0.2913 -0.5021  0.7174
11887WAT      O49352   8.747   3.844   3.366  0.3978 -0.0465 -0.4573
11887WAT     H149353   8.833   3.884   3.381  0.3143 -0.1379  0.2885
11887WAT     H249354   8.740   3.777   3.434 -1.0194  1.1813  0.6906
11887WAT    EPW49355   8.757   3.841   3.377  0.1998  0.1032 -0.2077
11888WAT      O49356   8.856   4.994   3.058  0.1485 -0.3861 -0.9826
11888WAT     H149357   8.767   4.960   3.056  1.1944 -3.4960 -2.0592
11888WAT     H249358   8.911   4.916   3.069  2.8240  1.0773 -2.6628
11888WAT    EPW49359   8.852   4.979   3.059  0.6394 -0.6032 -1.3462
11889WAT      O49360   8.960   9.148   0.836 -0.6631 -0.2125  1.0048
11889WAT     H149361   8.899   9.077   0.853 -1.0773 -1.7012 -4.7027
11889WAT     H249362   8.911   9.208   0.779  1.4354  1.6787  1.0667
11889WAT    EPW49363   8.945   9.147   0.831 -0.4411 -0.1588  0.2602
11890WAT      O49364   8.934   6.651   5.529 -0.2249  0.8948 -0.1315
11890WAT     H149365   8.956   6.582   5.592  1.3845  0.2400 -1.3643
11890WAT     H249366   8.922   6.729   5.583  1.8519  0.5159  0.9683
11890WAT    EPW49367   8.935   6.652   5.545  0.2613  0.7582 -0.1488
11891WAT      O49368  10.068   2.688   2.961  0.1696 -0.4004 -0.0818
11891WAT     H149369  10.132   2.739   2.911  0.9558 -0.9690  0.3250
11891WAT     H249370  10.101   2.688   3.051 -1.2643  0.6597  0.4763
11891WAT    EPW49371  10.081   2.694   2.966  0.0844 -0.3355  0.0455
11892WAT      O49372  10.037   2.431   2.857 -0.5850  0.0727 -0.8562
11892WAT     H149373  10.068   2.519   2.879  0.9656 -0.5783 -0.3088
11892WAT     H249374   9.945   2.431   2.884 -0.4622  1.3607 -0.3599
11892WAT    EPW49375  10.029   2.443   2.864 -0.3643  0.1565 -0.7186
11893WAT      O49376   9.793   7.047   3.004 -0.1971 -0.3241  0.3763
11893WAT     H149377   9.792   7.064   3.099 -0.4760 -2.2066  0.7480
11893WAT     H249378   9.885   7.031   2.983 -0.2661 -0.9736  0.5515
11893WAT    EPW49379   9.805   7.047   3.014 -0.2427 -0.6578  0.4485
11894WAT      O49380   0.299   3.019   3.247  0.0003 -0.1694 -0.6298
11894WAT     H149381   0.382   2.974   3.262  0.9550  0.5090 -3.2120
11894WAT     H249382   0.297   3.033   3.152 -1.7451  2.3169 -0.3336
11894WAT    EPW49383   0.310   3.015   3.236 -0.1040  0.2480 -0.9313
11895WAT      O49384  10.329   5.618   1.503 -0.3406 -0.3203  1.2984
11895WAT     H149385  10.396   5.685   1.489 -2.1514  0.8501 -4.2460
11895WAT     H249386  10.256   5.664   1.544 -1.4247  1.3264 -2.1235
11895WAT    EPW49387  10.329   5.633   1.507 -0.7229  0.0510  0.1158
11896WAT      O49388  10.168   4.569   1.772 -0.1385  0.1511  0.3275
11896WAT     H149389  10.097   4.590   1.831  0.8624 -0.4811  1.8191
11896WAT     H249390  10.245   4.611   1.810  0.7664 -1.2935  0.1913
11896WAT    EPW49391  10.169   4.577   1.785  0.1130 -0.1228  0.5062
11897WAT      O49392  10.055   4.732   6.119  0.2247  0.2538 -0.5476
11897WAT     H149393   9.987   4.729   6.051  1.3284 -0.4315 -1.6680
11897WAT     H249394  10.091   4.821   6.112 -2.6065  1.8257  2.2434
11897WAT    EPW49395  10.051   4.744   6.109 -0.0029  0.3705 -0.3271
11898WAT      O49396   1.297   6.808   1.377 -0.3198  0.5940 -0.8041
11898WAT     H149397   1.285   6.893   1.334 -0.2626  1.3363  0.6012
11898WAT     H249398   1.212   6.790   1.416 -0.7651 -0.7091 -2.2730
11898WAT    EPW49399   1.284   6.817   1.376 -0.3709  0.5200 -0.8124
11899WAT      O49400  10.379   5.012   6.992  0.0911 -0.2214 -0.8815
11899WAT     H149401  10.428   4.988   7.071 -0.5534  0.5295 -0.2311
11899WAT     H249402  10.446   5.045   6.932  0.4918  0.0072 -0.3249
11899WAT    EPW49403  10.394   5.013   6.994  0.0591 -0.0925 -0.7222
11900WAT      O49404   3.481   5.640   6.513  0.3292  1.0118  1.0098
11900WAT     H149405   3.451   5.719   6.558  1.0102  1.2067  1.1356
11900WAT     H249406   3.516   5.671   6.430  0.2730  0.8010  0.9066
11900WAT    EPW49407   3.482   5.655   6.508  0.4116  1.0092  1.0128
11901WAT      O49408   0.020   5.764   3.500  0.2536  0.4788 -0.1971
11901WAT     H149409   0.043   5.853   3.528  1.2018  0.3129 -0.4001
11901WAT     H249410  -0.019   5.775   3.414 -0.0674  0.7367 -0.0217
11901WAT    EPW49411   0.018   5.777   3.492  0.3366  0.4911 -0.2006
11902WAT      O49412   9.716   4.479   1.671  0.1386  0.4520  0.3086
11902WAT     H149413   9.643   4.419   1.687  0.1618  0.4650  0.4594
11902WAT     H249414   9.732   4.521   1.755  0.4803  0.2689  0.3399
11902WAT    EPW49415   9.708   4.476   1.684  0.1860  0.4296  0.3326
11903WAT      O49416   9.274   6.418   4.349 -0.2738  0.7399  0.8657
11903WAT     H149417   9.229   6.493   4.387  0.7149  1.7205  0.1821
11903WAT     H249418   9.272   6.351   4.417 -1.8389  1.1021  1.2156
11903WAT    EPW49419   9.268   6.419   4.363 -0.3495  0.9170  0.8216
11904WAT      O49420   9.888   7.626   4.494 -0.2368 -0.8083 -0.5755
11904WAT     H149421   9.795   7.628   4.474 -0.4676  0.8324  0.4443
11904WAT     H249422   9.895   7.570   4.571 -1.1255  2.5338  2.2019
11904WAT    EPW49423   9.877   7.619   4.502 -0.3843 -0.1512 -0.0749
11905WAT      O49424  10.374   4.049   0.731 -0.6534 -0.5433 -0.1074
11905WAT     H149425  10.360   4.135   0.771 -1.8308 -1.9682  2.8113
11905WAT     H249426  10.438   4.065   0.662  0.6113  2.3674  1.5708
11905WAT    EPW49427  10.381   4.063   0.727 -0.6418 -0.3474  0.4989
11906WAT      O49428   0.392   7.742   5.774 -0.1091 -0.3560 -0.2848
11906WAT     H149429   0.402   7.648   5.764 -0.1065 -0.4412  0.4818
11906WAT     H249430   0.302   7.760   5.745  0.1860 -0.4519 -1.3104
11906WAT    EPW49431   0.381   7.732   5.768 -0.0699 -0.3798 -0.3192
11907WAT      O49432  10.179   4.746   3.271  0.0686  0.3813  0.0154
11907WAT     H149433  10.188   4.679   3.204 -2.2532  0.8334 -0.8338
11907WAT     H249434  10.244   4.813   3.248  2.6432 -1.5720  1.0459
11907WAT    EPW49435  10.189   4.746   3.259  0.1020  0.1831  0.0393
11908WAT      O49436   0.257   4.016   6.772  0.2479 -0.0902  0.7768
11908WAT     H149437   0.244   3.923   6.791  1.1026 -0.6061 -0.8978
11908WAT     H249438   0.238   4.061   6.854 -3.9945 -1.3464  0.7099
11908WAT    EPW49439   0.253   4.010   6.785 -0.1989 -0.3240  0.5472
11909WAT      O49440  10.048   4.522   5.206  0.0161  0.1395  0.0236
11909WAT     H149441  10.104   4.559   5.275 -0.9049 -1.7831  1.9269
11909WAT     H249442   9.984   4.590   5.187  2.3084  2.0241 -1.5074
11909WAT    EPW49443  10.047   4.536   5.213  0.1969  0.1342  0.0727
11910WAT      O49444   0.900   2.190   3.829  0.5422 -0.1019 -1.0335
11910WAT     H149445   0.955   2.234   3.894 -0.0376  0.3266 -0.8242
11910WAT     H249446   0.962   2.160   3.762  1.1013 -0.1961 -0.4912
11910WAT    EPW49447   0.916   2.192   3.829  0.5395 -0.0578 -0.9345
11911WAT      O49448   7.912   5.239   4.953  0.3831  0.2113  0.1214
11911WAT     H149449   7.816   5.235   4.961  0.1794  3.2101  0.2088
11911WAT     H249450   7.928   5.284   4.870  1.6400  1.1126  0.8069
11911WAT    EPW49451   7.901   5.244   4.943  0.5221  0.7255  0.2234
11912WAT      O49452   0.648   4.078   3.175 -0.1889 -0.2862 -0.0815
11912WAT     H149453   0.668   4.051   3.085  1.4554 -1.6878  0.6469
11912WAT     H249454   0.655   3.998   3.226  3.1545  1.0764  1.9211
11912WAT    EPW49455   0.652   4.064   3.170  0.4690 -0.2913  0.2787
11913WAT      O49456  10.944   4.693   7.724 -0.8283 -0.1799 -0.3948
11913WAT     H149457  10.930   4.638   7.802 -0.9485  0.0354 -0.2611
11913WAT     H249458  11.039   4.700   7.716 -0.7822  1.6811  1.0985
11913WAT    EPW49459  10.954   4.687   7.734 -0.8381  0.0939 -0.1805
11914WAT      O49460   7.482   4.885   8.633 -0.3350  0.5059  0.4744
11914WAT     H149461   7.441   4.969   8.652  0.6199  0.9240  0.7640
11914WAT     H249462   7.515   4.855   8.718  0.9831  0.7550  0.0717
11914WAT    EPW49463   7.481   4.892   8.647 -0.0350  0.5939  0.4592
11915WAT      O49464   8.613   4.396   0.700  0.2305  0.3651 -0.0500
11915WAT     H149465   8.679   4.383   0.768 -0.0226 -0.1186  0.1061
11915WAT     H249466   8.597   4.309   0.664  1.0818  0.7408 -1.4155
11915WAT    EPW49467   8.619   4.383   0.704  0.3099  0.3505 -0.2095
11916WAT      O49468   0.826   3.420   6.130  0.1799  0.9086 -0.8358
11916WAT     H149469   0.777   3.475   6.068 -0.5723 -0.3302 -1.3714
11916WAT     H249470   0.769   3.345   6.146  1.7928 -0.4518 -1.2525
11916WAT    EPW49471   0.812   3.417   6.124  0.2934  0.5656 -0.9611
11917WAT      O49472  10.715   6.641   3.048  0.1555  0.1716 -0.3558
11917WAT     H149473  10.808   6.628   3.031  0.1034  1.3747 -1.7686
11917WAT     H249474  10.712   6.719   3.103  0.0150 -0.1588  0.0993
11917WAT    EPW49475  10.727   6.650   3.053  0.1297  0.2863 -0.4820
11918WAT      O49476  10.450   4.507   1.490  0.2792 -0.4139  0.3212
11918WAT     H149477  10.487   4.432   1.443 -0.0633 -0.8846  0.7990
11918WAT     H249478  10.503   4.515   1.569  1.3778  0.8806 -0.4986
11918WAT    EPW49479  10.462   4.498   1.494  0.3791 -0.3054  0.2761
11919WAT      O49480   9.926   3.001   5.159 -1.3118  0.5863  0.3974
11919WAT     H149481   9.999   3.049   5.198 -1.5238  0.3372  1.1203
11919WAT     H249482   9.916   3.038   5.071 -0.2819  0.5834  0.2727
11919WAT    EPW49483   9.934   3.012   5.152 -1.2045  0.5530  0.4764
11920WAT      O49484   5.802   1.283   3.496  0.0432  0.5585  0.1899
11920WAT     H149485   5.872   1.224   3.470 -0.5232 -0.7721  1.5407
11920WAT     H249486   5.789   1.340   3.420  0.8565 -0.8148 -1.0169
11920WAT    EPW49487   5.809   1.283   3.483  0.0756  0.2018  0.2089
11921WAT      O49488   3.972   5.250   2.362 -0.1909 -0.0573  0.1981
11921WAT     H149489   3.982   5.191   2.437 -0.7477 -0.7463 -0.2633
11921WAT     H249490   4.044   5.227   2.304 -0.9301 -0.9288 -0.3994
11921WAT    EPW49491   3.982   5.239   2.364 -0.3619 -0.2630  0.0584
11922WAT      O49492   9.111   3.897   4.288 -0.5722  0.3464  0.2842
11922WAT     H149493   9.206   3.891   4.287 -0.4458  1.6229  1.2115
11922WAT     H249494   9.089   3.948   4.210 -0.3089  1.5683  0.9652
11922WAT    EPW49495   9.120   3.903   4.278 -0.5207  0.6759  0.4964
11923WAT      O49496   9.325   6.961   6.805  0.4527  0.1855  0.6286
11923WAT     H149497   9.321   7.050   6.838 -0.4801  0.3227  0.1853
11923WAT     H249498   9.241   6.922   6.829  0.3521 -0.1795 -0.2494
11923WAT    EPW49499   9.313   6.967   6.812  0.3157  0.1554  0.4542
11924WAT      O49500  10.850   7.656   0.114 -0.6205 -0.0403  0.9848
11924WAT     H149501  10.793   7.697   0.049 -1.0399  1.7024  2.3591
11924WAT     H249502  10.931   7.707   0.111 -0.1483 -0.7749  0.9391
11924WAT    EPW49503  10.853   7.668   0.105 -0.6137  0.0927  1.1601
11925WAT      O49504  10.047   4.619   7.017  0.8001 -0.3812  0.3456
11925WAT     H149505   9.975   4.680   7.034  0.3867 -0.1354 -1.9611
11925WAT     H249506  10.020   4.538   7.060 -0.6591 -0.1608 -0.1010
11925WAT    EPW49507  10.034   4.617   7.025  0.5531 -0.3195 -0.0176
11926WAT      O49508   8.956   6.305   1.824 -0.3225 -0.0926 -0.0791
11926WAT     H149509   8.948   6.286   1.917  0.7515  0.3191  0.1163
11926WAT     H249510   9.045   6.341   1.814 -1.0084  1.4739 -0.9908
11926WAT    EPW49511   8.967   6.307   1.835 -0.2713  0.1681 -0.1736
11927WAT      O49512   1.264   4.392   5.637 -0.1761 -0.1730 -0.1750
11927WAT     H149513   1.352   4.365   5.610  0.0889  0.7766 -0.2988
11927WAT     H249514   1.261   4.370   5.730  0.8219  1.2833  0.2459
11927WAT    EPW49515   1.276   4.385   5.646 -0.0097  0.1442 -0.1359
11928WAT      O49516  10.941   4.749   1.890 -0.5196  0.2334 -0.9613
11928WAT     H149517  10.883   4.712   1.957  2.2994 -3.9789 -0.4604
11928WAT     H249518  10.940   4.685   1.819 -0.3541  2.6190 -3.2588
11928WAT    EPW49519  10.933   4.736   1.889 -0.1264 -0.0074 -1.1983
11929WAT      O49520   0.089   1.233   2.535 -1.1594  0.2376  0.2173
11929WAT     H149521   0.161   1.183   2.497 -0.9928  0.5331  0.1444
11929WAT     H249522   0.100   1.321   2.501  0.0095  0.9575  2.2376
11929WAT    EPW49523   0.100   1.238   2.526 -0.9833  0.3715  0.4741
11930WAT      O49524  10.823   8.527   1.218 -0.7507 -0.0747 -0.2577
11930WAT     H149525  10.873   8.532   1.137 -0.5183 -0.2585 -0.1299
11930WAT     H249526  10.754   8.593   1.209  0.8695  1.8515  0.4744
11930WAT    EPW49527  10.821   8.537   1.206 -0.5064  0.1545 -0.1443
11931WAT      O49528   1.191   6.211   0.133 -0.0644  0.5450  0.2936
11931WAT     H149529   1.100   6.201   0.108  0.0665  1.6661 -0.6811
11931WAT     H249530   1.228   6.123   0.125  0.1143  0.8270 -4.1763
11931WAT    EPW49531   1.184   6.198   0.129 -0.0236  0.7300 -0.4245
11932WAT      O49532   9.370   5.159   3.461 -0.1877  0.3871  0.2770
11932WAT     H149533   9.392   5.070   3.435  2.2806  1.0573 -0.2003
11932WAT     H249534   9.282   5.173   3.427 -0.3402 -1.6133 -0.2645
11932WAT    EPW49535   9.361   5.149   3.453  0.1168  0.2117  0.1426
11933WAT      O49536   0.167   0.939   2.779 -0.1826 -0.0834 -0.0059
11933WAT     H149537   0.199   1.004   2.841  0.9585 -0.3757 -0.2519
11933WAT     H249538   0.210   0.857   2.806 -0.4196 -0.4080 -0.5967
11933WAT    EPW49539   0.177   0.936   2.790 -0.0634 -0.1648 -0.1163
11934WAT      O49540   8.550   5.880   1.130  0.6326 -0.0705 -0.1577
11934WAT     H149541   8.586   5.902   1.044  1.7188  1.0379  0.5436
11934WAT     H249542   8.575   5.789   1.144  1.3372  0.0497 -0.5885
11934WAT    EPW49543   8.558   5.871   1.121  0.8683  0.0918 -0.1220
11935WAT      O49544  10.999   2.360   6.984 -0.7817  0.0305  0.2528
11935WAT     H149545  10.982   2.267   6.973 -0.5341 -0.0058  0.1661
11935WAT     H249546  10.979   2.398   6.898  2.2268 -0.4128 -0.7421
11935WAT    EPW49547  10.994   2.353   6.971 -0.3522 -0.0328  0.1099
11936WAT      O49548  10.537   3.803   2.848 -0.2724  0.1590  0.3103
11936WAT     H149549  10.513   3.713   2.868 -2.2329  1.1012  2.6714
11936WAT     H249550  10.633   3.804   2.852 -0.2578 -1.6275  1.1276
11936WAT    EPW49551  10.547   3.791   2.851 -0.5288  0.0476  0.7294
11937WAT      O49552   1.229   4.889   1.518 -0.2919 -0.2705  0.0808
11937WAT     H149553   1.314   4.885   1.563 -0.1062 -2.4068 -0.3655
11937WAT     H249554   1.251   4.899   1.426 -0.6275  1.6390  0.1643
11937WAT    EPW49555   1.243   4.890   1.512 -0.3117 -0.3006  0.0330
11938WAT      O49556   6.683   4.285   4.317  0.3637 -0.0639 -0.2087
11938WAT     H149557   6.711   4.363   4.269  2.2378 -0.5217  0.0679
11938WAT     H249558   6.658   4.318   4.403 -3.7924  0.8852 -1.5483
11938WAT    EPW49559   6.684   4.300   4.322  0.0625  0.0010 -0.3490
11939WAT      O49560   8.462   3.064   3.042  0.6873 -0.2227  0.2793
11939WAT     H149561   8.405   3.135   3.070  1.8944  0.9315 -0.1113
11939WAT     H249562   8.432   3.043   2.953  0.7010  0.1903  0.1782
11939WAT    EPW49563   8.450   3.070   3.034  0.8483 -0.0160  0.2145
11940WAT      O49564   9.823   1.176   5.222  0.1234 -0.5684 -0.0491
11940WAT     H149565   9.765   1.187   5.147  1.9161 -0.5973 -1.4847
11940WAT     H249566   9.779   1.224   5.293 -1.9495 -1.1495 -0.8826
11940WAT    EPW49567   9.810   1.184   5.222  0.0868 -0.6489 -0.3483
11941WAT      O49568   9.021   6.620   1.173  0.1155 -0.1219 -0.2335
11941WAT     H149569   8.938   6.581   1.145  0.0905  0.2986 -0.7674
11941WAT     H249570   9.041   6.577   1.256 -0.6355 -0.2267 -0.1034
11941WAT    EPW49571   9.013   6.609   1.180  0.0138 -0.0803 -0.2868
11942WAT      O49572   7.047   0.769   8.903  0.0434  0.4543 -0.2043
11942WAT     H149573   7.104   0.838   8.873  1.9129  0.4898  2.9606
11942WAT     H249574   7.102   0.713   8.958 -2.0356 -1.9528 -0.3244
11942WAT    EPW49575   7.062   0.771   8.906  0.0157  0.1415  0.1969
11943WAT      O49576   0.751   3.551   3.488  0.3557  0.1331  1.2822
11943WAT     H149577   0.765   3.591   3.574  3.2451 -0.3247  1.1034
11943WAT     H249578   0.825   3.492   3.477 -1.6356 -2.2871 -0.1869
11943WAT    EPW49579   0.762   3.548   3.498  0.4742 -0.2466  1.0649
11944WAT      O49580   8.346   3.968   4.295 -0.1419  0.2965  0.2987
11944WAT     H149581   8.279   3.957   4.362 -0.5095  0.9115  0.0484
11944WAT     H249582   8.417   3.909   4.321 -0.5664  0.0183  0.8441
11944WAT    EPW49583   8.346   3.959   4.307 -0.2465  0.3409  0.3376
11945WAT      O49584   7.674   9.357   5.082 -0.2986  0.7991  0.1149
11945WAT     H149585   7.622   9.421   5.033 -1.2100  0.5755  0.7579
11945WAT     H249586   7.612   9.318   5.143  0.6493  0.5767  0.9711
11945WAT    EPW49587   7.659   9.361   5.083 -0.2940  0.7401  0.3126
11946WAT      O49588   0.038   3.813   4.578  0.5099  0.4259 -0.4045
11946WAT     H149589   0.056   3.882   4.643  0.2055 -0.5826  0.7839
11946WAT     H249590  -0.033   3.850   4.525 -0.5751  0.5504  1.0464
11946WAT    EPW49591   0.031   3.827   4.580  0.3266  0.3093 -0.0563
11947WAT      O49592   0.452   3.569   6.182  0.0536  0.4319 -0.1852
11947WAT     H149593   0.426   3.646   6.232  1.1210  1.3244 -0.9375
11947WAT     H249594   0.503   3.516   6.243 -1.1507  0.0164  0.4977
11947WAT    EPW49595   0.455   3.572   6.196  0.0355  0.4947 -0.1943
11948WAT      O49596   9.469   0.168   2.360  0.4267 -0.1043  0.4720
11948WAT     H149597   9.482   0.242   2.301 -2.2099  1.3608  1.5736
11948WAT     H249598   9.488   0.091   2.306 -3.0608  1.0463 -2.8690
11948WAT    EPW49599   9.473   0.168   2.345 -0.3810  0.2407  0.1765
11949WAT      O49600  10.595   5.160   4.877  0.5015  0.4891  0.4622
11949WAT     H149601  10.565   5.177   4.967  3.4100 -0.4384  1.7409
11949WAT     H249602  10.550   5.225   4.824 -1.8424  0.6465  2.4625
11949WAT    EPW49603  10.585   5.171   4.882  0.5765  0.3874  0.8948
11950WAT      O49604  10.646   6.588   7.793  0.0934 -0.0321  0.3416
11950WAT     H149605  10.725   6.617   7.747  0.0115 -1.2686 -0.6297
11950WAT     H249606  10.655   6.625   7.881  1.0796  0.9802 -0.1599
11950WAT    EPW49607  10.658   6.597   7.799  0.2122 -0.0618  0.1473
11951WAT      O49608  10.933   6.899   0.343  0.0521 -0.8937  0.6547
11951WAT     H149609  10.854   6.927   0.298  0.8293  1.0238  0.3959
11951WAT     H249610  10.957   6.973   0.399  3.3293 -0.0521 -1.5581
11951WAT    EPW49611  10.926   6.912   0.344  0.5870 -0.5295  0.3287
11952WAT      O49612   0.717   4.336   3.266 -0.0390 -0.0058  0.3502
11952WAT     H149613   0.765   4.368   3.191  0.6004 -0.0768  0.7255
11952WAT     H249614   0.713   4.241   3.254 -0.7545  0.0684 -0.0665
11952WAT    EPW49615   0.723   4.328   3.255 -0.0490 -0.0057  0.3446
11953WAT      O49616   9.278   3.754   3.690 -0.1406  0.1965 -0.0584
11953WAT     H149617   9.347   3.811   3.656  0.8648 -1.2737 -0.6151
11953WAT     H249618   9.196   3.796   3.663  0.5505  1.5401 -0.1163
11953WAT    EPW49619   9.276   3.767   3.682  0.0834  0.1798 -0.1395
11954WAT      O49620   1.466   5.787   4.148  0.1143 -0.1645 -0.0257
11954WAT     H149621   1.518   5.717   4.109  0.5627  0.8905 -1.3862
11954WAT     H249622   1.518   5.866   4.137 -0.7105  0.5279  0.8091
11954WAT    EPW49623   1.479   5.788   4.142  0.0647  0.0658 -0.0951
11955WAT      O49624   4.162  10.254   1.099 -0.6186 -0.2090 -0.0853
11955WAT     H149625   4.081  10.237   1.051 -0.1339  1.4517 -1.5966
11955WAT     H249626   4.216  10.304   1.038  0.1105  1.8876  2.1462
11955WAT    EPW49627   4.159  10.258   1.085 -0.4585  0.2866  0.0097
11956WAT      O49628   8.455   1.371   6.011 -0.4019 -0.3850 -0.2183
11956WAT     H149629   8.507   1.390   6.089 -0.0735  0.4374 -0.6222
11956WAT     H249630   8.375   1.421   6.023 -1.9944 -3.0734  1.2761
11956WAT    EPW49631   8.452   1.380   6.023 -0.5684 -0.6311 -0.0749
11957WAT      O49632   9.151   4.201   5.409  0.2505 -0.4007  0.4976
11957WAT     H149633   9.164   4.281   5.357 -1.0799 -0.3730  0.1802
11957WAT     H249634   9.239   4.178   5.439  0.5870  1.4926  1.0770
11957WAT    EPW49635   9.165   4.209   5.406  0.1197 -0.1476  0.5322
11958WAT      O49636  10.527   5.313   5.236 -0.4061  0.5540  0.1423
11958WAT     H149637  10.618   5.319   5.265 -0.7417 -0.4926  1.5267
11958WAT     H249638  10.505   5.221   5.244 -2.0469  0.9967  1.3700
11958WAT    EPW49639  10.536   5.302   5.241 -0.6671  0.4745  0.4869
11959WAT      O49640   8.852   6.660   3.488  0.6121 -0.7061  0.3588
11959WAT     H149641   8.820   6.574   3.462 -1.0460 -0.1284  0.3905
11959WAT     H249642   8.884   6.699   3.406 -1.2546 -0.2855 -0.2142
11959WAT    EPW49643   8.852   6.654   3.474  0.1464 -0.5744  0.2875
11960WAT      O49644   0.362   2.022   6.124  0.2121 -0.2745  0.5073
11960WAT     H149645   0.305   2.095   6.102 -1.5263 -0.7054  3.0735
11960WAT     H249646   0.305   1.945   6.116  1.2795 -1.0701  0.3451
11960WAT    EPW49647   0.347   2.021   6.120  0.1236 -0.4363  0.8245
11961WAT      O49648   7.877   2.973   3.794  0.3065  0.0002  0.0398
11961WAT     H149649   7.813   2.931   3.738  0.5708 -1.0975  0.5287
11961WAT     H249650   7.868   3.066   3.776 -1.6145 -0.0933  0.2864
11961WAT    EPW49651   7.868   2.980   3.784  0.0880 -0.1569  0.1369
11962WAT      O49652  10.936   7.617   1.991  0.2649  0.4099 -1.1616
11962WAT     H149653  11.013   7.636   2.044 -0.6146  0.4509  0.1686
11962WAT     H249654  10.969   7.610   1.902  2.2424 -2.2330 -0.3401
11962WAT    EPW49655  10.950   7.619   1.986  0.4096  0.0668 -0.8779
11963WAT      O49656   9.671   4.704   3.477 -0.0668  0.0775 -0.3226
11963WAT     H149657   9.658   4.694   3.572 -1.2319 -0.1527 -0.4862
11963WAT     H249658   9.690   4.797   3.465 -0.9018  0.3128  0.0508
11963WAT    EPW49659   9.672   4.715   3.488 -0.3304  0.0784 -0.2948
11964WAT      O49660   5.737   8.230   0.500 -0.1526 -0.0481 -0.2091
11964WAT     H149661   5.686   8.173   0.442 -0.1216 -0.8369  0.5344
11964WAT     H249662   5.739   8.184   0.583  2.8618 -0.6623 -0.5332
11964WAT    EPW49663   5.730   8.217   0.503  0.2489 -0.2327 -0.1537
11965WAT      O49664  10.142   3.512   0.814 -0.1471  0.1277 -0.1383
11965WAT     H149665  10.198   3.483   0.886  0.3693 -0.8991 -0.9360
11965WAT     H249666  10.196   3.574   0.765  0.5242 -1.2359 -1.1956
11965WAT    EPW49667  10.157   3.517   0.817  0.0095 -0.1876 -0.3830
11966WAT      O49668  10.715   5.197   3.293  0.0136  0.9601 -0.1064
11966WAT     H149669  10.637   5.222   3.341 -0.4992  2.4810 -1.6105
11966WAT     H249670  10.788   5.229   3.346 -0.4737  1.3863  0.3058
11966WAT    EPW49671  10.715   5.204   3.306 -0.1187  1.2169 -0.2503
11967WAT      O49672   0.021   8.060   4.891 -0.0285  0.0486 -0.6587
11967WAT     H149673  -0.060   8.105   4.869 -0.7917 -1.5727 -1.3084
11967WAT     H249674  -0.001   8.007   4.968  0.8868  0.8212  0.1699
11967WAT    EPW49675   0.008   8.059   4.898 -0.0083 -0.0629 -0.6351
11968WAT      O49676  10.386   5.455   6.782  0.1702 -1.0796 -0.0157
11968WAT     H149677  10.368   5.533   6.834  1.3707  0.5627 -1.9294
11968WAT     H249678  10.356   5.478   6.694  1.1624 -2.5353 -0.7683
11968WAT    EPW49679  10.379   5.468   6.777  0.4597 -1.0552 -0.3672
11969WAT      O49680  10.016   6.399   3.228  0.7279 -0.2128  0.4208
11969WAT     H149681   9.997   6.396   3.322 -0.5624 -0.1902  0.1724
11969WAT     H249682  10.110   6.383   3.222  0.6815 -1.0298  1.6676
11969WAT    EPW49683  10.026   6.397   3.239  0.5512 -0.3178  0.5527
11970WAT      O49684   7.943   1.563   7.045 -0.0367  0.3770 -0.0441
11970WAT     H149685   7.961   1.560   7.139  0.0499  3.3297  0.1214
11970WAT     H249686   7.865   1.616   7.037 -0.8915 -1.0173 -1.6201
11970WAT    EPW49687   7.935   1.569   7.057 -0.1383  0.5826 -0.2301
11971WAT      O49688   9.919   5.983   4.298 -0.1785 -0.1930 -0.1506
11971WAT     H149689   9.980   6.027   4.239  0.8661 -0.5303  0.6565
11971WAT     H249690   9.954   5.894   4.307 -2.8563 -1.6824 -2.6652
11971WAT    EPW49691   9.931   5.977   4.292 -0.3939 -0.4337 -0.3757
11972WAT      O49692   8.947   3.800   5.360  0.4863  0.0544  0.3816
11972WAT     H149693   8.971   3.802   5.452  2.5961  2.3365 -0.1368
11972WAT     H249694   8.982   3.717   5.327 -2.2164 -1.8818  1.9833
11972WAT    EPW49695   8.955   3.789   5.368  0.4082  0.1001  0.5245
11973WAT      O49696  10.718   4.904   3.285  0.2058  0.0096 -0.2725
11973WAT     H149697  10.799   4.878   3.329  0.5357  1.1507 -0.1898
11973WAT     H249698  10.728   4.998   3.269 -1.3758  0.2937  0.3017
11973WAT    EPW49699  10.730   4.913   3.288  0.0405  0.1974 -0.1858
11974WAT      O49700   8.674   5.736   3.673 -0.2726 -0.5861  0.1426
11974WAT     H149701   8.639   5.717   3.586  1.5087  0.6751 -0.9177
11974WAT     H249702   8.600   5.725   3.732 -1.9342  0.0664 -1.7303
11974WAT    EPW49703   8.660   5.732   3.670 -0.2565 -0.3338 -0.2443
11975WAT      O49704   0.802   4.069   1.889 -0.2456 -0.9030 -0.2138
11975WAT     H149705   0.808   4.079   1.794  0.2195  1.3534 -0.0047
11975WAT     H249706   0.859   3.994   1.908 -1.3396 -2.2137 -1.7940
11975WAT    EPW49707   0.810   4.060   1.879 -0.3286 -0.7784 -0.3946
11976WAT      O49708   7.408   5.641   6.086  0.4737  0.2775  0.7408
11976WAT     H149709   7.459   5.563   6.062  0.8860  0.6020  0.5561
11976WAT     H249710   7.319   5.608   6.099  0.5782 -0.1729  0.3406
11976WAT    EPW49711   7.403   5.626   6.085  0.5419  0.2608  0.6638
11977WAT      O49712  10.842   3.239   2.907  0.1195 -0.0407 -1.1069
11977WAT     H149713  10.846   3.208   2.816 -1.6847  1.0744 -1.6332
11977WAT     H249714  10.851   3.334   2.899 -1.0740  0.1582 -0.2322
11977WAT    EPW49715  10.844   3.247   2.894 -0.2756  0.1327 -1.0610
11978WAT      O49716  10.075   5.030   3.841 -0.2605 -0.1902 -0.2325
11978WAT     H149717  10.089   4.996   3.929  2.8816  1.4527  0.0223
11978WAT     H249718  10.128   4.972   3.785 -1.8070 -0.8930 -1.0426
11978WAT    EPW49719  10.084   5.018   3.845 -0.0505 -0.0660 -0.3059
11979WAT      O49720   7.857  10.121   4.337  0.1133 -0.4364 -0.0476
11979WAT     H149721   7.908  10.108   4.257 -1.3426  1.1222 -1.3250
11979WAT     H249722   7.920  10.151   4.402  1.8203 -4.1991  0.2649
11979WAT    EPW49723   7.872  10.123   4.335  0.1466 -0.7272 -0.1748
11980WAT      O49724   6.645   1.814   1.552  0.5556  0.4544  0.0982
11980WAT     H149725   6.643   1.889   1.612 -0.3407  0.8716 -0.4266
11980WAT     H249726   6.739   1.798   1.537  0.8127  0.0964  1.8764
11980WAT    EPW49727   6.657   1.822   1.558  0.4714  0.4622  0.2636
11981WAT      O49728  10.468   1.685   4.144  0.1122  0.5303  0.2992
11981WAT     H149729  10.516   1.764   4.118  1.8962 -1.3941 -2.7737
11981WAT     H249730  10.470   1.687   4.240  0.1188  4.0965  0.3754
11981WAT    EPW49731  10.474   1.696   4.153  0.3481  0.7468 -0.0961
11982WAT      O49732   0.787   5.740   5.619 -0.1975  0.6673  1.0607
11982WAT     H149733   0.853   5.747   5.688 -0.1217  0.7106  0.9843
11982WAT     H249734   0.712   5.700   5.662  0.2069 -0.2753  0.9239
11982WAT    EPW49735   0.786   5.736   5.634 -0.1342  0.5488  1.0324
11983WAT      O49736   9.252   5.236   6.851  1.2746  0.7029 -0.2264
11983WAT     H149737   9.188   5.251   6.921 -1.1518 -1.2983 -1.8480
11983WAT     H249738   9.219   5.285   6.776  0.6733 -1.5768 -1.5526
11983WAT    EPW49739   9.239   5.244   6.850  0.8755  0.1380 -0.6154
11984WAT      O49740   8.055   5.979   4.822 -0.4069  0.2104 -0.4369
11984WAT     H149741   8.042   6.009   4.732  1.9533  3.1894  0.0180
11984WAT     H249742   8.101   5.896   4.813 -1.7014 -0.3981 -1.9178
11984WAT    EPW49743   8.060   5.972   4.809 -0.2666  0.5229 -0.5724
11985WAT      O49744   6.645   8.743   7.978  0.2817  0.2594 -0.3249
11985WAT     H149745   6.559   8.726   8.017  0.5795 -1.0708 -0.1998
11985WAT     H249746   6.643   8.837   7.956 -1.0380  0.3435  0.0446
11985WAT    EPW49747   6.633   8.753   7.980  0.1469  0.0949 -0.2596
11986WAT      O49748   9.920   2.885   2.052 -0.2516 -0.3598 -0.2944
11986WAT     H149749   9.852   2.876   1.985 -0.4362  0.0300 -0.1652
11986WAT     H249750   9.927   2.798   2.091  1.9497 -1.4069 -2.7784
11986WAT    EPW49751   9.912   2.873   2.048  0.0148 -0.4463 -0.6050
11987WAT      O49752   1.131   7.725   1.988  0.2046  0.2553  0.0510
11987WAT     H149753   1.203   7.697   2.045  2.1186  1.2772 -1.7657
11987WAT     H249754   1.068   7.766   2.048  2.1858  1.4139  1.4643
11987WAT    EPW49755   1.132   7.727   2.004  0.7184  0.5429 -0.0021
11988WAT      O49756   8.886   2.693   4.056  1.1473  0.8547 -0.4944
11988WAT     H149757   8.955   2.751   4.024  2.7582 -1.5339 -1.6081
11988WAT     H249758   8.913   2.671   4.145  1.0952  0.9576 -0.4522
11988WAT    EPW49759   8.898   2.698   4.064  1.3533  0.5531 -0.6359
11989WAT      O49760   9.628   8.071   0.588 -0.4875 -0.4070 -0.2483
11989WAT     H149761   9.588   8.020   0.659 -1.1965  0.5568  0.0702
11989WAT     H249762   9.700   8.117   0.630 -0.6611 -0.1442 -0.2334
11989WAT    EPW49763   9.632   8.071   0.603 -0.6037 -0.2456 -0.2042
11990WAT      O49764  10.568   7.248   2.837 -0.0349 -0.0805 -0.9432
11990WAT     H149765  10.629   7.321   2.845 -1.6169  1.2582 -0.6060
11990WAT     H249766  10.593   7.205   2.755  2.5881 -0.8204  0.1409
11990WAT    EPW49767  10.579   7.252   2.827  0.1020 -0.0019 -0.7558
11991WAT      O49768   7.867   4.062   5.048 -0.1452  0.4991 -0.1907
11991WAT     H149769   7.938   4.009   5.012  1.1713  1.5237  0.7985
11991WAT     H249770   7.828   4.105   4.971 -0.3204 -0.7807 -0.8441
11991WAT    EPW49771   7.872   4.061   5.033  0.0055  0.4654 -0.1464
11992WAT      O49772   9.672   8.270   1.488  0.2287 -0.0900 -0.1205
11992WAT     H149773   9.717   8.322   1.554 -0.9811  2.5458 -1.2405
11992WAT     H249774   9.607   8.219   1.538 -1.6507  2.8987  0.7418
11992WAT    EPW49775   9.669   8.270   1.504 -0.1788  0.6523 -0.1546
11993WAT      O49776   7.769   2.353   6.148  0.0565 -0.1523 -0.2084
11993WAT     H149777   7.811   2.353   6.062  1.5837  0.1860  0.4877
11993WAT     H249778   7.684   2.394   6.134  0.4856  0.3486 -1.4664
11993WAT    EPW49779   7.764   2.358   6.135  0.3145 -0.0417 -0.2825
11994WAT      O49780   3.991   7.735   8.681  0.7656 -0.9811  0.3228
11994WAT     H149781   3.919   7.677   8.655  1.2958 -0.4677 -2.6252
11994WAT     H249782   3.948   7.817   8.705  0.2945 -0.3071 -2.4663
11994WAT    EPW49783   3.975   7.738   8.681  0.7733 -0.8245 -0.4330
11995WAT      O49784   8.757   6.054   3.853  0.0107  0.0490 -0.3888
11995WAT     H149785   8.667   6.061   3.824  0.1681  1.1855 -0.6632
11995WAT     H249786   8.803   6.125   3.808  0.5537  1.0033  1.5321
11995WAT    EPW49787   8.751   6.064   3.844  0.1030  0.3250 -0.1715
11996WAT      O49788   9.186   3.156   6.355 -0.2209  0.3592  0.1254
11996WAT     H149789   9.165   3.247   6.332  0.3274 -0.0232 -2.1070
11996WAT     H249790   9.278   3.159   6.382 -0.4625  0.5897  0.9531
11996WAT    EPW49791   9.195   3.169   6.356 -0.1802  0.3392 -0.0596
11997WAT      O49792   8.178   3.003   3.856 -0.2415  0.1900  0.2770
11997WAT     H149793   8.160   3.083   3.905 -0.2435  0.4341 -0.1215
11997WAT     H249794   8.273   3.006   3.840 -0.2950  0.2828 -0.0317
11997WAT    EPW49795   8.188   3.014   3.860 -0.2484  0.2344  0.1836
11998WAT      O49796   8.931   6.193   5.352 -0.0309  0.0806 -0.3227
11998WAT     H149797   8.887   6.195   5.437 -0.4438 -0.5053 -0.5162
11998WAT     H249798   8.969   6.280   5.342  2.7316 -0.7417  1.8808
11998WAT    EPW49799   8.930   6.204   5.362  0.2789 -0.1054 -0.0575
11999WAT      O49800  10.722   6.405   1.113 -0.7165 -0.2668  0.1136
11999WAT     H149801  10.731   6.485   1.165  0.6167 -0.2035 -0.1592
11999WAT     H249802  10.681   6.433   1.031  1.0399  0.4616 -0.5823
11999WAT    EPW49803  10.718   6.419   1.109 -0.3090 -0.1624 -0.0142
12000WAT      O49804   9.061   5.676   4.747  0.3949 -0.7008  0.9797
12000WAT     H149805   9.089   5.729   4.821  2.8955  1.6054 -1.3767
12000WAT     H249806   9.016   5.738   4.688  3.2414 -1.0110 -1.7855
12000WAT    EPW49807   9.059   5.691   4.749  1.0996 -0.4373  0.3042
12001WAT      O49808   9.750   7.166   0.883 -0.2953 -0.3629 -0.1214
12001WAT     H149809   9.775   7.108   0.811  0.0052 -0.2706 -0.0930
12001WAT     H249810   9.818   7.153   0.949  0.0188  0.3484 -0.2970
12001WAT    EPW49811   9.762   7.157   0.882 -0.2141 -0.2570 -0.1408
12002WAT      O49812   1.002   3.984   5.040 -0.4901 -1.2140 -0.5453
12002WAT     H149813   0.964   3.981   5.128 -2.0437  2.2776 -0.9226
12002WAT     H249814   0.937   3.942   4.985 -1.9557  0.9671 -0.5959
12002WAT    EPW49815   0.988   3.978   5.045 -0.8883 -0.4659 -0.6015
12003WAT      O49816   8.638   5.026   2.886 -0.3448 -0.4273  0.2691
12003WAT     H149817   8.616   5.116   2.909  1.8430 -0.0629  1.2573
12003WAT     H249818   8.593   4.973   2.953  0.7178  0.1880  1.5277
12003WAT    EPW49819   8.629   5.031   2.898  0.0839 -0.2980  0.5655
12004WAT      O49820   0.904   3.923   6.203  0.4732 -0.1407  0.2115
12004WAT     H149821   0.907   4.008   6.158  0.6402 -0.3466 -0.1645
12004WAT     H249822   0.815   3.891   6.188  0.1643  0.3126  0.9967
12004WAT    EPW49823   0.893   3.930   6.195  0.4545 -0.1081  0.2656
12005WAT      O49824  10.210   8.770   1.460 -0.1357 -0.5064  0.1960
12005WAT     H149825  10.140   8.727   1.509 -0.3295 -0.2369  0.1562
12005WAT     H249826  10.229   8.710   1.388 -0.9656 -0.1544 -0.3301
12005WAT    EPW49827  10.203   8.757   1.457 -0.2708 -0.4244  0.1213
12006WAT      O49828   0.624   7.902   1.564  0.1447  0.1678  0.3705
12006WAT     H149829   0.645   7.923   1.473  2.1064 -0.5450  0.6043
12006WAT     H249830   0.542   7.947   1.580  0.4203  1.4150 -1.3526
12006WAT    EPW49831   0.616   7.911   1.554  0.4398  0.2384  0.1740
12007WAT      O49832   8.993   5.554   7.036  0.6564 -0.4521  0.1276
12007WAT     H149833   9.083   5.583   7.023  0.7596 -0.4239  0.8445
12007WAT     H249834   8.957   5.546   6.948  0.4979  2.2682 -0.1265
12007WAT    EPW49835   9.000   5.557   7.023  0.6495 -0.0894  0.1886
12008WAT      O49836   8.741   6.475   2.278  0.3409  0.2747 -1.3895
12008WAT     H149837   8.792   6.547   2.315 -0.4758 -0.5439  1.6084
12008WAT     H249838   8.651   6.505   2.282 -0.1453 -1.2032  1.0047
12008WAT    EPW49839   8.736   6.488   2.284  0.1688 -0.0286 -0.6784
12009WAT      O49840   9.661   6.313   3.200 -0.9615  0.6577  0.0969
12009WAT     H149841   9.720   6.386   3.180  0.8671 -0.4102  1.3104
12009WAT     H249842   9.600   6.310   3.126  0.6285  1.7167 -1.3202
12009WAT    EPW49843   9.661   6.322   3.188 -0.5107  0.6564  0.0700
12010WAT      O49844  10.634   8.710   1.167  0.5548 -0.0716 -0.0817
12010WAT     H149845  10.543   8.696   1.142  0.2451  1.8254 -0.2109
12010WAT     H249846  10.629   8.772   1.240  1.7262 -0.2760  0.1914
12010WAT    EPW49847  10.621   8.716   1.173  0.6680  0.1516 -0.0627
12011WAT      O49848   1.880   7.481   5.270 -0.5467 -0.4593  0.4929
12011WAT     H149849   1.976   7.479   5.277 -0.2450  3.4589  0.2052
12011WAT     H249850   1.850   7.501   5.359 -1.1631 -2.0582  0.6593
12011WAT    EPW49851   1.889   7.484   5.283 -0.5882 -0.1535  0.4768
12012WAT      O49852   9.419   7.334   0.351  0.5183  0.4703  0.0762
12012WAT     H149853   9.468   7.293   0.280  2.4326  2.7433 -0.0241
12012WAT     H249854   9.430   7.428   0.336 -1.9243  1.0531  1.4592
12012WAT    EPW49855   9.427   7.341   0.340  0.4492  0.8471  0.2454
12013WAT      O49856   0.966   3.701   3.630 -0.2368 -0.2674  0.4114
12013WAT     H149857   0.902   3.707   3.701 -0.0435 -0.5635  0.6111
12013WAT     H249858   0.927   3.752   3.559 -2.4380 -3.3055 -0.7745
12013WAT    EPW49859   0.952   3.708   3.630 -0.5016 -0.7071  0.2813
12014WAT      O49860   8.807   4.015   3.132 -0.3150 -0.3255 -0.4663
12014WAT     H149861   8.834   4.029   3.041 -0.2471  1.0058 -0.2675
12014WAT     H249862   8.731   3.957   3.126 -2.3799  2.2770 -1.6992
12014WAT    EPW49863   8.800   4.010   3.119 -0.5784  0.1934 -0.6027
12015WAT      O49864   4.974   6.252   4.076  0.4526  0.1686 -0.2138
12015WAT     H149865   5.068   6.250   4.057  0.1988  0.6387 -1.6355
12015WAT     H249866   4.941   6.167   4.048  0.1597  0.6827 -1.4922
12015WAT    EPW49867   4.982   6.241   4.070  0.3805  0.2987 -0.5698
12016WAT      O49868   1.913   3.557   4.086  0.3624  0.6960  0.4116
12016WAT     H149869   1.822   3.573   4.061  0.5247  0.4488 -0.3692
12016WAT     H249870   1.956   3.533   4.004  1.0809  0.5804  0.8167
12016WAT    EPW49871   1.907   3.556   4.072  0.4785  0.6481  0.3622
12017WAT      O49872   9.161   7.657   3.183  0.0458 -0.0525 -0.5216
12017WAT     H149873   9.073   7.651   3.145 -0.1152 -0.8639 -0.0625
12017WAT     H249874   9.161   7.589   3.251  1.0651 -0.1343 -0.5956
12017WAT    EPW49875   9.149   7.647   3.187  0.1588 -0.1705 -0.4708
12018WAT      O49876   9.024   4.785   3.123  0.2554  0.0548  0.4505
12018WAT     H149877   9.112   4.824   3.120  0.3797  0.5409  4.4288
12018WAT     H249878   9.033   4.702   3.076  2.4982  0.6430 -0.3095
12018WAT    EPW49879   9.037   4.779   3.116  0.5674  0.1965  0.8750
12019WAT      O49880   0.808   6.864   2.791  0.0702  0.4348  0.3371
12019WAT     H149881   0.723   6.902   2.812  0.5118  1.5734  0.1569
12019WAT     H249882   0.843   6.919   2.720  0.5367 -0.6122 -0.2838
12019WAT    EPW49883   0.802   6.876   2.784  0.1900  0.4470  0.2314
12020WAT      O49884   0.221   6.526   0.911  0.3455 -0.6368 -0.1518
12020WAT     H149885   0.181   6.453   0.864  0.0957  0.6759 -2.1117
12020WAT     H249886   0.150   6.563   0.964 -0.0126 -0.6881 -0.5926
12020WAT    EPW49887   0.206   6.521   0.912  0.2653 -0.4704 -0.4685
12021WAT      O49888   9.163   6.703   0.345  1.0136 -0.0873  0.3747
12021WAT     H149889   9.165   6.738   0.256 -2.8246  3.8450  1.4923
12021WAT     H249890   9.246   6.731   0.384  0.6496  2.6737 -0.6481
12021WAT    EPW49891   9.175   6.711   0.339  0.4587  0.7956  0.3872
12022WAT      O49892   1.228   3.918   1.680 -0.0954  0.6970 -0.0795
12022WAT     H149893   1.216   3.963   1.597  0.1730  0.2009 -0.3949
12022WAT     H249894   1.305   3.862   1.666 -1.7055 -1.5579 -0.4568
12022WAT    EPW49895   1.237   3.916   1.667 -0.2723  0.3341 -0.1709
12023WAT      O49896   8.268   5.232   4.914 -0.5466 -0.4581  0.2281
12023WAT     H149897   8.277   5.149   4.960 -1.0865 -0.0043  1.1774
12023WAT     H249898   8.235   5.208   4.827  0.0256 -1.2846  0.2320
12023WAT    EPW49899   8.265   5.218   4.909 -0.5426 -0.5071  0.3541
12024WAT      O49900   8.934   6.094   2.911  0.3610 -0.1441  0.9821
12024WAT     H149901   8.863   6.034   2.934 -1.6848  1.6756 -0.1869
12024WAT     H249902   8.903   6.180   2.941  1.7521  0.8216 -0.2263
12024WAT    EPW49903   8.920   6.098   2.918  0.2747  0.2234  0.6685
12025WAT      O49904   2.233   7.612   1.916 -0.1509  0.1932 -0.3764
12025WAT     H149905   2.307   7.552   1.914  0.8264  1.3674 -0.5317
12025WAT     H249906   2.266   7.689   1.962 -1.4807  0.4840  0.1400
12025WAT    EPW49907   2.247   7.614   1.922 -0.1974  0.3865 -0.3288
12026WAT      O49908   5.326   0.539   4.796  0.5508 -0.2302 -0.3986
12026WAT     H149909   5.320   0.540   4.891 -1.1719  0.8406 -0.4880
12026WAT     H249910   5.380   0.615   4.774  2.9251 -1.7641 -0.2339
12026WAT    EPW49911   5.332   0.549   4.806  0.6368 -0.2913 -0.3886
12027WAT      O49912   7.422   7.159   4.694 -0.4840  0.5829 -0.4441
12027WAT     H149913   7.429   7.079   4.746 -0.9198  1.3256  0.8158
12027WAT     H249914   7.493   7.214   4.726 -0.0903  0.6528 -1.4099
12027WAT    EPW49915   7.432   7.156   4.705 -0.4895  0.6905 -0.4053
12028WAT      O49916   1.263   5.330   5.372 -0.4222 -0.0602  0.4324
12028WAT     H149917   1.339   5.360   5.421 -0.9094  2.1748 -0.0286
12028WAT     H249918   1.262   5.235   5.382  2.2181 -0.1101  0.7168
12028WAT    EPW49919   1.273   5.322   5.380 -0.1382  0.2284  0.4091
12029WAT      O49920   7.859   5.269   4.242 -0.4661 -0.0103  0.3625
12029WAT     H149921   7.832   5.352   4.204 -1.2746 -0.3128  0.2623
12029WAT     H249922   7.913   5.293   4.317  0.0602  0.5975 -0.2038
12029WAT    EPW49923   7.863   5.283   4.247 -0.5035  0.0300  0.2744
12030WAT      O49924   8.625   4.327   3.566  0.7268  0.5120  0.2493
12030WAT     H149925   8.665   4.316   3.480 -0.9232  0.4232 -0.5303
12030WAT     H249926   8.561   4.398   3.555  0.1549  0.1785  1.2681
12030WAT    EPW49927   8.622   4.335   3.553  0.4334  0.4561  0.2810
12031WAT      O49928   5.798   5.815   2.263  0.7320 -0.0769 -0.1964
12031WAT     H149929   5.759   5.902   2.279  0.7336 -0.2958  1.1214
12031WAT     H249930   5.743   5.755   2.313  1.1979 -0.7414 -0.4737
12031WAT    EPW49931   5.786   5.819   2.272  0.7937 -0.1936 -0.0592
12032WAT      O49932   9.188   6.556   4.666 -0.1133  0.0686 -0.2114
12032WAT     H149933   9.268   6.578   4.714 -1.1261  0.8718  1.1584
12032WAT     H249934   9.195   6.605   4.584  0.7885  0.1345 -0.1065
12032WAT    EPW49935   9.200   6.565   4.661 -0.1278  0.1831 -0.0167
12033WAT      O49936   8.851   7.405   1.953  0.2872 -0.0306  0.2221
12033WAT     H149937   8.822   7.496   1.940 -2.8547 -0.3170  3.6855
12033WAT     H249938   8.780   7.352   1.916 -0.2541 -0.9352  2.4205
12033WAT    EPW49939   8.838   7.410   1.946 -0.1988 -0.1876  0.9689
12034WAT      O49940   0.155   1.298   3.605 -0.1360 -0.1789 -0.1020
12034WAT     H149941   0.126   1.265   3.520 -0.9593  1.3229 -0.4536
12034WAT     H249942   0.074   1.318   3.652  0.3121 -0.9895  1.0593
12034WAT    EPW49943   0.140   1.297   3.600 -0.1855 -0.0877  0.0046
12035WAT      O49944   1.201   4.051   6.517  0.4481  0.4324 -0.7928
12035WAT     H149945   1.136   3.983   6.498  0.1460  0.6812 -0.6517
12035WAT     H249946   1.171   4.091   6.598  0.8178  0.5024 -0.6896
12035WAT    EPW49947   1.188   4.047   6.525  0.4570  0.4745 -0.7606
12036WAT      O49948   9.844   4.759   5.119 -0.7348  0.8304 -0.0320
12036WAT     H149949   9.761   4.761   5.165 -1.1876  0.7928 -0.8294
12036WAT     H249950   9.860   4.850   5.094 -1.3704  0.6190 -1.3085
12036WAT    EPW49951   9.835   4.771   5.122 -0.8783  0.7975 -0.3054
12037WAT      O49952   0.114   7.870   1.557 -0.2427  0.1344 -0.2344
12037WAT     H149953   0.085   7.781   1.579 -0.5699  0.5986  1.2714
12037WAT     H249954   0.035   7.912   1.522 -0.4552  0.2590  0.3840
12037WAT    EPW49955   0.100   7.863   1.555 -0.3139  0.2122  0.0457
12038WAT      O49956   7.371   8.051   1.345 -0.3351 -0.1906  0.3577
12038WAT     H149957   7.389   8.091   1.260  0.3994  1.1807  1.1190
12038WAT     H249958   7.279   8.072   1.362 -0.4308 -0.3086 -0.0195
12038WAT    EPW49959   7.361   8.059   1.336 -0.2506 -0.0257  0.4084
12039WAT      O49960   1.355   7.594   4.241 -0.1856 -0.6537 -0.1830
12039WAT     H149961   1.348   7.529   4.171 -1.1287  0.5984 -1.3252
12039WAT     H249962   1.265   7.607   4.271 -0.0095  0.0517  0.0688
12039WAT    EPW49963   1.342   7.587   4.236 -0.2868 -0.3955 -0.3004
12040WAT      O49964   9.956   6.400   2.385 -0.2048 -0.2835 -0.0379
12040WAT     H149965   9.925   6.327   2.331  1.1049 -0.7344 -0.2232
12040WAT     H249966  10.006   6.358   2.456  0.2740  0.4049  0.0434
12040WAT    EPW49967   9.959   6.385   2.387  0.0310 -0.2522 -0.0516
12041WAT      O49968   7.650   7.172   0.690 -0.0362 -0.1925 -0.0182
12041WAT     H149969   7.575   7.154   0.633  0.0908 -0.1370 -0.2035
12041WAT     H249970   7.626   7.253   0.736  0.1947  0.2041 -0.5787
12041WAT    EPW49971   7.637   7.181   0.689  0.0110 -0.1328 -0.1166
12042WAT      O49972   9.991   6.588   5.293  0.8125  0.3490  0.1055
12042WAT     H149973  10.068   6.535   5.316  1.1169  0.3520 -0.8744
12042WAT     H249974   9.935   6.582   5.370  1.4809 -0.2343  0.5646
12042WAT    EPW49975   9.994   6.580   5.306  0.9413  0.2725  0.0370
12043WAT      O49976   2.643   9.800   2.096 -0.0561 -0.3022 -0.7794
12043WAT     H149977   2.579   9.851   2.146 -1.1098  0.1505 -2.5087
12043WAT     H249978   2.609   9.711   2.097  0.2128 -0.4030 -0.2532
12043WAT    EPW49979   2.630   9.795   2.103 -0.1596 -0.2556 -0.9383
12044WAT      O49980   9.416   7.368   3.129  0.1940 -0.2773 -0.2194
12044WAT     H149981   9.369   7.297   3.085 -0.0804  0.5401 -1.3026
12044WAT     H249982   9.498   7.375   3.081  1.3712 -1.5099  1.4875
12044WAT    EPW49983   9.421   7.360   3.117  0.3133 -0.3319 -0.1372
12045WAT      O49984   3.602   8.514   0.790  0.0107  0.7582 -0.0819
12045WAT     H149985   3.507   8.508   0.775 -0.6812  5.1645  0.8994
12045WAT     H249986   3.609   8.541   0.882  2.6018 -3.0245  1.0367
12045WAT    EPW49987   3.590   8.517   0.800  0.2612  0.8402  0.1951
12046WAT      O49988   0.159   7.701   5.058  0.2829 -0.2347 -0.0180
12046WAT     H149989   0.067   7.724   5.072 -0.0473  1.8821 -4.2926
12046WAT     H249990   0.199   7.780   5.024  3.5225 -1.4239  0.6069
12046WAT    EPW49991   0.152   7.714   5.056  0.6666 -0.1125 -0.4995
12047WAT      O49992   9.840   8.970   8.051  0.3073  0.2124 -0.2785
12047WAT     H149993   9.863   8.948   7.961 -0.5654 -1.2540 -0.1872
12047WAT     H249994   9.844   8.886   8.098 -0.5117  0.7120  0.7418
12047WAT    EPW49995   9.843   8.956   8.045  0.0844  0.0844 -0.1316
12048WAT      O49996   1.055   2.573   8.145 -0.7931 -0.0605 -0.3975
12048WAT     H149997   1.083   2.624   8.221 -0.9960  1.1786 -1.1239
12048WAT     H249998   1.000   2.633   8.095  0.6227 -0.2688 -2.3410
12048WAT    EPW49999   1.052   2.588   8.148 -0.6331  0.0753 -0.7496
12049WAT      O50000   9.911   5.850   6.406  0.2654 -0.0722 -0.1713
12049WAT     H150001   9.833   5.805   6.375 -1.3301  3.1794 -1.3913
12049WAT     H250002   9.879   5.908   6.475  1.6215  1.1413 -0.5163
12049WAT    EPW50003   9.897   5.852   6.411  0.2332  0.5169 -0.3774
12050WAT      O50004   9.527   3.926   6.458 -0.5929 -0.1223  0.2936
12050WAT     H150005   9.484   3.987   6.518  1.2843  0.3085  1.2958
12050WAT     H250006   9.584   3.874   6.514  1.7387  0.7305 -1.1493
12050WAT    EPW50007   9.529   3.928   6.473 -0.0381  0.0470  0.2356
12051WAT      O50008  10.816   9.067   0.526 -0.2843  1.1171  0.2176
12051WAT     H150009  10.801   8.977   0.554 -0.9287  1.4328  0.9338
12051WAT     H250010  10.904   9.067   0.488 -0.8253 -0.1106 -1.1132
12051WAT    EPW50011  10.826   9.055   0.524 -0.4406  0.9966  0.1366
12052WAT      O50012   7.872   6.525   5.344 -0.2199  0.6835 -0.4864
12052WAT     H150013   7.940   6.459   5.353 -0.4078  0.5145 -0.2791
12052WAT     H250014   7.874   6.550   5.252  1.9752  2.6756 -0.0012
12052WAT    EPW50015   7.881   6.519   5.333  0.0451  0.9239 -0.3953
12053WAT      O50016   0.081   6.690   3.672  0.6859 -0.5338 -0.1859
12053WAT     H150017  -0.009   6.721   3.670  1.3778  1.7641  0.9925
12053WAT     H250018   0.079   6.611   3.726 -0.9422 -2.0384 -2.2398
12053WAT    EPW50019   0.069   6.684   3.679  0.5624 -0.4294 -0.3014
12054WAT      O50020   2.297   7.006   3.586 -0.0263 -0.2344 -0.9770
12054WAT     H150021   2.254   6.970   3.508  0.2507 -1.7388 -0.4645
12054WAT     H250022   2.228   7.055   3.631 -1.2867 -2.6552 -0.1236
12054WAT    EPW50023   2.282   7.008   3.581 -0.1558 -0.7522 -0.7969
12055WAT      O50024   8.768   5.277   3.612 -0.4936 -0.3647 -0.1922
12055WAT     H150025   8.685   5.324   3.610 -0.6241 -0.5296  0.9030
12055WAT     H250026   8.827   5.331   3.560 -1.2009 -0.0897 -0.7280
12055WAT    EPW50027   8.765   5.290   3.605 -0.6046 -0.3502 -0.1185
12056WAT      O50028  10.034   5.791   3.956 -0.1919  0.4638  1.0959
12056WAT     H150029   9.947   5.816   3.988 -1.4912 -1.9100 -0.3306
12056WAT     H250030  10.047   5.846   3.878 -0.9897 -0.0281  0.6000
12056WAT    EPW50031  10.024   5.802   3.950 -0.4683  0.0856  0.8423
12057WAT      O50032   8.000   5.647   6.563  0.8427 -1.1228 -0.0436
12057WAT     H150033   7.993   5.721   6.502 -1.2747 -3.2478 -2.6326
12057WAT     H250034   7.955   5.677   6.643  1.4245  0.8842 -0.4270
12057WAT    EPW50035   7.993   5.661   6.566  0.6402 -1.1384 -0.4356
12058WAT      O50036   9.023   4.738   5.580  0.3128 -0.0135  0.1436
12058WAT     H150037   9.106   4.706   5.614  0.7381 -0.2526 -1.0578
12058WAT     H250038   9.037   4.746   5.485 -2.1573 -3.8616 -0.8014
12058WAT    EPW50039   9.035   4.734   5.572  0.0434 -0.5524 -0.1395
12059WAT      O50040   0.539   3.387   8.328 -0.0269 -0.2538 -0.2548
12059WAT     H150041   0.513   3.426   8.245 -0.2725  2.1172  0.8468
12059WAT     H250042   0.460   3.344   8.361 -0.1893 -0.3722 -0.7984
12059WAT    EPW50043   0.526   3.386   8.322 -0.0807  0.0433 -0.1812
12060WAT      O50044   9.290   6.152   6.415  0.6767  0.2338 -0.5239
12060WAT     H150045   9.304   6.227   6.357  1.0852  0.8855  0.4016
12060WAT     H250046   9.222   6.101   6.371  0.5937  0.9954 -1.3102
12060WAT    EPW50047   9.282   6.155   6.401  0.7195  0.4201 -0.5057
12061WAT      O50048   0.278   6.972   2.417  0.1748  0.8304  0.3803
12061WAT     H150049   0.255   6.964   2.324 -1.4349  1.5002  0.6882
12061WAT     H250050   0.256   6.886   2.454 -1.2195  1.2355  0.5300
12061WAT    EPW50051   0.272   6.959   2.410 -0.2214  0.9720  0.4406
12062WAT      O50052  10.423   6.237   0.709  0.0894 -0.1908  0.1778
12062WAT     H150053  10.408   6.302   0.778 -0.0522 -2.0885  2.0532
12062WAT     H250054  10.518   6.229   0.704  0.3765  3.0303 -3.0347
12062WAT    EPW50055  10.433   6.244   0.718  0.1087 -0.0162  0.0015
12063WAT      O50056   0.151   6.843   1.722 -0.1172  1.0831  0.2319
12063WAT     H150057   0.179   6.856   1.631 -0.9860 -1.5094 -0.4722
12063WAT     H250058   0.094   6.918   1.740 -1.5473  0.6334 -2.0581
12063WAT    EPW50059   0.147   6.855   1.712 -0.4204  0.6816 -0.1631
12064WAT      O50060   0.407   6.133   5.088  0.2842 -0.0633  0.6578
12064WAT     H150061   0.331   6.089   5.126  0.4713 -0.8059  0.1863
12064WAT     H250062   0.376   6.166   5.004  0.6085 -0.8022  0.2393
12064WAT    EPW50063   0.393   6.132   5.082  0.3517 -0.2589  0.5400
12065WAT      O50064   0.876   6.876   7.200  0.6174  0.0574  0.3108
12065WAT     H150065   0.866   6.912   7.288 -0.4093  0.1476  0.1702
12065WAT     H250066   0.962   6.906   7.171  0.1546  1.6832  0.5398
12065WAT    EPW50067   0.886   6.885   7.208  0.4210  0.2837  0.3221
12066WAT      O50068   7.400   7.583   5.851  0.3885  0.3352  0.3151
12066WAT     H150069   7.411   7.502   5.901 -1.0896 -0.3213 -0.3749
12066WAT     H250070   7.342   7.636   5.904  0.9423  0.7457  0.5209
12066WAT    EPW50071   7.394   7.579   5.865  0.2663  0.3028  0.2513
12067WAT      O50072   1.288   4.113   4.452 -0.8897 -0.8921  0.1985
12067WAT     H150073   1.347   4.100   4.526  0.4145 -0.9887 -0.8287
12067WAT     H250074   1.308   4.041   4.392 -2.1578 -1.0065 -0.1295
12067WAT    EPW50075   1.298   4.101   4.454 -0.8850 -0.9198  0.0198
12068WAT      O50076  10.227   7.217   3.230 -0.6920  0.4927 -0.0539
12068WAT     H150077  10.165   7.245   3.298  0.1340  0.2120  0.8367
12068WAT     H250078  10.313   7.233   3.268 -0.2084  0.5877 -1.1604
12068WAT    EPW50079  10.230   7.223   3.244 -0.5193  0.4685 -0.0825
12069WAT      O50080   0.834   6.117   4.833 -0.7051  0.7794  0.0910
12069WAT     H150081   0.926   6.105   4.857 -0.2430 -1.7781 -2.3504
12069WAT     H250082   0.787   6.054   4.887 -0.6114  0.1814 -0.5003
12069WAT    EPW50083   0.840   6.107   4.843 -0.6317  0.3633 -0.3090
12070WAT      O50084   3.378  10.307   7.165 -0.2949 -0.3593 -0.1603
12070WAT     H150085   3.334  10.262   7.237 -0.4071  1.1882  0.7934
12070WAT     H250086   3.341  10.395   7.166 -0.7749 -0.4504 -2.5461
12070WAT    EPW50087   3.367  10.313   7.175 -0.3730 -0.1674 -0.3495
12071WAT      O50088   8.466   6.040   4.010  0.0768 -0.4045 -0.7354
12071WAT     H150089   8.415   5.960   4.018  1.3003 -1.2959 -1.6657
12071WAT     H250090   8.444   6.075   3.924  0.0255 -0.0594 -0.5877
12071WAT    EPW50091   8.456   6.034   4.000  0.2317 -0.4766 -0.8389
12072WAT      O50092   9.583   5.315   4.552  0.0426  0.4257  0.2825
12072WAT     H150093   9.510   5.289   4.608  2.3827 -3.2864  2.0115
12072WAT     H250094   9.645   5.358   4.611  1.9099 -2.2273  0.4111
12072WAT    EPW50095   9.582   5.317   4.567  0.5965 -0.4139  0.5271
12073WAT      O50096   3.711  10.304   0.322 -0.4478  0.3353  0.1914
12073WAT     H150097   3.785  10.356   0.355  1.0499 -0.6997 -1.3912
12073WAT     H250098   3.648  10.305   0.394  2.4529 -1.5334  3.0494
12073WAT    EPW50099   3.712  10.311   0.336  0.1323 -0.0477  0.3596
12074WAT      O50100   2.713  10.252   8.344 -0.3138 -0.1216  0.3830
12074WAT     H150101   2.745  10.173   8.300 -0.3314 -0.4279  0.9047
12074WAT     H250102   2.678  10.306   8.273  1.6140  0.3694 -0.2570
12074WAT    EPW50103   2.713  10.248   8.329 -0.0618 -0.0978  0.3676
12075WAT      O50104   0.686   7.608   1.942 -0.0295  0.3572  0.1328
12075WAT     H150105   0.731   7.525   1.960  1.3405  1.0939  0.2403
12075WAT     H250106   0.752   7.675   1.958 -0.8422  1.4279 -0.8187
12075WAT    EPW50107   0.701   7.606   1.946  0.0440  0.5958  0.0215
12076WAT      O50108   1.894   9.623   0.721 -0.0500 -0.4255 -0.0433
12076WAT     H150109   1.874   9.605   0.813 -0.4986  2.4540  0.5197
12076WAT     H250110   1.945   9.704   0.723  1.2827 -1.1324 -2.2698
12076WAT    EPW50111   1.898   9.632   0.734  0.0666 -0.1392 -0.2628
12077WAT      O50112   1.184   6.331   4.710 -0.4501 -0.7230 -0.5047
12077WAT     H150113   1.123   6.405   4.701 -0.7361 -0.8543  0.2690
12077WAT     H250114   1.183   6.289   4.624  1.3337  1.3833 -1.6502
12077WAT    EPW50115   1.176   6.335   4.697 -0.2526 -0.4625 -0.5538
12078WAT      O50116   1.786   5.350   5.112 -0.7355  0.2070 -0.7716
12078WAT     H150117   1.765   5.393   5.195 -1.3293  0.2335 -0.9271
12078WAT     H250118   1.723   5.388   5.050 -3.0039 -2.6157 -0.4253
12078WAT    EPW50119   1.775   5.360   5.115 -1.1131 -0.1616 -0.7463
12079WAT      O50120  10.096   5.710   1.603 -0.3541 -0.0912 -0.0298
12079WAT     H150121  10.067   5.690   1.692 -0.9217  0.2828 -0.1243
12079WAT     H250122  10.048   5.650   1.547  0.5251 -0.8106 -0.0430
12079WAT    EPW50123  10.086   5.700   1.607 -0.3128 -0.1366 -0.0440
12080WAT      O50124  10.122   8.193   5.806 -0.2583  0.2991 -0.3969
12080WAT     H150125  10.125   8.138   5.885 -1.3977  1.1079  0.2479
12080WAT     H250126  10.035   8.231   5.808 -1.3049 -1.5717 -3.4122
12080WAT    EPW50127  10.111   8.190   5.817 -0.5465  0.1593 -0.7095
12081WAT      O50128   9.088   6.023   3.795 -0.0239 -0.4573  0.5544
12081WAT     H150129   9.095   6.025   3.700  2.5888 -2.0328  0.6236
12081WAT     H250130   9.081   5.930   3.817 -0.2016 -0.1493  1.9201
12081WAT    EPW50131   9.088   6.011   3.786  0.2971 -0.6244  0.7436
12082WAT      O50132   1.735   5.395   8.044  0.3600 -0.8380 -0.6699
12082WAT     H150133   1.767   5.330   7.981  2.2406 -2.8595  2.1087
12082WAT     H250134   1.656   5.357   8.080 -0.6931  0.2982 -1.6719
12082WAT    EPW50135   1.729   5.382   8.040  0.4691 -0.9549 -0.4354
12083WAT      O50136   8.252   4.855   5.574  0.4160  0.3614 -0.0476
12083WAT     H150137   8.298   4.859   5.658  0.3717  1.3106 -0.0536
12083WAT     H250138   8.168   4.899   5.591  1.0857  2.0879 -1.0014
12083WAT    EPW50139   8.247   4.861   5.588  0.4988  0.7143 -0.1740
12084WAT      O50140   9.754  10.093   1.713  0.6894  0.8769  0.0087
12084WAT     H150141   9.797  10.079   1.628 -3.2069 -1.3725 -1.9029
12084WAT     H250142   9.731  10.185   1.713  1.3200  1.0535 -1.0913
12084WAT    EPW50143   9.757  10.103   1.701  0.2589  0.6037 -0.3885
12085WAT      O50144  10.142   6.475   2.146  0.1542  0.0333 -0.0483
12085WAT     H150145  10.179   6.562   2.133  1.5878 -0.7217 -1.3666
12085WAT     H250146  10.047   6.487   2.138  0.3760  1.3609 -0.8599
12085WAT    EPW50147  10.134   6.488   2.143  0.3724  0.1087 -0.3294
12086WAT      O50148   8.919   6.586   0.332 -0.0986 -1.0086  0.3936
12086WAT     H150149   9.009   6.612   0.352  0.6725 -2.3124 -1.1886
12086WAT     H250150   8.889   6.653   0.271 -1.0302  0.6608  2.5511
12086WAT    EPW50151   8.927   6.598   0.327 -0.1197 -0.9601  0.4695
12087WAT      O50152   9.731   6.473   2.797  0.2431 -0.6609  0.1516
12087WAT     H150153   9.785   6.397   2.816  0.8606 -0.6777 -1.5162
12087WAT     H250154   9.787   6.530   2.745 -0.7567  0.1784 -0.0439
12087WAT    EPW50155   9.745   6.471   2.793  0.1931 -0.5522 -0.0943
12088WAT      O50156   8.592   6.556   0.763 -0.2067  0.1438 -0.2683
12088WAT     H150157   8.517   6.614   0.774  1.1164  1.5957  1.5204
12088WAT     H250158   8.594   6.538   0.669 -2.4775  0.4338 -0.4284
12088WAT    EPW50159   8.582   6.561   0.752 -0.3314  0.3734 -0.0534
12089WAT      O50160  10.223   7.384   3.604 -0.0045 -0.3441  0.3097
12089WAT     H150161  10.154   7.320   3.588  1.0328 -2.5954  3.6969
12089WAT     H250162  10.184   7.447   3.665 -0.5178  1.4364 -1.7568
12089WAT    EPW50163  10.209   7.384   3.610  0.0648 -0.4060  0.4839
12090WAT      O50164   0.683   4.964   6.715 -0.1869 -0.5217  0.0555
12090WAT     H150165   0.734   4.887   6.743  0.4805  0.0882  0.5546
12090WAT     H250166   0.734   5.039   6.747 -1.1739  0.1164  0.1669
12090WAT    EPW50167   0.697   4.963   6.723 -0.2291 -0.3574  0.1359
12091WAT      O50168   9.860   5.475   5.659 -0.0830  0.1353  0.4617
12091WAT     H150169   9.940   5.422   5.654  0.3454  0.8222 -0.2539
12091WAT     H250170   9.797   5.419   5.703  1.2425  0.1268  2.5132
12091WAT    EPW50171   9.862   5.460   5.664  0.1478  0.2248  0.6380
12092WAT      O50172   9.981   8.974   7.765 -0.0742 -0.3178 -0.3459
12092WAT     H150173  10.062   8.946   7.722 -0.4511 -0.9637 -0.6631
12092WAT     H250174   9.915   8.911   7.735 -0.3963 -0.6722  1.0295
12092WAT    EPW50175   9.983   8.962   7.755 -0.1664 -0.4497 -0.2062
12093WAT      O50176   0.864   3.995   5.817  0.7030 -0.1742  0.3263
12093WAT     H150177   0.886   4.086   5.838 -1.9257  0.9548 -1.3771
12093WAT     H250178   0.778   3.982   5.855  0.2938 -1.3595 -0.9367
12093WAT    EPW50179   0.856   4.006   5.825  0.3023 -0.1817 -0.0648
12094WAT      O50180   1.423   5.083   3.500 -0.4150 -0.1129 -0.2696
12094WAT     H150181   1.517   5.066   3.490 -0.9082 -2.7588 -1.2519
12094WAT     H250182   1.402   5.143   3.429  0.5589  0.8384  0.2041
12094WAT    EPW50183   1.433   5.089   3.489 -0.3517 -0.3366 -0.3366
12095WAT      O50184   1.151   5.383   4.331 -0.7948 -0.0606 -0.0447
12095WAT     H150185   1.218   5.390   4.262  0.8662  0.5363  1.5342
12095WAT     H250186   1.092   5.314   4.300 -0.1648  0.2484 -2.0861
12095WAT    EPW50187   1.152   5.374   4.318 -0.4926  0.0589 -0.1056
12096WAT      O50188   7.292   4.838   2.680 -0.2969  0.0693  0.4601
12096WAT     H150189   7.216   4.801   2.635 -0.9165 -0.2381  1.7095
12096WAT     H250190   7.355   4.766   2.684  1.1111  0.9311 -2.6396
12096WAT    EPW50191   7.290   4.824   2.675 -0.1929  0.1426  0.2160
12097WAT      O50192   0.055   6.345   4.035 -0.0048 -0.1193  0.6625
12097WAT     H150193  -0.001   6.414   4.000  1.6273  2.0380  2.0225
12097WAT     H250194   0.114   6.391   4.096  1.4974 -2.6562  1.2637
12097WAT    EPW50195   0.056   6.360   4.039  0.4086 -0.1695  0.9210
12098WAT      O50196   0.347   5.491   2.989 -0.2741  0.7370  0.5434
12098WAT     H150197   0.409   5.433   3.034 -1.0591  1.4625  2.7018
12098WAT     H250198   0.293   5.431   2.936  0.9749 -0.1135  0.1939
12098WAT    EPW50199   0.348   5.475   2.988 -0.2129  0.7205  0.7819
12099WAT      O50200   8.604   7.860   4.061 -0.0576  0.1353  0.0034
12099WAT     H150201   8.679   7.808   4.034 -1.2402 -0.0220 -3.3838
12099WAT     H250202   8.636   7.910   4.136  2.7199 -1.4772  0.0434
12099WAT    EPW50203   8.618   7.860   4.068  0.1531 -0.0980 -0.4385
12100WAT      O50204   2.908   8.000   5.936  0.1217  0.6700 -0.2909
12100WAT     H150205   3.003   8.009   5.927  0.0867  0.9742 -0.3717
12100WAT     H250206   2.897   7.928   5.998  0.4392  1.7047  1.0193
12100WAT    EPW50207   2.919   7.991   5.943  0.1589  0.8469 -0.1285
12101WAT      O50208   0.430   4.943   2.802 -0.6188 -0.2361  0.4167
12101WAT     H150209   0.420   4.941   2.707 -0.8228 -0.0192  0.4338
12101WAT     H250210   0.420   5.035   2.825  0.0294 -0.2042  0.5838
12101WAT    EPW50211   0.428   4.955   2.792 -0.5602 -0.2031  0.4411
12102WAT      O50212   0.411   6.139   2.782 -0.0141  0.3559 -0.1131
12102WAT     H150213   0.488   6.145   2.726 -0.4144 -2.0133 -1.0182
12102WAT     H250214   0.339   6.169   2.727 -0.2848 -1.1989 -0.6525
12102WAT    EPW50215   0.412   6.144   2.768 -0.1026 -0.1616 -0.3035
12103WAT      O50216   7.258   9.684   2.005  0.0397  0.4958  0.4377
12103WAT     H150217   7.262   9.623   2.079 -1.0349  0.4743  0.4910
12103WAT     H250218   7.225   9.765   2.042  0.4757  0.7992  0.1687
12103WAT    EPW50219   7.254   9.686   2.020 -0.0443  0.5326  0.4091
12104WAT      O50220   1.180   7.079   4.055  0.8882  0.5154  0.7081
12104WAT     H150221   1.163   6.985   4.058  0.6540  0.5569  3.0567
12104WAT     H250222   1.172   7.102   3.963 -1.8211 -1.2815  0.3747
12104WAT    EPW50223   1.177   7.070   4.043  0.4999  0.2840  0.9742
12105WAT      O50224   0.721   6.514   5.872  0.0786  0.2501 -0.0033
12105WAT     H150225   0.731   6.570   5.795  0.6938  1.7516  1.1257
12105WAT     H250226   0.680   6.435   5.838 -3.4239  2.3740 -1.2783
12105WAT    EPW50227   0.717   6.511   5.858 -0.3022  0.7286 -0.0226
12106WAT      O50228   1.496   5.921   5.131 -0.1435 -0.0859  0.2139
12106WAT     H150229   1.519   5.960   5.047  0.6981 -0.0799  0.4418
12106WAT     H250230   1.432   5.982   5.169 -0.1238  0.1865 -0.1824
12106WAT    EPW50231   1.490   5.934   5.125 -0.0300 -0.0491  0.1917
12107WAT      O50232   2.262   3.738   4.188  0.3755  0.0396  0.5355
12107WAT     H150233   2.343   3.704   4.150  0.6912  1.4166 -0.0937
12107WAT     H250234   2.213   3.660   4.213  1.1240 -0.8768 -0.7004
12107WAT    EPW50235   2.266   3.723   4.186  0.5157  0.1003  0.2897
12108WAT      O50236   0.016   6.926   4.133  0.3559  0.3601  0.3859
12108WAT     H150237   0.043   6.921   4.225  1.6920  0.8736  0.0383
12108WAT     H250238  -0.076   6.951   4.137  0.6503  1.3565  1.5679
12108WAT    EPW50239   0.008   6.929   4.146  0.5713  0.5593  0.4961
12109WAT      O50240   0.910   5.321   4.859  0.3478  0.2003  0.3507
12109WAT     H150241   0.900   5.351   4.949 -2.1688  0.0437  0.2076
12109WAT     H250242   0.868   5.389   4.806 -2.3034 -1.7407 -0.2674
12109WAT    EPW50243   0.903   5.334   4.864 -0.3338 -0.0765  0.2503
12110WAT      O50244  10.522   7.561   4.771  0.5401 -0.4300 -0.9070
12110WAT     H150245  10.523   7.507   4.692 -0.6173  1.2235 -2.1135
12110WAT     H250246  10.581   7.634   4.752 -1.0642  0.9045 -1.0034
12110WAT    EPW50247  10.530   7.563   4.758  0.1760 -0.0362 -1.0791
12111WAT      O50248  10.040   6.491   8.893 -0.3184 -0.3934 -0.5354
12111WAT     H150249  10.101   6.420   8.914  0.6138  0.6239  0.3217
12111WAT     H250250  10.004   6.518   8.977  0.4998  1.1406 -0.6334
12111WAT    EPW50251  10.044   6.485   8.907 -0.0877 -0.0567 -0.4349
12112WAT      O50252   9.117   3.429   3.614  0.2134  0.5231 -0.6922
12112WAT     H150253   9.208   3.422   3.584 -0.1890 -3.1309 -1.5955
12112WAT     H250254   9.124   3.432   3.710  1.2862  1.9721 -0.7923
12112WAT    EPW50255   9.130   3.428   3.623  0.3018  0.2322 -0.8246
12113WAT      O50256   1.883   5.621   6.552  0.2352 -0.3839  0.0608
12113WAT     H150257   1.971   5.585   6.563  0.8765  0.9448 -0.5376
12113WAT     H250258   1.894   5.715   6.564 -1.0428 -0.1570 -0.4009
12113WAT    EPW50259   1.896   5.629   6.555  0.1512 -0.1786 -0.0792
12114WAT      O50260  10.640   8.447   4.153  0.0709  0.2957  0.1205
12114WAT     H150261  10.679   8.514   4.096  1.9548  0.9701  2.0415
12114WAT     H250262  10.628   8.371   4.097  1.7694  0.9463 -1.2026
12114WAT    EPW50263  10.644   8.446   4.138  0.5431  0.4706  0.1993
12115WAT      O50264   9.192   3.453   2.583 -0.1028  0.1981 -0.0372
12115WAT     H150265   9.151   3.403   2.513 -0.2348 -0.4975  0.5223
12115WAT     H250266   9.159   3.542   2.572  1.4552  0.6007 -2.1050
12115WAT    EPW50267   9.183   3.458   2.572  0.0854  0.1596 -0.2362
12116WAT      O50268   8.301   2.879   5.041  0.5952  0.1041 -0.2326
12116WAT     H150269   8.392   2.885   5.070  0.6137 -0.1514 -0.2372
12116WAT     H250270   8.305   2.829   4.960  0.7638  2.3092 -1.6935
12116WAT    EPW50271   8.314   2.873   5.035  0.6199  0.3612 -0.4261
12117WAT      O50272   2.896   5.728   4.313  0.0170 -0.7918 -0.0344
12117WAT     H150273   2.963   5.794   4.332 -0.3730  0.3596 -2.3737
12117WAT     H250274   2.873   5.743   4.222 -1.9629 -2.5180  0.1248
12117WAT    EPW50275   2.902   5.739   4.304 -0.2956 -0.8676 -0.3219
12118WAT      O50276   9.975   7.362   1.966  0.4772 -0.2210 -0.6427
12118WAT     H150277   9.933   7.281   1.994 -1.5925  0.6895 -0.9396
12118WAT     H250278   9.909   7.406   1.912  0.4400  2.9294  1.6600
12118WAT    EPW50279   9.961   7.357   1.962  0.1988  0.3145 -0.3781
12119WAT      O50280   1.476   4.078   0.838  0.2820 -0.3585 -0.6023
12119WAT     H150281   1.536   4.098   0.909 -2.0258 -1.9304  1.9950
12119WAT     H250282   1.509   3.996   0.801  0.2273 -0.7644  0.2371
12119WAT    EPW50283   1.488   4.070   0.842 -0.0296 -0.6194 -0.1490
12120WAT      O50284   0.582   7.566   5.022 -0.2383  0.1199  0.3504
12120WAT     H150285   0.655   7.585   5.081  0.1059 -1.2136  0.3850
12120WAT     H250286   0.623   7.561   4.936 -1.0675  4.4408 -0.5105
12120WAT    EPW50287   0.597   7.568   5.019 -0.3023  0.5140  0.2415
12121WAT      O50288   0.323   9.954   3.923  0.2863 -0.7866  0.0525
12121WAT     H150289   0.353   9.974   4.011 -1.6594 -0.1544  0.6106
12121WAT     H250290   0.393   9.985   3.866  0.8719  0.2538  1.2996
12121WAT    EPW50291   0.336   9.961   3.927  0.1069 -0.5655  0.2904
12122WAT      O50292   1.789   9.022   6.079 -0.2641 -0.2853 -0.2029
12122WAT     H150293   1.835   8.950   6.037 -0.5531 -0.8438  0.4161
12122WAT     H250294   1.783   9.090   6.011  1.1200 -0.3407 -0.4038
12122WAT    EPW50295   1.794   9.021   6.064 -0.1196 -0.3662 -0.1478
12123WAT      O50296   1.387   8.296   3.811  0.2288 -0.2641  0.0697
12123WAT     H150297   1.462   8.236   3.808  0.6895  0.3287 -0.6552
12123WAT     H250298   1.392   8.344   3.729 -1.7081 -1.1008 -0.5827
12123WAT    EPW50299   1.398   8.294   3.800  0.0341 -0.2961 -0.1119
12124WAT      O50300   5.386   9.360   2.665  0.5956  0.3094 -0.1773
12124WAT     H150301   5.312   9.322   2.618  0.9866  0.8567 -1.2772
12124WAT     H250302   5.414   9.433   2.609  2.6429 -0.5397 -0.3461
12124WAT    EPW50303   5.380   9.365   2.651  0.9172  0.2694 -0.3446
12125WAT      O50304   4.822   1.301   2.087 -0.2806  0.7211  0.4450
12125WAT     H150305   4.838   1.240   2.158  1.4856 -3.1051 -2.8652
12125WAT     H250306   4.726   1.309   2.084 -0.5755 -1.6574  1.2820
12125WAT    EPW50307   4.811   1.294   2.096 -0.0863 -0.0972  0.1189
12126WAT      O50308   7.611   6.445   1.200 -0.1287  0.3726  0.3250
12126WAT     H150309   7.516   6.444   1.208 -0.0595  1.0293  1.4879
12126WAT     H250310   7.642   6.407   1.283  0.6108 -3.0042 -1.3327
12126WAT    EPW50311   7.603   6.440   1.212 -0.0222  0.0138  0.2598
12127WAT      O50312   7.758   4.364   1.269  0.5384  0.1231 -0.8956
12127WAT     H150313   7.670   4.396   1.250  1.7696  2.8490 -2.6550
12127WAT     H250314   7.763   4.362   1.365 -0.8863  1.5796 -0.7572
12127WAT    EPW50315   7.747   4.368   1.279  0.5131  0.6747 -1.1094
12128WAT      O50316   8.851   1.478   1.315  0.4295  0.5207 -0.0756
12128WAT     H150317   8.819   1.537   1.247  1.2074 -0.0398 -0.9391
12128WAT     H250318   8.836   1.391   1.280  1.0105  0.2268  0.3898
12128WAT    EPW50319   8.845   1.475   1.302  0.6084  0.4081 -0.1281
12129WAT      O50320   8.412   1.767   4.962 -0.1420  0.2505 -0.4087
12129WAT     H150321   8.457   1.779   5.046 -1.1036  0.3950  0.0967
12129WAT     H250322   8.465   1.816   4.899  0.6477  0.0472  0.0923
12129WAT    EPW50323   8.425   1.775   4.965 -0.1650  0.2428 -0.2761
12130WAT      O50324  10.275   1.988   5.091 -0.1655 -0.0468  0.0405
12130WAT     H150325  10.340   2.024   5.152 -0.6627  1.6114 -0.3450
12130WAT     H250326  10.244   2.065   5.042  0.1941 -1.2986 -2.3020
12130WAT    EPW50327  10.279   2.003   5.092 -0.1841  0.0067 -0.3195
12131WAT      O50328   0.409   3.625   0.262 -0.2548 -0.4726 -0.7639
12131WAT     H150329   0.355   3.675   0.323  1.8022  0.1372  0.6503
12131WAT     H250330   0.362   3.631   0.179 -1.9755  0.6106  0.2101
12131WAT    EPW50331   0.395   3.632   0.259 -0.2104 -0.2491 -0.4489
12132WAT      O50332   9.226   1.628   3.009  0.2039  0.5819 -0.2814
12132WAT     H150333   9.186   1.691   2.949  0.7869  0.7816 -0.4716
12132WAT     H250334   9.288   1.579   2.954 -0.2226 -0.1456 -0.1304
12132WAT    EPW50335   9.229   1.630   2.994  0.2251  0.5124 -0.2867
12133WAT      O50336   9.843   7.655   8.856 -0.1510 -0.2585 -0.3162
12133WAT     H150337   9.774   7.700   8.807 -0.7831 -1.8938 -1.0220
12133WAT     H250338   9.796   7.586   8.903  0.6092  0.5191  1.7040
12133WAT    EPW50339   9.828   7.652   8.856 -0.1345 -0.3717 -0.1426
12134WAT      O50340   9.513   2.900   2.195 -0.3870  0.3601 -0.7285
12134WAT     H150341   9.544   2.991   2.190 -0.4452  0.3533 -1.2348
12134WAT     H250342   9.437   2.904   2.253 -0.5990  0.6953 -1.0231
12134WAT    EPW50343   9.507   2.913   2.202 -0.4230  0.4035 -0.8341
12135WAT      O50344   7.658   4.143   4.035 -0.7593 -0.3382  0.1413
12135WAT     H150345   7.568   4.162   4.064 -0.2819  0.5774  1.0690
12135WAT     H250346   7.694   4.228   4.012  0.6206 -0.3514  2.0067
12135WAT    EPW50347   7.651   4.157   4.036 -0.5143 -0.2193  0.5095
12136WAT      O50348  10.553   3.389   1.608 -0.6354 -0.5065  0.1663
12136WAT     H150349  10.586   3.382   1.698  1.4315 -0.6931 -0.5398
12136WAT     H250350  10.615   3.338   1.556 -0.3952  1.5104 -1.6781
12136WAT    EPW50351  10.566   3.382   1.613 -0.3319 -0.2651 -0.1701
12137WAT      O50352   0.131   3.996   2.346 -0.8336  0.2998  0.2389
12137WAT     H150353   0.204   4.018   2.288 -0.1663 -0.0947  0.9131
12137WAT     H250354   0.144   3.904   2.367  0.3950  1.0168  3.0075
12137WAT    EPW50355   0.142   3.987   2.341 -0.5835  0.3422  0.6930
12138WAT      O50356   9.396   2.491   1.909  0.6586 -0.1824 -1.2725
12138WAT     H150357   9.379   2.563   1.970 -0.5540  0.5298 -2.3882
12138WAT     H250358   9.415   2.416   1.965 -1.0548  0.2841  0.0238
12138WAT    EPW50359   9.396   2.491   1.924  0.2732 -0.0271 -1.2487
12139WAT      O50360   0.043   0.124   2.397 -0.5523  0.0103 -0.4223
12139WAT     H150361   0.096   0.201   2.375  0.1087 -0.1710  0.5154
12139WAT     H250362  -0.012   0.110   2.319  0.3207  0.5810 -1.1579
12139WAT    EPW50363   0.042   0.132   2.384 -0.3500  0.0617 -0.3957
12140WAT      O50364   9.073   2.464   3.792  0.2337 -0.8429 -0.2577
12140WAT     H150365   9.150   2.411   3.808 -0.8869 -1.7215  2.7908
12140WAT     H250366   9.106   2.554   3.787  1.3880 -1.0616  2.2017
12140WAT    EPW50367   9.087   2.469   3.793  0.2379 -0.9878  0.4689
12141WAT      O50368   5.770   8.559   4.411 -0.5853 -0.0949  0.8068
12141WAT     H150369   5.702   8.497   4.436  1.2339 -1.4840  2.6971
12141WAT     H250370   5.797   8.600   4.493  0.5575  0.7194  0.0603
12141WAT    EPW50371   5.765   8.556   4.425 -0.1945 -0.1712  0.9575
12142WAT      O50372   6.905   2.707   1.780 -0.0589 -0.0641 -0.0276
12142WAT     H150373   6.940   2.747   1.701  1.9395  0.5661  1.1247
12142WAT     H250374   6.981   2.667   1.823 -1.4640 -2.4651  0.4216
12142WAT    EPW50375   6.920   2.707   1.776  0.0196 -0.2977  0.1836
12143WAT      O50376   9.805   0.623   6.157  1.0120 -0.0816 -0.1385
12143WAT     H150377   9.856   0.616   6.238  0.7166 -1.3836 -0.0402
12143WAT     H250378   9.871   0.622   6.087  1.2093 -0.0469  0.0454
12143WAT    EPW50379   9.821   0.622   6.158  0.9999 -0.2488 -0.1013
12144WAT      O50380   7.404   1.359   0.458 -0.7989  0.7126 -0.6049
12144WAT     H150381   7.404   1.363   0.363  0.5199  0.8657 -0.6198
12144WAT     H250382   7.477   1.416   0.484  0.6910 -1.5262  0.3686
12144WAT    EPW50383   7.414   1.367   0.449 -0.4284  0.4375 -0.4785
12145WAT      O50384   1.133   2.104   2.152 -0.7069 -0.0504 -0.3215
12145WAT     H150385   1.156   2.196   2.163  1.2298 -0.5362  0.1269
12145WAT     H250386   1.152   2.086   2.060  2.3959 -0.7807  0.3238
12145WAT    EPW50387   1.139   2.114   2.141 -0.0423 -0.2109 -0.1771
12146WAT      O50388   8.360   0.275   5.209  0.2848 -0.0038  0.2035
12146WAT     H150389   8.294   0.281   5.278  0.6714  0.9889  0.5041
12146WAT     H250390   8.311   0.254   5.130 -0.7161  2.6323  0.0119
12146WAT    EPW50391   8.345   0.273   5.207  0.2036  0.4748  0.2182
12147WAT      O50392   8.324   1.371   4.250  0.1297  0.3427  0.3054
12147WAT     H150393   8.337   1.304   4.183  2.9346 -1.2364  2.2206
12147WAT     H250394   8.229   1.376   4.260 -0.2334 -2.9591 -0.3789
12147WAT    EPW50395   8.313   1.363   4.243  0.4516 -0.3010  0.4678
12148WAT      O50396   7.146   2.776   1.498 -0.4139  0.6584  0.0834
12148WAT     H150397   7.104   2.696   1.466  2.2258 -0.0315 -2.0084
12148WAT     H250398   7.073   2.835   1.519 -2.4153 -1.7829  0.4365
12148WAT    EPW50399   7.131   2.773   1.496 -0.3297  0.2452 -0.1459
12149WAT      O50400   9.693   2.231   3.019 -0.5526  0.5531  0.1759
12149WAT     H150401   9.706   2.324   3.005  0.4664  0.6170  1.3277
12149WAT     H250402   9.779   2.198   3.045 -1.0873 -0.5275  0.6708
12149WAT    EPW50403   9.706   2.239   3.021 -0.4888  0.4190  0.3932
12150WAT      O50404   9.601   1.932   6.739 -0.5515 -0.2719  0.1731
12150WAT     H150405   9.561   1.996   6.679  0.3601 -1.4487 -1.7829
12150WAT     H250406   9.560   1.849   6.716  3.2054 -1.6770 -2.3836
12150WAT    EPW50407   9.590   1.930   6.728  0.0644 -0.6125 -0.4222
12151WAT      O50408   8.952   0.634   2.170 -0.1362  0.1229 -0.2319
12151WAT     H150409   8.937   0.662   2.260 -0.1131 -0.3620 -0.0734
12151WAT     H250410   9.013   0.561   2.177 -0.7145 -0.4077 -0.5782
12151WAT    EPW50411   8.958   0.628   2.183 -0.2093 -0.0110 -0.2568
12152WAT      O50412   5.952   0.814   3.504  0.6811 -0.0759 -0.4904
12152WAT     H150413   5.860   0.825   3.479  0.8611  1.4052 -0.5688
12152WAT     H250414   6.000   0.818   3.422  0.8704 -0.2868 -0.3905
12152WAT    EPW50415   5.946   0.816   3.490  0.7300  0.0916 -0.4877
12153WAT      O50416  10.687   2.764   4.859  0.1059 -0.1862 -0.4401
12153WAT     H150417  10.701   2.858   4.870 -1.7789 -0.0846  2.0617
12153WAT     H250418  10.601   2.757   4.817 -0.6595 -0.7199  1.1135
12153WAT    EPW50419  10.677   2.775   4.855 -0.2437 -0.2432  0.0951
12154WAT      O50420   6.217  10.347   4.746 -0.1350  0.0743  0.2676
12154WAT     H150421   6.156  10.294   4.798 -0.1649  0.9191  1.1160
12154WAT     H250422   6.298  10.347   4.797  0.3948 -0.5314 -0.5550
12154WAT    EPW50423   6.219  10.340   4.760 -0.0691  0.1059  0.2711
12155WAT      O50424   7.067   3.001   3.913 -0.2631  1.8491 -0.0166
12155WAT     H150425   7.156   3.002   3.876 -0.3671  1.0257 -0.3157
12155WAT     H250426   7.052   2.909   3.935 -1.7879  1.6046 -1.8236
12155WAT    EPW50427   7.077   2.989   3.911 -0.4780  1.7081 -0.2943
12156WAT      O50428   6.735   8.874   5.194  0.1006  0.1699 -0.2331
12156WAT     H150429   6.665   8.939   5.183 -0.2333  0.3632  2.3139
12156WAT     H250430   6.697   8.792   5.161 -0.3059  0.7959 -1.3776
12156WAT    EPW50431   6.720   8.872   5.189  0.0026  0.2785 -0.0482
12157WAT      O50432   8.106   3.468   4.139  0.4158 -0.4986  0.1834
12157WAT     H150433   8.130   3.381   4.172 -0.9295 -0.8846  0.1855
12157WAT     H250434   8.184   3.522   4.155  1.8234 -2.0258 -1.1195
12157WAT    EPW50435   8.120   3.464   4.146  0.4239 -0.7509  0.0114
12158WAT      O50436   5.071   3.906   2.390 -1.1128  0.1399 -0.3473
12158WAT     H150437   5.020   3.981   2.361  1.2182  1.9005 -0.1800
12158WAT     H250438   5.079   3.851   2.312 -0.4622  1.5180 -1.2810
12158WAT    EPW50439   5.065   3.908   2.376 -0.7193  0.5538 -0.4483
12159WAT      O50440   3.571   9.581   4.806 -0.1682 -0.7277 -0.1897
12159WAT     H150441   3.498   9.618   4.855 -0.4792 -0.4240 -0.8680
12159WAT     H250442   3.532   9.551   4.724  0.8574  1.7302 -1.6757
12159WAT    EPW50443   3.557   9.582   4.802 -0.0738 -0.3633 -0.4752
12160WAT      O50444   4.217   9.732   7.569 -0.0189  0.7295 -0.2649
12160WAT     H150445   4.127   9.706   7.591 -0.5473  1.6161 -1.2543
12160WAT     H250446   4.209   9.824   7.543  1.6099  1.5798  2.0184
12160WAT    EPW50447   4.204   9.741   7.568  0.1261  0.9584 -0.0942
12161WAT      O50448   8.509   2.943   5.199  0.7773  0.1472 -0.2299
12161WAT     H150449   8.471   3.031   5.206  0.5045 -0.0773  1.6493
12161WAT     H250450   8.577   2.952   5.132 -1.2433  1.0309 -2.3193
12161WAT    EPW50451   8.513   2.956   5.191  0.4749  0.2341 -0.2577
12162WAT      O50452   2.778   9.669   2.891 -0.5771  0.1626  0.4806
12162WAT     H150453   2.705   9.606   2.892 -0.1229 -0.3750  1.6554
12162WAT     H250454   2.820   9.655   2.806  0.6691 -2.5183  1.4314
12162WAT    EPW50455   2.774   9.659   2.880 -0.3529 -0.2618  0.7609
12163WAT      O50456   8.466   1.309   3.608 -0.0658  0.4272 -0.6385
12163WAT     H150457   8.514   1.227   3.622 -1.2806  0.1299  2.7392
12163WAT     H250458   8.388   1.283   3.559  0.2479 -0.1642 -0.8351
12163WAT    EPW50459   8.462   1.295   3.603 -0.1845  0.3100 -0.2190
12164WAT      O50460   0.746   3.678   1.214 -0.2356  0.5138 -0.0202
12164WAT     H150461   0.664   3.632   1.193  0.2305 -0.6792  0.6801
12164WAT     H250462   0.735   3.704   1.306  0.6491 -0.7891  0.4901
12164WAT    EPW50463   0.734   3.675   1.224 -0.0574  0.1844  0.1395
12165WAT      O50464  10.769   5.617   2.544 -0.0776  0.3215 -0.3722
12165WAT     H150465  10.767   5.530   2.504 -0.7809  0.9327 -1.7402
12165WAT     H250466  10.747   5.677   2.473 -1.0733  1.4988  0.8633
12165WAT    EPW50467  10.766   5.613   2.530 -0.3018  0.5574 -0.3896
12166WAT      O50468   5.407   9.599   2.171 -0.0252 -0.0853  0.0920
12166WAT     H150469   5.380   9.685   2.204  1.4550  0.3214  0.3093
12166WAT     H250470   5.326   9.560   2.137 -1.1059  0.5554  1.8030
12166WAT    EPW50471   5.393   9.605   2.171  0.0274  0.0520  0.3464
12167WAT      O50472   8.252  10.277   4.237  0.3207  0.1082  0.0938
12167WAT     H150473   8.333  10.327   4.225  0.6996 -0.2903  0.8926
12167WAT     H250474   8.233  10.241   4.150 -1.0153  3.1279 -0.9917
12167WAT    EPW50475   8.260  10.278   4.224  0.1950  0.4535  0.0560
12168WAT      O50476   8.138   2.587   6.514  0.0314  0.0361  0.3231
12168WAT     H150477   8.225   2.547   6.517  0.6978  1.3126 -0.4727
12168WAT     H250478   8.098   2.551   6.435 -0.3388 -0.8671  0.9141
12168WAT    EPW50479   8.144   2.577   6.504  0.0710  0.0854  0.2961
12169WAT      O50480   8.336   4.242   4.379  0.9359  0.6918 -0.2805
12169WAT     H150481   8.361   4.162   4.334 -1.8258 -1.0128  0.9031
12169WAT     H250482   8.264   4.277   4.327  1.0089  1.4594  0.1190
12169WAT    EPW50483   8.330   4.236   4.367  0.5813  0.5684 -0.0715
12170WAT      O50484  10.515   1.809   1.928  0.3487  0.4601  0.7516
12170WAT     H150485  10.460   1.741   1.890 -0.7605  1.3866  0.6519
12170WAT     H250486  10.572   1.762   1.989  0.2970 -0.6780 -0.0436
12170WAT    EPW50487  10.516   1.794   1.931  0.1955  0.4321  0.6335
12171WAT      O50488   8.881   2.799   3.138 -0.0932  0.4616  0.1310
12171WAT     H150489   8.948   2.834   3.197 -0.5825  1.2433  0.2304
12171WAT     H250490   8.831   2.738   3.192 -0.0224  0.5466  0.2933
12171WAT    EPW50491   8.883   2.796   3.153 -0.1483  0.5759  0.1656
12172WAT      O50492   9.837   4.628   3.151 -0.0689 -0.2926 -0.0272
12172WAT     H150493   9.768   4.577   3.193 -1.1847  0.3736 -1.0038
12172WAT     H250494   9.846   4.705   3.207 -1.9178  0.8493 -1.1934
12172WAT    EPW50495   9.829   4.632   3.164 -0.4597 -0.0544 -0.3098
12173WAT      O50496   7.099   1.528   0.968  0.6534 -0.2071  0.5637
12173WAT     H150497   7.031   1.491   1.025  1.4356  1.6417  2.8427
12173WAT     H250498   7.072   1.502   0.880 -1.9897 -1.0949  1.5190
12173WAT    EPW50499   7.087   1.519   0.964  0.4079 -0.0803  0.9903
12174WAT      O50500   0.543   3.758   2.212  0.2742 -0.2661 -0.0947
12174WAT     H150501   0.477   3.796   2.155  2.1619 -0.4914 -2.6068
12174WAT     H250502   0.621   3.811   2.198  0.8479 -0.3607  2.3263
12174WAT    EPW50503   0.544   3.770   2.203  0.5988 -0.3084 -0.1066
12175WAT      O50504   6.466   1.536   1.927  0.0357 -0.6125  0.6106
12175WAT     H150505   6.392   1.596   1.935  0.8267  0.3150  1.1043
12175WAT     H250506   6.505   1.557   1.842 -0.5837 -1.4950  0.0864
12175WAT    EPW50507   6.461   1.547   1.917  0.0582 -0.6066  0.6067
12176WAT      O50508   3.664   0.216   6.810  1.2469  0.7648  0.1185
12176WAT     H150509   3.745   0.254   6.775  2.3368 -0.2965  1.3861
12176WAT     H250510   3.610   0.200   6.732  1.5325  3.0169 -0.6155
12176WAT    EPW50511   3.667   0.219   6.795  1.4284  0.9219  0.1886
12177WAT      O50512   8.852   3.516   4.777  0.5895 -0.0290 -0.1844
12177WAT     H150513   8.891   3.501   4.863 -0.2469  0.5352  0.3156
12177WAT     H250514   8.792   3.590   4.791 -0.7600 -0.9443 -0.8646
12177WAT    EPW50515   8.849   3.524   4.791  0.3014 -0.0755 -0.2079
12178WAT      O50516   7.250   3.837   1.986 -0.2050 -0.1004  0.1835
12178WAT     H150517   7.210   3.843   2.072  0.5405  2.8074  0.4532
12178WAT     H250518   7.199   3.899   1.932  2.5784  2.2757  0.0498
12178WAT    EPW50519   7.238   3.846   1.990  0.2606  0.5965  0.2014
12179WAT      O50520   2.468   8.688   7.897 -0.3166 -0.3876  0.3946
12179WAT     H150521   2.454   8.779   7.868  2.7294 -0.2565 -0.9975
12179WAT     H250522   2.451   8.636   7.818  1.1317 -0.6966  0.2737
12179WAT    EPW50523   2.464   8.693   7.883  0.2761 -0.4110  0.1950
12180WAT      O50524   0.710   1.840   3.474  0.2122 -0.7026  0.0773
12180WAT     H150525   0.771   1.911   3.492  0.1089 -0.4714 -0.4513
12180WAT     H250526   0.734   1.771   3.536  1.8001 -1.0883 -0.9016
12180WAT    EPW50527   0.721   1.840   3.484  0.4080 -0.7229 -0.1216
12181WAT      O50528   6.207   9.874   5.874 -0.1780  0.2531 -0.4821
12181WAT     H150529   6.238   9.933   5.943 -0.4896  0.0723 -0.1882
12181WAT     H250530   6.117   9.902   5.858 -0.8406 -1.0864  0.7018
12181WAT    EPW50531   6.199   9.886   5.881 -0.3066  0.0525 -0.2873
12182WAT      O50532   8.235   2.191   4.724  0.3375  0.1800  0.0281
12182WAT     H150533   8.171   2.243   4.774  0.0455  0.0080 -0.1596
12182WAT     H250534   8.197   2.103   4.721  0.5496  0.0923 -0.1483
12182WAT    EPW50535   8.221   2.186   4.730  0.3271  0.1458 -0.0198
12183WAT      O50536   4.785   8.797   1.136 -0.5844  0.2538  0.1871
12183WAT     H150537   4.787   8.740   1.213 -1.1183 -1.0013 -0.6986
12183WAT     H250538   4.696   8.832   1.135  0.1568  2.3304  1.5555
12183WAT    EPW50539   4.774   8.794   1.146 -0.5572  0.3624  0.2508
12184WAT      O50540   8.580   3.533   1.274  0.2645  0.2394 -0.2926
12184WAT     H150541   8.668   3.531   1.237 -0.1861  1.8918 -1.5708
12184WAT     H250542   8.555   3.441   1.284  2.0871 -0.2428  0.0219
12184WAT    EPW50543   8.588   3.521   1.271  0.4454  0.3936 -0.4197
12185WAT      O50544   8.749   6.788   8.947  0.3340 -0.1268 -0.8073
12185WAT     H150545   8.842   6.803   8.930  0.1222  0.2734 -1.6579
12185WAT     H250546   8.707   6.871   8.927 -0.1476 -0.1052  0.1985
12185WAT    EPW50547   8.756   6.801   8.942  0.2422 -0.0710 -0.7863
12186WAT      O50548   0.075   0.307   1.322 -0.6838 -0.1554 -0.5883
12186WAT     H150549   0.153   0.329   1.271 -0.6958  1.2702 -0.0414
12186WAT     H250550   0.093   0.341   1.409 -1.8344  0.0164 -0.3991
12186WAT    EPW50551   0.088   0.314   1.327 -0.8371  0.0553 -0.4912
12187WAT      O50552   7.666   4.110   1.116 -0.2734 -0.2116 -0.3074
12187WAT     H150553   7.700   4.155   1.039 -0.0760 -1.8446 -1.2194
12187WAT     H250554   7.709   4.024   1.114  0.6112  0.0741  2.2433
12187WAT    EPW50555   7.676   4.105   1.106 -0.1309 -0.3893 -0.0912
12188WAT      O50556  10.828   0.010   4.419 -0.6335 -0.8970 -0.1579
12188WAT     H150557  10.912   0.027   4.377 -0.7040 -2.0281 -0.7906
12188WAT     H250558  10.819   0.079   4.485  0.2942 -0.1465 -0.8076
12188WAT    EPW50559  10.838   0.021   4.422 -0.5202 -0.9472 -0.3271
12189WAT      O50560  10.782   1.484   3.186 -0.5131  0.4041 -0.2120
12189WAT     H150561  10.771   1.463   3.093 -1.2932  0.2914 -0.1020
12189WAT     H250562  10.716   1.431   3.231  0.5695 -0.3698  0.5242
12189WAT    EPW50563  10.772   1.474   3.180 -0.4735  0.2871 -0.1004
12190WAT      O50564   6.072   1.282   4.095  0.8599  0.0893 -0.3176
12190WAT     H150565   5.981   1.279   4.067 -0.1058  3.0214  2.0970
12190WAT     H250566   6.110   1.355   4.046  2.0341 -1.1837 -1.3996
12190WAT    EPW50567   6.065   1.291   4.085  0.8874  0.3082 -0.1421
12191WAT      O50568  10.010   6.866   7.515 -0.1169 -0.7423 -0.2085
12191WAT     H150569  10.010   6.961   7.525  0.4883 -0.6564 -0.9668
12191WAT     H250570  10.076   6.835   7.578 -0.3108 -0.6645  0.0342
12191WAT    EPW50571  10.019   6.874   7.525 -0.0620 -0.7207 -0.2766
12192WAT      O50572   4.639  10.241   0.140 -0.0789  0.0286 -0.4618
12192WAT     H150573   4.693  10.285   0.074  1.7912 -2.7107 -0.9461
12192WAT     H250574   4.582  10.183   0.089 -0.2842 -0.3861  0.2308
12192WAT    EPW50575   4.639  10.239   0.124  0.1409 -0.3877 -0.4343
12193WAT      O50576   8.514   0.284   3.045  0.1285  0.0893  0.9589
12193WAT     H150577   8.594   0.313   3.001  1.4700 -1.7666  2.0234
12193WAT     H250578   8.544   0.218   3.107 -2.2835 -0.8362  1.2317
12193WAT    EPW50579   8.528   0.279   3.047 -0.0124 -0.2775  1.1353
12194WAT      O50580   7.558   9.013   5.579 -0.8816 -0.5398  0.4404
12194WAT     H150581   7.537   8.936   5.631  1.0754 -0.8470  0.8496
12194WAT     H250582   7.532   9.087   5.634  1.8506 -0.8283  2.2983
12194WAT    EPW50583   7.551   9.013   5.593 -0.2635 -0.6185  0.7396
12195WAT      O50584   8.863   3.817   4.089  0.2302  0.1822 -0.0110
12195WAT     H150585   8.923   3.888   4.068  0.9356 -0.3520  0.1687
12195WAT     H250586   8.856   3.767   4.007  0.4810 -0.0801  0.1263
12195WAT    EPW50587   8.870   3.820   4.075  0.3562  0.0772  0.0310
12196WAT      O50588   1.177   2.288   1.577  0.3432  0.7002  0.2854
12196WAT     H150589   1.208   2.290   1.486  1.4563 -0.8305  0.5907
12196WAT     H250590   1.141   2.376   1.592 -1.3079  0.5378 -2.0997
12196WAT    EPW50591   1.176   2.300   1.567  0.2722  0.4768  0.0111
12197WAT      O50592   8.486   0.213   4.286  0.0657 -0.2819  0.2853
12197WAT     H150593   8.397   0.240   4.264  0.0814  0.2808  0.8888
12197WAT     H250594   8.541   0.285   4.254  0.3262 -0.7125 -0.2526
12197WAT    EPW50595   8.482   0.226   4.279  0.1020 -0.2645  0.2942
12198WAT      O50596   8.448   1.071   0.650  0.6685 -0.8976 -0.2111
12198WAT     H150597   8.509   1.075   0.723  1.3117 -0.9260 -0.7377
12198WAT     H250598   8.438   0.978   0.631 -0.4268 -0.9662  0.5895
12198WAT    EPW50599   8.454   1.059   0.657  0.6084 -0.9105 -0.1750
12199WAT      O50600   8.854   2.862   5.882 -0.8970  0.7415  0.2702
12199WAT     H150601   8.900   2.785   5.848 -0.8341  0.5218  0.8361
12199WAT     H250602   8.764   2.851   5.853 -0.6733  1.0127 -0.5741
12199WAT    EPW50603   8.849   2.850   5.874 -0.8593  0.7483  0.2334
12200WAT      O50604   9.568   0.429   3.678  0.1195 -0.2458  0.0952
12200WAT     H150605   9.496   0.462   3.624  0.0938  1.0081  0.8517
12200WAT     H250606   9.633   0.499   3.676  0.7753 -0.8398  0.4309
12200WAT    EPW50607   9.567   0.442   3.671  0.2027 -0.1588  0.2394
12201WAT      O50608   8.748   1.640   3.465 -0.7506  0.2091 -0.4231
12201WAT     H150609   8.750   1.545   3.462  0.4721  0.1970  0.0617
12201WAT     H250610   8.799   1.668   3.388 -0.4335  0.4566 -0.1258
12201WAT    EPW50611   8.755   1.631   3.454 -0.5474  0.2401 -0.3200
12202WAT      O50612   2.029   2.642   2.803  0.4444  0.2544 -0.0161
12202WAT     H150613   2.080   2.692   2.739  1.3787 -0.2374  0.3227
12202WAT     H250614   1.985   2.709   2.856  1.8340  0.7568  0.5659
12202WAT    EPW50615   2.030   2.658   2.802  0.7509  0.2558  0.1054
12203WAT      O50616   8.823   2.241   2.397  0.7912  0.3876 -0.3667
12203WAT     H150617   8.749   2.189   2.368  2.5485 -2.3380 -0.2886
12203WAT     H250618   8.784   2.323   2.429 -2.1570 -1.0216 -0.0648
12203WAT    EPW50619   8.808   2.245   2.397  0.6337 -0.1577 -0.3166
12204WAT      O50620   6.965   0.960   6.532 -0.1587  0.2842 -0.2685
12204WAT     H150621   6.893   0.897   6.526  0.1168 -0.0454 -0.1743
12204WAT     H250622   6.936   1.035   6.480 -1.3250  0.8983  1.1838
12204WAT    EPW50623   6.952   0.962   6.524 -0.2759  0.3217 -0.0641
12205WAT      O50624   6.381   9.558   3.827  0.0890 -0.7436 -0.6301
12205WAT     H150625   6.467   9.568   3.868  0.2992 -0.9729 -1.0163
12205WAT     H250626   6.335   9.496   3.884  0.9865 -2.4125 -1.6563
12205WAT    EPW50627   6.386   9.551   3.840  0.2348 -0.9947 -0.8163
12206WAT      O50628  10.042   2.239   8.089  0.3318  0.4092 -0.6606
12206WAT     H150629  10.037   2.209   7.998 -0.9570 -0.2542 -0.3888
12206WAT     H250630  10.102   2.177   8.131 -0.5017 -0.3971 -0.6426
12206WAT    EPW50631  10.049   2.227   8.083  0.0525  0.2153 -0.6223
12207WAT      O50632   8.507   3.432   4.638 -0.3752  0.5733  0.4278
12207WAT     H150633   8.513   3.527   4.640  0.6681  0.6327 -1.9780
12207WAT     H250634   8.514   3.406   4.730 -3.3154  2.8560  1.4697
12207WAT    EPW50635   8.509   3.441   4.650 -0.6251  0.8820  0.2482
12208WAT      O50636   8.192   2.248   0.358  0.1580  0.5872 -0.5179
12208WAT     H150637   8.229   2.207   0.280 -0.1900 -0.6946 -0.0341
12208WAT     H250638   8.145   2.178   0.402  1.8817  0.7933  1.8182
12208WAT    EPW50639   8.191   2.233   0.354  0.3395  0.4454 -0.1460
12209WAT      O50640   7.038   3.638   0.225 -0.2836  0.0693 -0.4167
12209WAT     H150641   6.964   3.618   0.281  0.7194  0.4748  1.1239
12209WAT     H250642   7.040   3.734   0.221 -0.2967  0.0461 -1.0973
12209WAT    EPW50643   7.029   3.648   0.232 -0.1531  0.1197 -0.3033
12210WAT      O50644   5.131   8.721   1.337  0.6296 -0.6879  0.0357
12210WAT     H150645   5.098   8.786   1.274  1.6302 -1.0994 -0.9480
12210WAT     H250646   5.104   8.755   1.422 -1.5486 -0.5640 -0.6344
12210WAT    EPW50647   5.123   8.734   1.340  0.4742 -0.7257 -0.1825
12211WAT      O50648   7.642   1.748   0.644 -0.2918  0.0729 -0.0276
12211WAT     H150649   7.715   1.765   0.585 -0.0374  1.0674  0.5500
12211WAT     H250650   7.569   1.797   0.606  0.2342  1.9165  1.2036
12211WAT    EPW50651   7.642   1.757   0.631 -0.1891  0.4473  0.2110
12212WAT      O50652   8.755   2.752   0.011 -0.4391 -0.2599  0.2858
12212WAT     H150653   8.730   2.814   0.079  0.6249  0.2937  0.1986
12212WAT     H250654   8.805   2.685   0.058  2.0376  1.1581 -0.1639
12212WAT    EPW50655   8.758   2.751   0.026  0.0279  0.0000  0.2146
12213WAT      O50656   0.702   1.643   0.412  0.0237 -0.1937  0.0713
12213WAT     H150657   0.638   1.713   0.401  0.1002 -0.3578 -1.6931
12213WAT     H250658   0.785   1.681   0.382 -0.2305 -1.4497 -2.4694
12213WAT    EPW50659   0.705   1.657   0.407  0.0003 -0.3811 -0.4966
12214WAT      O50660   5.216   8.761   4.081  0.4266 -0.1260 -0.6144
12214WAT     H150661   5.198   8.737   3.990 -0.2885  2.1864 -1.1440
12214WAT     H250662   5.147   8.823   4.104  0.9615 -0.1689  1.3116
12214WAT    EPW50663   5.205   8.766   4.072  0.4029  0.1736 -0.4301
12215WAT      O50664   6.267   9.490   0.108 -0.6417  0.4512  0.3420
12215WAT     H150665   6.335   9.502   0.042 -0.6968  0.0723  0.2186
12215WAT     H250666   6.291   9.551   0.178 -1.9660  2.7652 -1.0935
12215WAT    EPW50667   6.279   9.500   0.109 -0.8237  0.7067  0.1364
12216WAT      O50668   9.298   3.587   6.112 -0.1407 -0.4900 -0.2347
12216WAT     H150669   9.342   3.658   6.158 -1.6000  0.8234 -0.7692
12216WAT     H250670   9.360   3.515   6.114  1.8897  1.1612 -0.6641
12216WAT    EPW50671   9.312   3.587   6.118 -0.0653 -0.0989 -0.3619
12217WAT      O50672   7.607   0.907   3.728  0.6077  0.3482  0.6815
12217WAT     H150673   7.583   0.996   3.702  2.3362 -0.2170 -3.6488
12217WAT     H250674   7.546   0.851   3.680  1.7452 -0.8126  0.5289
12217WAT    EPW50675   7.596   0.912   3.718  0.9859  0.1205  0.0902
12218WAT      O50676   5.268   9.023   1.274 -0.1927 -0.1668 -0.5801
12218WAT     H150677   5.183   8.999   1.313 -1.8052  2.7041 -2.0431
12218WAT     H250678   5.252   9.023   1.180  2.4450 -2.7504 -1.1470
12218WAT    EPW50679   5.254   9.020   1.267 -0.0577 -0.1287 -0.8478
12219WAT      O50680   6.192   0.552   2.879  0.6912 -0.6349  0.4111
12219WAT     H150681   6.200   0.469   2.831  3.3257  1.5984 -3.4799
12219WAT     H250682   6.231   0.533   2.965  2.8419 -3.0505 -0.9399
12219WAT    EPW50683   6.198   0.538   2.884  1.3223 -0.6589 -0.2803
12220WAT      O50684  10.286   2.008   2.219 -0.0184 -0.2862 -0.4290
12220WAT     H150685  10.247   1.993   2.305  2.4186  2.3706  1.3192
12220WAT     H250686  10.343   1.932   2.205  0.4425 -0.2237  0.9153
12220WAT    EPW50687  10.289   1.996   2.229  0.3638  0.0725 -0.0211
12221WAT      O50688   8.011   4.456   4.852 -0.0146 -0.2159 -0.4671
12221WAT     H150689   8.024   4.506   4.772  1.4859  1.2662  0.6250
12221WAT     H250690   7.923   4.419   4.844 -0.7105  1.6276 -1.8541
12221WAT    EPW50691   8.001   4.458   4.841  0.0916  0.2227 -0.5062
12222WAT      O50692   3.344  10.352   4.368 -0.0594 -0.2840  0.6971
12222WAT     H150693   3.264  10.393   4.336 -1.2583 -1.7555  1.6322
12222WAT     H250694   3.315  10.293   4.438  2.0589  0.4300  2.2957
12222WAT    EPW50695   3.330  10.349   4.373  0.0618 -0.3839  1.0314
12223WAT      O50696   7.994   0.874   5.314  0.3579 -0.3894  0.7842
12223WAT     H150697   7.924   0.924   5.356 -0.3143  0.5051 -1.2592
12223WAT     H250698   7.984   0.893   5.221  2.3694 -1.4924  0.2861
12223WAT    EPW50699   7.984   0.883   5.307  0.5343 -0.4169  0.4492
12224WAT      O50700   9.600   3.388   0.496  0.5396 -0.0817  0.0816
12224WAT     H150701   9.689   3.359   0.479  0.3896  0.9868 -3.1441
12224WAT     H250702   9.545   3.329   0.446 -0.4083  0.5737  0.3178
12224WAT    EPW50703   9.604   3.377   0.487  0.3953  0.1459 -0.3127
12225WAT      O50704   7.920   0.331   4.427  0.2668  0.2767 -0.1164
12225WAT     H150705   7.990   0.373   4.476 -0.4319 -0.9226  2.0894
12225WAT     H250706   7.909   0.385   4.349  2.4686  1.4485  0.3032
12225WAT    EPW50707   7.928   0.344   4.423  0.4649  0.2731  0.2298
12226WAT      O50708   9.615   3.255   1.857  0.2004  0.1952 -0.7242
12226WAT     H150709   9.527   3.237   1.890  0.7728  0.1532  0.8681
12226WAT     H250710   9.658   3.170   1.857  1.6784  0.7316  3.0944
12226WAT    EPW50711   9.609   3.241   1.862  0.4716  0.2604 -0.0105
12227WAT      O50712   7.430   1.657   4.478  0.0507 -0.1861  0.1571
12227WAT     H150713   7.442   1.741   4.521  0.1888  0.0051 -0.2447
12227WAT     H250714   7.414   1.595   4.549  2.3346 -0.2712  0.6689
12227WAT    EPW50715   7.430   1.660   4.493  0.3703 -0.1721  0.1714
12228WAT      O50716   9.609   1.369   3.526  0.4932 -0.6757  0.0478
12228WAT     H150717   9.665   1.390   3.601  0.3504  1.3493 -0.3455
12228WAT     H250718   9.658   1.401   3.450  1.1594 -3.7375 -0.9246
12228WAT    EPW50719   9.623   1.376   3.526  0.5627 -0.8125 -0.1323
12229WAT      O50720   3.806   1.898   2.284 -0.0905 -0.4267  0.7852
12229WAT     H150721   3.802   1.867   2.194 -0.5319  0.4754  0.4807
12229WAT     H250722   3.840   1.824   2.334 -0.7126 -1.2500  0.0180
12229WAT    EPW50723   3.810   1.884   2.279 -0.2307 -0.4163  0.6440
12230WAT      O50724   8.517   1.643   3.952 -0.1394  0.3530 -0.0217
12230WAT     H150725   8.455   1.638   3.879  0.2879  0.8444 -0.4264
12230WAT     H250726   8.603   1.647   3.910  0.0940  0.9131  0.4934
12230WAT    EPW50727   8.520   1.643   3.937 -0.0525  0.4916 -0.0070
12231WAT      O50728   6.527   1.529   5.720  0.1732 -0.5385 -0.4845
12231WAT     H150729   6.532   1.435   5.738 -1.6477 -0.5483  0.2362
12231WAT     H250730   6.493   1.534   5.631  0.1114 -0.5689 -0.4628
12231WAT    EPW50731   6.523   1.517   5.711 -0.0751 -0.5438 -0.3862
12232WAT      O50732  10.718   8.806   8.928  0.1894 -0.0134 -0.2852
12232WAT     H150733  10.723   8.807   9.023  1.8610 -1.3845 -0.3194
12232WAT     H250734  10.784   8.870   8.900  1.7391 -1.6347 -0.5094
12232WAT    EPW50735  10.728   8.815   8.936  0.6146 -0.4077 -0.3195
12233WAT      O50736   0.328   4.404   2.211  0.9936  0.2481 -0.0035
12233WAT     H150737   0.376   4.433   2.290  0.7220  0.4279  0.0965
12233WAT     H250738   0.364   4.318   2.192  1.1782  0.2731  0.2228
12233WAT    EPW50739   0.339   4.397   2.219  0.9821  0.2754  0.0393
12234WAT      O50740   7.536   3.915   1.303 -0.0048  0.2899 -0.5041
12234WAT     H150741   7.550   4.009   1.295 -0.5859  0.3749 -0.5850
12234WAT     H250742   7.528   3.885   1.212  1.6263 -0.0778 -0.5502
12234WAT    EPW50743   7.537   3.923   1.290  0.1338  0.2526 -0.5209
12235WAT      O50744   9.996   2.127   3.302  0.0339 -0.4276 -0.3446
12235WAT     H150745   9.928   2.098   3.363 -1.2335  0.6098 -1.1966
12235WAT     H250746   9.952   2.193   3.248  1.6943  0.1620 -1.0269
12235WAT    EPW50747   9.981   2.132   3.303  0.0858 -0.2129 -0.5469
12236WAT      O50748   0.952   1.270   3.918 -0.0122  0.1274 -0.0654
12236WAT     H150749   0.904   1.307   3.993 -0.3387 -0.3306 -0.0430
12236WAT     H250750   1.024   1.222   3.957  0.2078  0.4464 -0.0779
12236WAT    EPW50751   0.955   1.269   3.933 -0.0262  0.1091 -0.0640
12237WAT      O50752   5.291  10.072   3.014  0.3259 -0.3646  0.5334
12237WAT     H150753   5.345  10.130   3.068 -0.2696 -0.6541  1.4575
12237WAT     H250754   5.222  10.042   3.073  0.5462 -1.9106  0.0319
12237WAT    EPW50755   5.289  10.076   3.029  0.2763 -0.6070  0.5891
12238WAT      O50756   0.690   7.153   8.712 -1.1955 -0.0811  0.0704
12238WAT     H150757   0.783   7.159   8.732 -1.3687 -1.0396  1.2297
12238WAT     H250758   0.682   7.197   8.627  0.9103 -2.9153 -1.8272
12238WAT    EPW50759   0.701   7.160   8.703 -0.9406 -0.5813 -0.0272
12239WAT      O50760   4.591  10.167   3.322 -0.5977  0.1362 -0.2693
12239WAT     H150761   4.593  10.195   3.413 -1.3187  0.2754 -0.2866
12239WAT     H250762   4.509  10.203   3.288  0.1974  1.0537 -1.2859
12239WAT    EPW50763   4.581  10.175   3.329 -0.5879  0.2756 -0.4057
12240WAT      O50764   5.382   9.311   3.013 -0.2292  0.0996  0.0123
12240WAT     H150765   5.477   9.309   3.018 -0.2077 -0.8234 -0.5467
12240WAT     H250766   5.361   9.398   2.978  0.5053 -0.2935 -1.4752
12240WAT    EPW50767   5.392   9.322   3.009 -0.1297 -0.0739 -0.2576
12241WAT      O50768   8.365   1.662   4.200 -0.2749  0.1743 -0.5227
12241WAT     H150769   8.416   1.626   4.126 -0.5721 -1.7605  0.1492
12241WAT     H250770   8.354   1.587   4.259 -0.8778  1.4521  1.0283
12241WAT    EPW50771   8.371   1.647   4.198 -0.3943  0.0877 -0.2296
12242WAT      O50772  10.270   2.189   1.688 -0.3705  0.0348 -0.5168
12242WAT     H150773  10.190   2.141   1.710 -0.9799  1.1939 -0.0867
12242WAT     H250774  10.241   2.280   1.680  1.0793  0.6212  0.5707
12242WAT    EPW50775  10.256   2.195   1.690 -0.2599  0.2650 -0.3166
12243WAT      O50776   4.749   9.944   2.518 -0.5562 -0.3036  0.0544
12243WAT     H150777   4.697   9.964   2.596  0.0519  2.7499 -0.1986
12243WAT     H250778   4.822   9.892   2.551  0.6267  2.3132  1.9922
12243WAT    EPW50779   4.752   9.940   2.533 -0.3202  0.4444  0.2766
12244WAT      O50780   6.753   3.570   3.856 -0.0987 -0.6999 -0.6128
12244WAT     H150781   6.748   3.664   3.869 -1.2971 -0.7313 -0.6634
12244WAT     H250782   6.846   3.550   3.855  0.2314  0.7050 -2.2242
12244WAT    EPW50783   6.764   3.579   3.858 -0.2134 -0.5187 -0.8320
12245WAT      O50784   8.052   2.041   1.387 -0.1792 -0.6489 -0.0746
12245WAT     H150785   8.116   2.067   1.321  3.6433 -2.2829  2.5755
12245WAT     H250786   7.975   2.094   1.368  1.2193  0.1716 -4.6878
12245WAT    EPW50787   8.051   2.052   1.376  0.5093 -0.7563 -0.3335
12246WAT      O50788   8.600   5.449   6.975 -0.0258  0.0189  0.1986
12246WAT     H150789   8.532   5.494   6.924  1.1534  0.0117 -1.4813
12246WAT     H250790   8.552   5.405   7.045 -1.9309 -1.0401 -1.6402
12246WAT    EPW50791   8.585   5.449   6.977 -0.1216 -0.1216 -0.2654
12247WAT      O50792   6.072   9.886   3.499  0.1880  0.3725  0.1980
12247WAT     H150793   6.021   9.818   3.543  1.1178  0.6458  1.7854
12247WAT     H250794   6.163   9.860   3.514  0.6656 -0.7681 -3.5788
12247WAT    EPW50795   6.077   9.874   3.507  0.3736  0.2580 -0.0908
12248WAT      O50796  10.841   3.663   2.078  0.8471 -0.2144 -0.2716
12248WAT     H150797  10.847   3.743   2.026  2.4543  1.0785  1.7739
12248WAT     H250798  10.803   3.599   2.018  0.6133  1.7406 -2.3455
12248WAT    EPW50799  10.837   3.665   2.063  1.0281  0.2139 -0.2753
12249WAT      O50800   9.761   1.255   2.321 -0.1314  0.0082 -0.3562
12249WAT     H150801   9.726   1.341   2.298 -0.3179  0.5946  1.8270
12249WAT     H250802   9.784   1.215   2.238  0.8973  2.5805 -1.4164
12249WAT    EPW50803   9.760   1.261   2.307 -0.0210  0.4249 -0.2080
12250WAT      O50804   8.448   3.617   3.564  0.5243 -0.5949 -0.2223
12250WAT     H150805   8.475   3.582   3.479 -1.1059 -0.5209 -0.8166
12250WAT     H250806   8.480   3.707   3.564  0.2439 -0.4893 -0.9165
12250WAT    EPW50807   8.456   3.624   3.552  0.2728 -0.5711 -0.3923
12251WAT      O50808   0.985   2.759   5.029  0.3504  0.0609 -0.5544
12251WAT     H150809   0.927   2.789   5.099  2.1993 -1.8561  1.9858
12251WAT     H250810   0.940   2.784   4.948 -4.1229 -1.4734  1.1682
12251WAT    EPW50811   0.971   2.766   5.027  0.0042 -0.3943  0.0079
12252WAT      O50812   5.080  10.119   0.905 -0.5258 -0.2772  0.2455
12252WAT     H150813   5.111  10.190   0.962 -2.0097  0.4533  0.1761
12252WAT     H250814   5.086  10.155   0.817 -2.0792  0.1039  0.2724
12252WAT    EPW50815   5.085  10.133   0.901 -0.9263 -0.1302  0.2399
12253WAT      O50816   8.385   2.333   4.551 -0.4752  0.1108 -0.5420
12253WAT     H150817   8.348   2.291   4.629 -1.8655 -0.8438 -1.6682
12253WAT     H250818   8.477   2.346   4.573 -0.8797  0.0712  1.3357
12253WAT    EPW50819   8.392   2.329   4.564 -0.7119 -0.0204 -0.4427
12254WAT      O50820   2.397   2.495   4.109 -0.0860 -0.3413  0.1471
12254WAT     H150821   2.374   2.413   4.066  0.0974 -0.7978  0.9002
12254WAT     H250822   2.484   2.516   4.075  0.8114 -1.6003  1.5339
12254WAT    EPW50823   2.406   2.487   4.099  0.0565 -0.5676  0.4296
12255WAT      O50824   9.148   4.107   1.450  0.7460  0.2242  0.1886
12255WAT     H150825   9.137   4.202   1.457 -0.4701  0.0443  0.9839
12255WAT     H250826   9.129   4.087   1.358  4.2595  1.0971 -0.8729
12255WAT    EPW50827   9.144   4.117   1.438  1.0495  0.3154  0.1535
12256WAT      O50828   9.621  10.036   3.361 -0.0713  0.3059  0.4957
12256WAT     H150829   9.624  10.131   3.347  2.7428  0.3113  0.5829
12256WAT     H250830   9.560  10.005   3.294 -0.6054  2.1073  0.0779
12256WAT    EPW50831   9.613  10.045   3.350  0.2294  0.5441  0.4520
12257WAT      O50832   5.107   9.755   4.836 -1.1594 -0.2641  0.0044
12257WAT     H150833   5.125   9.849   4.827  1.7123 -0.2399  3.5258
12257WAT     H250834   5.027   9.741   4.787 -1.1330  3.8038 -1.5670
12257WAT    EPW50835   5.099   9.766   4.829 -0.7772  0.2761  0.2615
12258WAT      O50836   1.058   5.845   8.414  0.0492  0.4265 -0.0760
12258WAT     H150837   1.125   5.777   8.414  1.0023  1.3167 -0.9657
12258WAT     H250838   1.035   5.857   8.506 -0.9145 -1.7936  0.0280
12258WAT    EPW50839   1.064   5.838   8.426  0.0478  0.2508 -0.1793
12259WAT      O50840   9.753   0.487   1.455 -0.1942 -0.8236 -0.3870
12259WAT     H150841   9.828   0.443   1.495  0.4463 -0.1705 -0.8501
12259WAT     H250842   9.792   0.554   1.399 -1.1298 -0.4126 -0.5562
12259WAT    EPW50843   9.768   0.490   1.453 -0.2332 -0.6832 -0.4704
12260WAT      O50844   2.342   9.551   8.437  0.8159  0.4811 -0.4623
12260WAT     H150845   2.359   9.636   8.479  1.2856  0.6207 -0.9293
12260WAT     H250846   2.377   9.487   8.498  1.1245  0.6634 -0.4461
12260WAT    EPW50847   2.349   9.554   8.451  0.9186  0.5226 -0.5217
12261WAT      O50848   9.945   0.494   5.081  0.3297 -0.2334 -0.0608
12261WAT     H150849   9.974   0.405   5.063 -0.9115 -0.3154 -1.9395
12261WAT     H250850   9.870   0.507   5.024  1.0187  2.3309 -0.5392
12261WAT    EPW50851   9.939   0.484   5.071  0.2570  0.0940 -0.3717
12262WAT      O50852   8.510   2.040   3.408 -0.2984 -0.1613  0.1852
12262WAT     H150853   8.504   1.968   3.471 -1.8114 -0.2919 -0.0646
12262WAT     H250854   8.481   2.001   3.325  1.1686  0.1422 -0.4985
12262WAT    EPW50855   8.506   2.025   3.405 -0.3042 -0.1385  0.0621
12263WAT      O50856  10.763   5.931   6.323  0.5712 -0.0200  0.0406
12263WAT     H150857  10.791   5.841   6.311  0.1478 -0.0354 -0.8458
12263WAT     H250858  10.719   5.931   6.408  0.7528 -0.5949  0.1386
12263WAT    EPW50859  10.761   5.919   6.333  0.5393 -0.0982 -0.0634
12264WAT      O50860   1.822   6.823   8.535  0.4866  0.3212 -0.1133
12264WAT     H150861   1.742   6.849   8.581  0.1309  0.3600 -0.7357
12264WAT     H250862   1.838   6.733   8.563  1.2266  0.8962  1.3752
12264WAT    EPW50863   1.814   6.815   8.545  0.5373  0.4025  0.0010
12265WAT      O50864  10.281   2.832   2.823  0.1469  0.8333 -0.6738
12265WAT     H150865  10.261   2.812   2.732 -0.1446  0.0163 -0.4420
12265WAT     H250866  10.337   2.759   2.852 -1.7302 -0.2294  0.4669
12265WAT    EPW50867  10.286   2.819   2.815 -0.1392  0.5853 -0.4928
12266WAT      O50868   1.013   6.890   6.838 -0.4107 -0.1968  0.3280
12266WAT     H150869   0.927   6.904   6.877 -0.3666  0.7534  0.1033
12266WAT     H250870   0.995   6.858   6.750 -0.5341  0.3485  0.1574
12266WAT    EPW50871   1.000   6.888   6.832 -0.4212  0.0000  0.2756
12267WAT      O50872   2.105   1.854   0.671 -0.0807 -0.0365  0.4112
12267WAT     H150873   2.094   1.773   0.622 -1.9332  1.4457 -1.8651
12267WAT     H250874   2.107   1.923   0.604 -1.3241  2.0024  2.3102
12267WAT    EPW50875   2.104   1.853   0.656 -0.4889  0.4279  0.3615
12268WAT      O50876   9.087   3.379   3.895  0.5880 -0.2239  0.3361
12268WAT     H150877   9.157   3.437   3.925 -0.0149 -0.6523  2.7776
12268WAT     H250878   9.089   3.305   3.957 -2.4743  0.1179  1.0037
12268WAT    EPW50879   9.096   3.377   3.907  0.1049 -0.2353  0.7463
12269WAT      O50880   7.505   4.544   2.067  0.1321 -0.3353  0.6554
12269WAT     H150881   7.438   4.613   2.069 -1.1166 -1.4729  0.0456
12269WAT     H250882   7.587   4.591   2.050 -0.3016  1.2224  2.4785
12269WAT    EPW50883   7.507   4.560   2.065 -0.0896 -0.2799  0.8154
12270WAT      O50884   7.515   3.485   2.648  0.3759 -0.0080  0.0924
12270WAT     H150885   7.539   3.452   2.735 -0.8775 -0.9092  0.1301
12270WAT     H250886   7.538   3.577   2.649  1.3611 -0.2527  1.0060
12270WAT    EPW50887   7.521   3.493   2.659  0.3405 -0.1591  0.2179
12271WAT      O50888   6.528   4.057   4.273  0.3328 -0.4768  0.3269
12271WAT     H150889   6.605   4.039   4.219 -0.4578  1.8090 -1.7962
12271WAT     H250890   6.540   4.149   4.300 -0.7061 -0.7057  1.6445
12271WAT    EPW50891   6.540   4.067   4.270  0.0916 -0.2055  0.2205
12272WAT      O50892   8.741   6.613   7.432 -0.2961 -0.2925 -0.0270
12272WAT     H150893   8.683   6.636   7.504  0.1529  1.3446 -0.1477
12272WAT     H250894   8.821   6.583   7.474  0.1401  1.1126  0.1983
12272WAT    EPW50895   8.744   6.612   7.447 -0.1788  0.1090 -0.0136
12273WAT      O50896  10.302   6.288   0.468 -0.4870 -0.4536  0.1166
12273WAT     H150897  10.375   6.243   0.425  0.9145 -0.1541  2.0354
12273WAT     H250898  10.317   6.274   0.562 -2.3415  0.4849  0.6036
12273WAT    EPW50899  10.314   6.280   0.475 -0.5469 -0.2906  0.4339
12274WAT      O50900   8.483   2.467   2.289 -0.2980 -0.4360  0.0020
12274WAT     H150901   8.533   2.535   2.245  1.5774 -3.3808 -2.8368
12274WAT     H250902   8.539   2.439   2.362 -0.6698  0.3665  0.6145
12274WAT    EPW50903   8.497   2.472   2.293 -0.1001 -0.7187 -0.2917
12275WAT      O50904   9.515   3.921   3.658 -0.0867 -0.6195  0.2971
12275WAT     H150905   9.508   3.964   3.743 -4.1624 -0.0434 -0.0908
12275WAT     H250906   9.548   3.989   3.600  0.8164 -0.4148  1.0255
12275WAT    EPW50907   9.518   3.936   3.662 -0.5050 -0.5165  0.3420
12276WAT      O50908   9.477   0.688   4.169  0.1464  0.2201 -0.3204
12276WAT     H150909   9.444   0.719   4.085  1.1078  0.2511 -0.6992
12276WAT     H250910   9.424   0.734   4.234 -0.8364 -0.0588 -0.9053
12276WAT    EPW50911   9.466   0.698   4.167  0.1440  0.1874 -0.4473
12277WAT      O50912   0.819   4.567   1.255 -0.0315 -0.0890  0.8768
12277WAT     H150913   0.860   4.633   1.312  1.2080 -0.9925  1.0814
12277WAT     H250914   0.759   4.520   1.312  0.4074 -0.2894  1.1810
12277WAT    EPW50915   0.817   4.570   1.270  0.1899 -0.2346  0.9439
12278WAT      O50916   1.815   2.687   1.565 -0.5603  0.3174 -0.0898
12278WAT     H150917   1.911   2.692   1.560 -0.5017  0.3386  0.8446
12278WAT     H250918   1.797   2.671   1.657 -1.3779 -2.1873 -0.6045
12278WAT    EPW50919   1.825   2.686   1.576 -0.6604 -0.0101 -0.0344
12279WAT      O50920   6.762   4.146   4.916  0.4650  0.9830  0.4439
12279WAT     H150921   6.742   4.214   4.852  0.7369  0.2833 -0.4253
12279WAT     H250922   6.838   4.101   4.879 -1.5869 -1.8490 -0.7289
12279WAT    EPW50923   6.770   4.149   4.903  0.2301  0.5171  0.1743
12280WAT      O50924   9.861   1.554   5.224 -0.2775 -0.3773  0.0801
12280WAT     H150925   9.923   1.491   5.187 -1.1009 -1.8154  1.0367
12280WAT     H250926   9.775   1.513   5.210 -0.8587  0.6747  0.4730
12280WAT    EPW50927   9.858   1.540   5.217 -0.4630 -0.4283  0.2584
12281WAT      O50928   0.572   3.132   4.396 -0.1809  0.4099 -0.0636
12281WAT     H150929   0.560   3.038   4.386 -0.8060  0.3316  1.2209
12281WAT     H250930   0.493   3.171   4.360  0.5217  0.5256 -1.5463
12281WAT    EPW50931   0.560   3.125   4.390 -0.1707  0.4148 -0.0899
12282WAT      O50932   0.373   2.793   3.469 -0.2630  1.0077 -0.0710
12282WAT     H150933   0.459   2.790   3.427 -0.1122 -0.6134  0.2836
12282WAT     H250934   0.323   2.724   3.425 -0.6204  0.3697  1.2805
12282WAT    EPW50935   0.378   2.784   3.458 -0.2902  0.7098  0.1540
12283WAT      O50936   9.389   0.190   2.670  0.0249  0.1459 -0.5897
12283WAT     H150937   9.412   0.231   2.753 -0.7659  1.3221 -0.9221
12283WAT     H250938   9.299   0.159   2.683 -0.3381  0.9019 -1.1796
12283WAT    EPW50939   9.380   0.192   2.683 -0.1278  0.4007 -0.7114
12284WAT      O50940   1.626   5.023   1.197 -0.3818 -0.4577  0.3397
12284WAT     H150941   1.639   4.943   1.248 -0.3321 -1.9484 -1.8748
12284WAT     H250942   1.613   4.993   1.107 -2.0052  1.9402 -0.3383
12284WAT    EPW50943   1.626   5.009   1.192 -0.5894 -0.3381 -0.0418
12285WAT      O50944   7.837   1.513   4.101 -0.4920 -0.0579 -0.0382
12285WAT     H150945   7.751   1.552   4.115 -1.2624 -1.9282  0.7683
12285WAT     H250946   7.824   1.454   4.027 -0.7526 -2.5320  1.8400
12285WAT    EPW50947   7.824   1.511   4.093 -0.6280 -0.6309  0.3159
12286WAT      O50948   8.876   4.313   2.753 -0.2195 -0.2151  0.5996
12286WAT     H150949   8.876   4.402   2.718  1.9310 -0.6367 -0.7139
12286WAT     H250950   8.788   4.299   2.787 -0.8334  2.1155  0.0897
12286WAT    EPW50951   8.865   4.323   2.753 -0.0172  0.0365  0.3592
12287WAT      O50952   7.536   5.428   0.455  0.0087 -0.3208  0.4626
12287WAT     H150953   7.450   5.459   0.427  1.1466  0.9631 -1.8953
12287WAT     H250954   7.540   5.338   0.425 -0.8376 -0.7249  1.4747
12287WAT    EPW50955   7.525   5.420   0.448  0.0472 -0.2048  0.2851
12288WAT      O50956   9.495   2.182   4.572  0.0247 -0.4577 -0.6186
12288WAT     H150957   9.478   2.275   4.554 -2.6848 -0.7565 -0.0207
12288WAT     H250958   9.551   2.183   4.649 -1.1708  0.7417  0.2932
12288WAT    EPW50959   9.500   2.195   4.580 -0.4902 -0.3389 -0.4199
12289WAT      O50960   9.851   2.883   4.477 -0.1643 -0.1491  0.4804
12289WAT     H150961   9.847   2.794   4.513  0.2861  0.3314  1.7903
12289WAT     H250962   9.861   2.939   4.554 -0.7324  1.0701 -0.3011
12289WAT    EPW50963   9.852   2.879   4.492 -0.1793  0.0750  0.5500
12290WAT      O50964   5.604   9.104   1.054  0.5702 -0.3101 -0.0794
12290WAT     H150965   5.655   9.146   1.123  3.2122  1.3165 -2.7913
12290WAT     H250966   5.526   9.159   1.045  1.2671  0.7533  0.1981
12290WAT    EPW50967   5.600   9.117   1.062  1.0104  0.0453 -0.4005
12291WAT      O50968   0.982   6.528   4.663  0.8784 -0.1788 -0.0062
12291WAT     H150969   1.023   6.614   4.658  0.3975  0.0248 -0.6290
12291WAT     H250970   0.897   6.539   4.620  1.2158 -1.2073 -0.9938
12291WAT    EPW50971   0.976   6.540   4.657  0.8594 -0.2878 -0.2189
12292WAT      O50972   7.170   4.277   0.158  0.1119 -0.6783  0.4809
12292WAT     H150973   7.151   4.370   0.151  0.0120 -0.6785  0.7265
12292WAT     H250974   7.085   4.236   0.175  0.1632 -0.8071  0.4284
12292WAT    EPW50975   7.157   4.284   0.159  0.1056 -0.6952  0.5064
12293WAT      O50976  10.643   2.002   1.391 -0.2438  0.3085  0.2461
12293WAT     H150977  10.596   1.931   1.346  1.5713 -0.3517 -0.7196
12293WAT     H250978  10.584   2.077   1.384 -0.9672 -0.3491 -1.3476
12293WAT    EPW50979  10.629   2.002   1.384 -0.0997  0.1347 -0.0915
12294WAT      O50980   4.754   9.798   4.436  0.2398  0.4142 -0.1788
12294WAT     H150981   4.738   9.859   4.364  0.9768  1.4094  0.4807
12294WAT     H250982   4.672   9.750   4.445  0.0387  0.4801 -1.4799
12294WAT    EPW50983   4.741   9.800   4.428  0.3104  0.5546 -0.2635
12295WAT      O50984   2.821   0.255   8.930  0.8898 -0.6739 -0.1274
12295WAT     H150985   2.894   0.204   8.894  1.0100 -1.3950  1.0915
12295WAT     H250986   2.761   0.190   8.965  0.5616 -0.0137  0.5628
12295WAT    EPW50987   2.823   0.240   8.930  0.8622 -0.6819  0.1240
12296WAT      O50988   9.916   0.022   1.478 -0.6180 -0.3583 -0.4201
12296WAT     H150989   9.887   0.020   1.569  1.2652  1.0282  0.2730
12296WAT     H250990  10.000   0.069   1.480 -2.0049  2.6920 -3.2507
12296WAT    EPW50991   9.923   0.028   1.490 -0.5527  0.2270 -0.7020
12297WAT      O50992   9.616   1.036   4.311  0.3238  0.2545 -1.0121
12297WAT     H150993   9.645   1.040   4.402  0.9021  0.8720 -1.2169
12297WAT     H250994   9.534   0.987   4.314 -0.6036  1.7866  0.0846
12297WAT    EPW50995   9.609   1.030   4.323  0.2775  0.5381 -0.8945
12298WAT      O50996   0.357   1.385   4.241  0.0769 -0.4967  0.0927
12298WAT     H150997   0.329   1.325   4.311  0.6862 -0.0880  0.6986
12298WAT     H250998   0.355   1.472   4.282  2.2581 -0.4438  0.1867
12298WAT    EPW50999   0.353   1.389   4.256  0.4449 -0.4359  0.1848
12299WAT      O51000   8.200  10.363   2.274  0.3794 -0.2212 -0.3227
12299WAT     H151001   8.195  10.352   2.179 -0.7891  0.1857 -0.3255
12299WAT     H251002   8.132  10.306   2.308 -1.4663  2.0442  0.0364
12299WAT    EPW51003   8.191  10.354   2.266 -0.0176  0.1316 -0.2756
12300WAT      O51004   3.804   1.500   3.375  0.1214 -0.1333 -0.2320
12300WAT     H151005   3.772   1.410   3.381  1.0758 -0.5160 -0.5941
12300WAT     H251006   3.793   1.524   3.283 -0.4843  0.2678 -0.0622
12300WAT    EPW51007   3.798   1.491   3.364  0.1675 -0.1308 -0.2574
12301WAT      O51008   0.374   0.213   4.008  0.2160 -0.0299  0.2198
12301WAT     H151009   0.407   0.263   4.083 -0.7637 -0.7570  1.1768
12301WAT     H251010   0.294   0.171   4.041 -0.3421 -0.2222 -1.2975
12301WAT    EPW51011   0.368   0.214   4.022  0.0132 -0.1511  0.1462
12302WAT      O51012   9.798   2.734   1.617 -0.1280 -0.3105 -0.4775
12302WAT     H151013   9.731   2.784   1.569  1.5862  1.9174 -0.7255
12302WAT     H251014   9.793   2.646   1.581 -2.3970 -0.0297 -0.9983
12302WAT    EPW51015   9.789   2.729   1.606 -0.2012  0.0203 -0.5789
12303WAT      O51016   7.948   5.857   1.790  0.2365 -0.5210 -0.1520
12303WAT     H151017   7.975   5.883   1.702  1.4123  1.1221  0.6321
12303WAT     H251018   8.022   5.881   1.845 -0.5287 -1.4108  1.3079
12303WAT    EPW51019   7.961   5.864   1.785  0.2906 -0.4218  0.1440
12304WAT      O51020   9.774   2.037   0.246  0.1023 -0.2692 -0.4148
12304WAT     H151021   9.822   2.066   0.323 -1.3721 -1.1944  0.8956
12304WAT     H251022   9.838   1.986   0.196  1.2300  0.7927 -0.1244
12304WAT    EPW51023   9.789   2.034   0.249  0.0567 -0.2511 -0.2037
12305WAT      O51024   7.112   9.471   3.314  0.0684 -0.5382  0.8386
12305WAT     H151025   7.092   9.559   3.282 -0.4752  0.0871  2.7738
12305WAT     H251026   7.084   9.413   3.243 -2.6645  0.6779  0.8150
12305WAT    EPW51027   7.106   9.475   3.300 -0.3638 -0.2952  1.0906
12306WAT      O51028   9.769   2.871   3.401 -0.2281  0.0789  0.4851
12306WAT     H151029   9.738   2.917   3.479  1.5413  0.6169  0.9083
12306WAT     H251030   9.830   2.805   3.435  2.5155  1.9264 -0.5198
12306WAT    EPW51031   9.773   2.868   3.416  0.3672  0.3936  0.4084
12307WAT      O51032   5.227   0.583   8.650 -0.1860 -0.1786  0.1957
12307WAT     H151033   5.182   0.498   8.642  1.2571 -1.0085  0.5621
12307WAT     H251034   5.313   0.561   8.686  0.6773  1.3056 -0.8670
12307WAT    EPW51035   5.232   0.569   8.653  0.1185 -0.0923  0.1035
12308WAT      O51036   1.572   2.883   3.002 -0.2692 -0.0099 -0.0961
12308WAT     H151037   1.667   2.891   2.999 -0.1917 -0.4338  0.8969
12308WAT     H251038   1.552   2.867   3.094 -1.5120  2.7167  0.2035
12308WAT    EPW51039   1.581   2.882   3.014 -0.4228  0.2937  0.0744
12309WAT      O51040   0.402  10.013   8.917  0.0656 -0.1607 -0.2617
12309WAT     H151041   0.331  10.072   8.941  0.5607  0.5213 -0.4569
12309WAT     H251042   0.381   9.985   8.828  0.2375  0.3407 -0.4620
12309WAT    EPW51043   0.390  10.017   8.908  0.1536 -0.0052 -0.3142
12310WAT      O51044   0.174   0.295   5.043  0.8265  0.2362 -0.0968
12310WAT     H151045   0.106   0.356   5.016  0.5771 -0.4320 -1.0221
12310WAT     H251046   0.254   0.348   5.045  0.0694  1.4628  2.7168
12310WAT    EPW51047   0.176   0.310   5.040  0.6938  0.3099  0.1521
12311WAT      O51048   4.025  10.324   5.775  0.5167 -0.9930 -0.7414
12311WAT     H151049   4.017  10.417   5.753 -1.3687 -1.2373 -1.2056
12311WAT     H251050   3.996  10.318   5.866  1.0374 -1.0826 -0.5758
12311WAT    EPW51051   4.020  10.335   5.784  0.3366 -1.0366 -0.7808
12312WAT      O51052  10.777   4.559   2.106 -0.1269  0.5532  0.0065
12312WAT     H151053  10.788   4.595   2.194 -1.6327  2.8839 -0.6869
12312WAT     H251054  10.706   4.495   2.116  1.0115 -0.6636  0.7891
12312WAT    EPW51055  10.769   4.555   2.119 -0.1755  0.7000  0.0182
12313WAT      O51056   9.469   2.124   1.817 -0.3306  0.1539  0.3456
12313WAT     H151057   9.388   2.109   1.768  0.0138 -0.0261 -0.1805
12313WAT     H251058   9.440   2.163   1.899 -0.8923  0.8732 -0.1745
12313WAT    EPW51059   9.455   2.127   1.821 -0.3591  0.2249  0.2076
12314WAT      O51060   0.197   3.342   3.002  0.1373  0.8422 -0.4121
12314WAT     H151061   0.169   3.373   2.915 -0.6903 -1.5283 -1.0702
12314WAT     H251062   0.116   3.317   3.046  0.6610  0.8286  0.5712
12314WAT    EPW51063   0.182   3.343   2.996  0.0972  0.5277 -0.3692
12315WAT      O51064  10.642   2.871   1.004 -0.6279  0.4616 -0.5593
12315WAT     H151065  10.606   2.856   1.091 -0.0249 -2.5700 -0.7113
12315WAT     H251066  10.722   2.922   1.018 -0.6701  0.2140  0.6345
12315WAT    EPW51067  10.648   2.875   1.017 -0.5541  0.0291 -0.4219
12316WAT      O51068   9.965   3.814   2.190 -0.2900 -0.1187 -0.2012
12316WAT     H151069   9.917   3.735   2.212 -1.6037  1.0134  1.2777
12316WAT     H251070   9.919   3.850   2.114 -1.2616  0.4698  0.6361
12316WAT    EPW51071   9.953   3.809   2.183 -0.5913  0.1081  0.1043
12317WAT      O51072  10.634   3.650   1.429 -0.4457  0.4415 -0.1406
12317WAT     H151073  10.730   3.646   1.421  0.0187  2.5896  2.7480
12317WAT     H251074  10.615   3.602   1.509 -1.9252 -0.4654 -0.9903
12317WAT    EPW51075  10.644   3.643   1.438 -0.5803  0.6052  0.1284
12318WAT      O51076   9.721   4.777   0.716  0.2495  0.4030 -0.1195
12318WAT     H151077   9.816   4.764   0.713  0.1141 -0.6263 -0.3828
12318WAT     H251078   9.689   4.735   0.636 -0.4288  0.7715 -0.0458
12318WAT    EPW51079   9.730   4.770   0.705  0.1421  0.3157 -0.1445
12319WAT      O51080   6.355   3.324   3.847 -0.0339 -0.0339  0.7664
12319WAT     H151081   6.315   3.297   3.930 -0.3779  1.8671  1.2718
12319WAT     H251082   6.416   3.254   3.825 -0.1013 -0.6828  2.5132
12319WAT    EPW51083   6.357   3.311   3.855 -0.0880  0.1311  1.0635
12320WAT      O51084   0.248   0.670   5.505  0.5440  0.3674 -0.3533
12320WAT     H151085   0.329   0.662   5.455  0.0669  0.0689 -1.0903
12320WAT     H251086   0.189   0.719   5.448 -0.8239 -2.0279 -1.1583
12320WAT    EPW51087   0.251   0.675   5.491  0.3006  0.0121 -0.5565
12321WAT      O51088  10.990   0.792   2.168 -0.5276  0.2710  0.0130
12321WAT     H151089  11.006   0.699   2.182 -0.5734  0.4176  1.2067
12321WAT     H251090  10.941   0.796   2.086 -1.7434 -0.8857  0.6341
12321WAT    EPW51091  10.985   0.780   2.159 -0.6940  0.1377  0.2524
12322WAT      O51092   8.341   3.859   0.361  0.3330 -0.2013  0.0681
12322WAT     H151093   8.265   3.802   0.368  0.3423 -0.7448 -2.9774
12322WAT     H251094   8.416   3.799   0.360  0.4781 -0.0143 -1.1867
12322WAT    EPW51095   8.341   3.844   0.362  0.3529 -0.2482 -0.4991
12323WAT      O51096   2.751   1.583   3.474  0.3400  0.2691  0.0040
12323WAT     H151097   2.732   1.676   3.483 -1.5471  0.2253 -2.3883
12323WAT     H251098   2.681   1.540   3.524 -0.3086  0.1618 -0.9673
12323WAT    EPW51099   2.739   1.590   3.482  0.0055  0.2492 -0.4396
12324WAT      O51100  10.086   4.104   2.055  0.9236  0.4063  0.1233
12324WAT     H151101  10.109   4.016   2.026  0.7081  0.1561  0.7042
12324WAT     H251102  10.018   4.132   1.994 -0.9071 -0.8581  1.4999
12324WAT    EPW51103  10.080   4.096   2.043  0.6537  0.2069  0.3816
12325WAT      O51104  10.225   1.944   1.052 -0.2691  0.1343  0.2822
12325WAT     H151105  10.137   1.931   1.088  0.1054  0.2433  1.2477
12325WAT     H251106  10.259   2.020   1.099  1.5845 -1.8277  2.3375
12325WAT    EPW51107  10.218   1.952   1.063  0.0248 -0.1101  0.6807
12326WAT      O51108   9.226   4.780   3.971 -0.0026 -0.5333  0.3008
12326WAT     H151109   9.261   4.868   3.960 -0.9256 -0.1970 -0.0312
12326WAT     H251110   9.143   4.792   4.016 -0.6497 -1.1223 -0.6849
12326WAT    EPW51111   9.220   4.793   3.975 -0.2093 -0.5667  0.1268
12327WAT      O51112   0.633   1.719   0.906 -0.7580 -0.0233 -0.0056
12327WAT     H151113   0.634   1.801   0.956  0.4245  0.5167 -0.8454
12327WAT     H251114   0.603   1.745   0.818  2.9236  0.2940 -1.3551
12327WAT    EPW51115   0.629   1.733   0.901 -0.1164  0.0898 -0.2943
12328WAT      O51116  10.897   3.822   1.371 -0.4135  0.1124 -0.5401
12328WAT     H151117  10.831   3.870   1.322 -1.6130 -0.9531 -0.0204
12328WAT     H251118  10.902   3.868   1.455 -1.2315 -0.4028 -0.2077
12328WAT    EPW51119  10.889   3.835   1.376 -0.6795 -0.0961 -0.4277
12329WAT      O51120   7.265   3.099   8.309 -0.4886  0.1746  0.3632
12329WAT     H151121   7.320   3.038   8.261 -2.3724 -0.8207 -0.6387
12329WAT     H251122   7.293   3.090   8.400  2.1821  1.0551 -0.2721
12329WAT    EPW51123   7.276   3.090   8.315 -0.3850  0.1595  0.1469
12330WAT      O51124   9.082   3.193   3.093 -0.0038  0.0516 -0.2501
12330WAT     H151125   9.034   3.275   3.082 -0.9751 -0.6394 -1.2746
12330WAT     H251126   9.016   3.130   3.122  0.2244 -0.9413 -1.7771
12330WAT    EPW51127   9.067   3.195   3.096 -0.1016 -0.1706 -0.5865
12331WAT      O51128  10.992   5.373   1.188 -0.3955  0.0141 -0.4626
12331WAT     H151129  10.915   5.328   1.223 -0.4599  1.3826  1.3009
12331WAT     H251130  10.958   5.427   1.117 -1.4856  2.0545  1.4974
12331WAT    EPW51131  10.978   5.374   1.184 -0.5474  0.4637  0.0286
12332WAT      O51132   8.947   3.430   3.063  1.0968  0.0099  0.1966
12332WAT     H151133   8.905   3.506   3.022  0.3107  0.9375  2.5527
12332WAT     H251134   8.875   3.381   3.103  1.7407 -1.3007 -0.1745
12332WAT    EPW51135   8.932   3.434   3.063  1.0781 -0.0405  0.4584
12333WAT      O51136  10.767   7.775   2.182 -0.3853 -0.5410 -0.4497
12333WAT     H151137  10.833   7.844   2.192 -1.0626  0.2607 -1.2668
12333WAT     H251138  10.815   7.701   2.143 -0.0381  0.1831 -1.4447
12333WAT    EPW51139  10.782   7.774   2.178 -0.4287 -0.3393 -0.6888
12334WAT      O51140  10.568   7.376   8.183 -0.0896 -0.3060 -0.4845
12334WAT     H151141  10.476   7.385   8.156  0.1569  0.9329 -0.9932
12334WAT     H251142  10.600   7.301   8.134 -0.7717 -0.6109 -0.4802
12334WAT    EPW51143  10.560   7.367   8.173 -0.1473 -0.1829 -0.5507
12335WAT      O51144   5.259   1.228   2.089  0.2287 -0.6326 -0.7156
12335WAT     H151145   5.280   1.135   2.092  2.1779 -0.3168 -2.4448
12335WAT     H251146   5.338   1.272   2.123 -0.2917  0.4265 -0.8136
12335WAT    EPW51147   5.273   1.222   2.094  0.4172 -0.4513 -0.9568
12336WAT      O51148   3.900   8.280   8.306  0.1304  0.4000  0.1102
12336WAT     H151149   3.903   8.332   8.386 -0.7892 -2.4398  2.1762
12336WAT     H251150   3.806   8.261   8.294  0.4285 -0.7453 -0.5447
12336WAT    EPW51151   3.888   8.284   8.315  0.0484 -0.1259  0.2961
12337WAT      O51152   2.163   3.959   2.581 -0.1741  0.0994  0.4381
12337WAT     H151153   2.073   3.941   2.553  0.3247 -0.8485 -0.5872
12337WAT     H251154   2.209   3.876   2.571  0.4349  0.1202  2.5764
12337WAT    EPW51155   2.157   3.946   2.576 -0.0279 -0.0229  0.5848
12338WAT      O51156  10.005   2.823   3.685  0.4630  0.7047  0.4697
12338WAT     H151157   9.916   2.822   3.719 -0.0609  1.1562 -0.8247
12338WAT     H251158  10.061   2.811   3.762 -0.7034  0.5411  1.3069
12338WAT    EPW51159  10.001   2.821   3.700  0.2398  0.7427  0.4095
12339WAT      O51160   0.942   0.360   3.728 -0.4879 -0.1500 -0.5975
12339WAT     H151161   1.000   0.315   3.666 -1.5833  1.6052 -3.0881
12339WAT     H251162   0.853   0.337   3.699 -1.0310  0.9675  0.1077
12339WAT    EPW51163   0.938   0.351   3.716 -0.7040  0.2290 -0.8329
12340WAT      O51164   0.442   4.711   3.533 -0.0735 -0.1058 -0.3364
12340WAT     H151165   0.395   4.781   3.576 -0.6101 -0.4432 -0.3653
12340WAT     H251166   0.478   4.659   3.605  0.9265  0.5870 -0.3165
12340WAT    EPW51167   0.441   4.713   3.548 -0.0124 -0.0589 -0.3376
12341WAT      O51168   7.979   0.288   1.491 -0.1304 -0.2256  0.0278
12341WAT     H151169   8.056   0.245   1.452  2.4202  0.8140  3.4948
12341WAT     H251170   7.954   0.231   1.563 -0.4760  1.1300  1.0045
12341WAT    EPW51171   7.986   0.275   1.495  0.1605  0.0903  0.6139
12342WAT      O51172   3.874   0.972   1.264  0.5151  1.1638 -0.5033
12342WAT     H151173   3.905   0.979   1.174 -1.1503 -1.1229 -1.3311
12342WAT     H251174   3.833   1.057   1.282  4.6769  3.3754 -0.1946
12342WAT    EPW51175   3.873   0.984   1.255  0.8445  1.1539 -0.5718
12343WAT      O51176   0.015   0.196   1.927 -0.3314 -0.4564  0.3361
12343WAT     H151177  -0.052   0.160   1.868 -1.7511  2.0304  0.3043
12343WAT     H251178   0.012   0.290   1.913  3.3487 -0.1956  0.2453
12343WAT    EPW51179   0.006   0.204   1.918 -0.0333 -0.0940  0.3199
12344WAT      O51180   0.228   1.864   2.400 -0.0825 -0.8146 -0.2704
12344WAT     H151181   0.190   1.806   2.333  0.5156 -2.4577  0.7459
12344WAT     H251182   0.296   1.811   2.441  0.9998  0.8935  0.2437
12344WAT    EPW51183   0.232   1.849   2.397  0.1391 -0.8060 -0.0685
12345WAT      O51184   0.464   1.169   4.115 -0.4234 -0.7231  0.3500
12345WAT     H151185   0.430   1.243   4.166 -2.2633 -1.9437  0.9919
12345WAT     H251186   0.386   1.130   4.075  0.4746 -2.4059  0.1659
12345WAT    EPW51187   0.449   1.174   4.117 -0.5477 -1.1061  0.4106
12346WAT      O51188   3.678   4.676   8.597 -0.4114  0.7924 -0.2109
12346WAT     H151189   3.709   4.587   8.615 -1.4792  0.1673 -1.3282
12346WAT     H251190   3.661   4.713   8.684 -1.2352 -0.5713  0.2485
12346WAT    EPW51191   3.680   4.669   8.611 -0.6608  0.5302 -0.2980
12347WAT      O51192   0.719   1.020   1.071 -0.0364  0.2866  0.1054
12347WAT     H151193   0.761   1.092   1.023  1.5561 -0.6040  0.0877
12347WAT     H251194   0.626   1.042   1.070  0.2974  1.8387 -0.7489
12347WAT    EPW51195   0.713   1.033   1.064  0.2176  0.3738 -0.0097
12348WAT      O51196   1.473   3.839   3.672 -0.2426  0.3893 -0.4061
12348WAT     H151197   1.419   3.762   3.690  0.7624 -0.1386  0.4206
12348WAT     H251198   1.539   3.809   3.610  0.2704  0.5422  0.0639
12348WAT    EPW51199   1.474   3.825   3.666 -0.0424  0.3399 -0.2351
12349WAT      O51200   1.284   8.496   7.955  0.2341 -0.2674  0.6438
12349WAT     H151201   1.263   8.539   7.873  3.4596  0.0227 -0.1684
12349WAT     H251202   1.222   8.424   7.961  1.0836 -1.5561 -3.1400
12349WAT    EPW51203   1.273   8.492   7.945  0.7716 -0.3986  0.0374
12350WAT      O51204   5.646   9.771   3.296 -0.5171  0.1221 -0.3397
12350WAT     H151205   5.623   9.863   3.281  2.3366  0.6881 -1.7087
12350WAT     H251206   5.738   9.772   3.320 -0.1768 -2.4607 -1.1994
12350WAT    EPW51207   5.655   9.783   3.297 -0.0956 -0.1440 -0.6336
12351WAT      O51208   8.714   4.110   3.790 -0.4091  0.1350 -0.0647
12351WAT     H151209   8.709   4.018   3.764 -2.7912 -0.0973  0.9638
12351WAT     H251210   8.625   4.143   3.777 -0.2422  1.5845  2.0736
12351WAT    EPW51211   8.702   4.103   3.785 -0.7014  0.2954  0.3530
12352WAT      O51212  10.864   1.289   6.290  0.0120  0.0767  0.0772
12352WAT     H151213  10.931   1.314   6.227  0.2838 -1.0448 -0.1112
12352WAT     H251214  10.893   1.204   6.323 -0.3373  0.4589  1.4275
12352WAT    EPW51215  10.877   1.281   6.286  0.0019 -0.0208  0.2303
12353WAT      O51216  10.197  10.301   4.175 -0.3953  0.1392 -0.2207
12353WAT     H151217  10.166  10.220   4.133  2.4426  0.2471 -2.8155
12353WAT     H251218  10.241  10.271   4.255 -2.1946 -0.4631  0.6222
12353WAT    EPW51219  10.198  10.286   4.180 -0.2584  0.0734 -0.4518
12354WAT      O51220   0.879   0.190   5.810 -0.6921 -0.5121 -0.3609
12354WAT     H151221   0.824   0.114   5.827 -0.6282 -0.1454  1.9092
12354WAT     H251222   0.826   0.265   5.837  0.4854 -0.0763  0.8839
12354WAT    EPW51223   0.865   0.190   5.816 -0.5284 -0.4063  0.1028
12355WAT      O51224  10.434   3.779   5.036 -0.3263 -0.3141  0.0294
12355WAT     H151225  10.527   3.764   5.017 -0.4317 -0.0866 -0.7014
12355WAT     H251226  10.425   3.875   5.038 -0.6866 -0.3239 -0.6758
12355WAT    EPW51227  10.445   3.790   5.033 -0.3881 -0.2854 -0.1600
12356WAT      O51228  10.542   5.590   3.161 -0.0029 -0.2451  0.1116
12356WAT     H151229  10.482   5.520   3.185  0.3521 -0.2542  1.0334
12356WAT     H251230  10.559   5.637   3.244  0.3614  0.4507 -0.3419
12356WAT    EPW51231  10.537   5.587   3.175  0.0920 -0.1545  0.1734
12357WAT      O51232   2.937   0.588   3.311 -0.3761  0.3044  0.3478
12357WAT     H151233   2.862   0.644   3.292  0.1373  1.7327  2.1828
12357WAT     H251234   2.958   0.607   3.403  2.7943  0.7245 -0.3390
12357WAT    EPW51235   2.930   0.598   3.321  0.1098  0.5482  0.4991
12358WAT      O51236   7.118   2.342   2.854  0.5701 -1.0609  0.5536
12358WAT     H151237   7.085   2.316   2.941 -1.5398  2.4154  0.9755
12358WAT     H251238   7.056   2.303   2.793 -0.0340 -0.6190  0.8733
12358WAT    EPW51239   7.106   2.333   2.858  0.2120 -0.5441  0.6514
12359WAT      O51240   9.679   6.413   2.329  0.5704  0.6414 -0.0091
12359WAT     H151241   9.685   6.319   2.344  2.0297  0.4586 -1.4863
12359WAT     H251242   9.751   6.450   2.380  0.4153  0.8813  0.0357
12359WAT    EPW51243   9.689   6.405   2.338  0.7429  0.6492 -0.1981
12360WAT      O51244   0.268   2.806   0.666 -0.0378  0.5910 -0.6760
12360WAT     H151245   0.321   2.872   0.710 -0.3093  1.1290 -1.1535
12360WAT     H251246   0.213   2.770   0.736 -0.8755  1.8440 -0.6575
12360WAT    EPW51247   0.268   2.810   0.681 -0.1841  0.8273 -0.7366
12361WAT      O51248   9.630   2.961   6.641  0.2161 -0.1977  0.4036
12361WAT     H151249   9.715   2.924   6.663  1.0820  0.9779 -0.8187
12361WAT     H251250   9.635   3.053   6.668 -0.5194 -0.0213 -0.0236
12361WAT    EPW51251   9.642   2.968   6.647  0.2337 -0.0194  0.1860
12362WAT      O51252  10.186   0.460   3.198 -0.1200 -0.8338  0.6428
12362WAT     H151253  10.212   0.390   3.257  1.0039 -0.0010  1.1576
12362WAT     H251254  10.264   0.480   3.147 -0.4496  0.0110  0.4534
12362WAT    EPW51255  10.200   0.453   3.199 -0.0157 -0.6125  0.6857
12363WAT      O51256  10.031   0.234   5.031  0.2066  0.5113  0.1126
12363WAT     H151257   9.979   0.223   4.951 -0.4498 -1.4756  0.7513
12363WAT     H251258  10.026   0.149   5.075  1.6257  1.1573  1.6433
12363WAT    EPW51259  10.023   0.221   5.026  0.3071  0.3344  0.3984
12364WAT      O51260   1.754   3.430   4.502 -0.2157 -0.0808 -0.1081
12364WAT     H151261   1.778   3.377   4.426 -2.4550  0.0512 -0.9598
12364WAT     H251262   1.664   3.405   4.522 -0.1536  0.9135  1.6538
12364WAT    EPW51263   1.746   3.419   4.495 -0.5028  0.0678  0.0119
12365WAT      O51264   0.982   5.270   2.493  0.1550 -0.3043  0.3166
12365WAT     H151265   0.903   5.218   2.479  0.0219 -0.4994  1.6901
12365WAT     H251266   0.966   5.351   2.445 -0.5584 -0.6404 -0.0323
12365WAT    EPW51267   0.970   5.274   2.485  0.0433 -0.3746  0.4517
12366WAT      O51268   0.257   6.436   1.569  0.0933 -0.7129 -0.4474
12366WAT     H151269   0.236   6.357   1.518  0.2044 -0.7719 -0.4009
12366WAT     H251270   0.330   6.410   1.625  0.0419 -0.6158 -0.3347
12366WAT    EPW51271   0.264   6.422   1.570  0.1012 -0.7081 -0.4264
12367WAT      O51272   9.874   4.207   1.869 -0.3952  0.2216 -0.8736
12367WAT     H151273   9.931   4.195   1.793 -0.6519  0.9624 -1.1927
12367WAT     H251274   9.787   4.182   1.839 -0.6319  1.2004 -1.0560
12367WAT    EPW51275   9.870   4.202   1.855 -0.4601  0.4485 -0.9397
12368WAT      O51276   0.450   2.090   4.818  0.2146 -0.6737  0.5623
12368WAT     H151277   0.517   2.117   4.881 -1.0717  1.2707  1.1971
12368WAT     H251278   0.482   2.007   4.783  2.4226 -0.3321  1.5930
12368WAT    EPW51279   0.463   2.082   4.822  0.3362 -0.3722  0.7823
12369WAT      O51280   8.027   9.023   3.206  0.6945  0.1261  0.2406
12369WAT     H151281   8.013   8.933   3.179 -2.2990  0.6243 -0.1641
12369WAT     H251282   8.014   9.022   3.301  0.3326  0.1914  0.1912
12369WAT    EPW51283   8.024   9.011   3.215  0.2518  0.2003  0.1806
12370WAT      O51284   9.364   2.459   4.060  0.3842 -0.1978 -0.7571
12370WAT     H151285   9.373   2.521   3.988  0.8415 -1.7653 -2.1149
12370WAT     H251286   9.281   2.415   4.043  0.5828 -0.7066 -0.4369
12370WAT    EPW51287   9.354   2.461   4.049  0.4706 -0.4716 -0.8941
12371WAT      O51288   0.933   3.546   0.735  0.3928  0.3852 -0.5176
12371WAT     H151289   0.874   3.495   0.790 -0.1994 -0.5550 -1.9811
12371WAT     H251290   1.012   3.493   0.730  1.2490  1.4288  1.0570
12371WAT    EPW51291   0.935   3.532   0.742  0.4276  0.3990 -0.5029
12372WAT      O51292   0.757   8.443   0.353 -0.0201 -0.2931  0.2134
12372WAT     H151293   0.743   8.431   0.259 -1.0707 -0.3657  0.3625
12372WAT     H251294   0.852   8.450   0.362  0.5633 -4.6922 -0.3747
12372WAT    EPW51295   0.768   8.442   0.342 -0.0817 -0.8831  0.1555
12373WAT      O51296   2.856   8.419   8.609  0.6794 -0.5695 -0.5786
12373WAT     H151297   2.772   8.373   8.606  0.4456 -0.1457 -0.6009
12373WAT     H251298   2.910   8.366   8.668 -0.3207  0.3305  1.2372
12373WAT    EPW51299   2.852   8.406   8.616  0.5165 -0.3953 -0.3419
12374WAT      O51300  10.608   0.990   1.646 -0.0302  0.1998 -0.2098
12374WAT     H151301  10.579   1.012   1.557 -1.3824  1.3021  0.4749
12374WAT     H251302  10.701   1.012   1.647 -0.1600  0.8272 -1.1466
12374WAT    EPW51303  10.616   0.996   1.634 -0.2255  0.4280 -0.2431
12375WAT      O51304  10.477   2.969   5.617  0.2925  0.0314 -0.5695
12375WAT     H151305  10.556   3.023   5.618  0.9313 -0.8749 -0.7572
12375WAT     H251306  10.508   2.882   5.592 -0.5602 -0.6605  0.6772
12375WAT    EPW51307  10.492   2.965   5.614  0.2651 -0.1794 -0.4299
12376WAT      O51308   6.811   9.589   3.043 -0.1853  0.3284 -0.0258
12376WAT     H151309   6.820   9.672   3.090 -0.4077 -0.2761  1.1251
12376WAT     H251310   6.717   9.569   3.050 -0.3495  0.5655 -1.3465
12376WAT    EPW51311   6.800   9.598   3.050 -0.2363  0.2804 -0.0483
12377WAT      O51312   8.837   5.694   0.605 -0.1480 -0.1381 -0.3788
12377WAT     H151313   8.894   5.770   0.613 -2.1476  1.4845 -0.6318
12377WAT     H251314   8.790   5.690   0.688  0.1512 -1.2883 -0.2579
12377WAT    EPW51315   8.838   5.704   0.617 -0.3729 -0.0761 -0.3962
12378WAT      O51316   9.373   2.560   2.285 -0.0402  0.1567 -0.8551
12378WAT     H151317   9.371   2.573   2.379 -2.1308  0.0601 -0.8232
12378WAT     H251318   9.353   2.646   2.248 -3.2786 -0.5070 -0.9942
12378WAT    EPW51319   9.370   2.573   2.292 -0.7429  0.0564 -0.8693
12379WAT      O51320   8.648   2.448   4.301  0.7904  0.2383 -0.3826
12379WAT     H151321   8.654   2.459   4.206  2.3973  1.2375 -0.2112
12379WAT     H251322   8.564   2.488   4.325  0.1055 -0.5283 -1.4269
12379WAT    EPW51323   8.638   2.455   4.291  0.9127  0.2691 -0.4976
12380WAT      O51324   0.828   3.115   7.272  0.1166  0.1529  0.6512
12380WAT     H151325   0.778   3.196   7.263  1.0791  0.7027  0.0276
12380WAT     H251326   0.883   3.129   7.349  0.1529  0.0141  0.6516
12380WAT    EPW51327   0.829   3.127   7.281  0.2484  0.2072  0.5689
12381WAT      O51328   4.411   0.034   7.896  0.4992  0.0172  0.3591
12381WAT     H151329   4.383  -0.058   7.897  2.8792 -0.9172 -2.6380
12381WAT     H251330   4.339   0.080   7.854  0.7162 -1.1858 -1.4575
12381WAT    EPW51331   4.398   0.028   7.891  0.8419 -0.2647 -0.2759
12382WAT      O51332   7.891   4.265   3.189  0.4298  0.5733  0.2663
12382WAT     H151333   7.942   4.342   3.164  0.0737  0.3384 -1.2437
12382WAT     H251334   7.800   4.294   3.185  0.3703  0.7280  2.0526
12382WAT    EPW51335   7.886   4.279   3.185  0.3750  0.5624  0.3028
12383WAT      O51336  10.523   4.167   4.943  0.7266 -0.0921  0.1092
12383WAT     H151337  10.571   4.227   5.000  0.9823 -0.1049 -0.0855
12383WAT     H251338  10.570   4.172   4.859 -0.9687  1.6643 -0.8373
12383WAT    EPW51339  10.536   4.176   4.939  0.5369  0.1378 -0.0412
12384WAT      O51340   7.776   3.779   3.504 -0.0015 -0.0321  1.1751
12384WAT     H151341   7.745   3.697   3.542 -1.3474 -0.2591 -0.2829
12384WAT     H251342   7.698   3.817   3.463  0.8712  1.3414  0.7153
12384WAT    EPW51343   7.761   3.774   3.504 -0.0639  0.1191  0.9221
12385WAT      O51344   9.736   1.148   3.094 -0.6359 -0.0161  0.3210
12385WAT     H151345   9.780   1.098   3.025  0.0549 -1.1695  1.5538
12385WAT     H251346   9.643   1.124   3.086 -0.6304  0.1884 -0.4538
12385WAT    EPW51347   9.729   1.139   3.084 -0.5441 -0.1413  0.3814
12386WAT      O51348   0.452   6.208   3.068 -0.4451 -0.0619 -0.6421
12386WAT     H151349   0.446   6.194   2.973 -0.6041 -0.2774 -0.6026
12386WAT     H251350   0.372   6.254   3.091  0.5835  2.0066 -0.9436
12386WAT    EPW51351   0.441   6.212   3.058 -0.3304  0.1826 -0.6769
12387WAT      O51352   7.099   9.039   6.888 -0.2673  0.3439  0.9023
12387WAT     H151353   7.114   8.949   6.918 -2.3135  0.2192  1.8004
12387WAT     H251354   7.085   9.031   6.794  0.5243 -0.1219  0.8143
12387WAT    EPW51355   7.099   9.026   6.880 -0.4330  0.2666  1.0095
12388WAT      O51356   9.761   1.329   1.764  0.4259  0.7542  0.0699
12388WAT     H151357   9.756   1.312   1.670 -0.2600 -2.4423  0.5925
12388WAT     H251358   9.854   1.320   1.785  0.2415 -1.5392  0.1121
12388WAT    EPW51359   9.773   1.326   1.754  0.3109  0.0301  0.1444
12389WAT      O51360  10.238   0.986   4.267 -0.1855  0.6609 -0.0968
12389WAT     H151361  10.241   0.912   4.206 -0.5818  2.0713 -1.9152
12389WAT     H251362  10.254   0.947   4.353  2.3386 -1.1618 -1.2873
12389WAT    EPW51363  10.240   0.971   4.271  0.0944  0.6066 -0.4938
12390WAT      O51364   0.358   3.952   5.480 -0.3621  0.1669  0.5113
12390WAT     H151365   0.297   3.917   5.545 -1.2799  1.5337  0.4135
12390WAT     H251366   0.328   3.914   5.397  1.1081 -1.9785  0.8593
12390WAT    EPW51367   0.346   3.942   5.477 -0.2893  0.0641  0.5445
12391WAT      O51368  10.757   2.826   0.249  0.5613  0.0175  0.3824
12391WAT     H151369  10.830   2.878   0.215  0.6097 -1.6403 -2.3952
12391WAT     H251370  10.685   2.888   0.259  1.1569  0.9868 -1.0039
12391WAT    EPW51371  10.757   2.841   0.246  0.6461 -0.0733 -0.1668
12392WAT      O51372   8.942   7.038   4.362  0.0753 -0.0572 -0.3219
12392WAT     H151373   8.893   6.995   4.292  0.0766 -0.2756 -0.1887
12392WAT     H251374   8.942   6.975   4.434 -1.4926  0.8859  0.5514
12392WAT    EPW51375   8.936   7.024   4.362 -0.1311  0.0384 -0.1891
12393WAT      O51376  10.639   0.902   3.751 -0.8324 -0.5281  0.0436
12393WAT     H151377  10.682   0.877   3.833  0.8529  1.2060 -0.2621
12393WAT     H251378  10.688   0.857   3.683 -2.1048 -1.8025 -0.0819
12393WAT    EPW51379  10.651   0.893   3.753 -0.7777 -0.4675 -0.0134
12394WAT      O51380   7.900   9.925   3.063  0.3214 -0.6484  0.0901
12394WAT     H151381   7.937   9.849   3.108  0.5944 -1.1770 -0.9895
12394WAT     H251382   7.966   9.948   2.997  0.5195  0.9242  0.8004
12394WAT    EPW51383   7.914   9.918   3.061  0.3836 -0.5107  0.0414
12395WAT      O51384   1.171   2.502   7.136 -0.7765 -0.0666  0.2857
12395WAT     H151385   1.214   2.420   7.113 -2.1170 -0.8097  0.3040
12395WAT     H251386   1.078   2.487   7.117 -1.0688  1.4184  0.3794
12395WAT    EPW51387   1.164   2.489   7.131 -0.9919  0.0314  0.3004
12396WAT      O51388   7.987   3.294   3.409  0.1666 -1.1784 -0.6033
12396WAT     H151389   7.961   3.228   3.473  0.6117  0.0324  0.8786
12396WAT     H251390   7.914   3.355   3.407  1.8850  1.2080  2.1656
12396WAT    EPW51391   7.974   3.293   3.417  0.4518 -0.7041 -0.0427
12397WAT      O51392   8.911   0.494   1.265 -0.2273  0.1310 -0.5822
12397WAT     H151393   8.843   0.462   1.325 -0.4009 -1.1175 -1.4049
12397WAT     H251394   8.865   0.509   1.182  0.3987 -0.2328 -1.0054
12397WAT    EPW51395   8.896   0.492   1.262 -0.1678 -0.0816 -0.7465
12398WAT      O51396  10.130   3.279   5.052 -0.8433 -0.4520 -0.2306
12398WAT     H151397  10.079   3.314   4.979 -1.8940  1.4479  1.3293
12398WAT     H251398  10.188   3.214   5.011 -2.2299 -0.3643 -2.5477
12398WAT    EPW51399  10.131   3.275   5.037 -1.1649 -0.1898 -0.3304
12399WAT      O51400  10.695   2.833   5.364  0.1572 -0.0393  0.2829
12399WAT     H151401  10.651   2.778   5.429 -1.1695 -1.7020 -1.8496
12399WAT     H251402  10.780   2.790   5.350 -0.3440 -0.8254 -0.4344
12399WAT    EPW51403  10.701   2.820   5.371 -0.0839 -0.3624 -0.0930
12400WAT      O51404  10.818   3.803   2.900  0.1901  0.1841  0.2403
12400WAT     H151405  10.891   3.801   2.962  0.4036  0.6564  0.0047
12400WAT     H251406  10.858   3.826   2.817 -0.2468  0.5516  0.1320
12400WAT    EPW51407  10.833   3.806   2.898  0.1607  0.2950  0.1949
12401WAT      O51408   7.657   3.066   5.180 -0.1816 -0.0159  0.3090
12401WAT     H151409   7.732   3.008   5.192  0.3316  0.4179 -0.6538
12401WAT     H251410   7.687   3.131   5.117 -1.3762  0.1462 -0.1256
12401WAT    EPW51411   7.671   3.067   5.173 -0.2716  0.0626  0.1245
12402WAT      O51412   8.824   9.998   4.981  0.8817  0.2577  0.7009
12402WAT     H151413   8.770   9.979   5.058  1.6242 -1.8312  0.7525
12402WAT     H251414   8.914   9.997   5.013  1.1495  0.3355 -0.0257
12402WAT    EPW51415   8.828   9.995   4.995  1.0157 -0.0076  0.6118
12403WAT      O51416   2.024   7.859   8.539  0.1956 -0.9670 -0.0724
12403WAT     H151417   2.041   7.885   8.449 -0.2134  1.4948  0.4876
12403WAT     H251418   2.082   7.785   8.555  1.6298 -0.2545 -1.7808
12403WAT    EPW51419   2.034   7.853   8.530  0.3309 -0.5481 -0.2241
12404WAT      O51420   7.392   9.759   3.723 -0.1951 -0.1770  0.6681
12404WAT     H151421   7.349   9.811   3.655  0.9091  0.8177  0.7062
12404WAT     H251422   7.343   9.779   3.803  0.1994  0.7921  0.6746
12404WAT    EPW51423   7.380   9.768   3.724  0.0024  0.0820  0.6740
12405WAT      O51424  10.037   0.778   3.584 -1.0684  0.6494 -0.3292
12405WAT     H151425   9.962   0.820   3.542  0.0247  2.4780 -0.6081
12405WAT     H251426  10.103   0.848   3.589  1.4163 -1.4063 -2.0888
12405WAT    EPW51427  10.036   0.793   3.579 -0.5970  0.6195 -0.5981
12406WAT      O51428   2.408   0.348   0.048  0.2972  0.6057 -1.0170
12406WAT     H151429   2.344   0.377  -0.016 -1.0728 -2.8710 -1.4105
12406WAT     H251430   2.461   0.283   0.002  0.2365 -0.8984  0.8881
12406WAT    EPW51431   2.407   0.343   0.034  0.1085 -0.0512 -0.8176
12407WAT      O51432   0.579   3.196   5.512 -0.6272 -0.0250  0.7221
12407WAT     H151433   0.537   3.276   5.543 -1.1389  0.8882 -2.0667
12407WAT     H251434   0.507   3.134   5.500 -0.6270  0.1028  0.0415
12407WAT    EPW51435   0.564   3.198   5.515 -0.6946  0.1123  0.2646
12408WAT      O51436   0.725   4.380   1.526  0.1197 -0.3675  0.2408
12408WAT     H151437   0.645   4.430   1.539 -0.2685 -0.5293 -1.2875
12408WAT     H251438   0.793   4.431   1.570  0.1412  2.7815 -3.0032
12408WAT    EPW51439   0.723   4.393   1.533  0.0713  0.0265 -0.3886
12409WAT      O51440   0.792   1.102   2.909 -0.2350 -0.0558 -0.3851
12409WAT     H151441   0.780   1.143   2.823 -2.1157 -0.0510 -0.1583
12409WAT     H251442   0.879   1.130   2.937  0.2629  0.2515 -2.1053
12409WAT    EPW51443   0.802   1.111   2.902 -0.4174 -0.0146 -0.5820
12410WAT      O51444  10.343   4.288   1.943 -0.2656  0.0367  0.2617
12410WAT     H151445  10.384   4.201   1.940  0.1377  0.2374  0.0028
12410WAT     H251446  10.254   4.272   1.911  0.5202  0.1223 -2.1471
12410WAT    EPW51447  10.337   4.274   1.939 -0.1087  0.0746 -0.0902
12411WAT      O51448  10.111   2.742   1.764 -0.0636  0.7167 -0.3440
12411WAT     H151449  10.150   2.815   1.715  0.5217  0.3750 -0.3973
12411WAT     H251450  10.024   2.732   1.726 -0.0333  1.1884 -0.5466
12411WAT    EPW51451  10.105   2.751   1.752  0.0181  0.7339 -0.3777
12412WAT      O51452   2.252   7.261   1.796 -0.3279 -0.4055 -0.0080
12412WAT     H151453   2.198   7.267   1.874  0.2251 -2.2855  0.5779
12412WAT     H251454   2.270   7.167   1.787  0.6604 -0.0933 -1.6735
12412WAT    EPW51455   2.248   7.249   1.805 -0.1246 -0.6123 -0.1504
12413WAT      O51456   7.722   9.156   1.909 -0.0124  0.2829 -0.0468
12413WAT     H151457   7.780   9.143   1.984  1.2926  1.5087 -0.8045
12413WAT     H251458   7.781   9.167   1.834 -1.2625  0.1754 -1.0860
12413WAT    EPW51459   7.737   9.156   1.909 -0.0052  0.4301 -0.2838
12414WAT      O51460   9.031   2.443   3.280 -0.0822  0.7522 -0.2292
12414WAT     H151461   9.124   2.446   3.302 -0.0032  0.6090 -0.5357
12414WAT     H251462   9.001   2.359   3.315  0.2705  0.0619 -1.5164
12414WAT    EPW51463   9.039   2.432   3.287 -0.0253  0.6423 -0.4394
12415WAT      O51464  10.071   5.011   2.229  0.1440 -0.9795 -0.1710
12415WAT     H151465  10.085   5.071   2.156  2.1799 -1.2663 -0.0866
12415WAT     H251466   9.984   5.032   2.261 -0.3651 -0.0992 -1.9877
12415WAT    EPW51467  10.062   5.022   2.224  0.3457 -0.9012 -0.3996
12416WAT      O51468   9.787   2.562   6.857  0.0260  0.3067 -0.3312
12416WAT     H151469   9.730   2.638   6.851 -2.0980 -1.2111 -0.6784
12416WAT     H251470   9.739   2.500   6.912  1.2478 -1.1319 -0.8119
12416WAT    EPW51471   9.773   2.564   6.863 -0.0930 -0.0832 -0.4404
12417WAT      O51472   9.917   2.156   1.697 -0.6737  0.0503 -0.2177
12417WAT     H151473   9.924   2.075   1.748  2.9830 -0.4116 -1.1992
12417WAT     H251474   9.940   2.225   1.760  2.4583 -0.3967 -0.6788
12417WAT    EPW51475   9.921   2.154   1.712  0.2222 -0.0695 -0.4079
12418WAT      O51476   8.291   2.259   7.833 -0.0730  0.4623  0.0776
12418WAT     H151477   8.343   2.264   7.913  0.6739 -0.8920 -0.2941
12418WAT     H251478   8.210   2.215   7.859  1.3612 -2.7586 -0.3839
12418WAT    EPW51479   8.288   2.254   7.847  0.2146 -0.1413 -0.0322
12419WAT      O51480  10.902   3.276   3.460 -0.6973  0.3823 -0.2788
12419WAT     H151481  10.935   3.347   3.515 -0.4028  0.1116 -0.1045
12419WAT     H251482  10.811   3.300   3.441 -0.4135  1.1188 -0.7338
12419WAT    EPW51483  10.894   3.288   3.465 -0.6208  0.4439 -0.3158
12420WAT      O51484   7.839   2.204   6.365 -0.7127 -0.2836  0.3834
12420WAT     H151485   7.826   2.247   6.280 -1.0292 -0.7217  0.2121
12420WAT     H251486   7.881   2.121   6.344 -0.0967 -0.0651  0.7191
12420WAT    EPW51487   7.843   2.199   6.351 -0.6733 -0.3126  0.4051
12421WAT      O51488   9.988   2.606   2.009 -0.0984  0.0509  0.7897
12421WAT     H151489   9.967   2.661   1.933  1.0295  0.1859  0.5560
12421WAT     H251490  10.080   2.625   2.027  0.2081 -1.4730  0.9438
12421WAT    EPW51491   9.997   2.616   2.001  0.0911 -0.1323  0.7792
12422WAT      O51492   8.110   1.691   1.497 -0.4271  0.2750 -0.5792
12422WAT     H151493   8.159   1.626   1.448  0.1120  0.5331 -0.3846
12422WAT     H251494   8.095   1.762   1.434 -1.0897 -0.0621 -0.8164
12422WAT    EPW51495   8.114   1.692   1.482 -0.4435  0.2645 -0.5849
12423WAT      O51496   7.653   3.205   5.452 -0.1755 -0.1346 -0.0777
12423WAT     H151497   7.615   3.171   5.371  1.0408 -1.2976 -0.1963
12423WAT     H251498   7.577   3.216   5.510 -1.0249  0.4343 -1.2530
12423WAT    EPW51499   7.638   3.202   5.449 -0.1271 -0.2129 -0.2482
12424WAT      O51500  10.497   0.953   4.448 -0.5342 -0.0907 -0.1875
12424WAT     H151501  10.545   1.034   4.431  0.0267 -0.3262  0.2259
12424WAT     H251502  10.461   0.964   4.536  0.4571 -0.7125  0.3116
12424WAT    EPW51503  10.499   0.965   4.457 -0.3295 -0.2038 -0.0672
12425WAT      O51504   0.870   8.153   8.814 -0.7879 -0.1090 -0.0085
12425WAT     H151505   0.963   8.130   8.808 -1.3460 -2.0700 -3.0201
12425WAT     H251506   0.853   8.155   8.908  1.8458 -1.6899  0.6195
12425WAT    EPW51507   0.880   8.150   8.826 -0.5141 -0.5765 -0.3228
12426WAT      O51508   6.691   5.610   1.617 -0.3374  0.1933 -0.0647
12426WAT     H151509   6.608   5.641   1.653 -0.3813  1.0456 -0.8411
12426WAT     H251510   6.728   5.555   1.685 -1.1337  0.5103  0.6444
12426WAT    EPW51511   6.685   5.607   1.631 -0.4485  0.3474 -0.0736
12427WAT      O51512   9.453   4.643   4.882  0.7944 -0.2870  0.0177
12427WAT     H151513   9.484   4.553   4.881 -0.8109 -0.8693 -0.3054
12427WAT     H251514   9.450   4.669   4.790 -3.8125 -1.8413 -0.5445
12427WAT    EPW51515   9.457   4.635   4.870 -0.0253 -0.5686 -0.0989
12428WAT      O51516   4.745   9.937   2.860 -0.1302 -0.5442 -0.2192
12428WAT     H151517   4.691   9.962   2.934 -1.7055  0.7415 -1.7295
12428WAT     H251518   4.792  10.017   2.836  1.6304 -1.3452  0.3387
12428WAT    EPW51519   4.744   9.951   2.867 -0.1056 -0.4797 -0.3446
12429WAT      O51520   1.379   2.442   1.329 -0.8315 -0.1439  0.1666
12429WAT     H151521   1.435   2.365   1.332 -2.6366 -1.5008  0.5045
12429WAT     H251522   1.440   2.516   1.330  0.9150 -1.5270  1.2948
12429WAT    EPW51523   1.394   2.442   1.330 -0.8392 -0.5054  0.3600
12430WAT      O51524   8.340   3.666   3.126 -0.0713  0.1265 -0.2589
12430WAT     H151525   8.339   3.617   3.208  1.6190 -1.1957 -0.9781
12430WAT     H251526   8.292   3.747   3.146  1.1941  0.3438  2.3526
12430WAT    EPW51527   8.333   3.670   3.140  0.3185 -0.0193 -0.0092
12431WAT      O51528   9.047   3.700   2.539  0.4540  0.7644 -0.1432
12431WAT     H151529   9.011   3.733   2.456  0.0136  0.9638  0.1273
12431WAT     H251530   8.975   3.650   2.578  0.8740  0.0957 -0.1937
12431WAT    EPW51531   9.033   3.697   2.533  0.4516  0.7023 -0.1142
12432WAT      O51532   8.284  10.323   5.018 -0.9441 -0.3601 -0.2409
12432WAT     H151533   8.359  10.305   4.962 -1.2326 -1.9183 -0.1848
12432WAT     H251534   8.322  10.340   5.104 -0.6410 -1.2797 -0.1802
12432WAT    EPW51535   8.299  10.323   5.022 -0.9422 -0.6869 -0.2253
12433WAT      O51536   7.723   9.083   4.581  0.4470 -0.1781 -0.1672
12433WAT     H151537   7.651   9.032   4.543  0.7823 -0.0486 -1.0147
12433WAT     H251538   7.682   9.163   4.612  0.3823  0.4585 -1.7896
12433WAT    EPW51539   7.708   9.087   4.580  0.4828 -0.0772 -0.4930
12434WAT      O51540   8.080   6.145   0.648  0.1348  0.2292 -0.5397
12434WAT     H151541   7.986   6.132   0.652  0.2595 -0.6771 -0.3525
12434WAT     H251542   8.110   6.085   0.579  0.5336  0.7487 -0.8248
12434WAT    EPW51543   8.072   6.135   0.640  0.2036  0.1781 -0.5527
12435WAT      O51544   0.077   5.522   2.804  0.8528  0.5874  0.9709
12435WAT     H151545  -0.002   5.574   2.819 -0.2735 -0.0674 -1.8948
12435WAT     H251546   0.046   5.431   2.804  1.3920  0.3598 -0.9886
12435WAT    EPW51547   0.062   5.517   2.806  0.7754  0.4709  0.3344
12436WAT      O51548  10.506   5.271   1.374  0.1204  0.1593  0.2443
12436WAT     H151549  10.554   5.343   1.333  1.2702  0.4934  2.0807
12436WAT     H251550  10.561   5.194   1.359 -0.9180 -0.3077 -1.3781
12436WAT    EPW51551  10.520   5.270   1.366  0.1349  0.1419  0.2725
12437WAT      O51552  10.092   4.440   2.644  0.3237 -0.0029  0.7330
12437WAT     H151553  10.032   4.491   2.698 -0.7305  0.2701 -0.6364
12437WAT     H251554  10.073   4.349   2.665 -0.7331  0.0788  0.1676
12437WAT    EPW51555  10.082   4.435   2.654  0.0448  0.0439  0.4777
12438WAT      O51556   8.687   5.811   5.315 -0.6222  0.5806  0.0373
12438WAT     H151557   8.614   5.872   5.327  0.2384  1.4753  0.9578
12438WAT     H251558   8.648   5.736   5.269 -1.4580  2.2743 -2.1724
12438WAT    EPW51559   8.672   5.809   5.311 -0.6194  0.9220 -0.1328
12439WAT      O51560   9.608   5.404   1.041  0.1071  0.3009 -0.5744
12439WAT     H151561   9.552   5.427   1.116  1.2647  0.2604  0.3248
12439WAT     H251562   9.612   5.309   1.042  2.6339  0.3354  1.2784
12439WAT    EPW51563   9.601   5.395   1.051  0.5927  0.3004 -0.2114
12440WAT      O51564  10.151   5.393   1.196 -0.1057  0.0721 -0.7434
12440WAT     H151565  10.165   5.356   1.283  0.7711  0.6940 -0.6116
12440WAT     H251566  10.071   5.350   1.164  0.1134 -0.8861 -0.0360
12440WAT    EPW51567  10.142   5.383   1.203  0.0386  0.0279 -0.6327
12441WAT      O51568   2.964   9.553   5.936  0.6467  0.1081  0.6111
12441WAT     H151569   2.942   9.483   5.997 -1.2445 -0.1718 -0.3239
12441WAT     H251570   2.889   9.612   5.940  0.5473  0.1695 -1.3092
12441WAT    EPW51571   2.951   9.552   5.945  0.3841  0.0796  0.2344
12442WAT      O51572   2.262   6.937   5.809 -0.9427  0.1491 -0.0137
12442WAT     H151573   2.251   6.906   5.899  1.7993 -1.6300 -0.1849
12442WAT     H251574   2.209   6.877   5.756 -0.5874 -0.3670  0.2079
12442WAT    EPW51575   2.253   6.925   5.814 -0.5342 -0.1538 -0.0074
12443WAT      O51576   9.040   9.216   3.651 -0.7804 -0.2800  0.1976
12443WAT     H151577   9.029   9.302   3.691  0.3613  0.0322 -0.1156
12443WAT     H251578   9.135   9.202   3.650 -0.9853 -2.5251  2.2562
12443WAT    EPW51579   9.052   9.225   3.656 -0.6571 -0.5350  0.4278
12444WAT      O51580   0.492   5.263   1.554  0.3291 -0.0822  0.5542
12444WAT     H151581   0.445   5.292   1.476  1.8716  1.5698  0.1764
12444WAT     H251582   0.581   5.246   1.523  0.6292 -0.7074  1.7128
12444WAT    EPW51583   0.497   5.265   1.540  0.5722  0.0534  0.6572
12445WAT      O51584   0.328   3.971   3.149  0.0427 -0.4379 -0.7917
12445WAT     H151585   0.408   3.924   3.129 -0.6432 -1.3778 -1.4099
12445WAT     H251586   0.333   3.989   3.243  0.1942 -2.0225 -0.4687
12445WAT    EPW51587   0.339   3.967   3.159 -0.0278 -0.7708 -0.8305
12446WAT      O51588   9.972   6.868   0.401 -0.0679 -0.3977 -0.4768
12446WAT     H151589  10.017   6.906   0.326 -0.2475  1.7664  0.4375
12446WAT     H251590  10.011   6.781   0.411  0.7886 -0.2704 -2.3271
12446WAT    EPW51591   9.983   6.862   0.393  0.0215 -0.0956 -0.6003
12447WAT      O51592  10.708   2.586   4.600  0.0440  0.2230  0.5616
12447WAT     H151593  10.788   2.627   4.568 -1.0602  1.6479 -0.5411
12447WAT     H251594  10.668   2.652   4.656 -0.7297 -0.1547  0.4742
12447WAT    EPW51595  10.713   2.600   4.603 -0.2036  0.3612  0.4048
12448WAT      O51596   9.290   5.555   6.248  0.7100  0.6203 -0.3930
12448WAT     H151597   9.358   5.574   6.313  1.1016 -0.6103 -0.4138
12448WAT     H251598   9.335   5.501   6.182  0.0149  0.8462 -1.0584
12448WAT    EPW51599   9.305   5.551   6.248  0.6704  0.4878 -0.4838
12449WAT      O51600  10.109   4.879   4.071 -0.1692  0.0241 -0.2357
12449WAT     H151601  10.128   4.907   4.160 -2.7910  0.6229  0.1976
12449WAT     H251602  10.061   4.796   4.081  0.6822 -0.6197 -1.1861
12449WAT    EPW51603  10.105   4.871   4.084 -0.4020  0.0181 -0.3040
12450WAT      O51604   8.146   4.219   1.460  0.0746 -0.1814 -0.2437
12450WAT     H151605   8.221   4.240   1.404  0.7155 -0.4958  0.4650
12450WAT     H251606   8.172   4.252   1.546 -1.0654  0.6620 -0.2080
12450WAT    EPW51607   8.159   4.226   1.464  0.0086 -0.1118 -0.1455
12451WAT      O51608   0.168   4.798   4.096 -0.2436  0.3554 -0.3066
12451WAT     H151609   0.075   4.775   4.093  0.0725 -1.1603  0.3800
12451WAT     H251610   0.175   4.863   4.166 -0.6731 -0.2693  0.3337
12451WAT    EPW51611   0.157   4.804   4.105 -0.2585  0.0732 -0.1316
12452WAT      O51612   9.575   4.019   2.834 -0.3047 -0.1557 -0.1204
12452WAT     H151613   9.616   4.071   2.765 -1.8949 -1.1487 -1.9318
12452WAT     H251614   9.638   3.949   2.852  0.4896  0.5986  0.0674
12452WAT    EPW51615   9.589   4.016   2.827 -0.4101 -0.1869 -0.3345
12453WAT      O51616   7.385   2.344   4.378 -0.3053 -0.1001 -0.0882
12453WAT     H151617   7.467   2.364   4.424 -0.1572 -0.3143 -0.2573
12453WAT     H251618   7.335   2.426   4.383 -0.4075 -0.2081  0.6868
12453WAT    EPW51619   7.390   2.358   4.385 -0.2992 -0.1427 -0.0081
12454WAT      O51620   0.215   1.237   4.444 -0.5045  0.4219 -0.3174
12454WAT     H151621   0.232   1.146   4.469 -0.8982  0.0596 -1.3178
12454WAT     H251622   0.121   1.248   4.456 -0.4005  0.8294  0.1778
12454WAT    EPW51623   0.205   1.226   4.449 -0.5427  0.4279 -0.3841
12455WAT      O51624   7.872   3.874   3.748 -0.2158 -0.2562  0.1576
12455WAT     H151625   7.802   3.884   3.813 -0.9072  0.8848 -0.7267
12455WAT     H251626   7.830   3.829   3.675 -0.3383  1.3910 -0.8200
12455WAT    EPW51627   7.857   3.869   3.747 -0.3231  0.1116 -0.0880
12456WAT      O51628   0.226   4.170   5.655  0.2245  0.8292  0.2458
12456WAT     H151629   0.294   4.149   5.592  0.6115  0.4784  0.7773
12456WAT     H251630   0.164   4.225   5.606  0.5870  0.6720 -0.3953
12456WAT    EPW51631   0.227   4.175   5.640  0.3234  0.7620  0.2315
12457WAT      O51632   0.464   7.168   1.278 -0.2257  0.0027  1.0340
12457WAT     H151633   0.544   7.139   1.232 -1.0287 -0.7940  0.0848
12457WAT     H251634   0.496   7.204   1.361  1.0698 -0.8974  0.9622
12457WAT    EPW51635   0.479   7.169   1.283 -0.1608 -0.2213  0.8994
12458WAT      O51636  10.385   0.524   5.948  0.8024  0.2159  0.6678
12458WAT     H151637  10.385   0.619   5.933 -1.3537  0.6251  2.6899
12458WAT     H251638  10.474   0.504   5.977  1.2821  1.6097  0.2435
12458WAT    EPW51639  10.397   0.534   5.950  0.5813  0.4537  0.8786
12459WAT      O51640   5.410   0.402   8.741 -0.0168  0.3016  0.2568
12459WAT     H151641   5.480   0.357   8.694 -0.1043  0.4149  0.0135
12459WAT     H251642   5.390   0.345   8.815 -2.2448 -1.6618 -1.7041
12459WAT    EPW51643   5.417   0.389   8.745 -0.3223  0.0576 -0.0339
12460WAT      O51644   0.445   3.639   3.929  0.2505  0.4660 -0.9552
12460WAT     H151645   0.430   3.684   4.012  0.1282 -1.1745 -0.0398
12460WAT     H251646   0.434   3.546   3.950  4.3668 -0.4211 -1.7811
12460WAT    EPW51647   0.442   3.632   3.943  0.7773  0.1328 -0.9434
12461WAT      O51648   7.293   2.775   8.254  0.9370 -0.1676  0.0511
12461WAT     H151649   7.293   2.699   8.313 -1.4992  0.2952  0.7541
12461WAT     H251650   7.385   2.785   8.229  1.0911 -5.4894 -2.9400
12461WAT    EPW51651   7.305   2.766   8.259  0.6361 -0.8086 -0.2503
12462WAT      O51652   8.813   4.933   5.304 -0.4914  0.0388  0.2506
12462WAT     H151653   8.771   4.874   5.367  0.8642 -1.0572  0.1728
12462WAT     H251654   8.740   4.974   5.257 -1.4725 -1.6141  0.2762
12462WAT    EPW51655   8.798   4.931   5.306 -0.4420 -0.3240  0.2437
12463WAT      O51656  10.832   5.419   0.704 -0.1216  0.2778 -1.1046
12463WAT     H151657  10.831   5.480   0.631  1.8962  0.1082 -1.3281
12463WAT     H251658  10.882   5.344   0.673  0.9007  0.2558  0.4624
12463WAT    EPW51659  10.838   5.417   0.690  0.2794  0.2525 -0.9274
12464WAT      O51660   0.452   3.478   5.265 -0.1858  0.1385 -0.1685
12464WAT     H151661   0.545   3.479   5.240 -0.6459 -0.0169 -2.0293
12464WAT     H251662   0.433   3.386   5.284 -0.2994 -0.0585 -1.2092
12464WAT    EPW51663   0.462   3.466   5.264 -0.2615  0.0920 -0.5510
12465WAT      O51664   5.862  10.166   8.409  0.2986  0.0850 -0.1984
12465WAT     H151665   5.929  10.100   8.429  1.7021  1.4159 -0.3941
12465WAT     H251666   5.779  10.122   8.429  1.3038 -0.6529  2.8892
12465WAT    EPW51667   5.860  10.151   8.414  0.6166  0.1631  0.1836
12466WAT      O51668   8.121   4.158   5.285 -0.3602 -0.1122  0.5283
12466WAT     H151669   8.079   4.239   5.257 -0.5226  0.2076  1.6568
12466WAT     H251670   8.093   4.093   5.220  1.4677  1.1216 -1.6392
12466WAT    EPW51671   8.111   4.160   5.273 -0.1402  0.0925  0.3912
12467WAT      O51672   2.676  10.060   6.792  0.3203 -0.2135 -0.0379
12467WAT     H151673   2.753  10.105   6.757 -0.1960  0.2263 -0.6260
12467WAT     H251674   2.689  10.062   6.887  1.2966 -0.6280 -0.1526
12467WAT    EPW51675   2.688  10.067   6.800  0.3810 -0.2093 -0.1307
12468WAT      O51676  10.805   4.489   1.219 -0.1565  0.4402  0.5564
12468WAT     H151677  10.727   4.437   1.239  1.1768 -1.9199 -0.0088
12468WAT     H251678  10.774   4.560   1.162 -2.0483  0.2947  1.3553
12468WAT    EPW51679  10.791   4.492   1.214 -0.2303  0.1097  0.5873
12469WAT      O51680   3.752   8.067   8.145 -0.4766  0.1187 -0.4924
12469WAT     H151681   3.712   7.981   8.159 -2.9571  0.8133 -2.5622
12469WAT     H251682   3.840   8.048   8.114 -0.8330 -1.6527 -0.5175
12469WAT    EPW51683   3.758   8.054   8.143 -0.8509 -0.0234 -0.7687
12470WAT      O51684   9.847   5.640   2.999  0.4720 -0.6350  0.6356
12470WAT     H151685   9.807   5.671   2.918  1.0180 -0.5674  0.3877
12470WAT     H251686   9.780   5.657   3.066 -0.4988 -1.8801  0.0262
12470WAT    EPW51687   9.833   5.646   2.997  0.4153 -0.7904  0.5225
12471WAT      O51688  10.070  10.311   3.434  0.7153 -0.6889  0.0451
12471WAT     H151689  10.087  10.373   3.505  1.3388 -2.0114  1.0944
12471WAT     H251690  10.145  10.252   3.435  0.5014 -1.0325 -1.4271
12471WAT    EPW51691  10.082  10.312   3.444  0.7693 -0.9086 -0.0107
12472WAT      O51692   9.887   1.327   0.437  0.5476 -0.2967 -0.5825
12472WAT     H151693   9.905   1.420   0.426  0.3778 -0.3623 -1.4602
12472WAT     H251694   9.933   1.303   0.518  0.7732  0.4959 -0.4700
12472WAT    EPW51695   9.895   1.336   0.446  0.5550 -0.2009 -0.6834
12473WAT      O51696  10.707   6.171   0.756  1.3014  0.3409 -0.4742
12473WAT     H151697  10.800   6.150   0.759  1.2738  0.1139 -1.1578
12473WAT     H251698  10.677   6.141   0.670  0.8334  1.3909 -0.7038
12473WAT    EPW51699  10.715   6.164   0.745  1.2364  0.4497 -0.5947
12474WAT      O51700   1.524   2.496   3.097  0.1385 -0.1033 -0.4058
12474WAT     H151701   1.467   2.496   3.021  0.1835 -0.1781 -0.4393
12474WAT     H251702   1.504   2.579   3.142 -0.3273 -0.3413 -0.1664
12474WAT    EPW51703   1.514   2.507   3.093  0.0830 -0.1446 -0.3786
12475WAT      O51704   9.595   1.007   2.727  0.0594  0.4995 -0.2890
12475WAT     H151705   9.650   0.972   2.657  0.7022 -2.1317  1.4159
12475WAT     H251706   9.613   1.101   2.726  1.8818  0.2038 -2.0702
12475WAT    EPW51707   9.605   1.015   2.717  0.3848  0.1134 -0.2991
12476WAT      O51708   9.998   4.088   5.120 -0.1997  0.0851  0.3003
12476WAT     H151709   9.987   4.022   5.188  2.8635 -1.8808 -0.8852
12476WAT     H251710   9.969   4.045   5.040 -0.3112  1.0209 -0.1792
12476WAT    EPW51711   9.993   4.074   5.119  0.1898 -0.0508  0.0808
12477WAT      O51712   9.581   4.363   3.881 -0.1700  0.0913  0.4081
12477WAT     H151713   9.501   4.413   3.895 -0.7706 -1.4419  3.3191
12477WAT     H251714   9.551   4.274   3.862  0.8378 -0.2527  0.3329
12477WAT    EPW51715   9.567   4.358   3.881 -0.1163 -0.1562  0.7821
12478WAT      O51716   1.192   6.251   0.840 -0.2298  0.1149  0.3660
12478WAT     H151717   1.227   6.340   0.836 -1.2077  0.4721 -2.4163
12478WAT     H251718   1.102   6.262   0.871 -1.2361  0.4990 -2.4584
12478WAT    EPW51719   1.184   6.264   0.844 -0.4916  0.2127 -0.3736
12479WAT      O51720   0.367   2.821   2.851 -0.0290  0.3526 -0.3822
12479WAT     H151721   0.444   2.857   2.807 -0.9562  1.6937 -0.9810
12479WAT     H251722   0.302   2.811   2.781 -1.7503  3.0984  0.6231
12479WAT    EPW51723   0.368   2.825   2.836 -0.3784  0.8916 -0.3287
12480WAT      O51724   0.149   5.352   2.200 -0.4767  0.4829  0.5027
12480WAT     H151725   0.220   5.329   2.141  0.2586  1.0509  1.1482
12480WAT     H251726   0.081   5.390   2.144 -0.6216 -0.7926 -0.2213
12480WAT    EPW51727   0.149   5.354   2.185 -0.3989  0.3898  0.4925
12481WAT      O51728   9.903   6.298   0.742  0.3011 -0.4841  0.3027
12481WAT     H151729   9.988   6.314   0.700 -1.1589  1.5116 -2.1724
12481WAT     H251730   9.870   6.219   0.700 -0.2520  0.3426 -0.8647
12481WAT    EPW51731   9.910   6.289   0.731  0.0358 -0.1118 -0.1777
12482WAT      O51732   9.154   2.509   2.804  0.0062 -0.2358  0.6311
12482WAT     H151733   9.066   2.500   2.838  0.0933 -3.6283  0.3381
12482WAT     H251734   9.180   2.599   2.825 -1.7235 -0.5263  5.0133
12482WAT    EPW51735   9.146   2.520   2.811 -0.2108 -0.7216  1.1704
12483WAT      O51736   9.392   4.364   2.030  0.1071 -0.3405 -0.0494
12483WAT     H151737   9.412   4.271   2.025  0.0232 -0.4655  1.5521
12483WAT     H251738   9.405   4.396   1.940 -1.2635 -2.1440 -0.9384
12483WAT    EPW51739   9.396   4.356   2.018 -0.0844 -0.5949  0.0446
12484WAT      O51740   6.710   4.151   3.278  0.0256  0.3954  0.0654
12484WAT     H151741   6.704   4.234   3.327  1.7326  1.5666 -1.5782
12484WAT     H251742   6.624   4.141   3.238 -0.9025  0.2176  1.9757
12484WAT    EPW51743   6.698   4.161   3.279  0.1280  0.5264  0.1006
12485WAT      O51744   0.453   0.635   3.993 -0.0756 -0.3331  0.6353
12485WAT     H151745   0.398   0.581   4.050 -1.4746  0.4111  0.0199
12485WAT     H251746   0.394   0.701   3.958  0.8188 -0.5608 -1.4380
12485WAT    EPW51747   0.438   0.636   3.996 -0.1422 -0.2649  0.2807
12486WAT      O51748   8.823   3.533   1.145  0.2538  0.9191  0.2046
12486WAT     H151749   8.834   3.607   1.086  0.0478 -1.4165 -3.0271
12486WAT     H251750   8.912   3.508   1.170  0.3327  2.0095  1.1005
12486WAT    EPW51751   8.836   3.539   1.140  0.2370  0.7548 -0.1035
12487WAT      O51752   1.565   3.707   5.983  0.5195  0.2184  0.7692
12487WAT     H151753   1.562   3.702   5.887 -0.4010 -0.3522  0.8162
12487WAT     H251754   1.589   3.619   6.011  2.7737  0.8598  1.0208
12487WAT    EPW51755   1.568   3.695   5.974  0.6953  0.2277  0.8087
12488WAT      O51756  10.198   9.529   6.012 -0.1776  0.5162  0.5742
12488WAT     H151757  10.275   9.491   6.053 -1.1376 -1.1702  0.8838
12488WAT     H251758  10.126   9.512   6.073 -0.9442  1.3759 -0.0519
12488WAT    EPW51759  10.199   9.522   6.025 -0.4058  0.4077  0.5326
12489WAT      O51760   1.974   7.127   1.574 -0.5132  0.7033 -0.2889
12489WAT     H151761   1.996   7.149   1.664 -3.1361  1.6605  0.1948
12489WAT     H251762   1.957   7.211   1.532 -3.4311  0.1166 -0.4653
12489WAT    EPW51763   1.975   7.141   1.580 -1.2441  0.7520 -0.2484
12490WAT      O51764   0.215   2.571   6.614 -0.5299 -0.8987 -0.0734
12490WAT     H151765   0.246   2.544   6.527 -1.9018  1.5328 -1.4045
12490WAT     H251766   0.285   2.627   6.648  0.1581 -2.1196  0.5877
12490WAT    EPW51767   0.229   2.575   6.607 -0.6201 -0.7391 -0.1616
12491WAT      O51768  10.996   2.645   0.488 -0.6929 -0.4312 -0.4972
12491WAT     H151769  11.059   2.603   0.546 -0.7361  0.1019 -0.0618
12491WAT     H251770  10.912   2.636   0.533 -0.5325  1.1690  0.1989
12491WAT    EPW51771  10.993   2.639   0.501 -0.6776 -0.1497 -0.3480
12492WAT      O51772   1.086   7.797   0.820  0.4001 -0.4571 -0.1851
12492WAT     H151773   1.126   7.720   0.780  0.9881 -0.6664  0.7624
12492WAT     H251774   1.090   7.864   0.753 -0.5247 -1.3729 -1.1865
12492WAT    EPW51775   1.092   7.796   0.806  0.3557 -0.6056 -0.1922
12493WAT      O51776   9.936   3.313   2.288  0.6082  0.1773 -0.3694
12493WAT     H151777   9.898   3.244   2.234 -2.2314  1.4284 -0.1043
12493WAT     H251778   9.907   3.292   2.377 -1.4711  2.3459 -0.4530
12493WAT    EPW51779   9.927   3.301   2.293 -0.0405  0.6284 -0.3453
12494WAT      O51780   1.197   3.423   3.594 -0.3251  0.0222  0.6021
12494WAT     H151781   1.131   3.353   3.591  0.4101 -0.7620 -3.2786
12494WAT     H251782   1.149   3.502   3.569  0.0618 -0.6698 -2.9524
12494WAT    EPW51783   1.182   3.424   3.590 -0.1771 -0.1725 -0.3785
12495WAT      O51784   5.072  10.047   8.962  1.3240  1.0282  0.1156
12495WAT     H151785   5.050  10.138   8.942  1.5490  1.2619  0.8985
12495WAT     H251786   5.023  10.028   9.042  1.3896  0.5031  0.0355
12495WAT    EPW51787   5.062  10.056   8.970  1.3623  0.9894  0.2084
12496WAT      O51788   9.968   2.502   6.427 -0.2970 -0.0267 -0.1476
12496WAT     H151789   9.986   2.490   6.334  0.0591  2.4485 -0.4552
12496WAT     H251790  10.053   2.487   6.469 -0.2234 -0.1461 -0.3350
12496WAT    EPW51791   9.982   2.498   6.420 -0.2403  0.2841 -0.2131
12497WAT      O51792   8.743   6.610   3.775  0.2669  0.3086 -0.0005
12497WAT     H151793   8.778   6.611   3.686 -1.4640  0.2510 -0.7118
12497WAT     H251794   8.801   6.550   3.822  1.4920  0.6955 -0.9436
12497WAT    EPW51795   8.755   6.602   3.770  0.2003  0.3519 -0.2189
12498WAT      O51796   9.596   4.549   1.412 -0.3284 -0.0864  0.0324
12498WAT     H151797   9.574   4.642   1.419 -2.2260 -0.4678 -0.3155
12498WAT     H251798   9.629   4.526   1.499 -1.0474  0.6258  0.5128
12498WAT    EPW51799   9.597   4.559   1.424 -0.6738 -0.0427  0.0498
12499WAT      O51800   0.866   4.859   4.298 -0.7391 -0.0569  0.7118
12499WAT     H151801   0.857   4.782   4.355  1.5001 -0.7986  0.1666
12499WAT     H251802   0.777   4.893   4.290 -1.5325 -1.5439  2.4046
12499WAT    EPW51803   0.853   4.853   4.305 -0.5484 -0.3510  0.8631
12500WAT      O51804   1.561   3.153   2.666  0.6170  0.4311 -0.3682
12500WAT     H151805   1.494   3.095   2.700 -2.0918  2.3733 -1.9509
12500WAT     H251806   1.568   3.130   2.573  2.6596 -0.1021 -0.1384
12500WAT    EPW51807   1.553   3.143   2.658  0.5291  0.6169 -0.5467
12501WAT      O51808   1.701   8.677   8.775 -0.4158  0.4297 -0.9389
12501WAT     H151809   1.636   8.745   8.757 -0.5729  1.1553  1.8922
12501WAT     H251810   1.668   8.633   8.853  1.1723 -0.9514 -0.9964
12501WAT    EPW51811   1.688   8.680   8.783 -0.2270  0.3433 -0.5732
12502WAT      O51812  10.791   3.325   1.418  0.0342 -0.7886 -0.3370
12502WAT     H151813  10.805   3.308   1.326  2.4308 -0.4380 -0.0931
12502WAT     H251814  10.841   3.405   1.436  1.3486 -1.9778  1.6760
12502WAT    EPW51815  10.799   3.333   1.409  0.5231 -0.8992 -0.0393
12503WAT      O51816   0.186   3.005   5.591  0.3237 -0.4178  0.4071
12503WAT     H151817   0.138   2.967   5.664 -0.1396 -4.8200 -1.8715
12503WAT     H251818   0.273   2.967   5.597  0.4844 -0.3098 -0.9054
12503WAT    EPW51819   0.191   2.995   5.601  0.2838 -0.9841 -0.0665
12504WAT      O51820   6.608   1.953   3.327 -0.4895 -0.2421  0.5332
12504WAT     H151821   6.675   1.921   3.267  0.4368 -0.6403  1.7451
12504WAT     H251822   6.576   2.034   3.287 -1.1337 -1.3667 -1.3458
12504WAT    EPW51823   6.613   1.960   3.314 -0.4525 -0.4430  0.4452
12505WAT      O51824   9.630   3.628   1.876  0.7800 -0.5192 -0.5110
12505WAT     H151825   9.556   3.645   1.818  0.3315 -2.0785 -0.4572
12505WAT     H251826   9.662   3.714   1.902 -1.5583  0.2114  0.1418
12505WAT    EPW51827   9.625   3.641   1.872  0.4125 -0.6285 -0.4178
12506WAT      O51828   9.183   4.024   3.087  0.5140  0.0164  0.2988
12506WAT     H151829   9.248   4.042   3.155  2.0289  0.4713 -1.1688
12506WAT     H251830   9.235   4.019   3.006 -1.2864  0.2725 -0.9311
12506WAT    EPW51831   9.199   4.026   3.085  0.4764  0.1104 -0.0570
12507WAT      O51832   3.746   4.333   4.242 -0.7189  0.4125  0.6292
12507WAT     H151833   3.837   4.361   4.233  0.0958 -1.2991  2.7582
12507WAT     H251834   3.745   4.246   4.201 -1.4011  0.3995  0.6734
12507WAT    EPW51835   3.758   4.325   4.235 -0.7015  0.1848  0.9158
12508WAT      O51836  10.423   4.768   2.115 -0.0371 -0.0328 -0.1038
12508WAT     H151837  10.435   4.688   2.166 -0.6416  0.1095  0.2847
12508WAT     H251838  10.375   4.740   2.037  0.2767 -0.1431 -0.2563
12508WAT    EPW51839  10.418   4.754   2.112 -0.0753 -0.0286 -0.0727
12509WAT      O51840  10.723   5.102   4.254  0.1993  0.2038 -1.1221
12509WAT     H151841  10.798   5.160   4.243  1.1494 -0.7733 -0.0804
12509WAT     H251842  10.655   5.157   4.292 -0.3592  1.5978 -3.8893
12509WAT    EPW51843  10.724   5.117   4.257  0.2508  0.2589 -1.3499
12510WAT      O51844  10.462   2.908   4.091  0.0829  0.0366 -0.1918
12510WAT     H151845  10.539   2.907   4.148 -0.4312 -0.3271  0.5034
12510WAT     H251846  10.415   2.987   4.115  0.8713  0.9340 -1.4937
12510WAT    EPW51847  10.466   2.918   4.102  0.1192  0.1072 -0.2720
12511WAT      O51848   0.611   3.383   2.723  0.7430  0.5743  0.5639
12511WAT     H151849   0.628   3.295   2.758  1.7966  0.5097 -0.0444
12511WAT     H251850   0.582   3.434   2.798 -3.5698 -1.1503  0.3416
12511WAT    EPW51851   0.610   3.378   2.737  0.3132  0.3383  0.4543
12512WAT      O51852   0.359   1.045   0.118 -0.5156  0.5054  0.3465
12512WAT     H151853   0.441   1.092   0.100 -1.7837  2.1854 -1.5727
12512WAT     H251854   0.380   0.953   0.100  0.8736  0.9323 -0.4062
12512WAT    EPW51855   0.373   1.039   0.113 -0.4996  0.7834 -0.0059
12513WAT      O51856   9.607   6.197   0.162 -0.5653 -0.2529 -1.1623
12513WAT     H151857   9.607   6.292   0.174  0.4060 -0.3420 -0.3845
12513WAT     H251858   9.592   6.185   0.068 -1.5102  0.6370 -1.1485
12513WAT    EPW51859   9.605   6.208   0.151 -0.5612 -0.1473 -1.0579
12514WAT      O51860   8.349   3.196   5.446  0.0937 -0.3555  0.1115
12514WAT     H151861   8.315   3.282   5.469 -0.8166 -0.4342 -0.8782
12514WAT     H251862   8.376   3.205   5.355 -0.9194 -1.3692 -0.3098
12514WAT    EPW51863   8.348   3.208   5.437 -0.1602 -0.4995 -0.0749
12515WAT      O51864   1.457   2.687   6.159 -0.0541  0.2317  0.5572
12515WAT     H151865   1.411   2.684   6.243  0.5686 -0.5559  0.8850
12515WAT     H251866   1.488   2.777   6.153 -3.5823  1.5401 -0.8007
12515WAT    EPW51867   1.455   2.699   6.170 -0.4373  0.3003  0.4215
12516WAT      O51868   9.476   4.091   1.450 -0.9733 -0.0462 -0.5612
12516WAT     H151869   9.570   4.107   1.436 -0.1805 -2.3739  1.5281
12516WAT     H251870   9.439   4.096   1.362  1.1800  0.4533 -1.5260
12516WAT    EPW51871   9.484   4.094   1.436 -0.5846 -0.2873 -0.4128
12517WAT      O51872   9.295   9.355   3.919 -0.0978  0.9112 -0.4672
12517WAT     H151873   9.302   9.450   3.928  0.5509  0.7947  0.5331
12517WAT     H251874   9.213   9.333   3.964 -0.8333  1.0951 -1.6830
12517WAT    EPW51875   9.285   9.364   3.926 -0.1087  0.9203 -0.4956
12518WAT      O51876  10.454   7.145   5.866  0.5487 -0.2517  0.2162
12518WAT     H151877  10.518   7.100   5.921  1.7481 -1.1308 -1.7440
12518WAT     H251878  10.501   7.221   5.832  0.1214 -0.1704 -0.2056
12518WAT    EPW51879  10.469   7.149   5.868  0.6504 -0.3569 -0.0978
12519WAT      O51880   0.918   5.626   5.383  0.0606  0.2865  0.6971
12519WAT     H151881   1.001   5.672   5.384  1.2785 -1.7644  1.0513
12519WAT     H251882   0.869   5.662   5.457  1.5338  0.0417  1.8392
12519WAT    EPW51883   0.922   5.637   5.393  0.4155 -0.0162  0.8945
12520WAT      O51884   9.934   5.240   8.428 -0.3228 -0.0060 -0.1740
12520WAT     H151885   9.985   5.176   8.379  0.7630  0.5710  0.1638
12520WAT     H251886   9.929   5.203   8.517 -4.3369 -2.2466 -1.1116
12520WAT    EPW51887   9.940   5.227   8.434 -0.7091 -0.2255 -0.2537
12521WAT      O51888   0.385   8.172   2.066  0.6142 -0.1902 -0.5041
12521WAT     H151889   0.331   8.148   1.991 -1.4998  0.4169  0.7262
12521WAT     H251890   0.456   8.224   2.029  0.7689 -1.5549 -2.2666
12521WAT    EPW51891   0.387   8.176   2.051  0.3558 -0.2899 -0.5742
12522WAT      O51892  10.469   6.777   1.724  0.3265 -0.2306 -0.4048
12522WAT     H151893  10.481   6.687   1.694 -1.8219 -0.7423  0.0934
12522WAT     H251894  10.426   6.822   1.652 -1.2383 -0.4125  0.3714
12522WAT    EPW51895  10.465   6.771   1.711 -0.1636 -0.3221 -0.2367
12523WAT      O51896   0.464   1.808   0.720 -0.0738 -0.1671  0.0951
12523WAT     H151897   0.466   1.890   0.671  0.3211  0.1099  0.5646
12523WAT     H251898   0.427   1.831   0.805 -0.6159 -0.6156 -0.0140
12523WAT    EPW51899   0.459   1.822   0.725 -0.0932 -0.1897  0.1427
12524WAT      O51900   2.573   9.608   7.871  0.2116 -0.2487  0.0511
12524WAT     H151901   2.655   9.638   7.830  0.9580 -2.3352 -0.1119
12524WAT     H251902   2.582   9.633   7.963  0.4373  0.6962 -0.2209
12524WAT    EPW51903   2.585   9.615   7.878  0.3399 -0.3996 -0.0062
12525WAT      O51904   7.792   3.057   1.395  1.0756 -0.5664  0.2956
12525WAT     H151905   7.768   3.150   1.396  3.2616  0.1130  2.9723
12525WAT     H251906   7.709   3.011   1.404 -0.0314  1.1227 -0.6524
12525WAT    EPW51907   7.778   3.063   1.397  1.2181 -0.2540  0.5237
12526WAT      O51908   3.148   3.027   3.650  0.2335  0.1526  0.2886
12526WAT     H151909   3.228   2.977   3.665  1.0391  1.3782  0.2664
12526WAT     H251910   3.157   3.062   3.561 -0.5711 -0.1245  0.0890
12526WAT    EPW51911   3.160   3.025   3.641  0.2338  0.2778  0.2592
12527WAT      O51912   0.607   2.861   1.121  0.5327  0.6173  0.0886
12527WAT     H151913   0.628   2.866   1.215 -2.4160  1.7692  0.7842
12527WAT     H251914   0.646   2.941   1.084  1.3063  0.3977  0.4080
12527WAT    EPW51915   0.615   2.873   1.129  0.2458  0.7402  0.2224
12528WAT      O51916   3.822   3.038   2.504 -0.1634 -0.2138  0.7686
12528WAT     H151917   3.849   3.116   2.455 -0.6480  0.0599  0.9301
12528WAT     H251918   3.799   2.974   2.436 -1.6375  0.4465  0.6224
12528WAT    EPW51919   3.823   3.040   2.489 -0.4218 -0.0905  0.7707
12529WAT      O51920   9.618   6.406   1.025 -0.6522  0.2196 -0.4503
12529WAT     H151921   9.701   6.358   1.020 -0.7189  0.1658 -1.3132
12529WAT     H251922   9.587   6.409   0.934 -1.3004  0.7575 -0.2214
12529WAT    EPW51923   9.625   6.400   1.012 -0.7463  0.2837 -0.5338
12530WAT      O51924   0.770   4.640   3.521 -0.4031 -0.1751  0.0853
12530WAT     H151925   0.721   4.646   3.603  0.5327 -1.1049  0.7464
12530WAT     H251926   0.837   4.573   3.538  2.8107  2.7720  0.1607
12530WAT    EPW51927   0.773   4.632   3.534  0.1442  0.0908  0.1824
12531WAT      O51928   8.046   1.001   7.615 -0.0442 -0.2092  0.2975
12531WAT     H151929   8.110   1.054   7.567 -0.2831  0.1310  0.3516
12531WAT     H251930   8.072   0.911   7.597  0.7641 -0.0778  0.7235
12531WAT    EPW51931   8.058   0.996   7.607  0.0310 -0.1471  0.3607
12532WAT      O51932   9.772   6.144   1.104  0.3532  0.5410  0.8922
12532WAT     H151933   9.709   6.075   1.121  0.2801  0.5482  0.6498
12532WAT     H251934   9.838   6.103   1.047  0.9820  0.3069  1.7628
12532WAT    EPW51935   9.773   6.130   1.098  0.4268  0.5109  0.9750
12533WAT      O51936   8.732   4.780   3.970  0.0890  0.0291  0.4463
12533WAT     H151937   8.746   4.685   3.972  0.3811  0.0774  0.8054
12533WAT     H251938   8.713   4.799   3.878 -3.5170 -0.8365  0.8617
12533WAT    EPW51939   8.732   4.770   3.958 -0.3481 -0.0787  0.5484
12534WAT      O51940   8.589   6.046   4.377  0.1414 -0.1314  0.1330
12534WAT     H151941   8.549   5.959   4.379  1.1598 -0.6032  2.0668
12534WAT     H251942   8.613   6.064   4.468 -0.1407  2.2433 -0.1762
12534WAT    EPW51943   8.587   6.037   4.389  0.2384  0.1194  0.3471
12535WAT      O51944   2.301   3.736   3.851  0.0741  0.7465 -0.6470
12535WAT     H151945   2.222   3.790   3.848 -1.0224 -0.7502 -0.0688
12535WAT     H251946   2.282   3.662   3.793 -0.5606 -1.5831  2.2802
12535WAT    EPW51947   2.288   3.733   3.843 -0.1544  0.2418 -0.1847
12536WAT      O51948  10.725   0.881   6.275  0.0582  0.0621  0.3696
12536WAT     H151949  10.811   0.918   6.292 -0.2895  0.9104  0.2916
12536WAT     H251950  10.667   0.923   6.337 -0.1400 -1.2607  1.1204
12536WAT    EPW51951  10.729   0.891   6.285 -0.0138 -0.0005  0.4580
12537WAT      O51952   1.535   7.641   1.810 -0.0254 -0.1065 -0.2276
12537WAT     H151953   1.491   7.638   1.725 -1.5163 -1.6814  0.5489
12537WAT     H251954   1.558   7.733   1.821 -2.6800  0.7325 -0.9334
12537WAT    EPW51955   1.533   7.653   1.800 -0.5722 -0.2041 -0.2183
12538WAT      O51956   5.101   9.750   3.313 -0.2666 -0.2908  0.2320
12538WAT     H151957   5.085   9.798   3.232  0.2624 -1.7573 -0.7872
12538WAT     H251958   5.059   9.665   3.300 -0.1697 -0.5538  1.4959
12538WAT    EPW51959   5.093   9.745   3.301 -0.1838 -0.5188  0.2642
12539WAT      O51960   8.778   1.929   3.698 -0.3962 -0.3710  0.2826
12539WAT     H151961   8.734   1.997   3.748  0.4721 -0.2800  0.9579
12539WAT     H251962   8.850   1.974   3.654 -1.0950 -0.4662 -1.0152
12539WAT    EPW51963   8.782   1.944   3.699 -0.3738 -0.3715  0.2005
12540WAT      O51964   9.386   4.565   5.287  0.2710  0.5506 -0.9355
12540WAT     H151965   9.456   4.507   5.257  0.6023  0.5168 -0.1118
12540WAT     H251966   9.305   4.518   5.268  0.5586 -0.6960  0.7437
12540WAT    EPW51967   9.384   4.551   5.280  0.3529  0.3817 -0.6058
12541WAT      O51968  10.430   5.207   6.006  0.3505 -0.0855  0.6300
12541WAT     H151969  10.382   5.289   6.011  1.2900  0.4264  1.6957
12541WAT     H251970  10.451   5.197   5.913  0.6963  1.1677  0.5641
12541WAT    EPW51971  10.426   5.216   5.994  0.5198  0.1473  0.7617
12542WAT      O51972   1.167   1.479   3.522 -0.0491  0.6487  0.0172
12542WAT     H151973   1.194   1.410   3.582 -2.2813  0.7448  1.2584
12542WAT     H251974   1.131   1.547   3.579  0.5695  2.1180 -1.2813
12542WAT    EPW51975   1.166   1.479   3.538 -0.2619  0.8551  0.0097
12543WAT      O51976   9.235   3.540   0.886  0.1484 -0.4239 -0.0945
12543WAT     H151977   9.235   3.536   0.790 -2.5650 -2.8017 -0.1351
12543WAT     H251978   9.283   3.462   0.912 -0.0928 -0.3888  0.4587
12543WAT    EPW51979   9.241   3.529   0.877 -0.2413 -0.7328 -0.0269
12544WAT      O51980   1.530   1.495   6.755  0.9743 -0.4937  0.1200
12544WAT     H151981   1.483   1.569   6.796  1.9337 -1.1695  2.6085
12544WAT     H251982   1.469   1.462   6.689  0.0191  1.7364 -0.2131
12544WAT    EPW51983   1.516   1.501   6.752  0.9748 -0.2887  0.4044
12545WAT      O51984   1.206   6.580   1.694  0.0798  0.5901 -0.3752
12545WAT     H151985   1.167   6.520   1.631 -0.2936 -2.2771  2.3284
12545WAT     H251986   1.157   6.661   1.684 -2.1269 -0.7944 -1.5263
12545WAT    EPW51987   1.194   6.582   1.684 -0.2605  0.0291 -0.1704
12546WAT      O51988   1.704   5.365   2.941 -0.2175  0.1143  0.2966
12546WAT     H151989   1.753   5.356   2.859  2.9738  0.4773  2.0292
12546WAT     H251990   1.644   5.438   2.925  2.3668  2.1522 -0.8956
12546WAT    EPW51991   1.702   5.373   2.928  0.5442  0.4311  0.3679
12547WAT      O51992   0.093   7.305   3.790  0.2334 -0.3005  0.0425
12547WAT     H151993   0.066   7.217   3.818  1.2736 -0.5788  0.2126
12547WAT     H251994   0.046   7.319   3.708 -0.6069 -0.6582  0.4410
12547WAT    EPW51995   0.083   7.295   3.783  0.2598 -0.3841  0.1174
12548WAT      O51996   1.184   1.404   1.427 -0.4576 -0.6418  0.4497
12548WAT     H151997   1.165   1.314   1.450  2.0141 -1.2985  0.2366
12548WAT     H251998   1.196   1.403   1.331 -0.6809 -0.0421  0.4076
12548WAT    EPW51999   1.183   1.392   1.417 -0.1610 -0.6493  0.4160
12549WAT      O52000   0.649   7.851   3.317  0.0428  0.3075 -0.4833
12549WAT     H152001   0.646   7.913   3.391  0.7726  1.3433 -1.2948
12549WAT     H252002   0.627   7.904   3.241  0.4930 -0.4898 -1.1792
12549WAT    EPW52003   0.645   7.866   3.317  0.1984  0.3388 -0.6821
12550WAT      O52004   1.861   8.672   8.122  0.3229 -0.0287  0.3873
12550WAT     H152005   1.922   8.621   8.069 -1.5069 -0.9995 -0.9087
12550WAT     H252006   1.846   8.618   8.200 -0.6842 -0.9497 -0.4206
12550WAT    EPW52007   1.867   8.658   8.125 -0.0513 -0.2775  0.1087
12551WAT      O52008   2.625   2.783   8.133 -0.2691 -0.5928 -0.2624
12551WAT     H152009   2.541   2.743   8.110 -1.1916 -0.4403  2.3703
12551WAT     H252010   2.616   2.804   8.226  1.2867  2.9169 -0.7206
12551WAT    EPW52011   2.613   2.780   8.143 -0.1854 -0.1097  0.0243
12552WAT      O52012  10.288   1.501   7.841  0.0882 -0.2248  0.2762
12552WAT     H152013  10.324   1.571   7.787  2.1930 -1.4722 -0.0302
12552WAT     H252014  10.349   1.428   7.831 -2.4961 -2.4958 -0.1728
12552WAT    EPW52015  10.301   1.500   7.833  0.0248 -0.6889  0.1769
12553WAT      O52016   9.343   6.212   4.539  0.3530 -0.3000 -0.2196
12553WAT     H152017   9.434   6.241   4.549 -0.0643  1.7948 -1.8187
12553WAT     H252018   9.346   6.154   4.462 -0.2135  3.4695 -3.4106
12553WAT    EPW52019   9.356   6.208   4.530  0.2236  0.4735 -0.8516
12554WAT      O52020  10.988   5.480   8.184 -0.1893 -0.3923 -0.1957
12554WAT     H152021  10.969   5.573   8.170  0.5711 -0.2045 -0.0166
12554WAT     H252022  10.931   5.435   8.122 -0.4168  0.2037 -0.4322
12554WAT    EPW52023  10.978   5.486   8.174 -0.1187 -0.2887 -0.2031
12555WAT      O52024   4.352  10.177   0.062 -0.1092  0.7956 -0.0505
12555WAT     H152025   4.375  10.268   0.041  0.3144  1.0223  1.2906
12555WAT     H252026   4.258  10.171   0.045  0.1091  1.0807 -1.4741
12555WAT    EPW52027   4.343  10.188   0.057 -0.0246  0.8633 -0.0615
12556WAT      O52028   4.809   3.922   7.931  0.1379 -0.1524 -0.6296
12556WAT     H152029   4.799   3.984   7.858  0.3050 -0.1734 -0.6687
12556WAT     H252030   4.810   3.978   8.009  0.3926 -0.0976 -0.6714
12556WAT    EPW52031   4.807   3.938   7.931  0.1936 -0.1479 -0.6404
12557WAT      O52032   6.546   1.593   0.748 -0.3642 -0.2446  0.3073
12557WAT     H152033   6.481   1.561   0.686  0.0747 -0.3231 -0.1185
12557WAT     H252034   6.497   1.609   0.828 -0.6563 -1.7123  0.4546
12557WAT    EPW52035   6.531   1.591   0.750 -0.3450 -0.4485  0.2706
12558WAT      O52036   4.149   8.753   0.506  0.1248  0.2904  0.7407
12558WAT     H152037   4.143   8.712   0.419  0.6635 -0.9139  1.2511
12558WAT     H252038   4.186   8.685   0.562 -0.4367  0.9694  1.9798
12558WAT    EPW52039   4.153   8.739   0.502  0.1221  0.2213  0.9715
12559WAT      O52040   3.723   9.589   1.448 -0.0579  0.0765  0.0808
12559WAT     H152041   3.817   9.608   1.448 -0.0012 -0.2046  0.0024
12559WAT     H252042   3.685   9.661   1.398  0.3883 -1.1449 -2.1556
12559WAT    EPW52043   3.731   9.601   1.441  0.0086 -0.1221 -0.2245
12560WAT      O52044   9.667   2.871   8.366 -0.1781 -0.0640  0.6664
12560WAT     H152045   9.672   2.801   8.431  1.9900  0.0743  0.7222
12560WAT     H252046   9.750   2.865   8.319 -2.1443 -1.0508 -3.0803
12560WAT    EPW52047   9.678   2.861   8.368 -0.1516 -0.1758  0.1793
12561WAT      O52048   0.714   5.158   5.209  0.2679 -0.7854  0.4058
12561WAT     H152049   0.637   5.210   5.233  0.7792 -0.5837  1.6513
12561WAT     H252050   0.700   5.138   5.116  0.3914  2.1801 -0.3705
12561WAT    EPW52051   0.702   5.163   5.200  0.3516 -0.3674  0.4678
12562WAT      O52052   6.201   9.851   0.638 -0.3428 -0.3707  0.7679
12562WAT     H152053   6.228   9.929   0.591  2.9067 -0.7582  1.7778
12562WAT     H252054   6.217   9.779   0.576  0.1472 -0.5257  1.0655
12562WAT    EPW52055   6.207   9.852   0.624  0.1504 -0.4420  0.9404
12563WAT      O52056   9.013   5.250   6.981  0.3665 -0.0609 -0.3374
12563WAT     H152057   8.978   5.223   7.066  1.8222 -0.2927  0.2093
12563WAT     H252058   8.963   5.329   6.959  1.8695  1.7384  2.1453
12563WAT    EPW52059   9.002   5.257   6.989  0.7572  0.1459  0.0622
12564WAT      O52060   6.545   9.159   0.689  0.1407 -0.2387  0.1553
12564WAT     H152061   6.547   9.097   0.615  1.9381 -1.5041  1.1784
12564WAT     H252062   6.457   9.148   0.726  0.0029 -1.2720 -0.4269
12564WAT    EPW52063   6.534   9.149   0.684  0.3595 -0.5417  0.2134
12565WAT      O52064   2.228   8.208   8.882 -0.7738  0.4183 -0.7903
12565WAT     H152065   2.152   8.227   8.826 -2.0115  2.3376  1.3340
12565WAT     H252066   2.275   8.291   8.888 -1.2224  0.5880  1.6595
12565WAT    EPW52067   2.224   8.222   8.876 -0.9962  0.6943 -0.1864
12566WAT      O52068   3.463   9.077   0.544 -0.3814 -0.4535  0.4469
12566WAT     H152069   3.401   9.081   0.470  0.7248 -1.1655 -0.5492
12566WAT     H252070   3.549   9.079   0.502  0.2802  0.3617  1.8029
12566WAT    EPW52071   3.466   9.078   0.528 -0.1483 -0.4396  0.4943
12567WAT      O52072   3.275   4.410   0.768  0.2443  0.5240  0.0904
12567WAT     H152073   3.179   4.404   0.767  0.2307  0.6771 -1.5094
12567WAT     H252074   3.304   4.334   0.718  0.7964  2.3289 -2.4951
12567WAT    EPW52075   3.266   4.399   0.762  0.3154  0.7825 -0.4616
12568WAT      O52076  10.556   4.031   8.104 -0.7227 -0.3827 -0.0155
12568WAT     H152077  10.578   4.088   8.177  0.0887 -0.8416  0.1116
12568WAT     H252078  10.461   4.041   8.092 -0.5166  1.3669 -0.3294
12568WAT    EPW52079  10.546   4.040   8.112 -0.5884 -0.2124 -0.0396
12569WAT      O52080   1.176   6.249   4.408 -0.2824 -0.3168  0.0096
12569WAT     H152081   1.181   6.155   4.389 -1.4331 -0.4116  0.0791
12569WAT     H252082   1.222   6.291   4.335 -0.3754 -0.9077 -0.3938
12569WAT    EPW52083   1.183   6.242   4.395 -0.4464 -0.4072 -0.0346
12570WAT      O52084   3.185   8.679   0.371 -0.0972 -0.2924 -0.1640
12570WAT     H152085   3.189   8.592   0.410  0.6229  0.2668  1.0878
12570WAT     H252086   3.114   8.674   0.307  1.3310 -2.3992 -1.7034
12570WAT    EPW52087   3.176   8.667   0.367  0.1861 -0.4959 -0.2019
12571WAT      O52088   2.139   6.484   8.878 -0.7509 -0.5616  0.0258
12571WAT     H152089   2.172   6.574   8.881  1.3346 -1.2868  2.2873
12571WAT     H252090   2.048   6.491   8.905 -0.3243  0.7916  1.2108
12571WAT    EPW52091   2.132   6.497   8.882 -0.4195 -0.4787  0.4807
12572WAT      O52092   2.696   3.082   7.964 -0.8307 -0.5938  0.2803
12572WAT     H152093   2.672   3.013   8.026  2.3279 -2.0170  0.0748
12572WAT     H252094   2.681   3.163   8.013 -2.3369 -1.4821  1.3916
12572WAT    EPW52095   2.691   3.084   7.979 -0.6127 -0.8987  0.4001
12573WAT      O52096   2.881   4.894   7.262 -0.3370 -0.1922 -0.1612
12573WAT     H152097   2.794   4.855   7.251 -0.5601 -0.1925  1.3259
12573WAT     H252098   2.873   4.982   7.224 -1.5841  0.5070  1.5662
12573WAT    EPW52099   2.868   4.901   7.256 -0.5310 -0.0999  0.2630
12574WAT      O52100   6.416   1.558   2.801 -0.6822  0.2205 -0.5301
12574WAT     H152101   6.341   1.590   2.750  0.2153 -0.2461 -2.2255
12574WAT     H252102   6.490   1.610   2.770  0.3801 -1.8184 -1.6840
12574WAT    EPW52103   6.416   1.569   2.790 -0.4234 -0.1099 -0.9060
12575WAT      O52104  10.715   4.304   7.323  0.3682 -0.2551  0.5117
12575WAT     H152105  10.620   4.292   7.329  0.0068  2.2514  0.9171
12575WAT     H252106  10.750   4.247   7.391 -0.7913 -1.5816  0.0394
12575WAT    EPW52107  10.707   4.295   7.333  0.1674 -0.0997  0.5028
12576WAT      O52108   2.380   5.776   7.267  0.6684  0.2878 -0.6019
12576WAT     H152109   2.375   5.857   7.216 -0.0145  0.3183 -0.5026
12576WAT     H252110   2.315   5.788   7.336  2.2591  0.6578  0.9069
12576WAT    EPW52111   2.371   5.788   7.270  0.7882  0.3405 -0.3898
12577WAT      O52112   4.127   8.595   1.929 -0.2552 -0.2895 -0.9117
12577WAT     H152113   4.171   8.644   1.860 -0.6502  1.1572 -0.1737
12577WAT     H252114   4.179   8.514   1.938  0.2176 -0.1801 -2.3726
12577WAT    EPW52115   4.140   8.590   1.921 -0.2451 -0.0839 -1.0070
12578WAT      O52116   0.741   7.437   6.902 -0.1420 -0.5706 -0.0451
12578WAT     H152117   0.825   7.468   6.869 -0.5221  0.9149  0.2890
12578WAT     H252118   0.685   7.434   6.825 -0.1617 -0.1995 -0.0462
12578WAT    EPW52119   0.745   7.441   6.887 -0.1947 -0.3257 -0.0012
12579WAT      O52120   1.627   4.268   5.807 -0.4081  0.8833  0.0106
12579WAT     H152121   1.612   4.309   5.892  1.4532  0.2187  0.7130
12579WAT     H252122   1.694   4.323   5.765 -0.7647  0.7766 -0.7184
12579WAT    EPW52123   1.634   4.281   5.813 -0.2097  0.7818  0.0072
12580WAT      O52124   6.944   0.342   0.253 -0.2086 -0.4574  0.1937
12580WAT     H152125   6.911   0.432   0.257  0.6775 -0.1519  1.0673
12580WAT     H252126   6.893   0.295   0.319 -0.3368 -0.4937  0.0714
12580WAT    EPW52127   6.933   0.348   0.262 -0.1087 -0.4219  0.2928
12581WAT      O52128  10.761   4.877   7.840  0.0830  0.4282  0.0360
12581WAT     H152129  10.696   4.806   7.843  0.6117 -0.0311  1.4333
12581WAT     H252130  10.837   4.837   7.797 -0.4990  0.9570 -1.5689
12581WAT    EPW52131  10.763   4.862   7.834  0.0758  0.4375  0.0088
12582WAT      O52132  10.586   5.469   8.381  0.8586 -0.0081  0.0994
12582WAT     H152133  10.498   5.447   8.412  0.8612  1.1439  0.9806
12582WAT     H252134  10.585   5.565   8.373  1.6909 -0.0718 -0.9583
12582WAT    EPW52135  10.574   5.479   8.384  0.9689  0.1352  0.0758
12583WAT      O52136  10.047   5.518   7.644 -0.2147  0.4221  1.0874
12583WAT     H152137   9.987   5.561   7.705  0.7831  0.8550  1.7893
12583WAT     H252138  10.016   5.428   7.640 -0.8251  0.6056  1.5526
12583WAT    EPW52139  10.035   5.512   7.651 -0.1636  0.5035  1.2417
12584WAT      O52140   7.555   2.376   1.426 -0.0559  0.2365  0.2263
12584WAT     H152141   7.648   2.397   1.426 -0.4879  2.5307 -0.3843
12584WAT     H252142   7.536   2.347   1.337 -0.2374  1.6966 -0.2446
12584WAT    EPW52143   7.565   2.375   1.415 -0.1366  0.7317  0.0837
12585WAT      O52144   9.379   3.896   2.378 -0.0677  0.7539 -0.0984
12585WAT     H152145   9.391   3.860   2.467  1.3448  0.6300 -0.3038
12585WAT     H252146   9.377   3.819   2.322  1.6096  0.8841 -0.4035
12585WAT    EPW52147   9.381   3.881   2.382  0.3400  0.7546 -0.1658
12586WAT      O52148   0.132   9.032   7.622  0.4822 -0.3698 -0.2219
12586WAT     H152149   0.180   9.072   7.550  1.7077  2.1544  1.8362
12586WAT     H252150   0.050   9.002   7.582  0.6174  1.9139 -2.4449
12586WAT    EPW52151   0.127   9.033   7.607  0.6617  0.2646 -0.2437
12587WAT      O52152  10.607   0.838   8.450  0.6299 -0.0115  0.1342
12587WAT     H152153  10.575   0.919   8.488  0.5216  0.4615 -0.9305
12587WAT     H252154  10.604   0.775   8.522 -0.2809  0.6608  0.7075
12587WAT    EPW52155  10.602   0.840   8.465  0.4954  0.1395  0.0696
12588WAT      O52156   2.739   6.332   7.537 -0.1119  0.4457  0.4838
12588WAT     H152157   2.655   6.323   7.583 -1.2209  1.5924 -1.1767
12588WAT     H252158   2.777   6.412   7.572 -1.0243  1.3980 -0.5886
12588WAT    EPW52159   2.733   6.342   7.547 -0.3786  0.7224  0.1235
12589WAT      O52160  10.110   4.798   5.739  0.0825 -0.2850 -0.1079
12589WAT     H152161  10.196   4.807   5.779  0.5374 -0.2112 -1.0545
12589WAT     H252162  10.101   4.704   5.720  0.4737 -0.1489 -1.0590
12589WAT    EPW52163  10.120   4.787   5.742  0.1941 -0.2573 -0.3583
12590WAT      O52164   0.613   2.339   7.141  0.9236  0.0211  0.9638
12590WAT     H152165   0.625   2.398   7.216 -0.2941  0.7221  0.6377
12590WAT     H252166   0.611   2.397   7.065  0.0201 -0.4758  0.5974
12590WAT    EPW52167   0.615   2.354   7.141  0.6438  0.0480  0.8726
12591WAT      O52168   7.867   0.940   1.456  0.5371 -0.0754 -0.1284
12591WAT     H152169   7.947   0.940   1.509  0.8005 -1.0559 -0.5127
12591WAT     H252170   7.796   0.932   1.521  0.6229  2.2195  0.3338
12591WAT    EPW52171   7.868   0.939   1.472  0.5829  0.0980 -0.1181
12592WAT      O52172   6.410   8.273   2.161 -0.1865 -0.5754 -0.3727
12592WAT     H152173   6.368   8.194   2.126  0.3651 -0.0388 -2.3521
12592WAT     H252174   6.435   8.323   2.084 -0.9991  1.8289  0.8412
12592WAT    EPW52175   6.408   8.269   2.147 -0.2208 -0.1869 -0.4739
12593WAT      O52176   5.315   7.196   0.440 -0.1314 -0.5829  0.9039
12593WAT     H152177   5.273   7.152   0.366 -0.1724 -2.9967  2.2532
12593WAT     H252178   5.261   7.171   0.515  1.9775 -1.3346  2.2639
12593WAT    EPW52179   5.302   7.187   0.440  0.1414 -1.0002  1.2613
12594WAT      O52180   6.088   9.644   1.419 -0.2628 -0.3136 -0.2037
12594WAT     H152181   6.082   9.717   1.358  0.5800  0.4676  0.6262
12594WAT     H252182   6.124   9.682   1.499  0.5608 -1.7062  0.1207
12594WAT    EPW52183   6.092   9.658   1.422 -0.0432 -0.3943 -0.0514
12595WAT      O52184   7.455   1.309   0.166  0.3725  0.1166  0.1227
12595WAT     H152185   7.537   1.296   0.119 -0.6312  1.0807 -2.0476
12595WAT     H252186   7.390   1.262   0.114 -0.8950  1.7188  0.1707
12595WAT    EPW52187   7.457   1.301   0.153  0.0730  0.4551 -0.1572
12596WAT      O52188   6.007  10.158   0.118  0.1353  0.7416  0.6671
12596WAT     H152189   5.960  10.164   0.034  0.0696  2.1622  0.7747
12596WAT     H252190   5.938  10.140   0.182 -0.0629  1.3033  0.6223
12596WAT    EPW52191   5.992  10.156   0.115  0.1004  1.0033  0.6754
12597WAT      O52192  10.682   7.031   1.697  0.1067 -0.2384  0.7230
12597WAT     H152193  10.621   6.957   1.692 -0.7973  0.3615  2.1623
12597WAT     H252194  10.661   7.073   1.780  1.6505  0.7443  0.6438
12597WAT    EPW52195  10.671   7.027   1.707  0.1912 -0.0296  0.9024
12598WAT      O52196   1.291   6.471   7.477 -0.1927 -0.0059 -0.3237
12598WAT     H152197   1.300   6.516   7.561  2.6892  0.7479 -0.9143
12598WAT     H252198   1.226   6.522   7.429 -0.5591  0.6028  0.7961
12598WAT    EPW52199   1.283   6.484   7.482  0.1392  0.1740 -0.2539
12599WAT      O52200  10.528   5.714   7.356 -0.2707  0.4087 -0.0242
12599WAT     H152201  10.504   5.647   7.292 -2.9317  0.4880  0.7710
12599WAT     H252202  10.613   5.686   7.390  0.9604  0.0591 -3.1117
12599WAT    EPW52203  10.536   5.701   7.352 -0.4592  0.3729 -0.3264
12600WAT      O52204   5.087   7.993   1.130 -0.2281 -0.1851  0.2105
12600WAT     H152205   5.128   8.076   1.107 -1.7392  0.3820 -0.5879
12600WAT     H252206   5.030   8.014   1.204 -2.5477  0.1302 -1.5533
12600WAT    EPW52207   5.085   8.007   1.137 -0.7334 -0.0687 -0.1275
12601WAT      O52208   2.344   9.729   1.277 -0.2270 -0.2494  0.5266
12601WAT     H152209   2.314   9.646   1.241  0.1320 -0.2612  0.2509
12601WAT     H252210   2.420   9.706   1.331 -0.2989 -0.1343  0.6794
12601WAT    EPW52211   2.350   9.715   1.279 -0.1891 -0.2351  0.5104
12602WAT      O52212   0.693   2.356   8.685 -0.2473  0.3700 -0.3741
12602WAT     H152213   0.764   2.302   8.718 -1.2338 -1.2081 -0.7220
12602WAT     H252214   0.726   2.446   8.690  0.5524  0.0198  2.6031
12602WAT    EPW52215   0.707   2.361   8.690 -0.2719  0.1156 -0.0277
12603WAT      O52216   4.905  10.337   0.658  0.0928 -0.2971 -0.1030
12603WAT     H152217   4.838  10.366   0.596  0.8883  1.4159 -0.2218
12603WAT     H252218   4.957  10.273   0.609 -0.6110 -0.6141 -0.4532
12603WAT    EPW52219   4.903  10.332   0.644  0.1054 -0.1129 -0.1648
12604WAT      O52220   2.497   3.601   8.822 -0.5084  0.6656 -0.7499
12604WAT     H152221   2.574   3.653   8.848 -0.4590  1.0233 -1.5718
12604WAT     H252222   2.527   3.551   8.746  0.9876 -4.3356  2.6197
12604WAT    EPW52223   2.511   3.601   8.815 -0.3045  0.0530 -0.4139
12605WAT      O52224   5.290   1.153   0.436  0.3910  0.2032  0.4067
12605WAT     H152225   5.381   1.130   0.417 -0.2479  0.4292 -3.8673
12605WAT     H252226   5.250   1.071   0.464  1.3831 -0.4313  0.0136
12605WAT    EPW52227   5.297   1.139   0.437  0.4377  0.1493 -0.2089
12606WAT      O52228   0.988   5.079   8.722  0.0034 -0.0228  0.1247
12606WAT     H152229   0.957   5.012   8.661  1.0438 -0.1508 -0.2936
12606WAT     H252230   0.940   5.158   8.698 -0.8952 -0.5086  0.3154
12606WAT    EPW52231   0.978   5.080   8.711  0.0221 -0.1037  0.0949
12607WAT      O52232   8.740   5.577   7.654  0.7355 -0.0466  0.4778
12607WAT     H152233   8.744   5.486   7.683  0.2925 -0.3275 -0.3159
12607WAT     H252234   8.786   5.626   7.722 -0.0590 -0.7076  1.5123
12607WAT    EPW52235   8.747   5.572   7.667  0.5717 -0.1712  0.5095
12608WAT      O52236   5.085   8.453   0.858  0.2103  0.1483 -0.8706
12608WAT     H152237   5.031   8.408   0.923  0.9838  0.9991  0.4036
12608WAT     H252238   5.163   8.398   0.849 -0.4159 -0.5785 -1.9840
12608WAT    EPW52239   5.088   8.440   0.866  0.2298  0.1645 -0.8494
12609WAT      O52240   8.975   1.007   0.996  0.5450 -0.2450 -0.8947
12609WAT     H152241   8.941   0.936   1.050  0.0935  0.7779  0.2023
12609WAT     H252242   9.051   1.040   1.043 -0.8337  1.7595  0.0504
12609WAT    EPW52243   8.980   1.002   1.009  0.3033  0.1543 -0.6254
12610WAT      O52244  10.168   6.385   6.587  0.6578 -0.0362  0.3795
12610WAT     H152245  10.131   6.420   6.667  1.2838 -1.3920  1.3010
12610WAT     H252246  10.252   6.347   6.613  1.9082  1.3876 -1.3193
12610WAT    EPW52247  10.174   6.384   6.601  0.9050 -0.0272  0.2770
12611WAT      O52248   0.882   3.117   6.341 -0.0511  0.6456 -0.9080
12611WAT     H152249   0.871   3.029   6.379  0.6903  1.2824  0.9228
12611WAT     H252250   0.972   3.118   6.309  1.4645  1.9472  2.8338
12611WAT    EPW52251   0.892   3.106   6.342  0.2466  0.9012 -0.1733
12612WAT      O52252   3.567   4.675   8.028 -0.2565  0.3799 -0.4111
12612WAT     H152253   3.500   4.742   8.020 -1.2495 -0.7317 -1.9360
12612WAT     H252254   3.521   4.593   8.008  0.8452 -0.8173  1.6254
12612WAT    EPW52255   3.552   4.673   8.025 -0.2422  0.0756 -0.3428
12613WAT      O52256   3.330   9.916   2.998 -0.0954 -0.2046 -0.9527
12613WAT     H152257   3.314   9.887   3.088  1.0945  1.0586 -0.3031
12613WAT     H252258   3.423   9.902   2.985 -0.2299 -0.2305 -1.9506
12613WAT    EPW52259   3.340   9.910   3.008  0.0437 -0.0410 -0.9986
12614WAT      O52260  10.973   0.555   0.239 -0.0418 -0.1655  0.5346
12614WAT     H152261  10.926   0.492   0.293 -2.1439  0.1882 -0.7758
12614WAT     H252262  10.912   0.578   0.170  2.0566  0.4142 -1.2507
12614WAT    EPW52263  10.959   0.550   0.237 -0.0424 -0.0424  0.1263
12615WAT      O52264   9.996   1.225   1.910  0.4939 -0.5404  0.1046
12615WAT     H152265   9.966   1.183   1.991  2.4307 -1.4677  0.3867
12615WAT     H252266  10.083   1.259   1.931 -0.0707  1.6908 -0.8079
12615WAT    EPW52267  10.004   1.224   1.923  0.6747 -0.3684  0.0215
12616WAT      O52268   1.954   6.076   7.057  0.2861 -0.5946 -0.4315
12616WAT     H152269   1.943   6.162   7.016 -1.6206 -0.3550  0.4945
12616WAT     H252270   2.036   6.084   7.107  0.8260  0.2192 -1.4023
12616WAT    EPW52271   1.963   6.089   7.058  0.1059 -0.4559 -0.4375
12617WAT      O52272  10.448   0.020   2.900 -0.0690  0.9103  0.1491
12617WAT     H152273  10.536   0.059   2.892 -0.4136  2.1585  1.9544
12617WAT     H252274  10.428   0.025   2.993 -2.5546  1.7454 -0.3693
12617WAT    EPW52275  10.457   0.026   2.911 -0.4423  1.1849  0.3190
12618WAT      O52276   5.523   8.624   3.898  0.2256  0.2347  0.0961
12618WAT     H152277   5.565   8.552   3.852  0.7477  0.7064 -0.1892
12618WAT     H252278   5.447   8.646   3.844 -0.2956 -0.5031  0.5149
12618WAT    EPW52279   5.519   8.618   3.885  0.2260  0.1993  0.1135
12619WAT      O52280   0.975   1.324   6.904 -0.8796  1.0752  0.4464
12619WAT     H152281   0.994   1.405   6.952 -2.9660 -0.7664  4.8998
12619WAT     H252282   0.985   1.254   6.968  0.7620 -2.3670 -3.1644
12619WAT    EPW52283   0.979   1.326   6.918 -0.9383  0.3783  0.5579
12620WAT      O52284   9.519   5.641   3.431  0.0616 -0.1173 -0.0032
12620WAT     H152285   9.591   5.647   3.494  0.4189 -0.0870 -0.4020
12620WAT     H252286   9.530   5.555   3.391  0.7341  0.4151 -1.0494
12620WAT    EPW52287   9.530   5.631   3.434  0.1979 -0.0432 -0.1938
12621WAT      O52288   5.317   7.667   0.977  0.9609  0.2186  0.0775
12621WAT     H152289   5.269   7.697   1.054 -0.2650 -2.4859  0.5074
12621WAT     H252290   5.277   7.582   0.957  2.7514 -0.1618 -2.2006
12621WAT    EPW52291   5.305   7.660   0.985  1.0352 -0.1884 -0.1662
12622WAT      O52292   7.233   9.693   0.913 -0.3332  0.4788 -0.0057
12622WAT     H152293   7.288   9.750   0.966  0.9957 -1.6940  1.1097
12622WAT     H252294   7.269   9.700   0.825  0.5858  0.4675  0.3562
12622WAT    EPW52295   7.245   9.701   0.908 -0.0367  0.1912  0.1891
12623WAT      O52296   1.762   5.528   6.951 -0.6001 -0.0617 -0.3281
12623WAT     H152297   1.801   5.470   6.885  1.4311  2.3003 -1.3937
12623WAT     H252298   1.821   5.521   7.026 -1.0398 -0.2821 -0.0033
12623WAT    EPW52299   1.775   5.519   6.952 -0.3902  0.2205 -0.4253
12624WAT      O52300   7.832   0.891   0.814  0.3226 -0.1131  0.1867
12624WAT     H152301   7.749   0.931   0.840  0.8610  1.5355 -0.4478
12624WAT     H252302   7.898   0.944   0.858  1.0438 -1.5303  0.8366
12624WAT    EPW52303   7.830   0.903   0.823  0.4888 -0.0825  0.1887
12625WAT      O52304   2.537   9.955   0.769  0.6823  0.0957 -0.5066
12625WAT     H152305   2.487   9.924   0.844 -2.0782  0.1536 -2.1883
12625WAT     H252306   2.629   9.939   0.793 -0.2302 -3.4797  1.2717
12625WAT    EPW52307   2.543   9.949   0.782  0.1978 -0.3681 -0.4939
12626WAT      O52308   0.289   1.893   7.093  0.7581 -0.3573 -0.8792
12626WAT     H152309   0.284   1.826   7.025 -0.9093 -2.0601  0.8063
12626WAT     H252310   0.329   1.849   7.168  1.5049  1.1380 -0.3565
12626WAT    EPW52311   0.294   1.878   7.094  0.6367 -0.3847 -0.5882
12627WAT      O52312   2.012   8.217   7.120  0.2247  0.1724  0.2613
12627WAT     H152313   1.989   8.200   7.029 -0.1860  1.3336  0.1297
12627WAT     H252314   2.011   8.313   7.127 -2.4806  0.1048  2.1625
12627WAT    EPW52315   2.009   8.228   7.109 -0.1862  0.3166  0.4945
12628WAT      O52316   3.140   3.742   6.593  0.6826 -0.5792  0.2372
12628WAT     H152317   3.080   3.722   6.521  0.2564 -1.8129  0.9154
12628WAT     H252318   3.149   3.837   6.590 -1.0061 -0.3967 -0.1182
12628WAT    EPW52319   3.133   3.752   6.583  0.4038 -0.7179  0.2797
12629WAT      O52320   5.486   0.647   7.664  1.2556 -0.6344 -0.3017
12629WAT     H152321   5.429   0.615   7.595  0.6011  1.6799 -0.9344
12629WAT     H252322   5.428   0.661   7.739  1.2632  0.2052 -0.4394
12629WAT    EPW52323   5.471   0.645   7.665  1.1704 -0.2184 -0.4034
12630WAT      O52324   0.140   6.182   8.023 -0.4841 -0.1779  0.0352
12630WAT     H152325   0.171   6.098   8.056 -2.8521 -1.9369 -1.8549
12630WAT     H252326   0.182   6.247   8.079 -1.3666 -2.7141  4.0005
12630WAT    EPW52327   0.150   6.180   8.035 -0.9128 -0.7446  0.3095
12631WAT      O52328   0.083   1.256   7.767 -0.1753  0.1084 -0.1516
12631WAT     H152329   0.034   1.270   7.848  1.4068  1.0345  0.6862
12631WAT     H252330   0.063   1.333   7.714 -0.0377  0.2207 -0.0386
12631WAT    EPW52331   0.074   1.268   7.771  0.0516  0.2455 -0.0260
12632WAT      O52332   9.810   2.437   1.232  0.3876  0.7522 -0.5237
12632WAT     H152333   9.779   2.523   1.203 -0.1533  1.4147  1.7892
12632WAT     H252334   9.799   2.439   1.327  1.4568 -1.4681 -0.2981
12632WAT    EPW52335   9.804   2.449   1.241  0.4568  0.5468 -0.1888
12633WAT      O52336   1.461   2.633   8.184 -0.0279  0.2395 -0.0580
12633WAT     H152337   1.412   2.714   8.197  2.8117  1.7822  2.1142
12633WAT     H252338   1.489   2.637   8.093 -0.6731  1.2474 -0.2310
12633WAT    EPW52339   1.458   2.645   8.174  0.2615  0.5759  0.2065
12634WAT      O52340   4.299   8.648   0.939 -0.0747  0.3438  0.4821
12634WAT     H152341   4.384   8.638   0.896  1.5241  1.6118  3.0528
12634WAT     H252342   4.277   8.740   0.927 -2.5334 -0.4987 -2.4324
12634WAT    EPW52343   4.307   8.659   0.932 -0.1881  0.4001  0.4368
12635WAT      O52344  10.683   0.920   0.262  0.1276  0.0645 -0.0124
12635WAT     H152345  10.747   0.950   0.197  1.9567 -1.3376  1.0668
12635WAT     H252346  10.718   0.949   0.346 -0.1519 -1.5205  0.6791
12635WAT    EPW52347  10.696   0.928   0.264  0.3319 -0.3295  0.2211
12636WAT      O52348  10.895   7.690   8.203  0.3685  0.0290  0.0617
12636WAT     H152349  10.915   7.644   8.121 -0.4511 -0.1483 -0.0510
12636WAT     H252350  10.946   7.771   8.198  0.2852  0.0474 -0.6558
12636WAT    EPW52351  10.904   7.695   8.191  0.2494  0.0081 -0.0477
12637WAT      O52352   7.241   1.330   1.853  0.0953  0.8250  0.3079
12637WAT     H152353   7.321   1.303   1.808  1.2707 -1.3049  3.3838
12637WAT     H252354   7.180   1.258   1.839 -0.7140  1.6496 -0.5426
12637WAT    EPW52355   7.244   1.317   1.845  0.1435  0.6529  0.6014
12638WAT      O52356   0.855   6.366   6.194 -0.3321 -0.9978 -1.1070
12638WAT     H152357   0.889   6.385   6.106 -0.3782  0.0340 -0.9107
12638WAT     H252358   0.906   6.290   6.223  3.5686  1.7892  0.0982
12638WAT    EPW52359   0.866   6.359   6.186  0.1763 -0.4942 -0.9224
12639WAT      O52360   7.434   0.933   1.244 -0.0765  0.0185 -0.0021
12639WAT     H152361   7.381   0.926   1.324 -0.5785  0.3371 -0.2977
12639WAT     H252362   7.515   0.975   1.272 -0.5137  0.7319  0.2326
12639WAT    EPW52363   7.437   0.938   1.258 -0.2003  0.1546 -0.0101
12640WAT      O52364   5.388  10.297   4.018 -0.3407 -0.2930 -0.3106
12640WAT     H152365   5.391  10.265   3.928 -1.0548  0.9699 -0.8006
12640WAT     H252366   5.414  10.389   4.012 -0.9758 -0.0299  0.6875
12640WAT    EPW52367   5.392  10.305   4.005 -0.5186 -0.0920 -0.2437
12641WAT      O52368   7.268   1.517   2.057 -0.1008 -0.0830 -0.1259
12641WAT     H152369   7.251   1.448   1.992 -0.2502 -2.9031  2.6928
12641WAT     H252370   7.362   1.509   2.075 -0.5955 -1.4671  2.1348
12641WAT    EPW52371   7.278   1.507   2.051 -0.1857 -0.6375  0.5440
12642WAT      O52372   7.099   9.421   7.719  0.0520 -0.6919 -0.3474
12642WAT     H152373   7.088   9.510   7.752 -3.8549 -0.0626 -2.7715
12642WAT     H252374   7.050   9.367   7.780 -1.1685 -0.4963 -1.1056
12642WAT    EPW52375   7.091   9.426   7.731 -0.6244 -0.5836 -0.7668
12643WAT      O52376   8.575   5.193   2.121 -0.1220 -0.3041 -0.0457
12643WAT     H152377   8.651   5.213   2.176  0.5950 -1.8397 -0.4425
12643WAT     H252378   8.598   5.229   2.035  0.8739 -2.1309 -0.5823
12643WAT    EPW52379   8.588   5.201   2.117  0.1040 -0.7474 -0.1688
12644WAT      O52380  10.139   2.437   1.645  0.0618  0.0549 -0.1759
12644WAT     H152381  10.114   2.444   1.553 -0.2935  0.2042 -0.0693
12644WAT     H252382  10.208   2.502   1.656 -0.4516  0.6082 -0.1477
12644WAT    EPW52383  10.145   2.446   1.634 -0.0525  0.1477 -0.1581
12645WAT      O52384   0.391   1.399   0.906  0.4405 -0.0599 -0.5725
12645WAT     H152385   0.313   1.356   0.871  0.6052  2.1259 -4.0586
12645WAT     H252386   0.359   1.482   0.942  1.0138  0.4552 -1.2266
12645WAT    EPW52387   0.377   1.404   0.906  0.5378  0.2964 -1.1186
12646WAT      O52388   0.710   5.001   7.404 -0.4129 -0.3759  0.0654
12646WAT     H152389   0.711   5.078   7.348  0.7138  0.6428  1.4159
12646WAT     H252390   0.624   5.002   7.446 -1.3236 -1.2248 -1.6582
12646WAT    EPW52391   0.699   5.011   7.403 -0.3844 -0.3538  0.0162
12647WAT      O52392   4.456   5.860   8.931  0.0638  0.2177 -0.2406
12647WAT     H152393   4.421   5.879   8.844  1.8728  2.1568 -0.6172
12647WAT     H252394   4.550   5.871   8.922  0.4951 -1.4341  1.5551
12647WAT    EPW52395   4.464   5.864   8.918  0.3591  0.2553 -0.0529
12648WAT      O52396   5.224   9.701   1.054  0.1735  1.2263  0.4745
12648WAT     H152397   5.150   9.762   1.049  0.1849  1.2368  0.4403
12648WAT     H252398   5.255   9.708   1.144  1.1744  2.4331  0.0603
12648WAT    EPW52399   5.218   9.710   1.065  0.3071  1.3866  0.4153
12649WAT      O52400   9.265   5.659   6.981  0.1857  0.8907  0.1219
12649WAT     H152401   9.258   5.755   6.986  0.6304  0.9465 -0.3211
12649WAT     H252402   9.355   5.640   7.005 -0.2972  0.4556  1.7616
12649WAT    EPW52403   9.276   5.669   6.985  0.1807  0.8407  0.2797
12650WAT      O52404   4.994   9.840   0.123  0.2957  0.1654  0.2489
12650WAT     H152405   5.085   9.833   0.095  0.5285 -1.8286  1.3068
12650WAT     H252406   4.997   9.893   0.203  0.8445 -1.4410  1.3522
12650WAT    EPW52407   5.007   9.846   0.130  0.3989 -0.3095  0.5340
12651WAT      O52408   0.359   8.763   7.408 -0.2866  0.0547 -0.0460
12651WAT     H152409   0.316   8.747   7.492 -1.8306 -1.3779 -1.0544
12651WAT     H252410   0.297   8.818   7.360  0.8699  1.4173 -0.0623
12651WAT    EPW52411   0.345   8.768   7.412 -0.3377  0.0458 -0.1812
12652WAT      O52412  10.015   8.033   6.905  0.7045 -0.0378  0.0572
12652WAT     H152413  10.039   8.091   6.978 -0.0299 -0.8131  0.9316
12652WAT     H252414   9.936   7.989   6.934 -0.0485  0.1965 -1.5400
12652WAT    EPW52415  10.008   8.035   6.918  0.5088 -0.1087 -0.0384
12653WAT      O52416   0.876   1.885   0.370  0.6122  0.0222  0.2426
12653WAT     H152417   0.857   1.923   0.456 -0.9444  1.2696 -0.6080
12653WAT     H252418   0.814   1.927   0.311  0.0353 -2.5149 -1.1058
12653WAT    EPW52419   0.866   1.895   0.374  0.3308 -0.1479 -0.0474
12654WAT      O52420   7.435   1.387   1.640  0.4546  0.4155 -1.0735
12654WAT     H152421   7.511   1.370   1.584 -1.4482 -2.1196 -3.0759
12654WAT     H252422   7.392   1.462   1.600  0.4201  0.1311 -1.5731
12654WAT    EPW52423   7.439   1.395   1.627  0.1991  0.0437 -1.4035
12655WAT      O52424   8.239   3.230   3.050 -0.1072 -0.1467  0.1317
12655WAT     H152425   8.186   3.157   3.079  2.0026 -0.9243  2.4339
12655WAT     H252426   8.226   3.234   2.956 -2.1618 -1.8989  0.2742
12655WAT    EPW52427   8.231   3.221   3.042 -0.0997 -0.4804  0.4541
12656WAT      O52428   4.073   9.621   0.668  0.4834 -0.1305  0.2313
12656WAT     H152429   4.058   9.633   0.574 -0.6247 -1.0850  0.2541
12656WAT     H252430   4.076   9.526   0.679 -2.3163 -0.1595  1.5191
12656WAT    EPW52431   4.071   9.610   0.657 -0.0319 -0.2599  0.4042
12657WAT      O52432   0.227   2.075   8.602 -0.6556 -1.0247  0.1591
12657WAT     H152433   0.235   1.980   8.608  2.8414 -0.9620 -1.1530
12657WAT     H252434   0.317   2.106   8.597 -1.7154  2.2090 -1.4873
12657WAT    EPW52435   0.240   2.066   8.602 -0.3342 -0.5900 -0.2308
12658WAT      O52436   0.814   3.578   5.630 -0.0840 -0.4761  0.1624
12658WAT     H152437   0.816   3.483   5.641  1.9815 -0.3908  1.1348
12658WAT     H252438   0.837   3.612   5.717 -1.7347  0.9690  0.0811
12658WAT    EPW52439   0.817   3.570   5.643 -0.0293 -0.2743  0.2799
12659WAT      O52440   1.713   3.582   8.296  0.1550  0.2979 -0.2686
12659WAT     H152441   1.657   3.530   8.354 -0.9303  2.3692  0.6662
12659WAT     H252442   1.796   3.536   8.295 -0.5528 -1.1030  1.0170
12659WAT    EPW52443   1.716   3.569   8.304 -0.0815  0.3864  0.0243
12660WAT      O52444   6.958   8.795   1.171 -0.1944 -0.1392 -0.7154
12660WAT     H152445   6.974   8.889   1.173 -0.1397 -0.1580  0.8712
12660WAT     H252446   6.896   8.780   1.242 -0.7734 -1.2156 -1.4206
12660WAT    EPW52447   6.952   8.806   1.181 -0.2635 -0.2837 -0.5991
12661WAT      O52448   8.008   0.482   0.018  0.1534 -0.2820 -0.9506
12661WAT     H152449   7.941   0.432   0.065 -0.6936  1.1020 -0.6144
12661WAT     H252450   8.083   0.484   0.078  1.1756 -3.1621 -1.9513
12661WAT    EPW52451   8.009   0.476   0.032  0.1764 -0.4793 -1.0382
12662WAT      O52452   5.066   9.237   0.438 -0.1555  0.4306 -0.0227
12662WAT     H152453   5.133   9.181   0.400 -1.2625 -0.0895 -1.2758
12662WAT     H252454   5.080   9.323   0.397  0.5435  0.6774  0.7063
12662WAT    EPW52455   5.077   9.241   0.427 -0.2091  0.3948 -0.0918
12663WAT      O52456  10.289   0.711   0.501  0.4928  0.3842  0.1404
12663WAT     H152457  10.375   0.713   0.459  0.2531  0.0340 -0.3805
12663WAT     H252458  10.247   0.792   0.474  0.7465  0.6733  0.5964
12663WAT    EPW52459  10.295   0.722   0.492  0.4940  0.3762  0.1318
12664WAT      O52460   0.244   1.402   0.328  0.1528  0.5647 -0.1044
12664WAT     H152461   0.192   1.480   0.308  1.4914  1.6797  0.5515
12664WAT     H252462   0.328   1.418   0.285 -1.0548 -2.9142 -4.5107
12664WAT    EPW52463   0.248   1.415   0.319  0.1701  0.2530 -0.5990
12665WAT      O52464   7.813   7.394   8.165 -0.3175  0.1085  0.9633
12665WAT     H152465   7.861   7.475   8.182  0.0203 -0.1078  1.0523
12665WAT     H252466   7.824   7.379   8.071 -2.4447  1.4699  0.4248
12665WAT    EPW52467   7.820   7.402   8.155 -0.5536  0.2596  0.9041
12666WAT      O52468   9.183   7.076   5.930 -0.7099 -0.2939 -0.5920
12666WAT     H152469   9.248   7.008   5.912 -2.3408 -1.5168 -2.1306
12666WAT     H252470   9.140   7.047   6.010  1.7446  1.4921  1.5867
12666WAT    EPW52471   9.186   7.063   5.938 -0.6013 -0.2198 -0.5078
12667WAT      O52472  10.387   5.884   8.880 -0.5097  0.4522 -0.9557
12667WAT     H152473  10.398   5.969   8.837 -3.2447  0.8680 -1.0397
12667WAT     H252474  10.469   5.871   8.928  1.0603  1.8460 -3.0412
12667WAT    EPW52475  10.399   5.894   8.881 -0.6633  0.6908 -1.2418
12668WAT      O52476   9.375   2.132   4.029  0.3765 -0.4510  0.6758
12668WAT     H152477   9.355   2.096   3.943  2.8036  0.7529 -0.4962
12668WAT     H252478   9.299   2.185   4.051  1.3882  2.9891 -2.9350
12668WAT    EPW52479   9.363   2.134   4.020  0.8297  0.1614  0.0451
12669WAT      O52480   3.316   5.488   7.534 -0.1598 -0.5902 -0.7434
12669WAT     H152481   3.397   5.481   7.484  0.9474 -0.2504  0.9382
12669WAT     H252482   3.344   5.504   7.624 -2.1227  0.7178 -0.3045
12669WAT    EPW52483   3.330   5.489   7.539 -0.2725 -0.3726 -0.4640
12670WAT      O52484   7.146   0.560   2.224  0.3524  0.8727  0.6800
12670WAT     H152485   7.224   0.610   2.251 -0.5498  1.7295  1.8133
12670WAT     H252486   7.176   0.507   2.150  2.1476  0.7725  1.4240
12670WAT    EPW52487   7.160   0.560   2.218  0.4702  0.9724  0.9276
12671WAT      O52488   1.341   7.138   7.751  0.4376 -0.0193  0.3007
12671WAT     H152489   1.316   7.223   7.788 -0.5419 -0.2634  0.2156
12671WAT     H252490   1.437   7.136   7.761  0.2768  0.1426  2.3453
12671WAT    EPW52491   1.351   7.149   7.758  0.2872 -0.0298  0.5591
12672WAT      O52492   1.467   7.024   7.350 -0.2444  0.1088 -0.1255
12672WAT     H152493   1.481   7.059   7.262 -0.9568 -0.6963 -0.5765
12672WAT     H252494   1.544   6.971   7.368 -0.0179  0.4132 -0.1902
12672WAT    EPW52495   1.479   7.022   7.340 -0.3085  0.0424 -0.1936
12673WAT      O52496   8.384   0.191   2.096 -0.0437 -0.0082  0.4388
12673WAT     H152497   8.479   0.181   2.086  0.0781  0.4629  1.0393
12673WAT     H252498   8.352   0.205   2.007  0.5791  0.7950  0.3314
12673WAT    EPW52499   8.393   0.192   2.083  0.0548  0.1599  0.5038
12674WAT      O52500   7.674   2.169   4.322 -0.8359 -0.7650  0.2357
12674WAT     H152501   7.681   2.147   4.415  2.6325  2.7106  1.0258
12674WAT     H252502   7.669   2.264   4.319  4.3397 -0.1528 -2.9882
12674WAT    EPW52503   7.675   2.178   4.334  0.3040 -0.2258 -0.0856
12675WAT      O52504   5.136   0.517   1.532 -0.2763 -0.0437  0.2607
12675WAT     H152505   5.221   0.512   1.575  0.3723 -0.7372 -1.0441
12675WAT     H252506   5.097   0.599   1.564  2.2583  2.0267 -1.5619
12675WAT    EPW52507   5.142   0.527   1.542  0.1435  0.1379 -0.1519
12676WAT      O52508   6.162   2.345   0.434 -0.0892  1.0274 -0.6100
12676WAT     H152509   6.125   2.314   0.516 -0.8331  2.4037 -0.3862
12676WAT     H252510   6.252   2.313   0.434 -1.7387 -4.7658 -2.3787
12676WAT    EPW52511   6.169   2.337   0.444 -0.4048  0.4448 -0.8138
12677WAT      O52512   3.352   4.031   7.483  0.0882  0.5311  0.2230
12677WAT     H152513   3.444   4.015   7.461 -0.8270 -0.9524 -2.9744
12677WAT     H252514   3.336   4.120   7.453  0.5201  0.9009  1.0555
12677WAT    EPW52515   3.362   4.041   7.476  0.0247  0.3843 -0.0887
12678WAT      O52516   7.676   9.964   2.650  0.1111 -0.3724  0.1616
12678WAT     H152517   7.701   9.915   2.728 -0.0005 -3.0106 -1.3521
12678WAT     H252518   7.718  10.050   2.661  2.1929 -1.5124  1.9291
12678WAT    EPW52519   7.685   9.969   2.661  0.3712 -0.8707  0.1951
12679WAT      O52520   6.264   1.708   1.978  0.1458  0.0075  0.0666
12679WAT     H152521   6.314   1.772   2.030  1.6591 -0.4482 -0.7811
12679WAT     H252522   6.177   1.747   1.972  0.1220  0.4568  2.2574
12679WAT    EPW52523   6.259   1.722   1.984  0.3421  0.0067  0.2437
12680WAT      O52524   2.585   5.935   7.884  0.2917 -0.1799  0.2215
12680WAT     H152525   2.674   5.936   7.847 -0.1056  0.7815 -0.7658
12680WAT     H252526   2.531   5.898   7.814 -0.0148 -1.3797  1.0544
12680WAT    EPW52527   2.590   5.930   7.869  0.1988 -0.2112  0.2010
12681WAT      O52528  10.675   2.627   0.450  0.9754 -0.0636 -0.5152
12681WAT     H152529  10.706   2.699   0.395 -1.1778  1.6340  0.3337
12681WAT     H252530  10.668   2.665   0.538  0.1435 -1.4300  0.0421
12681WAT    EPW52531  10.678   2.642   0.455  0.5817 -0.0200 -0.3297
12682WAT      O52532   6.080   0.820   0.177  0.0621 -0.8137 -0.2254
12682WAT     H152533   6.072   0.915   0.180 -1.8324 -0.9143 -0.8985
12682WAT     H252534   6.140   0.799   0.249 -2.1407  0.6488  2.2260
12682WAT    EPW52535   6.087   0.830   0.187 -0.4785 -0.6341  0.0091
12683WAT      O52536   7.207   1.722   3.632 -0.1352  0.1331 -0.6201
12683WAT     H152537   7.223   1.629   3.644 -0.2939 -0.0521 -1.6908
12683WAT     H252538   7.271   1.766   3.689 -1.4084 -0.6102  1.4572
12683WAT    EPW52539   7.218   1.716   3.641 -0.3240  0.0107 -0.4874
12684WAT      O52540   5.759   8.536   1.479  0.6268 -0.0794  0.1248
12684WAT     H152541   5.752   8.486   1.398  1.3634 -0.3578  0.2262
12684WAT     H252542   5.849   8.571   1.479  1.0123 -0.9873  1.3315
12684WAT    EPW52543   5.770   8.534   1.469  0.7751 -0.2360  0.2973
12685WAT      O52544   5.802   1.439   0.477 -0.3244  0.0107 -0.0508
12685WAT     H152545   5.841   1.518   0.440  2.1755 -0.8530  0.5141
12685WAT     H252546   5.843   1.368   0.428  0.4128 -1.0246  1.9606
12685WAT    EPW52547   5.813   1.440   0.466  0.1028 -0.2397  0.2890
12686WAT      O52548   9.491   2.690   1.652  0.4237  0.0495 -0.2529
12686WAT     H152549   9.525   2.699   1.741 -0.4389 -0.1893  0.1118
12686WAT     H252550   9.414   2.634   1.661 -1.8307  2.8703 -0.5572
12686WAT    EPW52551   9.485   2.684   1.665  0.0129  0.3901 -0.2450
12687WAT      O52552   8.400   2.846   0.755  0.4747  0.7128  0.3273
12687WAT     H152553   8.491   2.820   0.738  0.3190  0.1895  0.2843
12687WAT     H252554   8.397   2.939   0.731  0.1498 -0.0502 -3.0524
12687WAT    EPW52555   8.412   2.855   0.750  0.4110  0.5431 -0.1242
12688WAT      O52556   8.637   1.461   1.497  0.0698 -0.5506  0.3026
12688WAT     H152557   8.560   1.514   1.477  0.3941  0.7110  2.1345
12688WAT     H252558   8.703   1.490   1.435 -0.3577 -0.2664 -0.0233
12688WAT    EPW52559   8.635   1.472   1.486  0.0563 -0.3467  0.5013
12689WAT      O52560   4.443  10.297   2.397  0.1643 -0.0511  0.4304
12689WAT     H152561   4.486  10.355   2.334  1.5191 -1.7807 -0.2954
12689WAT     H252562   4.366  10.346   2.425 -0.7466  0.6293 -2.8849
12689WAT    EPW52563   4.438  10.311   2.392  0.2227 -0.1898 -0.1026
12690WAT      O52564   8.459   4.519   8.323 -0.2459 -0.0273  0.5428
12690WAT     H152565   8.375   4.544   8.285 -1.2547  0.7170  3.0539
12690WAT     H252566   8.464   4.424   8.309 -1.8653 -0.2093  0.9879
12690WAT    EPW52567   8.449   4.510   8.316 -0.5922  0.0470  0.9327
12691WAT      O52568   0.429   2.591   6.115  0.5961  0.0216 -0.1267
12691WAT     H152569   0.461   2.677   6.142  1.9483 -0.6849  0.6310
12691WAT     H252570   0.509   2.538   6.105 -0.2990 -1.7918  1.7075
12691WAT    EPW52571   0.444   2.595   6.117  0.6564 -0.3108  0.2153
12692WAT      O52572   9.316   2.205   5.833 -0.5477 -0.8288  0.0444
12692WAT     H152573   9.263   2.260   5.891  1.6344  0.1601  1.2288
12692WAT     H252574   9.314   2.119   5.873 -0.2831 -0.5116  0.7425
12692WAT    EPW52575   9.308   2.201   5.846 -0.2251 -0.6565  0.2925
12693WAT      O52576   1.832   7.108   7.228 -0.1152  1.1067  0.4208
12693WAT     H152577   1.837   7.150   7.314 -1.4791 -0.2249  1.2064
12693WAT     H252578   1.750   7.139   7.191 -0.6226 -0.0082  0.5703
12693WAT    EPW52579   1.822   7.118   7.235 -0.3620  0.7839  0.5443
12694WAT      O52580   6.840   2.224   4.108 -0.3658 -0.4891 -0.5092
12694WAT     H152581   6.748   2.201   4.123 -0.1402 -1.0783  0.0232
12694WAT     H252582   6.837   2.307   4.060 -1.1866 -0.9096 -1.2185
12694WAT    EPW52583   6.828   2.232   4.104 -0.4442 -0.6223 -0.5326
12695WAT      O52584   6.800  10.013   0.175  0.2522  0.2179  0.2657
12695WAT     H152585   6.768   9.924   0.186  2.8133 -0.7071  0.9930
12695WAT     H252586   6.839  10.014   0.088  1.4415  0.1768  0.7813
12695WAT    EPW52587   6.801  10.002   0.165  0.7465  0.0906  0.4297
12696WAT      O52588   8.373   3.048   1.051 -0.7001  0.1695 -0.0763
12696WAT     H152589   8.445   3.052   0.988 -0.4338 -2.7713 -0.1137
12696WAT     H252590   8.295   3.034   0.998 -0.6160 -1.2833  0.1492
12696WAT    EPW52591   8.372   3.046   1.036 -0.6542 -0.4101 -0.0516
12697WAT      O52592   9.136   1.563   0.371 -0.4671 -0.0846 -0.0262
12697WAT     H152593   9.226   1.584   0.394 -0.7003  0.0722  0.7867
12697WAT     H252594   9.131   1.468   0.380 -0.3284 -0.1154 -0.2741
12697WAT    EPW52595   9.147   1.553   0.376 -0.4792 -0.0681  0.0483
12698WAT      O52596   2.476   6.153   4.928  0.7750 -0.2026 -0.4452
12698WAT     H152597   2.513   6.132   4.842 -1.5930 -0.9199 -1.3894
12698WAT     H252598   2.401   6.093   4.936  0.1417  0.7810  1.5355
12698WAT    EPW52599   2.471   6.142   4.918  0.3792 -0.1676 -0.3080
12699WAT      O52600   6.680   7.982   1.933  0.2282 -0.3381  0.1647
12699WAT     H152601   6.654   8.058   1.881  1.1832 -0.5269 -0.6343
12699WAT     H252602   6.766   8.005   1.968  1.0486 -1.4459 -1.0042
12699WAT    EPW52603   6.688   7.995   1.931  0.4623 -0.5090 -0.0948
12700WAT      O52604   6.952   2.362   7.687  0.0278 -0.5871  0.6491
12700WAT     H152605   6.939   2.317   7.771 -0.8606  0.3130  1.0306
12700WAT     H252606   6.944   2.293   7.621  2.8340 -1.6979  1.3401
12700WAT    EPW52607   6.949   2.347   7.690  0.2809 -0.6149  0.7904
12701WAT      O52608   8.349   3.719   2.400 -0.3490 -0.4044 -0.4803
12701WAT     H152609   8.436   3.689   2.427  0.0217  0.6261 -0.5034
12701WAT     H252610   8.331   3.795   2.455  0.7595  2.2570 -3.5059
12701WAT    EPW52611   8.358   3.725   2.411 -0.1535  0.0825 -0.8824
12702WAT      O52612   9.179   1.301   0.459 -0.2654 -0.0416 -0.8296
12702WAT     H152613   9.152   1.210   0.475  0.1463 -0.5572 -2.7629
12702WAT     H252614   9.263   1.293   0.414  0.3111  1.3571 -0.0550
12702WAT    EPW52615   9.186   1.288   0.455 -0.1345  0.0749 -0.9824
12703WAT      O52616   8.876   3.541   0.248 -1.1030  0.1767 -0.0942
12703WAT     H152617   8.790   3.541   0.207 -1.3120 -1.5989  0.2289
12703WAT     H252618   8.858   3.537   0.342 -0.7562 -2.1078 -0.0646
12703WAT    EPW52619   8.862   3.540   0.255 -1.0843 -0.3588 -0.0477
12704WAT      O52620   8.771   6.852   1.085  0.9366 -0.1421  0.1201
12704WAT     H152621   8.701   6.812   1.137 -0.0252  1.8510  0.4315
12704WAT     H252622   8.847   6.851   1.143  0.2946  0.6058  0.9987
12704WAT    EPW52623   8.772   6.846   1.100  0.7257  0.2196  0.2770
12705WAT      O52624   1.975   7.092   8.672 -0.3544 -0.3654  0.0736
12705WAT     H152625   1.978   7.156   8.743 -1.7701  0.5555 -0.6639
12705WAT     H252626   1.886   7.098   8.637  0.0759 -1.3553 -1.2816
12705WAT    EPW52627   1.964   7.101   8.677 -0.4843 -0.3748 -0.2027
12706WAT      O52628   9.724   2.749   2.327 -0.7482  0.2169  0.4490
12706WAT     H152629   9.678   2.810   2.269  0.3756  4.1932  3.3044
12706WAT     H252630   9.766   2.805   2.392  1.8641 -3.6179  2.4555
12706WAT    EPW52631   9.723   2.764   2.328 -0.2556  0.2356  1.0903
12707WAT      O52632   9.498   6.223   8.498  0.0402  0.9165  0.2051
12707WAT     H152633   9.572   6.259   8.547  0.1849  3.3332 -1.5863
12707WAT     H252634   9.421   6.261   8.540 -0.1992 -0.8033  1.4368
12707WAT    EPW52635   9.498   6.233   8.510  0.0281  1.0083  0.1311
12708WAT      O52636   8.000   6.666   8.936 -0.7039  0.2385 -0.3576
12708WAT     H152637   8.070   6.720   8.900  0.4848 -0.7911  0.3645
12708WAT     H252638   7.920   6.712   8.911  0.2611  2.8752  1.0202
12708WAT    EPW52639   7.999   6.679   8.928 -0.4201  0.4506 -0.0806
12709WAT      O52640   1.410   5.553   7.539  0.5901 -0.0978 -0.0646
12709WAT     H152641   1.371   5.624   7.488  0.5830 -1.0067 -1.3609
12709WAT     H252642   1.502   5.577   7.549  0.5073  0.2688 -0.1884
12709WAT    EPW52643   1.417   5.565   7.534  0.5782 -0.1693 -0.2520
12710WAT      O52644   4.601   4.822   7.091  0.8055 -0.7441  0.3092
12710WAT     H152645   4.529   4.795   7.148 -0.6278  1.4636 -0.3293
12710WAT     H252646   4.569   4.803   7.003  0.4094  1.4002 -0.0579
12710WAT    EPW52647   4.587   4.816   7.087  0.5643 -0.1700  0.1764
12711WAT      O52648   7.966   1.137   0.071 -0.0064  0.0981 -0.7151
12711WAT     H152649   8.026   1.084   0.122  1.0739  1.0348 -0.9611
12711WAT     H252650   8.012   1.221   0.061 -1.0771  0.6106 -1.4728
12711WAT    EPW52651   7.980   1.141   0.076 -0.0052  0.2893 -0.8475
12712WAT      O52652   7.757   0.032   0.118 -0.3866 -1.0399  0.5348
12712WAT     H152653   7.693   0.100   0.097  0.5877 -0.1350  0.4245
12712WAT     H252654   7.816   0.032   0.043  1.1726 -0.1266  1.7046
12712WAT    EPW52655   7.756   0.041   0.105 -0.0525 -0.8001  0.6746
12713WAT      O52656  10.839   0.522   2.871 -0.0596  0.2079  0.6886
12713WAT     H152657  10.775   0.578   2.915 -0.5175 -1.4025  2.1657
12713WAT     H252658  10.869   0.462   2.938  1.0778 -0.7672 -0.6307
12713WAT    EPW52659  10.834   0.522   2.885  0.0300 -0.1331  0.7095
12714WAT      O52660  10.875   2.843   1.690 -0.3576  0.2141 -0.7167
12714WAT     H152661  10.958   2.889   1.683 -0.8400  1.7776  2.1292
12714WAT     H252662  10.821   2.879   1.619  0.1141  2.2719 -0.1016
12714WAT    EPW52663  10.879   2.854   1.680 -0.3591  0.6917 -0.2602
12715WAT      O52664   7.148  10.064   2.640 -0.0703 -0.1738  0.1235
12715WAT     H152665   7.091  10.062   2.716  0.8528  1.0205  0.8933
12715WAT     H252666   7.237  10.062   2.676  0.4700  2.8118 -0.6952
12715WAT    EPW52667   7.152  10.064   2.655  0.1225  0.3781  0.1171
12716WAT      O52668   5.330   9.693   1.581  1.3455  0.1786 -0.1500
12716WAT     H152669   5.346   9.780   1.617  1.6272 -0.6897  1.9888
12716WAT     H252670   5.364   9.697   1.492  0.7501  2.4282 -0.3289
12716WAT    EPW52671   5.337   9.705   1.574  1.3041  0.3605  0.1085
12717WAT      O52672   4.866   9.374   2.233 -0.7941 -0.7532  0.1111
12717WAT     H152673   4.780   9.395   2.270 -0.6773  0.5466 -0.3252
12717WAT     H252674   4.850   9.366   2.139 -0.1151  1.5113 -0.2532
12717WAT    EPW52675   4.852   9.375   2.225 -0.6895 -0.2828  0.0055
12718WAT      O52676   9.380   3.185   0.684  0.2315  0.0430  0.8344
12718WAT     H152677   9.302   3.164   0.633  0.7093 -1.2309  0.5829
12718WAT     H252678   9.453   3.156   0.630  0.9039  1.2447  1.0514
12718WAT    EPW52679   9.380   3.178   0.670  0.3834  0.0335  0.8298
12719WAT      O52680   1.937   8.368   8.965 -0.1260  0.0398 -0.0880
12719WAT     H152681   1.998   8.400   8.899  0.0661 -0.5241 -0.1958
12719WAT     H252682   1.916   8.279   8.936 -0.3075 -0.0877  0.4266
12719WAT    EPW52683   1.942   8.360   8.952 -0.1245 -0.0513 -0.0344
12720WAT      O52684   0.681   6.354   6.857 -0.5854  0.1510 -0.6393
12720WAT     H152685   0.735   6.433   6.850  0.7000 -0.7263 -0.9087
12720WAT     H252686   0.601   6.375   6.809 -1.4852  2.2681  1.5720
12720WAT    EPW52687   0.678   6.367   6.850 -0.5345  0.3147 -0.3829
12721WAT      O52688   8.671   8.562   1.773 -0.4156  0.2636  0.3744
12721WAT     H152689   8.610   8.635   1.764  0.7638  1.2836  0.3376
12721WAT     H252690   8.695   8.540   1.683 -4.5829 -3.6623 -0.1319
12721WAT    EPW52691   8.666   8.569   1.760 -0.8097 -0.1197  0.3027
12722WAT      O52692   1.695   3.650   8.740 -0.6363 -0.2864  0.5710
12722WAT     H152693   1.699   3.560   8.707 -1.1706 -2.0716  4.7817
12722WAT     H252694   1.602   3.665   8.759 -0.2288 -0.0596  2.6597
12722WAT    EPW52695   1.683   3.640   8.738 -0.6530 -0.4920  1.4019
12723WAT      O52696   3.421   5.633   8.378  0.5028  0.7171  0.8695
12723WAT     H152697   3.359   5.611   8.448  2.3182 -1.4871  1.9084
12723WAT     H252698   3.475   5.703   8.416 -0.0795  1.2678  0.7010
12723WAT    EPW52699   3.420   5.639   8.392  0.6654  0.4990  0.9847
12724WAT      O52700   1.896   4.233   7.242  0.2787 -0.2069  0.1523
12724WAT     H152701   1.840   4.189   7.306  0.9433  0.0045  0.8921
12724WAT     H252702   1.850   4.315   7.223  0.7192  0.3523  1.3873
12724WAT    EPW52703   1.882   4.238   7.248  0.4244 -0.1054  0.4129
12725WAT      O52704   0.629   3.866   3.405  1.1254  0.2928  0.9510
12725WAT     H152705   0.616   3.803   3.476 -1.6418  0.4936  0.7102
12725WAT     H252706   0.679   3.937   3.445  0.9163 -0.2856  2.2928
12725WAT    EPW52707   0.634   3.867   3.419  0.7329  0.2429  1.0961
12726WAT      O52708   5.484   8.788   2.577  1.3993  1.4059 -0.6363
12726WAT     H152709   5.397   8.764   2.610  0.7436  0.7795 -2.7035
12726WAT     H252710   5.498   8.877   2.609  1.1104  0.6688  1.7952
12726WAT    EPW52711   5.474   8.797   2.586  1.2746  1.2264 -0.5884
12727WAT      O52712   2.342   7.902   6.599 -0.1159  0.5796 -0.0905
12727WAT     H152713   2.379   7.988   6.579  0.1905  0.7351  1.0794
12727WAT     H252714   2.373   7.845   6.529  3.1929  0.4792  1.3021
12727WAT    EPW52715   2.351   7.906   6.587  0.3610  0.5870  0.2477
12728WAT      O52716   9.357   5.445   7.606 -0.1488  0.1034  0.3150
12728WAT     H152717   9.320   5.371   7.558 -2.7505  2.2262 -1.1777
12728WAT     H252718   9.284   5.481   7.656  0.7644  2.2465  0.2121
12728WAT    EPW52719   9.343   5.440   7.606 -0.3710  0.6659  0.1044
12729WAT      O52720   1.041   6.127   8.740  0.3445  0.0296 -0.1514
12729WAT     H152721   1.021   6.201   8.797  0.1925  0.3287 -0.5840
12729WAT     H252722   1.135   6.115   8.748  0.1811 -0.6551  1.0212
12729WAT    EPW52723   1.051   6.135   8.748  0.3029 -0.0212 -0.0539
12730WAT      O52724   8.354   2.041   0.574 -1.0765  0.1726 -0.0606
12730WAT     H152725   8.363   2.067   0.482 -0.1932  0.4522  0.0901
12730WAT     H252726   8.342   2.123   0.621 -2.4555 -0.0397 -0.0073
12730WAT    EPW52727   8.354   2.055   0.568 -1.1415  0.1814 -0.0337
12731WAT      O52728   3.078   2.962   8.398  0.2290 -0.3469  0.3269
12731WAT     H152729   3.173   2.962   8.387  0.1167  0.2224 -0.8564
12731WAT     H252730   3.057   3.048   8.434  0.1266 -0.2916  0.1398
12731WAT    EPW52731   3.087   2.973   8.401  0.2005 -0.2645  0.1464
12732WAT      O52732   3.328   9.939   2.236  0.3040 -0.1535 -0.5819
12732WAT     H152733   3.305  10.025   2.201  1.4909 -0.5621 -2.5464
12732WAT     H252734   3.245   9.891   2.240 -0.2669  0.8425 -0.0772
12732WAT    EPW52735   3.314   9.944   2.232  0.3852 -0.0763 -0.7744
12733WAT      O52736  10.404   7.092   7.945 -0.6601  0.0849  0.1454
12733WAT     H152737  10.459   7.125   8.016 -0.7611  1.3212 -0.3248
12733WAT     H252738  10.464   7.083   7.871 -1.0906  1.7653 -0.4686
12733WAT    EPW52739  10.419   7.095   7.944 -0.7305  0.4694  0.0024
12734WAT      O52740   8.731   1.584   1.076 -0.5927 -0.6257 -0.1923
12734WAT     H152741   8.656   1.540   1.117  0.7027 -1.4838  1.3492
12734WAT     H252742   8.772   1.516   1.023 -0.5276 -0.3264 -0.5284
12734WAT    EPW52743   8.726   1.569   1.074 -0.4134 -0.6995 -0.0332
12735WAT      O52744   6.445   9.832   2.746  0.0560  0.4417  0.8892
12735WAT     H152745   6.391   9.775   2.692 -1.6983 -0.3620  3.3248
12735WAT     H252746   6.523   9.780   2.766 -0.2201 -0.0149  0.7763
12735WAT    EPW52747   6.448   9.818   2.742 -0.2120  0.2751  1.1957
12736WAT      O52748   6.816   0.367   0.561  0.3051  0.3558 -0.2266
12736WAT     H152749   6.873   0.306   0.609  0.9509 -1.1301 -2.7142
12736WAT     H252750   6.834   0.452   0.601 -0.0492 -0.8986  2.8688
12736WAT    EPW52751   6.826   0.370   0.573  0.3436 -0.0056 -0.1464
12737WAT      O52752   6.948   2.387   0.336  0.4413  0.1076  0.1077
12737WAT     H152753   7.010   2.387   0.409  0.1784  0.9510  0.3434
12737WAT     H252754   6.885   2.456   0.358 -0.9903 -1.1626  0.2279
12737WAT    EPW52755   6.948   2.396   0.349  0.2177  0.0513  0.1547
12738WAT      O52756   7.862   0.655   0.386 -0.3209 -0.1191 -0.8725
12738WAT     H152757   7.913   0.735   0.374 -0.0691 -0.2843 -0.9273
12738WAT     H252758   7.776   0.675   0.350 -0.8600  0.7515  0.7998
12738WAT    EPW52759   7.858   0.668   0.380 -0.3586 -0.0261 -0.6592
12739WAT      O52760   6.714   0.624   2.146 -0.3780  0.5678  0.6990
12739WAT     H152761   6.779   0.684   2.182 -0.8497  1.1606  0.5826
12739WAT     H252762   6.758   0.539   2.145 -0.2015  0.6153  2.2306
12739WAT    EPW52763   6.728   0.621   2.150 -0.4168  0.6523  0.8858
12740WAT      O52764   4.881   0.100   6.449  0.2758  0.0130 -0.3427
12740WAT     H152765   4.794   0.086   6.410 -0.3493  0.5165  0.8219
12740WAT     H252766   4.932   0.140   6.379  0.5313 -2.9899 -2.0752
12740WAT    EPW52767   4.876   0.103   6.434  0.2272 -0.3166 -0.4177
12741WAT      O52768   5.854   0.630   1.097 -0.1629 -0.5960 -0.0304
12741WAT     H152769   5.901   0.712   1.110 -0.1636 -0.3597 -1.4293
12741WAT     H252770   5.905   0.582   1.032 -0.6817 -1.2963  0.0581
12741WAT    EPW52771   5.867   0.634   1.090 -0.2315 -0.6572 -0.2033
12742WAT      O52772   6.486   1.925   1.856 -0.0181 -0.0530 -0.5114
12742WAT     H152773   6.493   1.851   1.797 -1.2674  1.9506 -3.4069
12742WAT     H252774   6.570   1.969   1.851 -0.3589  0.5275 -1.4896
12742WAT    EPW52775   6.498   1.921   1.848 -0.2279  0.2878 -1.0223
12743WAT      O52776   0.964   7.457   7.203 -0.2737 -0.7371 -0.7161
12743WAT     H152777   0.946   7.516   7.130 -0.3768 -0.5467 -0.5386
12743WAT     H252778   0.997   7.377   7.162 -0.0071 -0.5091 -0.9503
12743WAT    EPW52779   0.966   7.455   7.188 -0.2521 -0.6816 -0.7236
12744WAT      O52780   7.619   4.397   1.787  0.3731  0.3651 -0.1452
12744WAT     H152781   7.657   4.464   1.843 -0.3554  1.9141 -1.3999
12744WAT     H252782   7.687   4.378   1.722 -0.1940  1.6587 -1.1796
12744WAT    EPW52783   7.633   4.403   1.786  0.2022  0.7398 -0.4470
12745WAT      O52784   5.249   9.176   3.220  0.0923 -0.2331 -0.3522
12745WAT     H152785   5.265   9.226   3.300 -0.7311  0.8391 -0.8333
12745WAT     H252786   5.285   9.231   3.150  1.0149 -1.2666 -0.7187
12745WAT    EPW52787   5.256   9.190   3.221  0.1051 -0.2284 -0.4641
12746WAT      O52788   8.755   2.604   0.377  0.6451  0.5928 -0.1317
12746WAT     H152789   8.848   2.585   0.392  0.7624  0.7076 -0.6782
12746WAT     H252790   8.755   2.689   0.333  0.2797  0.5985 -0.1240
12746WAT    EPW52791   8.768   2.612   0.373  0.6118  0.6087 -0.2027
12747WAT      O52792  10.935   8.172   4.535  0.4208  0.2187 -0.9157
12747WAT     H152793  10.960   8.080   4.526  1.0136  0.3471 -0.6236
12747WAT     H252794  11.010   8.221   4.500 -0.3899  0.5800 -2.2342
12747WAT    EPW52795  10.948   8.167   4.529  0.3924  0.2832 -1.0512
12748WAT      O52796   2.135   4.987   8.871 -0.0186  0.3256  0.2803
12748WAT     H152797   2.145   5.082   8.869 -1.4035  0.5121 -2.5249
12748WAT     H252798   2.133   4.961   8.779 -1.5770 -2.2049  0.9257
12748WAT    EPW52799   2.136   4.996   8.859 -0.4070  0.0167 -0.0048
12749WAT      O52800   6.588   0.836   1.459 -0.5090  0.6198  1.1309
12749WAT     H152801   6.507   0.785   1.463  0.1354 -0.7560 -1.4193
12749WAT     H252802   6.575   0.895   1.385  0.8270  0.3480  0.6580
12749WAT    EPW52803   6.575   0.837   1.450 -0.2480  0.4025  0.7322
12750WAT      O52804   1.264   5.268   6.630 -0.4301  0.6380  0.0031
12750WAT     H152805   1.302   5.221   6.555  1.5244  1.2676  0.5400
12750WAT     H252806   1.292   5.359   6.617 -0.7400  0.8953  1.0797
12750WAT    EPW52807   1.273   5.273   6.618 -0.2131  0.7551  0.2158
12751WAT      O52808   5.631   8.549   2.542  0.1715 -0.4410  0.3131
12751WAT     H152809   5.655   8.559   2.450  1.5555 -0.7804  0.6153
12751WAT     H252810   5.589   8.632   2.565  3.2068  1.2617  0.3239
12751WAT    EPW52811   5.629   8.561   2.533  0.7546 -0.2613  0.3544
12752WAT      O52812  10.536   1.040   4.871  0.5766  0.4054  0.4351
12752WAT     H152813  10.456   1.006   4.832  0.6095  1.1533 -0.3154
12752WAT     H252814  10.513   1.127   4.902  1.1515  0.7383 -0.0284
12752WAT    EPW52815  10.523   1.047   4.870  0.6566  0.5479  0.2749
12753WAT      O52816   0.613   7.084   8.419  0.6637  0.5470  0.1671
12753WAT     H152817   0.581   6.995   8.406  0.2685  0.9578 -2.1332
12753WAT     H252818   0.534   7.137   8.425  0.8353  0.6658  3.1447
12753WAT    EPW52819   0.598   7.079   8.418  0.6343  0.6168  0.2565
12754WAT      O52820   6.264   0.316   1.325 -0.3050 -0.5580 -0.3515
12754WAT     H152821   6.300   0.227   1.318 -0.8947 -0.6812 -2.2528
12754WAT     H252822   6.173   0.307   1.299 -0.2948  0.6473 -0.8593
12754WAT    EPW52823   6.257   0.303   1.321 -0.3815 -0.4153 -0.6692
12755WAT      O52824   9.756   0.463   0.798 -0.3771  0.5028 -0.1695
12755WAT     H152825   9.750   0.504   0.711  1.6760  2.2455  0.4224
12755WAT     H252826   9.690   0.508   0.850 -1.2911 -0.2159 -0.6889
12755WAT    EPW52827   9.747   0.475   0.793 -0.2265  0.6378 -0.1599
12756WAT      O52828   9.319   2.156   2.374 -0.0143  0.9000  0.0238
12756WAT     H152829   9.264   2.214   2.322 -0.3962  0.6743  0.1698
12756WAT     H252830   9.312   2.190   2.463 -1.8112 -0.4895  0.4782
12756WAT    EPW52831   9.311   2.168   2.379 -0.3014  0.6869  0.1031
12757WAT      O52832   8.314   1.807   2.046  0.0471 -1.3059 -0.1397
12757WAT     H152833   8.262   1.729   2.062  1.3555 -1.6724  3.0417
12757WAT     H252834   8.296   1.864   2.121  0.6953  0.5826 -1.3404
12757WAT    EPW52835   8.305   1.805   2.058  0.3047 -1.1052  0.1215
12758WAT      O52836   5.139   2.092   0.827 -0.3037 -0.2779  0.1644
12758WAT     H152837   5.178   2.005   0.819 -0.5147 -0.3929  0.3941
12758WAT     H252838   5.204   2.150   0.787 -1.1187 -0.7845 -2.0266
12758WAT    EPW52839   5.153   2.088   0.821 -0.4392 -0.3598 -0.0943
12759WAT      O52840   9.873   1.086   2.113 -0.0042 -0.0277  0.3185
12759WAT     H152841   9.915   1.011   2.154  0.6906 -0.0262 -0.3665
12759WAT     H252842   9.782   1.058   2.099  0.5256 -1.2026 -1.0149
12759WAT    EPW52843   9.866   1.073   2.117  0.1569 -0.1824  0.0523
12760WAT      O52844   1.476   5.327   7.711  0.8585 -0.3498  0.2038
12760WAT     H152845   1.449   5.365   7.627  0.0407  0.3855  0.7788
12760WAT     H252846   1.549   5.382   7.740  1.4505 -0.8903 -0.2340
12760WAT    EPW52847   1.482   5.340   7.704  0.8287 -0.3240  0.2220
12761WAT      O52848   7.262   0.411   1.679 -0.4601 -0.2293 -0.7913
12761WAT     H152849   7.234   0.408   1.587  0.9234 -0.7210 -1.2171
12761WAT     H252850   7.189   0.371   1.727 -1.5051  0.6861 -1.5843
12761WAT    EPW52851   7.248   0.405   1.673 -0.4153 -0.1734 -0.9520
12762WAT      O52852   5.034   9.524   0.032  0.2059  0.2378  0.3098
12762WAT     H152853   4.960   9.550  -0.023  0.5615  0.1585 -0.2218
12762WAT     H252854   5.100   9.592   0.017  0.8673 -0.5647 -0.5307
12762WAT    EPW52855   5.033   9.536   0.022  0.3400  0.1211  0.1288
12763WAT      O52856   2.143   6.676   4.566  0.2190  0.0361 -0.6597
12763WAT     H152857   2.224   6.629   4.582  0.9785  1.0157 -1.5389
12763WAT     H252858   2.080   6.635   4.625  1.5271 -0.2299  0.6068
12763WAT    EPW52859   2.145   6.664   4.576  0.4916  0.1302 -0.6084
12764WAT      O52860   1.680  10.152   7.887  0.2412  0.8645  0.2788
12764WAT     H152861   1.719  10.071   7.921  2.1492  0.5606 -2.3014
12764WAT     H252862   1.587  10.142   7.903  0.3804 -1.9901 -0.1279
12764WAT    EPW52863   1.673  10.140   7.893  0.5112  0.4478 -0.1152
12765WAT      O52864   2.430   3.367   7.806  0.0843 -0.3356 -0.7046
12765WAT     H152865   2.375   3.301   7.765 -0.3434  0.5452 -1.5791
12765WAT     H252866   2.519   3.347   7.775  0.1237 -1.0965 -0.1491
12765WAT    EPW52867   2.435   3.356   7.797  0.0333 -0.3198 -0.7467
12766WAT      O52868   3.326  10.331   0.197  0.0707 -0.4555  0.2093
12766WAT     H152869   3.263  10.276   0.244 -0.5523 -2.2260 -2.4699
12766WAT     H252870   3.374  10.375   0.267 -3.5738  0.4701  2.4448
12766WAT    EPW52871   3.324  10.329   0.213 -0.4922 -0.5670  0.1507
12767WAT      O52872   8.741   2.633   1.351  0.1785  0.4314 -0.7243
12767WAT     H152873   8.771   2.665   1.266  0.6530  0.1147 -0.6785
12767WAT     H252874   8.680   2.700   1.381  2.7083  2.4393  0.3074
12767WAT    EPW52875   8.737   2.646   1.344  0.5741  0.6546 -0.5821
12768WAT      O52876   9.896   1.132   1.101 -0.4603  0.3001 -0.2379
12768WAT     H152877   9.822   1.072   1.099  0.6282 -1.1217 -2.5079
12768WAT     H252878   9.910   1.156   1.009  1.0919  1.5692  0.2703
12768WAT    EPW52879   9.888   1.127   1.089 -0.1121  0.2800 -0.4703
12769WAT      O52880   2.739   5.956   6.699 -0.0276 -0.7638 -0.7152
12769WAT     H152881   2.651   5.965   6.733 -0.2254 -0.7812 -1.2098
12769WAT     H252882   2.760   6.042   6.662 -0.2031 -1.0149 -1.4287
12769WAT    EPW52883   2.731   5.968   6.698 -0.0768 -0.7992 -0.8745
12770WAT      O52884   0.575   0.113   5.085  0.1954 -0.6923 -0.3738
12770WAT     H152885   0.598   0.047   5.151  2.5943  0.5920  0.2221
12770WAT     H252886   0.484   0.136   5.105  1.5711  1.8730  4.7226
12770WAT    EPW52887   0.566   0.107   5.096  0.6932 -0.1845  0.3772
12771WAT      O52888   8.850   0.805   0.128  0.6093 -0.2739  0.1639
12771WAT     H152889   8.857   0.839   0.217  1.8122  0.1845 -0.0781
12771WAT     H252890   8.888   0.717   0.132  0.2860 -0.4121  0.1878
12771WAT    EPW52891   8.856   0.798   0.140  0.7248 -0.2317  0.1351
12772WAT      O52892   7.262   0.848   3.206  0.7620  0.8471 -0.1598
12772WAT     H152893   7.311   0.862   3.125  1.0832  1.6844  0.1690
12772WAT     H252894   7.245   0.753   3.207  1.8345  0.6293 -0.5845
12772WAT    EPW52895   7.266   0.837   3.195  0.9456  0.9288 -0.1725
12773WAT      O52896   7.178   8.782   0.495 -0.3578  0.3975 -0.5554
12773WAT     H152897   7.150   8.824   0.414  0.0661  1.8500 -0.0001
12773WAT     H252898   7.273   8.796   0.497 -0.2738 -0.1807 -0.1078
12773WAT    EPW52899   7.187   8.790   0.485 -0.2909  0.5121 -0.4231
12774WAT      O52900   5.082   7.342   1.496 -0.0466 -0.2194  0.0276
12774WAT     H152901   5.058   7.294   1.416 -2.3954  0.4404  0.2570
12774WAT     H252902   5.069   7.279   1.567  1.0904 -0.5156 -0.0206
12774WAT    EPW52903   5.077   7.327   1.495 -0.2062 -0.1714  0.0515
12775WAT      O52904   8.366   0.460   0.529  0.2021 -0.8380 -0.3919
12775WAT     H152905   8.401   0.510   0.456 -1.3701 -0.0464 -0.6416
12775WAT     H252906   8.277   0.436   0.502 -0.5314 -0.2786  1.3461
12775WAT    EPW52907   8.359   0.463   0.516 -0.1016 -0.6598 -0.1956
12776WAT      O52908   2.098   5.573   6.873  0.2611  0.7147  0.6842
12776WAT     H152909   2.045   5.616   6.941 -3.4706  0.1990 -1.6016
12776WAT     H252910   2.055   5.489   6.859  3.0624 -0.7293  0.0299
12776WAT    EPW52911   2.085   5.568   6.880  0.1383  0.4561  0.2964
12777WAT      O52912  10.671   0.496   1.541 -0.5838 -0.1045  0.3988
12777WAT     H152913  10.694   0.585   1.567 -2.2597  0.2397  0.8122
12777WAT     H252914  10.631   0.505   1.455 -1.2327 -0.3805  0.6634
12777WAT    EPW52915  10.669   0.509   1.533 -0.8907 -0.0955  0.4882
12778WAT      O52916   0.834   4.408   7.743 -0.3451 -0.1290  0.1706
12778WAT     H152917   0.756   4.365   7.708 -0.5937  1.8068 -1.9168
12778WAT     H252918   0.800   4.484   7.790  0.2533  1.6508 -2.1376
12778WAT    EPW52919   0.819   4.412   7.745 -0.2990  0.3612 -0.4091
12779WAT      O52920   7.159   1.529   2.927 -0.0163  0.9928 -0.6730
12779WAT     H152921   7.203   1.464   2.873 -2.1082 -1.2604  0.1614
12779WAT     H252922   7.075   1.490   2.949 -0.2688  2.8126  2.2091
12779WAT    EPW52923   7.154   1.515   2.923 -0.3254  0.9357 -0.1827
12780WAT      O52924   7.966   2.957   0.580  0.3709  0.7930 -0.2869
12780WAT     H152925   7.915   3.030   0.614  1.1074  0.3905  1.8953
12780WAT     H252926   8.055   2.991   0.573  0.9452 -0.0999  1.8063
12780WAT    EPW52927   7.971   2.971   0.584  0.5436  0.6222  0.2770
12781WAT      O52928   3.938   4.902   8.518  0.6213 -0.3414 -0.3438
12781WAT     H152929   3.889   4.917   8.598  0.6445 -0.0535 -0.3825
12781WAT     H252930   3.965   4.989   8.490 -1.3161 -0.1451 -1.8795
12781WAT    EPW52931   3.935   4.915   8.525  0.3688 -0.2773 -0.5517
12782WAT      O52932   7.789   0.342   0.155  0.6402  0.7062 -0.0088
12782WAT     H152933   7.808   0.317   0.245  0.7557  0.7186 -0.0299
12782WAT     H252934   7.715   0.287   0.129  1.7364 -0.5740 -0.5091
12782WAT    EPW52935   7.782   0.331   0.163  0.8001  0.5390 -0.0776
12783WAT      O52936   5.705   4.708   0.337 -0.0244  0.0764 -0.9127
12783WAT     H152937   5.621   4.674   0.368  1.3488 -4.0202 -1.0740
12783WAT     H252938   5.770   4.669   0.395  1.9195  2.0226 -1.6179
12783WAT    EPW52939   5.703   4.698   0.348  0.4132 -0.2072 -1.0270
12784WAT      O52940   2.442   4.854   3.829  0.6628 -0.9195 -0.5900
12784WAT     H152941   2.415   4.944   3.845  0.8134 -0.7282 -1.3679
12784WAT     H252942   2.360   4.805   3.822  0.5839 -0.9202  0.1792
12784WAT    EPW52943   2.428   4.859   3.830  0.6722 -0.8943 -0.5912
12785WAT      O52944   0.600   8.415   8.972  0.2806 -0.0954  0.9261
12785WAT     H152945   0.513   8.422   9.011 -0.3260 -0.4694 -0.2852
12785WAT     H252946   0.611   8.497   8.924  0.1872 -0.4220  0.3283
12785WAT    EPW52947   0.590   8.427   8.971  0.1883 -0.1879  0.6876
12786WAT      O52948   3.983   9.736   3.153 -0.0019 -0.3114 -0.1781
12786WAT     H152949   4.036   9.802   3.109 -1.7056  0.5826 -1.0224
12786WAT     H252950   3.972   9.666   3.088 -1.9971  0.7224 -1.0333
12786WAT    EPW52951   3.988   9.735   3.139 -0.4898 -0.0567 -0.4023
12787WAT      O52952   8.383   5.188   8.299  0.3052 -0.3905  0.2086
12787WAT     H152953   8.422   5.116   8.348  0.2029  0.1334  1.0779
12787WAT     H252954   8.315   5.147   8.245 -1.3048 -0.7149  2.3430
12787WAT    EPW52955   8.379   5.173   8.298  0.0796 -0.3643  0.6051
12788WAT      O52956   9.553   0.951   0.701 -0.1614 -0.3520  0.0458
12788WAT     H152957   9.544   1.046   0.707  3.6229  0.2355 -0.8615
12788WAT     H252958   9.498   0.926   0.627  0.9179  1.6137 -1.5154
12788WAT    EPW52959   9.544   0.961   0.692  0.4802 -0.0152 -0.2797
12789WAT      O52960   0.530   7.035   7.491 -0.3780 -0.1580 -0.0589
12789WAT     H152961   0.440   7.024   7.522 -0.5482  2.7555  0.7927
12789WAT     H252962   0.582   7.044   7.571  0.8393 -2.4377 -0.5208
12789WAT    EPW52963   0.525   7.035   7.506 -0.2399 -0.0744 -0.0074
12790WAT      O52964   3.483   4.626   8.928 -0.0318  0.0008 -0.8408
12790WAT     H152965   3.558   4.681   8.906  0.7724  0.1564  1.8930
12790WAT     H252966   3.407   4.683   8.920  0.7290  1.4299  1.4266
12790WAT    EPW52967   3.483   4.641   8.924  0.1743  0.2098 -0.1810
12791WAT      O52968   7.044   3.172   4.156 -0.0494  0.9811  0.7452
12791WAT     H152969   7.033   3.150   4.064 -0.3163  0.3097  0.9268
12791WAT     H252970   6.955   3.191   4.187 -0.5400 -2.0918  1.6374
12791WAT    EPW52971   7.031   3.171   4.148 -0.1490  0.4872  0.8869
12792WAT      O52972   5.589   1.262   0.192  0.6764 -0.3251  0.0673
12792WAT     H152973   5.559   1.185   0.144  1.2961  0.1774 -1.1642
12792WAT     H252974   5.633   1.226   0.269 -0.5557 -1.1376  0.4305
12792WAT    EPW52975   5.591   1.247   0.196  0.5956 -0.3660 -0.0472
12793WAT      O52976   1.876   7.506   6.460 -0.0348  0.1865 -0.0747
12793WAT     H152977   1.893   7.495   6.366 -0.0515 -0.9768  0.0448
12793WAT     H252978   1.962   7.501   6.500 -0.0705  0.2403  0.0078
12793WAT    EPW52979   1.889   7.504   6.453 -0.0417  0.0403 -0.0479
12794WAT      O52980   2.769   7.983   6.898 -0.0286 -0.0494  0.0107
12794WAT     H152981   2.797   8.002   6.808 -1.8906 -0.3505 -0.6625
12794WAT     H252982   2.786   7.890   6.909 -0.6105 -0.2029 -0.3507
12794WAT    EPW52983   2.775   7.974   6.887 -0.3508 -0.1092 -0.1259
12795WAT      O52984   7.409   1.844   0.252 -0.0433 -0.3723  0.5558
12795WAT     H152985   7.354   1.766   0.254 -1.2456  0.3190 -1.7158
12795WAT     H252986   7.347   1.916   0.261  0.7116  0.3724 -0.0463
12795WAT    EPW52987   7.393   1.843   0.253 -0.1023 -0.1828  0.1768
12796WAT      O52988   9.333   1.761   2.584  0.3708  0.2934  0.2471
12796WAT     H152989   9.257   1.789   2.533  0.2457  2.7270  1.6302
12796WAT     H252990   9.301   1.755   2.674  1.4720 -0.1087  0.6348
12796WAT    EPW52991   9.319   1.764   2.589  0.4997  0.5614  0.4807
12797WAT      O52992   2.667   6.380   8.198 -0.4320  0.0874  0.2399
12797WAT     H152993   2.632   6.465   8.222 -0.7525 -0.2418  0.9858
12797WAT     H252994   2.741   6.367   8.257 -0.9719 -0.5568  0.7910
12797WAT    EPW52995   2.672   6.389   8.209 -0.5454 -0.0410  0.4106
12798WAT      O52996   6.836   8.806   2.163 -0.2320 -0.2002  0.1659
12798WAT     H152997   6.883   8.844   2.237  0.2845 -0.7996  0.1518
12798WAT     H252998   6.865   8.857   2.087  1.7677 -1.6501 -0.1200
12798WAT    EPW52999   6.846   8.818   2.163  0.0997 -0.4702  0.1262
12799WAT      O53000   0.696   5.584   7.801  0.1491  0.3566  0.3101
12799WAT     H153001   0.742   5.633   7.733  0.9753 -0.6626  0.0988
12799WAT     H253002   0.759   5.517   7.828 -1.0208 -0.7077  0.4463
12799WAT    EPW53003   0.711   5.582   7.796  0.1037  0.0818  0.3004
12800WAT      O53004   0.844   5.950   7.430 -0.5831 -0.0131  0.4263
12800WAT     H153005   0.792   5.912   7.359  2.9573 -1.9068 -1.4355
12800WAT     H253006   0.846   5.881   7.497  0.4105 -0.4649 -0.0435
12800WAT    EPW53007   0.837   5.936   7.429  0.0149 -0.3223  0.1192
12801WAT      O53008   5.102   2.821   4.312 -0.5448 -0.1645 -0.2990
12801WAT     H153009   5.074   2.885   4.378  2.2469  0.6193  0.2756
12801WAT     H253010   5.095   2.736   4.356  1.3830  0.3564  1.1531
12801WAT    EPW53011   5.097   2.818   4.327  0.0775  0.0075 -0.0319
12802WAT      O53012   8.718   2.372   0.960  1.0043  0.0446 -0.1602
12802WAT     H153013   8.670   2.392   0.880 -1.2722 -0.4104  1.0358
12802WAT     H253014   8.706   2.278   0.972  1.3598  0.1005  0.7171
12802WAT    EPW53015   8.710   2.362   0.951  0.7505 -0.0081  0.1132
12803WAT      O53016   7.945   1.799   2.232 -0.4993 -0.3776 -0.1389
12803WAT     H153017   7.941   1.865   2.163  1.9026  0.4129  0.3816
12803WAT     H253018   7.909   1.720   2.192 -1.2467  0.6394 -1.5533
12803WAT    EPW53019   7.940   1.797   2.217 -0.2811 -0.1392 -0.2569
12804WAT      O53020   9.922   8.013   8.135 -0.8208 -0.7436 -0.1295
12804WAT     H153021   9.831   7.999   8.110 -0.4695 -1.5954 -0.9684
12804WAT     H253022   9.968   8.028   8.052 -0.4535  1.3831  0.3893
12804WAT    EPW53023   9.916   8.013   8.121 -0.7257 -0.5751 -0.1712
12805WAT      O53024   7.268   1.878   2.205 -0.5340  0.2884  0.3417
12805WAT     H153025   7.298   1.961   2.241 -1.7257  0.8395  0.1018
12805WAT     H253026   7.189   1.858   2.254 -2.1306  0.9888 -1.8008
12805WAT    EPW53027   7.262   1.886   2.216 -0.9019  0.4534  0.0274
12806WAT      O53028   6.635   2.333   1.953  0.4725 -0.0599 -0.2931
12806WAT     H153029   6.724   2.304   1.935  0.0854 -0.0327 -2.7142
12806WAT     H253030   6.598   2.348   1.866 -1.2835  1.7876  0.6981
12806WAT    EPW53031   6.642   2.331   1.939  0.1898  0.1874 -0.4817
12807WAT      O53032   9.870   5.668   2.336 -0.0688  0.0439 -0.2579
12807WAT     H153033   9.861   5.725   2.412 -1.2504 -0.6812  0.1789
12807WAT     H253034   9.793   5.688   2.282 -1.8954 -2.7382  1.0616
12807WAT    EPW53035   9.858   5.678   2.339 -0.4654 -0.4187 -0.0262
12808WAT      O53036   0.134   8.341   7.909  0.4230  0.2339 -0.0516
12808WAT     H153037   0.082   8.280   7.960  1.0739  0.1068  0.4733
12808WAT     H253038   0.143   8.298   7.823 -1.3325  0.8066 -0.5677
12808WAT    EPW53039   0.129   8.327   7.904  0.2773  0.2923 -0.0505
12809WAT      O53040  10.878   2.343   1.337 -0.1424  0.1980 -0.2276
12809WAT     H153041  10.926   2.401   1.396  0.7963 -0.1726 -0.5995
12809WAT     H253042  10.916   2.256   1.353 -1.2994 -0.2609  0.0830
12809WAT    EPW53043  10.890   2.339   1.347 -0.1712  0.0886 -0.2357
12810WAT      O53044   7.705   6.167   2.083  0.4256 -0.4289  0.2591
12810WAT     H153045   7.688   6.229   2.012  0.6658 -0.3290  0.2880
12810WAT     H253046   7.715   6.082   2.039 -1.0864 -0.6607  0.3273
12810WAT    EPW53047   7.704   6.164   2.068  0.2577 -0.4463  0.2719
12811WAT      O53048   7.732   2.404   3.652  0.7221  0.0887  0.0269
12811WAT     H153049   7.745   2.356   3.571  1.1301  0.9239 -0.4178
12811WAT     H253050   7.820   2.423   3.684  0.7464  3.3590 -1.5508
12811WAT    EPW53051   7.745   2.400   3.645  0.7792  0.6303 -0.2398
12812WAT      O53052   1.271   5.109   7.318  0.1258  0.8807 -0.0422
12812WAT     H153053   1.330   5.134   7.389  0.4883  1.4701 -0.5410
12812WAT     H253054   1.326   5.058   7.258  0.1395  1.4368 -0.5130
12812WAT    EPW53055   1.286   5.106   7.319  0.1754  1.0314 -0.1702
12813WAT      O53056   2.827   9.660   8.047 -0.2693 -0.6745 -0.0599
12813WAT     H153057   2.822   9.577   8.000  1.5763 -2.1442  2.1262
12813WAT     H253058   2.918   9.689   8.035 -0.4081  0.1072  0.6626
12813WAT    EPW53059   2.839   9.653   8.040 -0.0442 -0.7658  0.3238
12814WAT      O53060   7.311   1.866   0.938 -0.2859 -0.2745  0.3415
12814WAT     H153061   7.338   1.803   1.005  0.9688 -1.0492 -0.8435
12814WAT     H253062   7.374   1.938   0.946 -1.9611  1.1165  1.9712
12814WAT    EPW53063   7.323   1.867   0.948 -0.3414 -0.1932  0.4002
12815WAT      O53064   5.685   8.806   8.881  0.2596 -0.1590  0.0338
12815WAT     H153065   5.632   8.742   8.833  1.4772 -1.3117  0.1787
12815WAT     H253066   5.700   8.766   8.967  0.0539  0.8573  0.5580
12815WAT    EPW53067   5.680   8.792   8.886  0.3934 -0.1769  0.1221
12816WAT      O53068   2.401   3.474   1.291 -0.2011 -0.3199 -0.8548
12816WAT     H153069   2.362   3.387   1.301  2.6295 -1.4741  1.7535
12816WAT     H253070   2.335   3.533   1.326 -0.5024 -1.9935  1.7422
12816WAT    EPW53071   2.387   3.470   1.297  0.1324 -0.6928 -0.1682
12817WAT      O53072  10.766   3.637   1.695 -0.6673  0.0475 -0.0257
12817WAT     H153073  10.813   3.577   1.636 -2.2785  1.2089 -2.6605
12817WAT     H253074  10.756   3.587   1.776  1.4835 -1.7259 -0.7529
12817WAT    EPW53075  10.771   3.622   1.698 -0.5965 -0.0334 -0.4691
12818WAT      O53076   2.779   8.503   7.120  0.1032  0.1107  0.0984
12818WAT     H153077   2.785   8.499   7.216  0.2241 -0.4049  0.0705
12818WAT     H253078   2.690   8.534   7.103  0.0085 -0.0043  0.3732
12818WAT    EPW53079   2.768   8.507   7.131  0.1065  0.0277  0.1309
12819WAT      O53080   8.471  10.218   2.472 -0.3817  0.5092  0.1092
12819WAT     H153081   8.396  10.192   2.526  0.9723 -1.5535  1.1361
12819WAT     H253082   8.452  10.183   2.385 -0.6854  0.1306  0.3269
12819WAT    EPW53083   8.459  10.210   2.468 -0.2432  0.1869  0.2733
12820WAT      O53084   7.269   1.766   2.976 -0.4957 -0.0725  0.0531
12820WAT     H153085   7.310   1.793   2.894  1.9623 -0.1510  1.1475
12820WAT     H253086   7.249   1.673   2.964 -0.8574  0.0953 -0.6999
12820WAT    EPW53087   7.272   1.757   2.964 -0.2189 -0.0607  0.0980
12821WAT      O53088   8.351   1.681   8.586  0.0598  0.1673  0.2081
12821WAT     H153089   8.391   1.626   8.654  0.9484  0.0494 -0.4007
12821WAT     H253090   8.296   1.742   8.635 -0.8408 -1.1518  0.9128
12821WAT    EPW53091   8.349   1.681   8.602  0.0582 -0.0222  0.2203
12822WAT      O53092   9.447   3.315   0.913  0.2139  0.4179 -0.0088
12822WAT     H153093   9.435   3.301   0.819  0.1700  0.2344  0.0239
12822WAT     H253094   9.527   3.268   0.935  0.5819  1.0004 -0.0768
12822WAT    EPW53095   9.456   3.307   0.904  0.2561  0.4705 -0.0135
12823WAT      O53096   7.750   3.400   1.382 -0.3176 -0.8516 -0.3065
12823WAT     H153097   7.656   3.390   1.367  0.0157 -3.4091 -1.1835
12823WAT     H253098   7.790   3.376   1.299  1.1288  1.4372 -0.3472
12823WAT    EPW53099   7.743   3.396   1.369 -0.0830 -0.8872 -0.4275
12824WAT      O53100   1.887   0.817   1.320 -0.1847  0.3653 -0.0403
12824WAT     H153101   1.924   0.787   1.403 -1.1084  0.7450  0.5191
12824WAT     H253102   1.844   0.739   1.284  0.3433  0.1621 -0.2455
12824WAT    EPW53103   1.886   0.803   1.326 -0.2369  0.3886  0.0064
12825WAT      O53104   2.774   8.025   8.763 -0.0131  0.3854 -0.2983
12825WAT     H153105   2.845   8.088   8.754 -0.1717  0.7449  0.8424
12825WAT     H253106   2.696   8.073   8.737  0.0585  0.1885 -0.9025
12825WAT    EPW53107   2.773   8.039   8.758 -0.0247  0.4067 -0.2275
12826WAT      O53108   0.824   1.995   1.394  0.0820  0.1162 -0.0872
12826WAT     H153109   0.869   1.989   1.310  0.3486  0.1812  0.0508
12826WAT     H253110   0.868   1.931   1.450 -0.1824 -0.0240 -0.0340
12826WAT    EPW53111   0.836   1.986   1.390  0.0823  0.1063 -0.0619
12827WAT      O53112  10.843   8.049   2.684 -1.1520  0.1972 -0.3031
12827WAT     H153113  10.786   8.071   2.610 -1.0291  0.7098 -0.2493
12827WAT     H253114  10.932   8.066   2.652 -1.1230  0.8312  0.0909
12827WAT    EPW53115  10.847   8.054   2.670 -1.1315  0.3486 -0.2440
12828WAT      O53116   8.071   2.202   1.989 -0.5290  0.5107 -0.1549
12828WAT     H153117   8.039   2.112   1.979  0.2906  0.0542  1.0414
12828WAT     H253118   8.052   2.244   1.905 -1.7116 -0.5246 -0.4277
12828WAT    EPW53119   8.064   2.195   1.977 -0.5770  0.3139 -0.0331
12829WAT      O53120   5.960   5.095   2.362  0.0983 -0.4141  0.4612
12829WAT     H153121   6.017   5.144   2.421 -0.0306 -0.6293  0.7750
12829WAT     H253122   5.938   5.016   2.412 -0.4730 -0.3313  0.3531
12829WAT    EPW53123   5.964   5.091   2.377  0.0062 -0.4315  0.4882
12830WAT      O53124   0.452   3.466   0.923 -0.6424 -0.9967  0.2082
12830WAT     H153125   0.534   3.429   0.891  0.0059  0.3071  0.2742
12830WAT     H253126   0.392   3.461   0.848  0.8932  2.1601 -1.4577
12830WAT    EPW53127   0.455   3.461   0.909 -0.3543 -0.4083 -0.0028
12831WAT      O53128   9.221   9.069   0.412 -0.5115 -0.1948 -0.0568
12831WAT     H153129   9.189   9.154   0.442  2.8776  0.9670  0.8072
12831WAT     H253130   9.266   9.033   0.488  3.3561  0.1689 -1.9343
12831WAT    EPW53131   9.223   9.076   0.426  0.4454  0.0072 -0.1905
12832WAT      O53132   4.633   1.263   3.435  0.3252  0.2417  0.4158
12832WAT     H153133   4.677   1.341   3.404  1.1957 -0.9591 -1.5604
12832WAT     H253134   4.699   1.216   3.486  0.9910 -0.8349 -1.3181
12832WAT    EPW53135   4.647   1.267   3.437  0.5281 -0.0586 -0.0736
12833WAT      O53136   8.336   0.710   1.655 -0.5402 -0.3129 -0.3609
12833WAT     H153137   8.395   0.777   1.620 -1.0607 -0.0150 -0.6733
12833WAT     H253138   8.364   0.699   1.746  1.0380 -1.3179 -0.9242
12833WAT    EPW53139   8.348   0.717   1.662 -0.4005 -0.4061 -0.4764
12834WAT      O53140   1.174   2.124   1.868 -0.4098 -0.0649 -0.5332
12834WAT     H153141   1.241   2.173   1.821 -0.7195  1.1662  0.2635
12834WAT     H253142   1.099   2.184   1.874 -0.7342 -0.5510  0.6159
12834WAT    EPW53143   1.173   2.138   1.863 -0.4934  0.0333 -0.2766
12835WAT      O53144   8.599   4.113   0.684  0.3949 -0.0802  0.1404
12835WAT     H153145   8.559   4.109   0.597 -0.6531 -0.7810  0.6324
12835WAT     H253146   8.676   4.057   0.679  1.9058  1.9892 -1.0877
12835WAT    EPW53147   8.604   4.105   0.672  0.4559  0.1001  0.0433
12836WAT      O53148   1.463   7.709   7.473 -0.0255  0.0370  0.1028
12836WAT     H153149   1.546   7.726   7.517  0.8156 -1.1653 -0.9842
12836WAT     H253150   1.409   7.785   7.495  0.1897 -0.6540  3.5117
12836WAT    EPW53151   1.467   7.722   7.482  0.1138 -0.2127  0.4089
12837WAT      O53152   9.991   3.088   0.200  0.1522 -0.2322  0.6316
12837WAT     H153153   9.976   3.043   0.283  2.1413 -2.5793 -0.1549
12837WAT     H253154   9.936   3.166   0.205 -1.1468 -1.1837  3.3877
12837WAT    EPW53155   9.982   3.093   0.212  0.2437 -0.6671  0.8914
12838WAT      O53156   1.805   9.664   8.235 -0.2185 -0.2543 -0.2414
12838WAT     H153157   1.841   9.753   8.234 -1.7541  0.4198  1.1197
12838WAT     H253158   1.859   9.616   8.297  1.2334 -0.5948 -1.6988
12838WAT    EPW53159   1.817   9.669   8.243 -0.2295 -0.2112 -0.2542
12839WAT      O53160   5.049   2.684   1.798 -0.0371 -0.2633 -0.5850
12839WAT     H153161   5.012   2.636   1.724  0.2708 -1.9680  0.3256
12839WAT     H253162   5.131   2.720   1.764 -0.4555 -0.0414 -1.3970
12839WAT    EPW53163   5.055   2.682   1.784 -0.0515 -0.4588 -0.5720
12840WAT      O53164   2.336   8.947   8.408  0.4974 -1.1468  0.5458
12840WAT     H153165   2.403   8.894   8.451  1.0948  0.9412  2.3451
12840WAT     H253166   2.383   9.024   8.377 -0.7842 -0.4831  0.1908
12840WAT    EPW53167   2.351   8.950   8.409  0.4072 -0.7839  0.7353
12841WAT      O53168   0.374   0.496   1.667  0.4528  0.1653 -0.1405
12841WAT     H153169   0.366   0.452   1.751  2.9485  1.5473  0.9245
12841WAT     H253170   0.426   0.436   1.613  1.1171  0.4211  0.2136
12841WAT    EPW53171   0.380   0.482   1.671  0.8696  0.3813  0.0466
12842WAT      O53172   8.888   4.936   0.604 -0.0952 -0.2853 -0.2007
12842WAT     H153173   8.982   4.928   0.622  0.6677  0.6870 -3.1270
12842WAT     H253174   8.870   5.029   0.613 -0.5820 -0.3583 -0.4220
12842WAT    EPW53175   8.898   4.947   0.608 -0.0582 -0.1667 -0.6159
12843WAT      O53176   5.808   4.492   1.751 -0.6648 -0.0165  0.1256
12843WAT     H153177   5.810   4.399   1.730 -2.5767  0.4335 -2.5661
12843WAT     H253178   5.893   4.525   1.722  0.9613 -1.1321  3.1049
12843WAT    EPW53179   5.820   4.484   1.744 -0.7024 -0.1042  0.1636
12844WAT      O53180   7.719   1.262   0.064 -0.1728  0.0687  0.0820
12844WAT     H153181   7.808   1.237   0.088 -0.1737  1.0512  1.2066
12844WAT     H253182   7.729   1.316  -0.014  0.1397 -0.4176 -0.2212
12844WAT    EPW53183   7.732   1.266   0.057 -0.1314  0.1341  0.1903
12845WAT      O53184   8.772   4.281   1.755  0.0183 -0.1782 -0.0589
12845WAT     H153185   8.858   4.263   1.718 -0.1847 -0.0849 -0.5849
12845WAT     H253186   8.788   4.299   1.847  0.9127  2.4713 -0.6367
12845WAT    EPW53187   8.785   4.281   1.762  0.1092  0.1836 -0.2045
12846WAT      O53188   0.941   5.163   1.808  0.5881 -0.4041  0.3947
12846WAT     H153189   1.009   5.095   1.812  0.1355 -0.8202  1.7914
12846WAT     H253190   0.967   5.226   1.876 -1.3875 -1.5606  2.3527
12846WAT    EPW53191   0.954   5.163   1.818  0.2678 -0.6115  0.8372
12847WAT      O53192  10.179   2.270   3.456 -0.0366  0.1710  0.0508
12847WAT     H153193  10.118   2.232   3.393  2.6681 -1.8851 -1.5234
12847WAT     H253194  10.215   2.347   3.411 -0.2560  0.4470  0.3368
12847WAT    EPW53195  10.176   2.275   3.442  0.2913 -0.0638 -0.1192
12848WAT      O53196   6.564   9.500   0.484 -0.0579 -0.2952 -0.3183
12848WAT     H153197   6.578   9.504   0.579 -1.0757 -1.0432 -0.1227
12848WAT     H253198   6.471   9.517   0.473 -0.5263 -2.9052 -0.9500
12848WAT    EPW53199   6.554   9.503   0.495 -0.2539 -0.7381 -0.3759
12849WAT      O53200   9.275   1.040   0.790  0.2494 -0.4894 -0.3249
12849WAT     H153201   9.186   1.008   0.783 -0.1360  0.4946 -0.1215
12849WAT     H253202   9.317   1.015   0.708 -0.5399 -0.0153 -0.8829
12849WAT    EPW53203   9.269   1.033   0.779  0.0949 -0.2971 -0.3716
12850WAT      O53204   1.882   8.813   4.360  0.1479 -0.3571 -0.1306
12850WAT     H153205   1.902   8.904   4.337 -1.2287 -0.1632 -0.6668
12850WAT     H253206   1.940   8.761   4.305  1.1398  0.1756  0.3670
12850WAT    EPW53207   1.892   8.818   4.350  0.0972 -0.2618 -0.1357
12851WAT      O53208   0.693   3.097   8.788 -0.0139  1.0879  0.2757
12851WAT     H153209   0.769   3.068   8.838 -1.1782 -1.0337  0.9489
12851WAT     H253210   0.621   3.097   8.852 -0.8732  1.6534 -0.6567
12851WAT    EPW53211   0.693   3.093   8.803 -0.2808  0.8826  0.2418
12852WAT      O53212   5.625   8.327   8.720  0.1067  0.1388  0.0489
12852WAT     H153213   5.688   8.267   8.680  1.3277  1.2409  0.2481
12852WAT     H253214   5.540   8.287   8.703  0.9151 -2.3294  1.3104
12852WAT    EPW53215   5.622   8.314   8.713  0.3746 -0.0415  0.2418
12853WAT      O53216   6.333  10.136   0.786 -0.8612  0.0466 -0.7892
12853WAT     H153217   6.250  10.150   0.832 -0.8310 -2.7474  0.3183
12853WAT     H253218   6.324  10.186   0.705 -2.7355  1.5288  0.2505
12853WAT    EPW53219   6.321  10.144   0.781 -1.1046 -0.1264 -0.5060
12854WAT      O53220  10.995   4.333   1.047  0.0833 -0.1162  0.0859
12854WAT     H153221  10.925   4.384   1.087  0.2775 -1.0969  1.7742
12854WAT     H253222  11.069   4.343   1.108  0.1534 -2.2978  0.4260
12854WAT    EPW53223  10.996   4.341   1.060  0.1183 -0.5333  0.3535
12855WAT      O53224   7.650   1.046   8.882 -0.3841 -0.1518  0.4535
12855WAT     H153225   7.674   1.089   8.799 -0.0786  0.5432  0.8967
12855WAT     H253226   7.664   1.113   8.949 -1.1412 -0.5427  1.0172
12855WAT    EPW53227   7.655   1.061   8.880 -0.4439 -0.1118  0.5865
12856WAT      O53228   8.327   0.427   2.302  0.2454 -0.0731 -0.1473
12856WAT     H153229   8.314   0.519   2.280 -0.1738  0.2685  1.4501
12856WAT     H253230   8.335   0.384   2.217  2.2012  1.6534 -0.9175
12856WAT    EPW53231   8.326   0.433   2.287  0.4482  0.1997 -0.0381
12857WAT      O53232   6.101   0.268   8.489 -0.4517 -0.3450 -0.0630
12857WAT     H153233   6.134   0.179   8.502  1.3214  0.5761  2.5437
12857WAT     H253234   6.010   0.264   8.520 -0.2321 -1.1236  0.5071
12857WAT    EPW53235   6.093   0.255   8.495 -0.1886 -0.3262  0.3562
12858WAT      O53236  10.161   3.380   0.134 -0.1540 -0.9333 -0.0482
12858WAT     H153237  10.193   3.321   0.202 -1.8456 -1.3420  0.4408
12858WAT     H253238  10.066   3.380   0.145 -0.2591  1.4218 -0.4173
12858WAT    EPW53239  10.153   3.373   0.144 -0.3905 -0.6765 -0.0324
12859WAT      O53240   6.815   9.715   1.866  0.2633  0.0503 -0.1857
12859WAT     H153241   6.878   9.674   1.925 -2.3046 -2.2258  1.1937
12859WAT     H253242   6.740   9.655   1.864 -1.1885  1.6757 -3.1595
12859WAT    EPW53243   6.813   9.702   1.873 -0.2668 -0.0353 -0.3959
12860WAT      O53244   4.700   0.815   7.396 -0.1004 -0.4239 -0.0674
12860WAT     H153245   4.640   0.820   7.322  1.0695 -1.1178 -1.0992
12860WAT     H253246   4.711   0.906   7.424 -1.7082 -0.3052  0.2224
12860WAT    EPW53247   4.694   0.828   7.390 -0.1583 -0.4998 -0.1655
12861WAT      O53248   1.955   5.645   8.468  0.6014  0.3555 -0.9395
12861WAT     H153249   1.887   5.578   8.464  0.1743  0.7772 -0.8428
12861WAT     H253250   2.012   5.617   8.539 -1.1969  1.5786  1.1255
12861WAT    EPW53251   1.953   5.633   8.476  0.3079  0.5722 -0.6542
12862WAT      O53252  10.174   2.322   2.440  0.5274 -0.3287 -0.0010
12862WAT     H153253  10.141   2.292   2.356  2.6098 -0.7062 -0.7484
12862WAT     H253254  10.262   2.286   2.445  2.2242  3.4037  0.2640
12862WAT    EPW53255  10.181   2.313   2.430  1.0257  0.1138 -0.0647
12863WAT      O53256   8.942   2.960   1.360  0.4711 -0.1362  0.1649
12863WAT     H153257   8.895   3.015   1.297  2.3153  1.8653  0.4224
12863WAT     H253258   8.959   2.879   1.312 -2.6673 -0.7686 -0.1100
12863WAT    EPW53259   8.938   2.957   1.345  0.3004  0.0443  0.1627
12864WAT      O53260   1.621   6.271   8.851 -0.0318  0.5070  0.2970
12864WAT     H153261   1.646   6.178   8.846  0.7058  0.7093  0.0836
12864WAT     H253262   1.628   6.292   8.944 -2.1491 -0.1576  0.6442
12864WAT    EPW53263   1.625   6.261   8.863 -0.2138  0.4461  0.3147
12865WAT      O53264   9.942   3.557   1.023  0.2364  0.3808  0.0531
12865WAT     H153265   9.904   3.636   0.984  1.8149  0.9773 -0.3138
12865WAT     H253266  10.012   3.531   0.963  1.7592  0.4909  1.7072
12865WAT    EPW53267   9.946   3.564   1.010  0.6461  0.4740  0.2229
12866WAT      O53268   9.743   5.106   1.842  0.2564 -0.4766 -0.1481
12866WAT     H153269   9.709   5.114   1.753 -0.9264  1.1240  0.4159
12866WAT     H253270   9.666   5.110   1.898  0.8178 -2.9589  0.9557
12866WAT    EPW53271   9.728   5.108   1.837  0.1740 -0.5929  0.0718
12867WAT      O53272  10.090   1.150   1.586 -0.5695  0.3517  0.0205
12867WAT     H153273  10.052   1.235   1.607  0.0746  0.8901 -0.9388
12867WAT     H253274  10.047   1.089   1.646 -0.9341  1.3707  0.8144
12867WAT    EPW53275  10.079   1.153   1.597 -0.5326  0.5572 -0.0013
12868WAT      O53276   4.241   8.706   7.959 -0.2937  0.2258 -0.0974
12868WAT     H153277   4.275   8.754   8.035 -1.0014 -1.9664  1.7055
12868WAT     H253278   4.160   8.752   7.935  0.7257  1.8592 -0.5818
12868WAT    EPW53279   4.235   8.718   7.966 -0.2527  0.1516  0.0765
12869WAT      O53280   9.422   0.302   0.707  0.4738  0.4782  0.1315
12869WAT     H153281   9.404   0.383   0.755 -0.9529  0.5241 -0.4210
12869WAT     H253282   9.459   0.332   0.624  0.9673  0.4921  0.3484
12869WAT    EPW53283   9.425   0.317   0.703  0.3510  0.4861  0.0873
12870WAT      O53284   8.079   1.171   0.437 -0.7432 -0.4910  0.1108
12870WAT     H153285   8.129   1.172   0.355 -1.3243 -0.3010 -0.2473
12870WAT     H253286   7.990   1.145   0.411 -1.6575  2.2088  0.2532
12870WAT    EPW53287   8.074   1.168   0.423 -0.9403 -0.1099  0.0824
12871WAT      O53288   0.395   1.987   2.111 -0.3360 -0.5815 -0.4468
12871WAT     H153289   0.342   2.040   2.170  0.9168  1.7995 -1.3159
12871WAT     H253290   0.425   2.048   2.044  0.5749 -2.5891 -1.9807
12871WAT    EPW53291   0.392   2.002   2.110 -0.0506 -0.5323 -0.7639
12872WAT      O53292  10.989   7.488   4.466 -0.2608  0.8688 -0.3176
12872WAT     H153293  10.971   7.492   4.560  1.1023  0.1470  0.0021
12872WAT     H253294  10.961   7.399   4.441  2.4892 -0.2288  0.1645
12872WAT    EPW53295  10.983   7.477   4.475  0.2817  0.6289 -0.2117
12873WAT      O53296   0.897   9.709   8.760  0.2499 -0.0675 -0.0831
12873WAT     H153297   0.947   9.773   8.710  0.6854 -0.8710 -0.7119
12873WAT     H253298   0.830   9.678   8.699 -1.1828  1.1468  0.8121
12873WAT    EPW53299   0.894   9.713   8.745  0.1183 -0.0129 -0.0482
12874WAT      O53300   0.533   3.342   0.397 -0.0044  0.0846 -0.0072
12874WAT     H153301   0.474   3.388   0.337 -1.4609 -0.0129  1.2864
12874WAT     H253302   0.551   3.258   0.354  0.3224  0.6631 -1.0387
12874WAT    EPW53303   0.528   3.337   0.383 -0.1534  0.1479  0.0274
12875WAT      O53304   1.181   1.528   0.175  0.2129  0.2409  0.0839
12875WAT     H153305   1.128   1.586   0.121  0.5016  2.4064  1.9557
12875WAT     H253306   1.138   1.442   0.169 -2.7086  1.5677  0.4258
12875WAT    EPW53307   1.169   1.524   0.167 -0.1343  0.7016  0.3759
12876WAT      O53308  10.882   9.309   8.917  0.9249  0.0770 -0.4789
12876WAT     H153309  10.871   9.372   8.988 -0.7571  1.2559 -1.7107
12876WAT     H253310  10.916   9.361   8.844 -2.0382  0.0183 -2.0346
12876WAT    EPW53311  10.885   9.324   8.917  0.3119  0.2251 -0.8469
12877WAT      O53312   6.128   7.533   1.215  0.0495 -0.2209  1.0451
12877WAT     H153313   6.159   7.556   1.303 -0.1181 -0.5174  1.1826
12877WAT     H253314   6.078   7.610   1.187  0.8537  0.2389  0.8416
12877WAT    EPW53315   6.125   7.546   1.223  0.1335 -0.1996  1.0363
12878WAT      O53316  10.695   8.069   7.647 -0.0150  0.1070 -0.4705
12878WAT     H153317  10.671   7.979   7.672 -1.8247 -0.6678 -4.2557
12878WAT     H253318  10.784   8.061   7.613  1.4640  0.7001  2.8527
12878WAT    EPW53319  10.703   8.056   7.646 -0.0587  0.0834 -0.5317
12879WAT      O53320  10.609   1.736   1.238 -0.2045  0.0761  0.0773
12879WAT     H153321  10.544   1.685   1.286  0.5552  0.3277  1.4170
12879WAT     H253322  10.649   1.674   1.177  0.0265 -0.6999  0.9988
12879WAT    EPW53323  10.606   1.721   1.236 -0.0739  0.0069  0.3755
12880WAT      O53324   0.160   4.673   3.213 -0.1059 -0.2797 -0.3127
12880WAT     H153325   0.105   4.699   3.287  2.8366 -1.6865  2.5949
12880WAT     H253326   0.209   4.753   3.191 -1.1103  0.1886 -0.9482
12880WAT    EPW53327   0.159   4.687   3.220  0.1497 -0.4032 -0.0130
12881WAT      O53328  10.614   1.381   0.059  0.5452 -0.2316 -0.1425
12881WAT     H153329  10.648   1.440  -0.009  0.8949 -0.5503 -0.2485
12881WAT     H253330  10.550   1.326   0.013 -0.4330  0.6384  0.1436
12881WAT    EPW53331  10.610   1.382   0.044  0.4625 -0.1588 -0.1188
12882WAT      O53332  10.128   7.382   8.372 -0.1194 -0.0241  0.2660
12882WAT     H153333  10.144   7.476   8.363 -0.6539 -0.0758 -2.0219
12882WAT     H253334  10.105   7.370   8.464 -1.7969  2.3761  0.2518
12882WAT    EPW53335  10.127   7.393   8.383 -0.4110  0.2859 -0.0372
12883WAT      O53336   2.027   8.357   8.184 -0.4254  0.1765  0.3561
12883WAT     H153337   2.042   8.264   8.164  1.4872 -0.0347  2.3365
12883WAT     H253338   2.086   8.404   8.126 -1.4640  0.1968 -0.7153
12883WAT    EPW53339   2.037   8.351   8.174 -0.3099  0.1512  0.4764
12884WAT      O53340   9.066   6.678   8.228 -0.6347  0.4663 -0.0303
12884WAT     H153341   8.976   6.690   8.197 -0.3304 -0.4674 -1.3934
12884WAT     H253342   9.095   6.598   8.185 -0.1711 -1.0206  2.8414
12884WAT    EPW53343   9.058   6.669   8.218 -0.5336  0.1466  0.1688
12885WAT      O53344   8.640   3.276   0.344  0.9240  0.2246  0.5980
12885WAT     H153345   8.728   3.239   0.335  0.7090 -0.3998  0.9635
12885WAT     H253346   8.614   3.298   0.255  0.7538 -1.2673  0.2529
12885WAT    EPW53347   8.649   3.274   0.331  0.8731 -0.0545  0.6007
12886WAT      O53348   3.076   7.933   6.180 -0.2641  0.2486  0.3877
12886WAT     H153349   3.099   7.841   6.168  1.1500  0.3372  2.0168
12886WAT     H253350   3.031   7.936   6.265  0.8366  1.1972  0.9799
12886WAT    EPW53351   3.073   7.922   6.190  0.0676  0.3853  0.6807
12887WAT      O53352  10.465   3.647   1.994  0.0592 -0.2194  0.0283
12887WAT     H153353  10.392   3.593   2.023 -0.8170  1.1376  0.4767
12887WAT     H253354  10.542   3.590   2.000 -0.7631 -1.2814  0.8453
12887WAT    EPW53355  10.466   3.633   1.999 -0.1655 -0.1804  0.1952
12888WAT      O53356   1.098   2.835   3.963  0.2073 -0.2602  0.2298
12888WAT     H153357   1.058   2.816   3.879  0.7058  1.3375 -0.4181
12888WAT     H253358   1.056   2.916   3.992 -0.0410 -0.8477  1.5846
12888WAT    EPW53359   1.087   2.843   3.956  0.2403 -0.1270  0.3229
12889WAT      O53360   8.878   3.137   0.251  0.3737  0.0613 -0.2676
12889WAT     H153361   8.915   3.189   0.181  0.0978 -0.2033 -0.6159
12889WAT     H253362   8.949   3.080   0.279  0.6729  0.6156  0.1127
12889WAT    EPW53363   8.892   3.136   0.245  0.3772  0.0997 -0.2634
12890WAT      O53364   0.058   8.652   7.102  0.9514  0.1928  0.3740
12890WAT     H153365   0.074   8.745   7.118 -1.1949  0.5345  0.7810
12890WAT     H253366   0.034   8.648   7.009 -0.2100  0.2748  0.6500
12890WAT    EPW53367   0.057   8.664   7.092  0.5151  0.2489  0.4642
12891WAT      O53368   8.517   3.264   0.883  0.2701  0.3026 -0.3718
12891WAT     H153369   8.604   3.280   0.918 -0.6835 -0.5882  2.7643
12891WAT     H253370   8.494   3.345   0.838  2.4447  0.7780 -0.7052
12891WAT    EPW53371   8.525   3.277   0.882  0.4311  0.2477 -0.0021
12892WAT      O53372   4.358   7.654   7.826 -0.3570  0.7282  0.0632
12892WAT     H153373   4.450   7.636   7.845 -0.0692  2.2119  0.2311
12892WAT     H253374   4.340   7.605   7.746  0.4852  0.1746  0.1970
12892WAT    EPW53375   4.368   7.645   7.818 -0.2079  0.8509  0.1030
12893WAT      O53376  10.703   6.838   8.649 -0.0581  0.2604  0.7410
12893WAT     H153377  10.741   6.926   8.649  1.3338 -0.3125  0.0360
12893WAT     H253378  10.614   6.850   8.616  0.2581  1.3559  0.2539
12893WAT    EPW53379  10.696   6.851   8.645  0.1678  0.3295  0.5836
12894WAT      O53380   6.254   2.179   1.485 -0.4346  0.1422 -0.4012
12894WAT     H153381   6.270   2.244   1.553  0.9860  0.5964 -1.1362
12894WAT     H253382   6.332   2.181   1.430  0.1377 -2.9486  0.1520
12894WAT    EPW53383   6.266   2.188   1.486 -0.1717 -0.2055 -0.4251
12895WAT      O53384   7.059   5.721   0.569  0.1668  0.5857 -0.6520
12895WAT     H153385   7.124   5.774   0.615 -0.9104  1.5443 -0.1936
12895WAT     H253386   7.043   5.768   0.487  1.7724 -0.8977 -1.9088
12895WAT    EPW53387   7.066   5.734   0.564  0.2365  0.5167 -0.7573
12896WAT      O53388   2.158   9.239   8.201 -0.2001  0.1450 -0.0321
12896WAT     H153389   2.100   9.281   8.137 -1.2219  0.1042  0.8422
12896WAT     H253390   2.136   9.281   8.284 -0.7033 -1.5699  0.7345
12896WAT    EPW53391   2.148   9.250   8.204 -0.4013 -0.0863  0.1841
12897WAT      O53392   1.120   5.584   7.330 -0.0564 -0.2796 -0.4178
12897WAT     H153393   1.114   5.669   7.287 -2.0720 -1.4014 -2.5609
12897WAT     H253394   1.149   5.524   7.262 -1.3688 -1.7833  0.2744
12897WAT    EPW53395   1.123   5.587   7.315 -0.4954 -0.6258 -0.6089
12898WAT      O53396   7.040   1.921   0.995 -0.2681 -0.2497  0.2235
12898WAT     H153397   6.990   1.919   0.914  0.9845  3.5401 -0.8437
12898WAT     H253398   7.126   1.886   0.970  0.0666  0.7639 -0.0692
12898WAT    EPW53399   7.045   1.916   0.981 -0.0589  0.3839  0.0441
12899WAT      O53400  10.784   1.376   0.301 -1.1748 -0.6342 -0.0204
12899WAT     H153401  10.722   1.340   0.238  1.2859 -1.0519 -2.3901
12899WAT     H253402  10.870   1.356   0.264  0.4172  0.3305  2.8333
12899WAT    EPW53403  10.787   1.368   0.288 -0.6404 -0.5621  0.0434
12900WAT      O53404   2.139   7.630   8.262 -0.5147 -0.1416 -0.4459
12900WAT     H153405   2.083   7.558   8.236  0.7560 -1.0989 -0.6278
12900WAT     H253406   2.208   7.632   8.196 -1.6268  2.6048 -1.6576
12900WAT    EPW53407   2.141   7.621   8.250 -0.4938  0.0942 -0.6294
12901WAT      O53408   8.434   1.631   1.419  0.5023 -0.5153 -0.5837
12901WAT     H153409   8.470   1.672   1.340 -0.7276  2.3828  0.2035
12901WAT     H253410   8.373   1.565   1.386  0.0281  0.6070 -2.1214
12901WAT    EPW53411   8.431   1.628   1.404  0.2775  0.0150 -0.6827
12902WAT      O53412   4.152   9.539   1.235 -0.0746  0.0616  0.8177
12902WAT     H153413   4.129   9.623   1.196  1.5682  1.1525  2.0412
12902WAT     H253414   4.201   9.562   1.314 -0.6921 -2.0625  1.8933
12902WAT    EPW53415   4.156   9.553   1.241  0.0608 -0.0753  1.1209
12903WAT      O53416   7.645   4.341   3.203  0.7949 -1.0077  0.5354
12903WAT     H153417   7.589   4.366   3.276 -1.1024 -1.9838 -0.5187
12903WAT     H253418   7.624   4.404   3.133  0.5406 -1.7273 -0.0565
12903WAT    EPW53419   7.635   4.353   3.203  0.5114 -1.2314  0.3183
12904WAT      O53420   3.264   8.393   8.591  0.0344  0.4058 -0.4910
12904WAT     H153421   3.243   8.299   8.592 -1.3038  0.6525  2.2040
12904WAT     H253422   3.358   8.396   8.570  0.2222 -1.5689 -0.1476
12904WAT    EPW53423   3.274   8.381   8.588 -0.1173  0.1779 -0.0901
12905WAT      O53424   3.273   1.007   1.926  0.8361  0.9944 -1.1120
12905WAT     H153425   3.245   0.991   1.836 -1.8037  0.0255 -0.2159
12905WAT     H253426   3.351   0.952   1.937 -1.1366 -2.1743 -1.6809
12905WAT    EPW53427   3.280   0.998   1.916  0.2277  0.4486 -1.0688
12906WAT      O53428   9.513   2.360   1.218 -0.1305 -0.7356  0.1898
12906WAT     H153429   9.540   2.407   1.139 -2.2132 -0.0187 -0.1541
12906WAT     H253430   9.592   2.357   1.272  0.6853  1.0238 -0.8194
12906WAT    EPW53431   9.527   2.365   1.215 -0.2975 -0.4091  0.0113
12907WAT      O53432   7.487   2.139   3.266  0.2748  0.0045  0.3545
12907WAT     H153433   7.502   2.050   3.234 -3.1221 -1.0409  1.1808
12907WAT     H253434   7.417   2.172   3.209 -1.5443  0.4125  2.6797
12907WAT    EPW53435   7.480   2.131   3.254 -0.4129 -0.0798  0.7701
12908WAT      O53436   3.602   9.413   7.604  0.0311  0.0065  0.1847
12908WAT     H153437   3.594   9.507   7.594  2.2133  0.3078  0.7937
12908WAT     H253438   3.619   9.380   7.516  0.1667  0.2786  0.1102
12908WAT    EPW53439   3.603   9.421   7.591  0.3366  0.0820  0.2553
12909WAT      O53440   7.720   1.811   3.763 -0.2691 -0.1327 -0.0745
12909WAT     H153441   7.657   1.812   3.691 -1.6774 -0.8794  1.0797
12909WAT     H253442   7.686   1.745   3.824  1.5215 -0.3793  0.7174
12909WAT    EPW53443   7.707   1.803   3.762 -0.2186 -0.2638  0.1823
12910WAT      O53444   8.164   1.357   0.032  0.5973  0.5578 -0.1603
12910WAT     H153445   8.240   1.380   0.086  0.3213  1.5293 -0.1754
12910WAT     H253446   8.118   1.440   0.019  0.3392  0.2357 -1.4075
12910WAT    EPW53447   8.168   1.371   0.038  0.5269  0.6435 -0.3268
12911WAT      O53448   9.995   2.415   0.632 -0.2753  0.1869  0.3001
12911WAT     H153449   9.932   2.465   0.685  0.3372  0.2935  0.9392
12911WAT     H253450   9.968   2.432   0.542 -0.5874  1.0180  0.5334
12911WAT    EPW53451   9.983   2.424   0.627 -0.2351  0.3107  0.4152
12912WAT      O53452   9.455   1.282   0.622 -0.1745  0.2733 -0.9431
12912WAT     H153453   9.369   1.303   0.660  0.8906 -0.0419  1.8727
12912WAT     H253454   9.500   1.366   0.618  0.4601  0.0531  0.6484
12912WAT    EPW53455   9.449   1.296   0.627  0.0501  0.2027 -0.3618
12913WAT      O53456  10.426   0.756   0.767 -0.0648  0.1064 -0.9583
12913WAT     H153457  10.380   0.774   0.684 -1.0138 -0.0034 -0.4740
12913WAT     H253458  10.367   0.697   0.814  0.0274  0.8986  0.1806
12913WAT    EPW53459  10.412   0.751   0.762 -0.1774  0.1964 -0.7442
12914WAT      O53460   4.277   8.085   8.127  0.2839 -0.4453  0.8334
12914WAT     H153461   4.183   8.069   8.118 -0.3649  3.0883 -0.6722
12914WAT     H253462   4.315   8.052   8.046  0.1526 -0.8504  0.9376
12914WAT    EPW53463   4.270   8.079   8.115  0.1810 -0.0324  0.6485
12915WAT      O53464  10.468   2.697   1.358  0.7312  0.1810 -0.1203
12915WAT     H153465  10.431   2.775   1.317  1.7258  0.7923  0.1156
12915WAT     H253466  10.440   2.625   1.302  2.0944  0.9940 -1.9203
12915WAT    EPW53467  10.459   2.698   1.345  1.0419  0.3690 -0.3266
12916WAT      O53468   9.401   2.535   0.061 -0.4442 -0.0469  0.0448
12916WAT     H153469   9.393   2.533   0.157 -0.1750 -1.4453  0.0649
12916WAT     H253470   9.321   2.492   0.029  0.4609 -1.6117 -0.2435
12916WAT    EPW53471   9.389   2.529   0.070 -0.2890 -0.4377  0.0094
12917WAT      O53472   3.058   8.764   7.760  0.2880 -0.8606  0.2911
12917WAT     H153473   3.095   8.676   7.760 -2.0262 -1.9196  1.2036
12917WAT     H253474   3.048   8.785   7.853 -0.3910 -0.1846  0.0695
12917WAT    EPW53475   3.062   8.755   7.772 -0.1068 -0.9108  0.3822
12918WAT      O53476   5.177   8.706   0.947  0.3294  0.3101  0.1393
12918WAT     H153477   5.172   8.615   0.920  1.6645  0.8483 -2.2803
12918WAT     H253478   5.269   8.719   0.971  0.7400  1.4651 -1.7767
12918WAT    EPW53479   5.189   8.696   0.946  0.5600  0.5336 -0.4326
12919WAT      O53480   8.713   1.339   2.416  0.5291 -0.6830  0.2190
12919WAT     H153481   8.762   1.289   2.350 -1.1854 -0.4837 -1.3005
12919WAT     H253482   8.629   1.292   2.424 -0.7317  1.3147 -0.5042
12919WAT    EPW53483   8.708   1.326   2.408  0.1359 -0.3933 -0.0769
12920WAT      O53484  10.650   2.265   1.215 -0.7567 -0.0438 -0.2619
12920WAT     H153485  10.739   2.275   1.248 -0.4568 -0.8294 -0.8082
12920WAT     H253486  10.656   2.292   1.123 -1.2890  0.7812 -0.0716
12920WAT    EPW53487  10.662   2.270   1.207 -0.7873 -0.0387 -0.3088
12921WAT      O53488   1.922   8.113   8.837  0.4151  0.4699  0.8140
12921WAT     H153489   1.979   8.058   8.783 -1.7251 -0.0065 -1.1166
12921WAT     H253490   1.883   8.052   8.899  0.5538  0.4573  0.8906
12921WAT    EPW53491   1.925   8.098   8.838  0.1511  0.4053  0.5693
12922WAT      O53492   1.403   1.902   3.724 -0.5944  0.1182 -0.2283
12922WAT     H153493   1.488   1.936   3.752 -0.6375 -1.2992  1.8694
12922WAT     H253494   1.341   1.938   3.788 -1.0821 -1.2689  0.1320
12922WAT    EPW53495   1.406   1.911   3.736 -0.6644 -0.2518  0.0960
12923WAT      O53496   9.104   4.050   2.434 -0.0912 -0.2706  0.5302
12923WAT     H153497   9.053   3.993   2.491  2.5460 -2.0184  1.3262
12923WAT     H253498   9.169   3.992   2.394  1.4855  1.8278 -0.1607
12923WAT    EPW53499   9.106   4.035   2.436  0.4649 -0.2246  0.5440
12924WAT      O53500   0.785   7.880   7.016  0.3413 -0.6347  0.2231
12924WAT     H153501   0.753   7.918   6.934  2.4404 -0.4721 -0.5949
12924WAT     H253502   0.774   7.950   7.081  2.6201  0.8897 -0.9003
12924WAT    EPW53503   0.779   7.894   7.014  0.9187 -0.4120 -0.0331
12925WAT      O53504   2.289   7.990   6.875  0.9447 -0.7131 -0.3987
12925WAT     H153505   2.358   7.960   6.934  0.5757 -0.4021  0.1962
12925WAT     H253506   2.322   7.969   6.787  2.3090  0.4656 -0.2045
12925WAT    EPW53507   2.303   7.983   6.871  1.0760 -0.5164 -0.2944
12926WAT      O53508   9.142   1.902   0.425 -0.5898  0.5939 -0.0207
12926WAT     H153509   9.122   1.815   0.391 -1.2956  1.2817 -1.4907
12926WAT     H253510   9.227   1.924   0.386 -0.8060  0.8816 -0.3406
12926WAT    EPW53511   9.150   1.893   0.415 -0.7110  0.7226 -0.2568
12927WAT      O53512   1.416  10.193   7.937  0.1767  0.1306 -0.2031
12927WAT     H153513   1.398  10.099   7.933  0.3618  0.0100  1.2197
12927WAT     H253514   1.392  10.226   7.850 -2.4028 -0.8041  0.0495
12927WAT    EPW53515   1.410  10.185   7.925 -0.1391 -0.0081  0.0179
12928WAT      O53516   6.372   7.932   1.076 -0.6880  0.1208 -0.0920
12928WAT     H153517   6.400   7.848   1.040  0.0212  0.1588  0.3469
12928WAT     H253518   6.315   7.909   1.149 -1.1001  0.0359 -0.4329
12928WAT    EPW53519   6.368   7.918   1.081 -0.6490  0.1144 -0.0791
12929WAT      O53520   7.406   4.221   1.238 -0.0022 -0.2552 -0.0554
12929WAT     H153521   7.487   4.192   1.197 -1.6234 -2.4331 -1.9473
12929WAT     H253522   7.384   4.153   1.301  1.7122  2.3708  3.7683
12929WAT    EPW53523   7.413   4.208   1.241  0.0100 -0.1962  0.1994
12930WAT      O53524   9.521   2.681   1.391 -0.9511  0.2576  0.1138
12930WAT     H153525   9.564   2.758   1.353 -2.9102  0.7189 -1.3474
12930WAT     H253526   9.476   2.715   1.469 -2.4973  0.8348 -0.9847
12930WAT    EPW53527   9.521   2.696   1.396 -1.4138  0.3946 -0.2238
12931WAT      O53528   9.388   8.122   6.418  0.1391 -0.3008 -0.6430
12931WAT     H153529   9.300   8.086   6.409 -0.0085 -0.5062  1.2126
12931WAT     H253530   9.446   8.046   6.416  0.4310 -0.0898 -2.9785
12931WAT    EPW53531   9.384   8.108   6.417  0.1583 -0.3009 -0.7064
12932WAT      O53532   4.115   9.462   8.837 -0.1302  0.2032  0.0915
12932WAT     H153533   4.198   9.422   8.863  0.0378  0.8407  0.5693
12932WAT     H253534   4.057   9.447   8.911  0.2070  1.6131  0.6806
12932WAT    EPW53535   4.119   9.455   8.850 -0.0634  0.4735  0.2317
12933WAT      O53536   8.158   2.631   0.875  0.9015 -0.2352 -0.1798
12933WAT     H153537   8.242   2.675   0.863  0.1088  1.0637 -1.2030
12933WAT     H253538   8.098   2.678   0.818 -0.6827 -0.7237  1.0177
12933WAT    EPW53539   8.161   2.643   0.866  0.5884 -0.1283 -0.1568
12934WAT      O53540   5.874   1.051   0.719 -1.2082 -0.5017 -0.1375
12934WAT     H153541   5.820   1.033   0.797 -0.0068  2.2279  1.4684
12934WAT     H253542   5.890   1.145   0.723 -0.5554 -0.3853 -3.4071
12934WAT    EPW53543   5.869   1.061   0.730 -0.9639 -0.1264 -0.3569
12935WAT      O53544   5.881   8.479   8.304  0.1132 -0.2492  0.0822
12935WAT     H153545   5.886   8.533   8.226 -2.8552 -0.7039 -0.5293
12935WAT     H253546   5.905   8.538   8.376  2.1441  0.3664 -1.0193
12935WAT    EPW53547   5.885   8.494   8.303 -0.0103 -0.2279 -0.1440
12936WAT      O53548   0.104   9.953   8.510 -0.6172  0.4246 -0.1796
12936WAT     H153549   0.109   9.914   8.597  1.3035 -0.9751 -0.8497
12936WAT     H253550   0.194   9.977   8.488 -1.2634  2.0852 -1.2241
12936WAT    EPW53551   0.117   9.951   8.518 -0.4491  0.4592 -0.4053
12937WAT      O53552   8.235   2.618   1.427  0.5352 -0.7206 -0.3628
12937WAT     H153553   8.281   2.573   1.498 -0.3550 -1.0675  0.0139
12937WAT     H253554   8.148   2.637   1.463  0.5590  0.4195 -0.8608
12937WAT    EPW53555   8.229   2.615   1.441  0.4206 -0.6160 -0.3788
12938WAT      O53556   0.446   6.155   8.829  0.2818  0.2469  0.2195
12938WAT     H153557   0.428   6.241   8.869 -1.0279 -0.5103  1.3759
12938WAT     H253558   0.391   6.153   8.751  0.7586  0.6793 -0.1308
12938WAT    EPW53559   0.436   6.166   8.824  0.1719  0.2041  0.3262
12939WAT      O53560   3.278   8.088   7.115 -0.5221  0.0129  0.1851
12939WAT     H153561   3.303   8.027   7.184  0.0739 -0.8972 -0.8091
12939WAT     H253562   3.182   8.092   7.120 -0.5111 -0.3596  0.7856
12939WAT    EPW53563   3.268   8.080   7.125 -0.4420 -0.1559  0.1330
12940WAT      O53564   0.117   1.639   0.054  0.2292  0.7026 -0.7642
12940WAT     H153565   0.112   1.669   0.144  2.7191  0.9427 -0.6594
12940WAT     H253566   0.029   1.655   0.019 -0.9180  0.2145  1.6894
12940WAT    EPW53567   0.105   1.645   0.061  0.4063  0.6700 -0.4268
12941WAT      O53568   8.132   2.332   0.957  0.4596 -0.5528 -0.5717
12941WAT     H153569   8.049   2.310   0.915  0.8899 -1.7347 -0.8403
12941WAT     H253570   8.142   2.426   0.942 -1.7542  0.0538  1.1646
12941WAT    EPW53571   8.123   2.342   0.949  0.2241 -0.6288 -0.3781
12942WAT      O53572   9.029   1.909   0.125  0.7148 -0.1516 -0.2929
12942WAT     H153573   8.939   1.929   0.149 -0.1719 -3.4843 -0.3081
12942WAT     H253574   9.031   1.814   0.116  4.5088 -0.3563  0.7990
12942WAT    EPW53575   9.018   1.899   0.127  1.0977 -0.6182 -0.1509
12943WAT      O53576   9.531   1.540   2.495  0.0173  0.0122 -0.4995
12943WAT     H153577   9.471   1.613   2.508 -1.1903 -0.9009 -0.8267
12943WAT     H253578   9.545   1.538   2.400  3.1861  2.2203 -0.2447
12943WAT    EPW53579   9.525   1.549   2.484  0.2756  0.1830 -0.5090
12944WAT      O53580   0.671   2.439   1.535 -0.4913 -0.1642 -0.7044
12944WAT     H153581   0.733   2.445   1.463 -0.1208 -0.0093 -0.3808
12944WAT     H253582   0.641   2.348   1.534  0.6215 -0.5551 -0.1564
12944WAT    EPW53583   0.675   2.428   1.526 -0.2956 -0.1953 -0.5894
12945WAT      O53584   4.248   1.616   5.822 -0.1334  0.5758  0.3288
12945WAT     H153585   4.230   1.694   5.875  1.2602  1.0636  0.1204
12945WAT     H253586   4.331   1.636   5.778 -0.5017 -0.4349 -0.8715
12945WAT    EPW53587   4.257   1.629   5.823  0.0019  0.5069  0.1433
12946WAT      O53588   5.858   7.098   0.018  0.2432  0.4601 -0.5798
12946WAT     H153589   5.874   7.048   0.098  0.2194 -0.5317 -1.1770
12946WAT     H253590   5.908   7.053  -0.050 -0.9724  0.3392 -1.4396
12946WAT    EPW53591   5.866   7.086   0.019  0.0801  0.3130 -0.7720
12947WAT      O53592   3.479   6.514   8.272 -1.2751  0.1082 -0.5212
12947WAT     H153593   3.443   6.436   8.314  0.8731 -1.1001 -0.7726
12947WAT     H253594   3.438   6.588   8.318  0.5783 -1.0896  3.5461
12947WAT    EPW53595   3.469   6.514   8.284 -0.7472 -0.2091 -0.0181
12948WAT      O53596  10.927   9.150   7.404  0.0475 -0.2352  0.3272
12948WAT     H153597  10.845   9.174   7.363 -0.0535  3.0519  2.0898
12948WAT     H253598  10.975   9.103   7.337 -2.1332  0.2503 -1.6944
12948WAT    EPW53599  10.923   9.147   7.390 -0.2532  0.2623  0.2930
12949WAT      O53600   7.579   7.304   0.044 -0.1339 -1.3502  0.1511
12949WAT     H153601   7.531   7.323  -0.037 -0.6170  0.9898  0.9089
12949WAT     H253602   7.519   7.330   0.114  2.0974  1.7151  1.1476
12949WAT    EPW53603   7.565   7.310   0.043  0.0966 -0.6373  0.3825
12950WAT      O53604   8.519   3.252   1.292 -0.0103 -0.9315  0.9410
12950WAT     H153605   8.476   3.225   1.211  0.2268 -1.5419  1.0086
12950WAT     H253606   8.585   3.183   1.308 -0.3258 -1.0378  1.8573
12950WAT    EPW53607   8.522   3.239   1.284 -0.0205 -1.0259  1.0708
12951WAT      O53608   8.155   4.268   2.494  0.0761  0.0211  0.2006
12951WAT     H153609   8.096   4.211   2.444 -0.7363  1.4290 -0.5013
12951WAT     H253610   8.109   4.283   2.576 -1.7055  2.9013 -1.1880
12951WAT    EPW53611   8.141   4.262   2.498 -0.2661  0.5867 -0.0750
12952WAT      O53612   7.050   3.812   0.535 -0.0075 -0.4489 -0.1137
12952WAT     H153613   7.020   3.725   0.561 -1.8312  0.1020 -0.2569
12952WAT     H253614   6.982   3.872   0.567  0.5631  0.7989 -1.1309
12952WAT    EPW53615   7.037   3.809   0.543 -0.1729 -0.2117 -0.2668
12953WAT      O53616   0.666   5.373   0.307 -0.8798 -0.1756 -0.0901
12953WAT     H153617   0.602   5.348   0.240 -1.3872  2.5968 -0.7667
12953WAT     H253618   0.640   5.461   0.334  1.9761  0.6198  0.4389
12953WAT    EPW53619   0.654   5.382   0.301 -0.5701  0.2949 -0.1095
12954WAT      O53620   9.270   5.147   1.837 -0.5309 -0.1051 -0.6625
12954WAT     H153621   9.209   5.178   1.770 -0.6682  2.7627  0.6614
12954WAT     H253622   9.238   5.060   1.860 -0.9931 -0.8218 -3.6361
12954WAT    EPW53623   9.258   5.140   1.831 -0.6099  0.1786 -0.8801
12955WAT      O53624   6.491   1.976   2.625 -0.1478  0.2147 -0.3384
12955WAT     H153625   6.456   1.924   2.552 -1.1720 -0.1492  0.3942
12955WAT     H253626   6.434   1.955   2.699  0.1061  1.5598  0.2558
12955WAT    EPW53627   6.479   1.966   2.625 -0.2494  0.3441 -0.1634
12956WAT      O53628   7.535   3.719   1.530  0.2128 -0.0502  0.3737
12956WAT     H153629   7.543   3.631   1.495  0.2833 -0.3222  1.0531
12956WAT     H253630   7.584   3.774   1.470 -0.4601 -0.3582 -0.4740
12956WAT    EPW53631   7.543   3.715   1.518  0.1335 -0.1267  0.3515
12957WAT      O53632   1.735   6.130   0.626 -0.0658  0.0003 -0.5470
12957WAT     H153633   1.663   6.143   0.688 -1.0105 -1.1424 -1.3499
12957WAT     H253634   1.733   6.209   0.571 -0.6214  0.0444 -0.4743
12957WAT    EPW53635   1.725   6.142   0.627 -0.2637 -0.1445 -0.6433
12958WAT      O53636   0.141   1.030   1.368  0.5808  0.0117 -0.2709
12958WAT     H153637   0.115   1.000   1.455 -1.7880 -0.0681 -0.9293
12958WAT     H253638   0.182   1.115   1.384 -1.2588  0.7519  0.8435
12958WAT    EPW53639   0.143   1.037   1.382  0.0257  0.0988 -0.2107
12959WAT      O53640  10.491   1.773   3.212  0.4585  0.9251  0.1549
12959WAT     H153641  10.502   1.748   3.120  0.6410  1.6410 -0.0212
12959WAT     H253642  10.420   1.837   3.211  0.3598  0.8225  0.5361
12959WAT    EPW53643  10.483   1.778   3.200  0.4697  1.0059  0.1818
12960WAT      O53644   9.700   2.926   1.437 -0.3954  0.3993  0.3163
12960WAT     H153645   9.624   2.964   1.481 -0.6498  1.5325 -1.0174
12960WAT     H253646   9.713   2.982   1.360  1.7629  0.2089  0.4787
12960WAT    EPW53647   9.691   2.939   1.433 -0.1445  0.5237  0.1618
12961WAT      O53648   1.515   2.183   1.448  0.1064 -0.7430  0.4367
12961WAT     H153649   1.522   2.090   1.470  1.1084 -0.7301  0.2509
12961WAT     H253650   1.528   2.186   1.353  0.1722 -0.4105  0.4542
12961WAT    EPW53651   1.518   2.171   1.438  0.2471 -0.6974  0.4145
12962WAT      O53652   8.605   1.346   0.819  0.4676 -0.1955  0.5769
12962WAT     H153653   8.554   1.390   0.751  2.0408 -0.6515 -0.9724
12962WAT     H253654   8.540   1.321   0.885 -1.3470 -0.8986 -1.3569
12962WAT    EPW53655   8.590   1.349   0.818  0.4358 -0.3484  0.1175
12963WAT      O53656   9.978   1.474   2.944  0.8465  0.1849  0.7823
12963WAT     H153657  10.009   1.396   2.991  0.3146 -0.4277  0.1560
12963WAT     H253658   9.895   1.496   2.987  1.2953  0.7847  1.3544
12963WAT    EPW53659   9.971   1.466   2.956  0.8354  0.1832  0.7752
12964WAT      O53660  10.119   2.124   0.471  0.2756  0.1932 -0.5724
12964WAT     H153661  10.198   2.166   0.439  0.6712 -0.0561  0.0592
12964WAT     H253662  10.142   2.093   0.559  0.3691 -2.3277 -1.4103
12964WAT    EPW53663  10.132   2.125   0.478  0.3400 -0.1723 -0.5996
12965WAT      O53664   0.147   8.891   7.267 -0.9531 -0.1830  0.3256
12965WAT     H153665   0.065   8.886   7.316 -1.8527  1.7444 -0.8512
12965WAT     H253666   0.152   8.982   7.238  0.9190 -0.5914 -0.8238
12965WAT    EPW53667   0.137   8.902   7.269 -0.8248  0.0172  0.0188
12966WAT      O53668   0.063   7.881   8.509  0.1522  0.2449  0.4259
12966WAT     H153669   0.096   7.953   8.563  1.0663 -0.5240  0.9308
12966WAT     H253670   0.063   7.916   8.420 -1.5964  1.6113  0.9182
12966WAT    EPW53671   0.068   7.895   8.504  0.0421  0.3238  0.5574
12967WAT      O53672   3.936   8.000   8.401  0.1964 -0.5074 -0.1240
12967WAT     H153673   3.885   8.058   8.345  0.8897 -1.4592 -1.7970
12967WAT     H253674   3.871   7.948   8.448 -0.3793 -0.4543 -0.8584
12967WAT    EPW53675   3.921   8.001   8.400  0.2120 -0.6256 -0.4416
12968WAT      O53676   9.626   5.360   1.663 -0.6064 -0.2543 -0.6935
12968WAT     H153677   9.632   5.430   1.598 -0.6578 -0.5741 -1.0506
12968WAT     H253678   9.611   5.405   1.746 -0.9276  0.1437 -0.9596
12968WAT    EPW53679   9.625   5.375   1.665 -0.6552 -0.2441 -0.7758
12969WAT      O53680  10.744   7.045   7.248  0.5345  0.4572  0.6043
12969WAT     H153681  10.697   7.050   7.331 -0.5035  1.8800 -0.0284
12969WAT     H253682  10.835   7.064   7.270 -0.0051  2.5817  1.2236
12969WAT    EPW53683  10.750   7.048   7.262  0.3262  0.9253  0.6027
12970WAT      O53684   4.597   9.656   0.604 -0.1893 -0.3781 -0.5400
12970WAT     H153685   4.570   9.677   0.693 -1.4851  3.4362 -1.6422
12970WAT     H253686   4.515   9.641   0.557  0.4751 -2.3616 -1.1833
12970WAT    EPW53687   4.582   9.657   0.609 -0.2725 -0.1364 -0.7702
12971WAT      O53688   6.674   4.204   0.044  0.3253  0.0831 -0.4483
12971WAT     H153689   6.742   4.136   0.042  0.7159  0.2859  2.2365
12971WAT     H253690   6.716   4.277   0.089 -1.3071  0.6436  0.2112
12971WAT    EPW53691   6.689   4.205   0.050  0.1612  0.1838 -0.0072
12972WAT      O53692   1.338   8.558   5.139  0.7224 -0.3946  0.7344
12972WAT     H153693   1.259   8.506   5.151 -1.2403  2.1025 -0.3318
12972WAT     H253694   1.355   8.596   5.225 -0.9421  1.1821  0.4250
12972WAT    EPW53695   1.330   8.556   5.152  0.2440  0.1426  0.5529
12973WAT      O53696   0.008   3.474   0.282  0.0376 -1.1517  0.0382
12973WAT     H153697   0.089   3.517   0.311 -0.3497  2.6238 -3.5944
12973WAT     H253698   0.026   3.445   0.193 -2.5480 -0.2856 -0.8541
12973WAT    EPW53699   0.021   3.476   0.274 -0.3545 -0.5395 -0.5586
12974WAT      O53700   8.640   1.688   2.897 -0.3167  0.2486  0.1289
12974WAT     H153701   8.604   1.608   2.859  2.6704 -0.7955 -0.7413
12974WAT     H253702   8.613   1.757   2.836 -0.6084 -0.5116 -0.6340
12974WAT    EPW53703   8.632   1.686   2.884  0.0391  0.0107 -0.0865
12975WAT      O53704   9.140   2.966   0.205  0.7009 -0.2143  0.6036
12975WAT     H153705   9.126   2.946   0.297 -2.4111 -1.3796  0.0016
12975WAT     H253706   9.148   2.880   0.163  4.5013  0.2905 -0.0422
12975WAT    EPW53707   9.139   2.952   0.211  0.7911 -0.3014  0.4390
12976WAT      O53708   9.763   0.622   3.665 -0.1165  0.1875  0.4876
12976WAT     H153709   9.698   0.690   3.645 -0.4712  0.3076  1.9417
12976WAT     H253710   9.847   0.669   3.663  0.0688 -0.1059 -2.0758
12976WAT    EPW53711   9.766   0.637   3.662 -0.1388  0.1646  0.3413
12977WAT      O53712   3.240   9.356   7.964  0.2319  0.3848 -0.2057
12977WAT     H153713   3.301   9.299   8.009 -1.5468 -0.5420  1.1492
12977WAT     H253714   3.265   9.351   7.872  1.1312 -1.2730  0.1071
12977WAT    EPW53715   3.251   9.348   7.958  0.1159  0.0439  0.0143
12978WAT      O53716   9.415   4.058   0.425  0.0466 -0.3500 -0.0159
12978WAT     H153717   9.353   4.007   0.372  1.3674  0.6521 -2.6867
12978WAT     H253718   9.501   4.025   0.399  0.8181  1.5621  0.0053
12978WAT    EPW53719   9.418   4.047   0.414  0.3228  0.0343 -0.3654
12979WAT      O53720   8.995   1.921   0.640  0.1912 -0.2911 -0.4909
12979WAT     H153721   9.053   1.922   0.564  1.5953 -1.5531  0.4955
12979WAT     H253722   9.028   1.990   0.697 -0.0716 -0.1805 -0.4707
12979WAT    EPW53723   9.007   1.930   0.637  0.3419 -0.4430 -0.3581
12980WAT      O53724   9.312   4.311   0.541 -0.1579  0.0245  0.4984
12980WAT     H153725   9.375   4.239   0.539 -1.1098 -0.8616  1.3208
12980WAT     H253726   9.345   4.373   0.476  1.2262 -0.6857  0.4738
12980WAT    EPW53727   9.325   4.309   0.532 -0.1006 -0.1860  0.6036
12981WAT      O53728   7.726   4.557   0.316 -0.3519 -0.4576 -0.0678
12981WAT     H153729   7.721   4.607   0.235 -2.3911  1.1925  1.0030
12981WAT     H253730   7.678   4.476   0.297  1.5756 -1.4025 -1.2953
12981WAT    EPW53731   7.719   4.553   0.303 -0.3667 -0.3645 -0.0884
12982WAT      O53732   5.012  10.107   1.477  0.0698  0.5412  0.2036
12982WAT     H153733   4.998  10.201   1.466  1.4941  0.5060 -2.7451
12982WAT     H253734   5.102  10.093   1.449 -1.1241 -2.1270 -2.8986
12982WAT    EPW53735   5.022  10.118   1.472  0.1001  0.1845 -0.5944
12983WAT      O53736   0.292   4.033   2.123 -0.2570 -0.0968  0.1951
12983WAT     H153737   0.205   4.057   2.092 -0.7575 -2.4288 -0.4018
12983WAT     H253738   0.300   3.939   2.104  2.2584 -0.0407  0.5307
12983WAT    EPW53739   0.282   4.024   2.116  0.0087 -0.3970  0.1606
12984WAT      O53740   4.174   3.427   8.313 -0.3072  0.6907  0.3011
12984WAT     H153741   4.124   3.417   8.394 -1.1099 -0.2636 -0.2915
12984WAT     H253742   4.259   3.461   8.341 -0.9054  1.2668  1.4380
12984WAT    EPW53743   4.179   3.430   8.327 -0.4921  0.6407  0.3734
12985WAT      O53744   2.362   7.549   8.109  0.1687  0.2552 -0.3475
12985WAT     H153745   2.450   7.589   8.113  1.6040 -2.7022  0.7588
12985WAT     H253746   2.349   7.530   8.016  1.9204 -1.5384 -0.3060
12985WAT    EPW53747   2.372   7.552   8.097  0.5890 -0.3712 -0.1960
12986WAT      O53748   1.604   9.411   8.927  0.1209 -0.1391  0.0872
12986WAT     H153749   1.581   9.368   8.845 -0.3917  2.6468 -1.3240
12986WAT     H253750   1.527   9.397   8.983 -0.4649 -0.1613 -0.7091
12986WAT    EPW53751   1.591   9.403   8.924 -0.0240  0.2251 -0.2041
12987WAT      O53752   0.269   6.155   8.333  0.1728  0.4110  0.4349
12987WAT     H153753   0.177   6.181   8.334 -0.4474 -1.6415  0.2719
12987WAT     H253754   0.273   6.084   8.269  1.8628  0.3976  0.5223
12987WAT    EPW53755   0.257   6.149   8.325  0.3139  0.1385  0.4249
12988WAT      O53756   9.990   1.909   1.905 -0.2024 -0.4019 -0.2425
12988WAT     H153757  10.061   1.883   1.846  1.2965  1.9306  0.4065
12988WAT     H253758  10.019   1.876   1.991 -1.2552 -1.7561 -0.3707
12988WAT    EPW53759  10.003   1.901   1.908 -0.1435 -0.2729 -0.1738
12989WAT      O53760   8.600   2.624   2.834 -0.1066 -0.8216  0.3956
12989WAT     H153761   8.558   2.540   2.814 -1.0039 -0.5244  0.9820
12989WAT     H253762   8.532   2.676   2.876  0.2015  0.4986 -0.6620
12989WAT    EPW53763   8.586   2.619   2.837 -0.1845 -0.6082  0.3334
12990WAT      O53764   0.687   3.824   8.105  0.5333  0.2528 -0.0639
12990WAT     H153765   0.617   3.791   8.163 -0.8850  1.0505 -1.2433
12990WAT     H253766   0.768   3.791   8.144 -0.1305  2.1560  3.4300
12990WAT    EPW53767   0.688   3.816   8.118  0.2587  0.6089  0.2413
12991WAT      O53768   8.965   1.820   1.297 -0.2008  0.1949  0.1047
12991WAT     H153769   9.060   1.830   1.285  0.1440 -1.0436  1.5290
12991WAT     H253770   8.956   1.775   1.381 -2.0328 -0.3255 -0.3299
12991WAT    EPW53771   8.977   1.815   1.306 -0.3972 -0.0371  0.2352
12992WAT      O53772   8.169   4.520   1.773  0.2711 -0.6176  0.6197
12992WAT     H153773   8.220   4.585   1.822  0.3342  0.3673 -0.6728
12992WAT     H253774   8.233   4.453   1.748  0.5707 -0.3131  0.5536
12992WAT    EPW53775   8.184   4.520   1.776  0.3185 -0.4475  0.4406
12993WAT      O53776  10.693   1.931   1.747  0.2807 -0.0871  0.4578
12993WAT     H153777  10.696   1.868   1.675  0.3558  1.0924 -0.6205
12993WAT     H253778  10.627   1.897   1.807 -0.1595 -0.8435 -0.4284
12993WAT    EPW53779  10.685   1.918   1.745  0.2327 -0.0313  0.1987
12994WAT      O53780   1.003   8.786   6.767 -0.3407  1.5071 -0.4613
12994WAT     H153781   1.062   8.853   6.802 -0.3878  0.4314  1.9055
12994WAT     H253782   0.965   8.745   6.845  0.2620 -1.8075 -1.7632
12994WAT    EPW53783   1.005   8.790   6.782 -0.2674  0.9279 -0.3211
12995WAT      O53784   0.664   8.603   8.757 -0.3974 -0.3898  0.4761
12995WAT     H153785   0.729   8.538   8.732  0.2055  0.0666  0.8193
12995WAT     H253786   0.663   8.665   8.684  2.0770  1.4865  1.8497
12995WAT    EPW53787   0.673   8.603   8.744  0.0085 -0.0825  0.7024
12996WAT      O53788   0.112   0.429   1.598  0.2618 -0.0030  0.2926
12996WAT     H153789   0.109   0.333   1.595  0.7683 -0.0143 -0.2103
12996WAT     H253790   0.205   0.450   1.586  0.1013  0.5585 -0.0150
12996WAT    EPW53791   0.124   0.419   1.596  0.3075  0.0695  0.1857
12997WAT      O53792   2.956  10.054   8.685  0.2057 -0.2590 -0.1189
12997WAT     H153793   2.963   9.999   8.607 -0.0593 -0.9043  0.3057
12997WAT     H253794   3.040  10.041   8.730  0.8393  1.0343 -0.8811
12997WAT    EPW53795   2.968  10.045   8.681  0.2544 -0.1731 -0.1640
12998WAT      O53796   9.622   5.687   1.799  0.1155 -0.2199 -0.1636
12998WAT     H153797   9.538   5.679   1.844  0.8371 -1.6623  1.0227
12998WAT     H253798   9.652   5.776   1.819  0.1026 -0.5960  1.7117
12998WAT    EPW53799   9.615   5.697   1.808  0.2089 -0.4594  0.2402
12999WAT      O53800   6.066   9.050   8.739 -0.4303  0.2999 -0.4679
12999WAT     H153801   6.134   8.987   8.765 -2.9444 -3.2557 -1.7106
12999WAT     H253802   6.047   9.099   8.819 -1.2536 -3.5946  2.0007
12999WAT    EPW53803   6.073   9.048   8.753 -0.8705 -0.6828 -0.3057
13000WAT      O53804   8.879   6.223   2.619  0.1621  0.3506  0.0524
13000WAT     H153805   8.935   6.242   2.695 -1.5686  0.6910  1.2912
13000WAT     H253806   8.850   6.133   2.633  1.2923 -0.2359 -1.2017
13000WAT    EPW53807   8.883   6.214   2.631  0.0830  0.3181  0.0504
13001WAT      O53808   0.422   7.004   8.147 -0.5571 -0.0080 -0.0688
13001WAT     H153809   0.401   7.048   8.065 -1.4633  0.1809  0.2477
13001WAT     H253810   0.479   7.064   8.194 -0.3769  0.0633 -0.3776
13001WAT    EPW53811   0.427   7.017   8.142 -0.6528  0.0262 -0.0682
13002WAT      O53812   4.615   7.778   8.939 -0.4868 -0.2307 -0.3774
13002WAT     H153813   4.711   7.787   8.942 -0.5855  0.6838  0.5319
13002WAT     H253814   4.582   7.857   8.981 -1.7248  0.6087 -2.7211
13002WAT    EPW53815   4.623   7.789   8.945 -0.6630  0.0005 -0.5670
13003WAT      O53816   6.832   4.082   7.882 -0.2175  0.1080 -0.0722
13003WAT     H153817   6.803   4.071   7.791  1.1451 -0.3837 -0.4894
13003WAT     H253818   6.823   4.175   7.900 -0.5565  0.1989 -0.7004
13003WAT    EPW53819   6.827   4.093   7.872 -0.0825  0.0553 -0.2103
13004WAT      O53820   1.031   3.234   1.799 -0.5990  1.3628  0.1818
13004WAT     H153821   1.060   3.205   1.885 -0.9691  0.7527  0.1137
13004WAT     H253822   0.937   3.253   1.810 -0.1867  3.4894  0.4496
13004WAT    EPW53823   1.022   3.233   1.812 -0.5935  1.5627  0.2081
13005WAT      O53824   2.318   6.243   0.165  0.8023 -0.5434  0.4013
13005WAT     H153825   2.342   6.322   0.116 -0.4787  0.0154  0.6235
13005WAT     H253826   2.259   6.196   0.106 -0.6884  0.0906  1.3182
13005WAT    EPW53827   2.313   6.248   0.150  0.4368 -0.3860  0.5516
13006WAT      O53828   3.971   8.120   8.894 -0.6002  0.3314 -0.1619
13006WAT     H153829   3.966   8.070   8.976  2.3750 -2.3850 -1.3921
13006WAT     H253830   3.913   8.075   8.834  0.5163 -0.4507 -0.6949
13006WAT    EPW53831   3.963   8.108   8.897 -0.0604 -0.1302 -0.3939
13007WAT      O53832   6.530   0.622   7.633  0.4155  0.6700 -0.0273
13007WAT     H153833   6.624   0.631   7.649  0.6100  2.0160 -1.6978
13007WAT     H253834   6.510   0.533   7.662  2.7079 -0.5487 -1.8022
13007WAT    EPW53835   6.540   0.611   7.639  0.7436  0.6868 -0.4818
13008WAT      O53836   8.075   4.640   0.865  0.1122 -0.0377 -0.4129
13008WAT     H153837   8.043   4.626   0.954  1.4052 -0.8346 -0.0487
13008WAT     H253838   8.064   4.555   0.822  1.3081 -0.2074 -0.4081
13008WAT    EPW53839   8.070   4.627   0.871  0.4411 -0.1652 -0.3642
13009WAT      O53840   6.438   0.186   5.816  0.8179 -0.1003 -0.1297
13009WAT     H153841   6.464   0.185   5.724 -1.4642 -1.9681 -0.8466
13009WAT     H253842   6.375   0.114   5.824  0.8871  0.0507  2.8899
13009WAT    EPW53843   6.433   0.176   5.805  0.5262 -0.3267  0.1738
13010WAT      O53844   4.483   3.076   8.077 -0.4862  0.0359  0.5055
13010WAT     H153845   4.522   3.135   8.141  1.5480  0.6434 -1.1650
13010WAT     H253846   4.402   3.120   8.049 -0.7215  0.3708  1.6721
13010WAT    EPW53847   4.477   3.090   8.082 -0.2489  0.1602  0.4387
13011WAT      O53848   0.728  10.296   5.270  0.4199 -0.7382  0.0552
13011WAT     H153849   0.754  10.267   5.182  2.3396 -0.6184  0.5354
13011WAT     H253850   0.810  10.325   5.310 -0.5140 -0.2976  1.7074
13011WAT    EPW53851   0.743  10.296   5.263  0.5500 -0.6642  0.3364
13012WAT      O53852   9.795   2.212   2.050 -0.1318 -0.2697 -0.2330
13012WAT     H153853   9.845   2.284   2.011  0.6540  0.0799  1.3360
13012WAT     H253854   9.860   2.142   2.062 -0.4386 -0.5029  0.0974
13012WAT    EPW53855   9.810   2.212   2.046 -0.0682 -0.2542  0.0175
13013WAT      O53856   2.381   3.815   0.702  0.0849  0.6494  0.4958
13013WAT     H153857   2.311   3.880   0.708  2.0012  2.7261  2.1118
13013WAT     H253858   2.391   3.781   0.791 -0.1275 -1.1068 -0.1046
13013WAT    EPW53859   2.373   3.819   0.714  0.3097  0.6915  0.6298
13014WAT      O53860   6.471   1.345   7.919 -0.0726 -0.3688 -0.4147
13014WAT     H153861   6.510   1.258   7.932 -0.7364 -0.5433  0.5281
13014WAT     H253862   6.418   1.359   7.998 -1.2128  0.2341 -1.2579
13014WAT    EPW53863   6.469   1.335   7.931 -0.3104 -0.3123 -0.4015
13015WAT      O53864   4.916   8.138   7.943  0.2109  0.2165  0.2586
13015WAT     H153865   4.989   8.153   8.004 -0.4209  1.1618  0.8085
13015WAT     H253866   4.920   8.045   7.924  1.4301  0.2087  0.4518
13015WAT    EPW53867   4.926   8.128   7.949  0.2885  0.3400  0.3567
13016WAT      O53868   2.202   5.665   1.303 -0.4242 -0.0844 -0.6135
13016WAT     H153869   2.225   5.582   1.345 -0.1614  0.0407 -0.5104
13016WAT     H253870   2.283   5.715   1.302 -0.2620 -0.3242 -1.8408
13016WAT    EPW53871   2.216   5.661   1.308 -0.3682 -0.0994 -0.7617
13017WAT      O53872   1.357   5.360   1.712 -0.0110  0.6124 -0.1311
13017WAT     H153873   1.321   5.395   1.793 -1.2013  0.6153 -0.6360
13017WAT     H253874   1.292   5.382   1.645 -0.2629 -1.5169 -0.6743
13017WAT    EPW53875   1.343   5.368   1.714 -0.2012  0.3319 -0.2694
13018WAT      O53876   8.402   1.488   7.586  0.1734 -0.0836 -0.2951
13018WAT     H153877   8.414   1.413   7.645  3.0434 -0.1272 -0.8064
13018WAT     H253878   8.424   1.564   7.639  2.0177 -0.0641 -1.0024
13018WAT    EPW53879   8.406   1.488   7.601  0.7949 -0.0868 -0.4556
13019WAT      O53880   3.689   9.164   8.368 -0.5716  0.0023 -0.0009
13019WAT     H153881   3.709   9.180   8.276 -1.4788  0.2758 -0.1608
13019WAT     H253882   3.610   9.111   8.367  0.4740 -1.6390  0.6052
13019WAT    EPW53883   3.681   9.159   8.356 -0.5534 -0.1788  0.0582
13020WAT      O53884   1.395   9.041   8.445 -0.3056 -0.8257 -0.7980
13020WAT     H153885   1.455   9.030   8.519  0.4170 -0.5965 -1.3307
13020WAT     H253886   1.308   9.040   8.484  0.0637 -0.6711  0.0555
13020WAT    EPW53887   1.392   9.039   8.460 -0.1615 -0.7749 -0.7553
13021WAT      O53888   7.767   5.415   7.598  0.1930  0.5071 -0.6597
13021WAT     H153889   7.772   5.511   7.606  0.2673  0.3746  1.1653
13021WAT     H253890   7.804   5.382   7.679 -1.2425 -1.0427 -0.5784
13021WAT    EPW53891   7.772   5.423   7.610  0.0134  0.2849 -0.4082
13022WAT      O53892   3.645   8.388   7.700 -0.5913 -0.0628 -0.0536
13022WAT     H153893   3.641   8.336   7.780  0.5739 -1.6779 -0.9771
13022WAT     H253894   3.619   8.476   7.727  0.5833 -0.3605  2.2758
13022WAT    EPW53895   3.641   8.393   7.714 -0.2826 -0.3147  0.1318
13023WAT      O53896   0.222   2.114   2.284  0.5532  0.0364  0.8169
13023WAT     H153897   0.219   2.035   2.338  0.2276  1.4040  2.9098
13023WAT     H253898   0.155   2.100   2.218  1.1117 -1.7966  0.5788
13023WAT    EPW53899   0.213   2.101   2.283  0.5839 -0.0249  1.0614
13024WAT      O53900   1.251   5.967   1.045 -0.3312 -0.9462 -0.6457
13024WAT     H153901   1.181   5.956   0.981 -4.3619  2.5208  2.5729
13024WAT     H253902   1.298   6.045   1.016  0.0313 -1.3060 -1.0419
13024WAT    EPW53903   1.248   5.976   1.033 -0.8149 -0.5364 -0.2735
13025WAT      O53904   3.231   9.512   7.104 -0.0232  0.9399  0.0605
13025WAT     H153905   3.175   9.567   7.159 -1.6980  0.1717 -0.7760
13025WAT     H253906   3.177   9.435   7.086  1.9223 -0.5993  0.4818
13025WAT    EPW53907   3.216   9.509   7.109  0.0125  0.6361  0.0057
13026WAT      O53908  10.916   2.197   0.990 -0.4887  0.8996  0.2678
13026WAT     H153909  10.868   2.133   0.936  0.7941 -0.4000  0.5885
13026WAT     H253910  10.990   2.147   1.023  0.0549  2.3568  1.2831
13026WAT    EPW53911  10.919   2.182   0.987 -0.2480  0.9204  0.4440
13027WAT      O53912   9.552   4.848   1.393 -0.7796  0.0025  0.2821
13027WAT     H153913   9.466   4.835   1.433 -0.5331  0.9229  1.1699
13027WAT     H253914   9.534   4.864   1.301 -1.4508 -1.1212  0.1992
13027WAT    EPW53915   9.538   4.848   1.386 -0.8349 -0.0246  0.3883
13028WAT      O53916   8.971   3.685   1.933 -0.3333  0.3858  0.5549
13028WAT     H153917   9.040   3.642   1.984 -0.6906 -1.5438 -0.4885
13028WAT     H253918   9.017   3.722   1.857 -0.1328  1.2317  1.0742
13028WAT    EPW53919   8.986   3.684   1.930 -0.3543  0.2428  0.4858
13029WAT      O53920   1.289   7.620   0.975  0.3738 -0.1514 -0.2444
13029WAT     H153921   1.302   7.615   0.880 -1.3156  0.2905 -0.5235
13029WAT     H253922   1.329   7.703   1.000 -0.3857  0.3875 -0.7945
13029WAT    EPW53923   1.296   7.630   0.965  0.0508 -0.0219 -0.3538
13030WAT      O53924   0.069   6.873   1.279  0.4430  0.4101 -0.5701
13030WAT     H153925   0.103   6.825   1.354  0.7967  1.4333 -0.0592
13030WAT     H253926   0.147   6.908   1.236  0.1569  1.0485 -0.5730
13030WAT    EPW53927   0.084   6.871   1.283  0.4519  0.6289 -0.5032
13031WAT      O53928   0.813   2.065   0.598  0.2458  0.7729  0.3942
13031WAT     H153929   0.731   2.114   0.609  0.8481  1.5798  1.4038
13031WAT     H253930   0.844   2.049   0.687  0.8928 -0.0550  0.0361
13031WAT    EPW53931   0.806   2.069   0.611  0.4106  0.7701  0.4802
13032WAT      O53932   0.410   3.801   1.007 -0.5693 -0.2978 -0.2053
13032WAT     H153933   0.501   3.828   0.990 -0.0410 -1.2426  0.9817
13032WAT     H253934   0.418   3.734   1.075 -2.2129  0.0277  0.3312
13032WAT    EPW53935   0.423   3.796   1.013 -0.7164 -0.3794  0.0220
13033WAT      O53936   5.950   2.285   8.402  0.8011 -0.9323 -0.0054
13033WAT     H153937   6.041   2.282   8.372  0.5408  1.3477 -1.2309
13033WAT     H253938   5.919   2.195   8.395  2.8027 -1.6601 -0.0361
13033WAT    EPW53939   5.958   2.273   8.397  1.0309 -0.7275 -0.1707
13034WAT      O53940   1.554   8.271   7.700 -0.4721 -0.1390 -0.1306
13034WAT     H153941   1.606   8.204   7.744 -0.3334  0.8482  1.2792
13034WAT     H253942   1.464   8.253   7.726 -0.5223 -0.2237 -0.3603
13034WAT    EPW53943   1.549   8.260   7.709 -0.4604 -0.0200  0.0253
13035WAT      O53944   9.055   5.157   1.615 -0.4627 -0.7162 -0.4403
13035WAT     H153945   9.056   5.252   1.626  0.4356 -0.8928  1.3975
13035WAT     H253946   8.964   5.137   1.592 -0.9324  0.4732  0.2614
13035WAT    EPW53947   9.043   5.167   1.613 -0.4058 -0.5825 -0.1054
13036WAT      O53948   8.764   0.606   7.160  0.4874  0.0363  0.4602
13036WAT     H153949   8.820   0.656   7.100 -2.2204 -0.4614 -2.7496
13036WAT     H253950   8.711   0.673   7.205  1.4400  0.3272  1.1861
13036WAT    EPW53951   8.764   0.622   7.158  0.2561  0.0090  0.1326
13037WAT      O53952   4.688   8.763   8.097  0.1116 -0.1886  0.0855
13037WAT     H153953   4.652   8.755   8.008  0.6354  2.3285 -0.4240
13037WAT     H253954   4.717   8.854   8.103  1.8790 -0.8084  2.1896
13037WAT    EPW53955   4.687   8.774   8.086  0.4137  0.0620  0.2961
13038WAT      O53956   0.580   2.789   1.734 -0.1535  0.5048  0.5818
13038WAT     H153957   0.637   2.798   1.811 -0.4290 -1.5364  1.0931
13038WAT     H253958   0.558   2.696   1.732 -1.1926  0.7482 -1.2542
13038WAT    EPW53959   0.585   2.778   1.744 -0.3269  0.2677  0.4070
13039WAT      O53960   8.554   4.598   0.468  0.3119  0.4637 -0.5105
13039WAT     H153961   8.527   4.643   0.549  0.6671 -2.4542  1.3978
13039WAT     H253962   8.633   4.644   0.440  0.1778  1.5610  0.8315
13039WAT    EPW53963   8.561   4.610   0.475  0.3409  0.2236 -0.0818
13040WAT      O53964   9.125   5.647   1.306  0.7022  0.2369 -0.1356
13040WAT     H153965   9.211   5.660   1.346  0.4454 -1.1436  0.9414
13040WAT     H253966   9.116   5.552   1.297 -1.0208  0.2919  0.5105
13040WAT    EPW53967   9.135   5.636   1.310  0.4411  0.0620  0.0917
13041WAT      O53968   0.872   3.040   0.405 -0.2248  0.7378 -1.1396
13041WAT     H153969   0.904   3.054   0.316 -0.8859  1.3929 -1.2856
13041WAT     H253970   0.781   3.070   0.402 -0.3041  0.5881 -0.2916
13041WAT    EPW53971   0.864   3.046   0.393 -0.3224  0.8043 -1.0470
13042WAT      O53972   2.542   3.095   3.732 -0.5298  0.2162 -0.6775
13042WAT     H153973   2.561   3.070   3.822 -1.0446  1.3255 -0.2372
13042WAT     H253974   2.449   3.075   3.720 -0.2602 -0.7766 -1.2783
13042WAT    EPW53975   2.532   3.089   3.742 -0.5621  0.2316 -0.6986
13043WAT      O53976   0.925   2.791   0.638 -0.2875  0.6177 -0.0003
13043WAT     H153977   0.840   2.752   0.656 -0.7345  1.0062 -1.2402
13043WAT     H253978   0.924   2.811   0.545  1.7033 -0.6974 -0.3870
13043WAT    EPW53979   0.914   2.788   0.628 -0.0838  0.4956 -0.2148
13044WAT      O53980   1.624   8.827   7.722 -0.2627 -0.1592  0.2679
13044WAT     H153981   1.715   8.837   7.751 -0.6843 -2.5977  2.9030
13044WAT     H253982   1.620   8.740   7.683 -1.5653 -0.3332  0.7177
13044WAT    EPW53983   1.635   8.817   7.721 -0.4901 -0.5035  0.6747
13045WAT      O53984  10.057   4.147   1.176 -0.4348  0.6131 -0.1022
13045WAT     H153985  10.041   4.241   1.184  1.0242  0.7431  2.3251
13045WAT     H253986  10.115   4.127   1.249  0.2411 -1.9825 -1.2568
13045WAT    EPW53987  10.062   4.157   1.186 -0.1531  0.2875  0.0656
13046WAT      O53988   0.782   2.614   3.817  0.0556  0.1800 -0.4349
13046WAT     H153989   0.788   2.577   3.729  0.0494 -0.0244 -0.3505
13046WAT     H253990   0.689   2.617   3.836  0.0747 -0.1702 -0.2722
13046WAT    EPW53991   0.771   2.609   3.808  0.0573  0.1069 -0.4023
13047WAT      O53992   0.194   6.288   0.581 -0.1124 -0.1793 -0.0085
13047WAT     H153993   0.259   6.351   0.551  0.0525  0.6716  1.9466
13047WAT     H253994   0.124   6.293   0.516  0.6243  0.8117 -0.7675
13047WAT    EPW53995   0.193   6.297   0.569  0.0065  0.0637  0.1493
13048WAT      O53996   2.696   2.908   6.937  0.2562  0.1887 -0.5072
13048WAT     H153997   2.721   2.816   6.937  0.3059  0.1489  1.7298
13048WAT     H253998   2.600   2.907   6.936  0.1697 -0.0285  2.0043
13048WAT    EPW53999   2.687   2.896   6.937  0.2513  0.1547  0.1190
13049WAT      O54000   9.768   6.638   7.436  0.4712  0.2671 -0.5678
13049WAT     H154001   9.703   6.689   7.388  1.2669 -0.8476 -3.0121
13049WAT     H254002   9.844   6.696   7.441 -0.0708  0.9104  0.7004
13049WAT    EPW54003   9.769   6.653   7.430  0.5045  0.2050 -0.7229
13050WAT      O54004   8.095   2.513   2.035 -0.2885  0.2359 -0.6652
13050WAT     H154005   8.021   2.451   2.043 -0.2332  0.2003 -0.4122
13050WAT     H254006   8.167   2.469   2.080 -1.1630  1.9637  2.7631
13050WAT    EPW54007   8.095   2.499   2.042 -0.3958  0.4592 -0.1796
13051WAT      O54008   7.431   1.932   6.805 -0.5018 -0.2337 -0.6809
13051WAT     H154009   7.420   2.021   6.771  0.2099 -0.8571 -2.7077
13051WAT     H254010   7.516   1.934   6.850 -1.7464  0.7689  1.8019
13051WAT    EPW54011   7.441   1.944   6.807 -0.5720 -0.1836 -0.6208
13052WAT      O54012   3.420   1.667   7.769 -0.3952  0.2600  0.0831
13052WAT     H154013   3.457   1.747   7.731  0.1500 -0.2747 -0.5381
13052WAT     H254014   3.393   1.615   7.693  0.7203 -0.8250  0.4079
13052WAT    EPW54015   3.421   1.671   7.754 -0.1763  0.0464  0.0436
13053WAT      O54016  10.812   3.085   1.072 -0.5962  0.0456 -0.6309
13053WAT     H154017  10.787   3.144   1.000 -1.5813 -1.4689 -1.6049
13053WAT     H254018  10.890   3.125   1.110  0.5135  0.4864 -3.1387
13053WAT    EPW54019  10.819   3.098   1.067 -0.5803 -0.0961 -1.0900
13054WAT      O54020   2.278   5.734   2.224 -0.1768 -0.0803  0.1871
13054WAT     H154021   2.256   5.752   2.133  1.4398  1.7131  0.0823
13054WAT     H254022   2.204   5.684   2.258 -1.2579  0.0756 -1.8276
13054WAT    EPW54023   2.266   5.730   2.217 -0.1061  0.1771 -0.0924
13055WAT      O54024   1.642   8.465   8.957  0.9433 -0.1328  1.0308
13055WAT     H154025   1.619   8.413   8.879 -1.0497  0.3860  1.2219
13055WAT     H254026   1.733   8.443   8.974  1.4627 -0.2579 -1.4696
13055WAT    EPW54027   1.651   8.455   8.949  0.7489 -0.0806  0.7262
13056WAT      O54028   1.083   4.139   0.736 -0.2606 -0.2191 -0.3486
13056WAT     H154029   1.109   4.186   0.656 -0.5091 -0.4686 -0.5792
13056WAT     H254030   1.054   4.054   0.704 -1.4678  0.0869 -0.1070
13056WAT    EPW54031   1.083   4.134   0.721 -0.4526 -0.2115 -0.3472
13057WAT      O54032  10.992   5.236   0.302  0.8043  0.3213 -0.0361
13057WAT     H154033  10.915   5.188   0.271 -0.3319  1.0697  1.4462
13057WAT     H254034  10.966   5.328   0.299  1.1959  0.5162  1.5662
13057WAT    EPW54035  10.978   5.242   0.298  0.7057  0.4458  0.3707
13058WAT      O54036   0.495   5.774   0.939 -0.3313  0.0704  0.4056
13058WAT     H154037   0.562   5.709   0.960  1.0708  1.5327  0.6671
13058WAT     H254038   0.509   5.795   0.847 -0.2737  0.5443  0.5195
13058WAT    EPW54039   0.506   5.768   0.930 -0.1388  0.3259  0.4551
13059WAT      O54040   0.744   7.947   0.725 -0.3040  0.4058 -0.3529
13059WAT     H154041   0.682   8.017   0.742 -0.5172  0.4016 -1.0692
13059WAT     H254042   0.761   7.909   0.811 -1.6787  0.0874 -0.1861
13059WAT    EPW54043   0.738   7.951   0.739 -0.5134  0.3631 -0.4254
13060WAT      O54044  10.773   1.224   0.967  0.1731  0.0541  0.9237
13060WAT     H154045  10.837   1.156   0.946 -0.8945 -0.6845 -0.0856
13060WAT     H254046  10.823   1.291   1.013  1.2764 -1.3732  1.8744
13060WAT    EPW54047  10.788   1.224   0.970  0.1779 -0.2316  0.9159
13061WAT      O54048   3.651   0.422   6.454 -0.4059  0.4877 -0.2663
13061WAT     H154049   3.666   0.377   6.537  2.1055  2.0601  0.2379
13061WAT     H254050   3.596   0.497   6.478  0.3529  0.9650  0.0346
13061WAT    EPW54051   3.646   0.426   6.468  0.0253  0.7580 -0.1597
13062WAT      O54052   2.771  10.085   7.600 -0.2239  0.6223 -0.7704
13062WAT     H154053   2.858  10.112   7.571  0.3026 -2.2421 -2.2373
13062WAT     H254054   2.773  10.094   7.695  1.0998  2.0076 -0.8840
13062WAT    EPW54055   2.783  10.090   7.609  0.0201  0.4277 -0.9787
13063WAT      O54056   6.972   0.303   8.594  0.2321  0.2615  0.1035
13063WAT     H154057   7.008   0.350   8.519 -2.0726  1.4550 -0.3764
13063WAT     H254058   6.888   0.269   8.561 -0.0055 -0.7155  1.6501
13063WAT    EPW54059   6.965   0.304   8.579 -0.1032  0.2901  0.2446
13064WAT      O54060   8.727   3.652   1.726  0.3786  0.3230 -0.3352
13064WAT     H154061   8.698   3.578   1.779  3.2245 -1.8928 -1.6039
13064WAT     H254062   8.805   3.685   1.770  2.3570 -1.0711 -2.5358
13064WAT    EPW54063   8.733   3.647   1.738  1.0152 -0.1532 -0.7928
13065WAT      O54064   8.854   3.978   2.096  0.3008  0.2906  0.6152
13065WAT     H154065   8.822   4.068   2.105 -1.3387 -0.2337  0.2730
13065WAT     H254066   8.798   3.939   2.029  0.7232 -1.1229  1.0545
13065WAT    EPW54067   8.843   3.985   2.088  0.1402  0.0350  0.6281
13066WAT      O54068   1.540   7.533   7.731  0.1855 -0.2701 -0.5635
13066WAT     H154069   1.459   7.510   7.776 -0.3789 -0.6877 -1.7260
13066WAT     H254070   1.528   7.500   7.642  1.5676 -0.1854 -0.8160
13066WAT    EPW54071   1.528   7.526   7.725  0.2934 -0.3142 -0.7503
13067WAT      O54072  10.215   1.388   0.423  0.0153  0.5199  0.5206
13067WAT     H154073  10.192   1.472   0.383  0.0589  0.7724  1.0207
13067WAT     H254074  10.303   1.401   0.458  0.6918 -0.2315 -0.7823
13067WAT    EPW54075  10.223   1.401   0.422  0.1101  0.4541  0.4147
13068WAT      O54076   9.945   3.861   0.016 -0.4854 -0.7689 -0.0790
13068WAT     H154077   9.894   3.784   0.041  0.4406 -1.7821 -1.1903
13068WAT     H254078   9.884   3.915  -0.035 -1.5693 -0.0060  1.9370
13068WAT    EPW54079   9.930   3.858   0.012 -0.5059 -0.8020  0.0403
13069WAT      O54080   4.133   0.056   7.077 -0.4169  0.1393 -1.0080
13069WAT     H154081   4.079  -0.003   7.129  1.4119 -1.1310 -0.4705
13069WAT     H254082   4.184  -0.002   7.020 -1.2270  1.4191 -3.1519
13069WAT    EPW54083   4.132   0.041   7.076 -0.2825  0.1402 -1.2197
13070WAT      O54084   4.061   1.937   8.003  0.0231  0.5306  0.6011
13070WAT     H154085   4.034   2.001   8.069 -1.8921 -0.2386  0.6253
13070WAT     H254086   4.140   1.897   8.040 -2.0924 -1.3628  3.5716
13070WAT    EPW54087   4.068   1.940   8.017 -0.5088  0.1794  0.9966
13071WAT      O54088   0.491   7.332   6.377 -0.2947 -0.4723 -0.1505
13071WAT     H154089   0.485   7.236   6.374  1.3769 -0.5900 -0.7186
13071WAT     H254090   0.549   7.349   6.451 -0.3293  0.0927 -0.2526
13071WAT    EPW54091   0.498   7.322   6.387 -0.0788 -0.4137 -0.2389
13072WAT      O54092   4.157  10.226   8.628  0.2163  0.4804  0.7848
13072WAT     H154093   4.147  10.196   8.718  1.0779  0.1396  0.7740
13072WAT     H254094   4.220  10.166   8.589  0.0355  0.7695  0.0170
13072WAT    EPW54095   4.164  10.214   8.635  0.3059  0.4735  0.6814
13073WAT      O54096   0.659   4.526   0.037 -0.3393  0.1749 -0.0222
13073WAT     H154097   0.635   4.480   0.117 -0.4270  0.0287 -0.1329
13073WAT     H254098   0.577   4.535  -0.011 -0.7271  2.3066  0.9401
13073WAT    EPW54099   0.645   4.521   0.041 -0.4020  0.4368  0.0906
13074WAT      O54100   8.470   0.546   8.711  0.8064 -0.8373 -0.2927
13074WAT     H154101   8.382   0.567   8.745 -0.5712  0.9050 -4.2967
13074WAT     H254102   8.527   0.611   8.752 -0.3029 -0.2548  0.3963
13074WAT    EPW54103   8.466   0.558   8.721  0.4787 -0.5307 -0.7305
13075WAT      O54104   9.152   4.933   0.701 -0.1575  0.4434  0.1841
13075WAT     H154105   9.246   4.917   0.703 -0.5527 -2.9227 -0.5379
13075WAT     H254106   9.115   4.868   0.762 -2.0354  1.4269  0.1832
13075WAT    EPW54107   9.159   4.922   0.709 -0.4578  0.1292  0.0888
13076WAT      O54108   0.393   5.708   0.205  0.2913  0.9259  0.3278
13076WAT     H154109   0.343   5.634   0.172  4.7038 -1.7077 -1.2959
13076WAT     H254110   0.426   5.752   0.127  2.6258  0.8540  1.1967
13076WAT    EPW54111   0.391   5.704   0.190  1.1812  0.5689  0.2282
13077WAT      O54112   1.443   8.830   7.948 -0.2507 -0.5009  0.4087
13077WAT     H154113   1.494   8.780   7.884  0.8983  0.9283  0.1575
13077WAT     H254114   1.448   8.921   7.917 -1.3527 -0.0569  1.4469
13077WAT    EPW54115   1.451   8.836   7.935 -0.2445 -0.2542  0.5128
13078WAT      O54116   4.026   7.425   8.357 -0.4714  0.1488  0.1490
13078WAT     H154117   4.076   7.445   8.436 -0.5304 -0.9599  0.4876
13078WAT     H254118   4.083   7.451   8.285 -0.4219  1.1769  0.5440
13078WAT    EPW54119   4.040   7.431   8.358 -0.4728  0.1380  0.2460
13079WAT      O54120   9.207   4.290   4.706  0.2913 -0.6322  0.2254
13079WAT     H154121   9.214   4.232   4.630 -0.6869 -1.8499  1.0227
13079WAT     H254122   9.136   4.253   4.758  0.5958  0.4697  1.4824
13079WAT    EPW54123   9.199   4.277   4.703  0.2027 -0.6478  0.4964
13080WAT      O54124   9.857   5.880   1.979  0.2628  0.9858  0.1904
13080WAT     H154125   9.918   5.810   1.956 -0.0765  1.0212 -0.9156
13080WAT     H254126   9.860   5.940   1.904 -1.2709  0.8664 -0.0180
13080WAT    EPW54127   9.865   5.879   1.966  0.0157  0.9744  0.0170
13081WAT      O54128   0.921   5.349   0.999  0.5452  0.3053  0.3686
13081WAT     H154129   1.011   5.318   1.005 -0.1428 -2.6373 -2.1942
13081WAT     H254130   0.911   5.378   0.908 -1.7626 -2.1065 -0.2758
13081WAT    EPW54131   0.931   5.349   0.988  0.1501 -0.4008 -0.0544
13082WAT      O54132   1.802   9.007   6.830  0.2375  0.0790  0.4084
13082WAT     H154133   1.879   8.951   6.828 -0.2060 -0.5275 -0.9895
13082WAT     H254134   1.824   9.082   6.774 -0.6421 -0.7778 -1.1514
13082WAT    EPW54135   1.815   9.010   6.822  0.0629 -0.1140  0.0181
13083WAT      O54136   8.107   7.327   7.719 -0.4966  0.1791 -0.5514
13083WAT     H154137   8.126   7.291   7.632  0.1517 -0.1277 -0.2803
13083WAT     H254138   8.012   7.315   7.729 -0.1647 -2.5943  0.0338
13083WAT    EPW54139   8.097   7.321   7.709 -0.3676 -0.2272 -0.4387
13084WAT      O54140   0.767   4.063   8.685  0.0961  0.4506 -0.3529
13084WAT     H154141   0.682   4.106   8.691 -0.7371 -0.9640 -1.3843
13084WAT     H254142   0.768   4.000   8.757  0.6484  1.0450  0.1769
13084WAT    EPW54143   0.756   4.060   8.695  0.0590  0.3424 -0.4187
13085WAT      O54144  10.454   6.697   5.007 -0.2032  0.8271 -0.0765
13085WAT     H154145  10.500   6.623   5.047  0.2108  1.4050  0.5178
13085WAT     H254146  10.451   6.764   5.075 -1.6264  0.9369 -0.2171
13085WAT    EPW54147  10.460   6.696   5.021 -0.3362  0.9177 -0.0169
13086WAT      O54148  10.694   4.042   4.015 -0.7661 -0.2955  0.3880
13086WAT     H154149  10.614   3.994   3.995 -1.1405 -0.2766  1.7618
13086WAT     H254150  10.757   3.974   4.040 -0.6436 -0.2369  0.2400
13086WAT    EPW54151  10.692   4.027   4.015 -0.7997 -0.2854  0.5496
13087WAT      O54152   6.476   4.579   1.443  0.8930  0.1214 -0.0239
13087WAT     H154153   6.456   4.488   1.422  0.7677  0.3957 -1.1501
13087WAT     H254154   6.429   4.595   1.525  1.5312 -1.0333  0.5996
13087WAT    EPW54155   6.467   4.569   1.451  0.9608  0.0052 -0.0902
13088WAT      O54156   8.464   3.349   2.703 -0.1928  0.2745  0.3872
13088WAT     H154157   8.526   3.296   2.752  1.2379  2.6966  1.3596
13088WAT     H254158   8.427   3.410   2.767 -0.3281  1.7138 -0.9808
13088WAT    EPW54159   8.467   3.350   2.718 -0.0219  0.7838  0.3350
13089WAT      O54160   0.778   0.325   3.348  0.6046  0.0960 -0.1477
13089WAT     H154161   0.815   0.396   3.295 -0.9714  0.9757 -0.1380
13089WAT     H254162   0.778   0.359   3.437 -0.4793  0.2556 -0.1920
13089WAT    EPW54163   0.783   0.339   3.352  0.2538  0.2330 -0.1523
13090WAT      O54164   7.432   3.310   0.768 -0.0038 -0.5717  0.0839
13090WAT     H154165   7.367   3.270   0.709  2.3011 -1.7401 -1.8359
13090WAT     H254166   7.508   3.325   0.712  1.0903  1.6378  2.0336
13090WAT    EPW54167   7.433   3.306   0.752  0.4444 -0.4343  0.0878
13091WAT      O54168   2.580   9.226   8.625 -0.5625 -0.4331 -0.6118
13091WAT     H154169   2.645   9.297   8.621 -0.8110 -0.2174 -0.8018
13091WAT     H254170   2.633   9.146   8.627 -0.1354 -0.2124  2.3757
13091WAT    EPW54171   2.596   9.225   8.625 -0.5389 -0.3757 -0.2427
13092WAT      O54172  10.090   2.665   1.221  0.1315 -0.1395  0.8702
13092WAT     H154173  10.006   2.621   1.230  0.6912 -1.2940  0.7538
13092WAT     H254174  10.093   2.728   1.293 -0.8406 -0.0572  0.8477
13092WAT    EPW54175  10.080   2.667   1.232  0.0777 -0.2810  0.8519
13093WAT      O54176   3.288   5.181   0.204 -0.5568  0.1522 -0.1126
13093WAT     H154177   3.275   5.214   0.292  1.8856 -0.8787  0.7173
13093WAT     H254178   3.381   5.159   0.200 -0.6816 -0.2133 -2.8218
13093WAT    EPW54179   3.299   5.182   0.215 -0.2513 -0.0317 -0.3604
13094WAT      O54180   9.317   2.784   0.581 -0.1031 -1.3536  0.2567
13094WAT     H154181   9.375   2.782   0.504  0.1549 -1.5209  0.4537
13094WAT     H254182   9.232   2.812   0.546  0.4242  0.2490  0.1742
13094WAT    EPW54183   9.314   2.787   0.566  0.0005 -1.1643  0.2719
13095WAT      O54184   2.818   5.142   1.328  0.2382 -0.6303 -0.6418
13095WAT     H154185   2.785   5.232   1.331 -0.2604 -0.8237  0.1137
13095WAT     H254186   2.905   5.147   1.368  0.0656 -0.5360 -0.2695
13095WAT    EPW54187   2.825   5.155   1.334  0.1497 -0.6433 -0.4930
13096WAT      O54188   6.028   1.889   6.773  0.0293 -0.3365  0.0179
13096WAT     H154189   6.104   1.893   6.831 -0.2878  0.0099  0.4119
13096WAT     H254190   6.063   1.858   6.690  0.4874 -0.8592  0.3961
13096WAT    EPW54191   6.042   1.886   6.770  0.0477 -0.3598  0.1197
13097WAT      O54192   9.935   4.698   2.735 -0.3933  0.2271 -0.5824
13097WAT     H154193   9.932   4.760   2.662 -0.3404  0.7756 -0.1179
13097WAT     H254194   9.844   4.693   2.765  0.0007  2.1018  1.0682
13097WAT    EPW54195   9.922   4.705   2.729 -0.3343  0.5467 -0.3035
13098WAT      O54196   8.151   3.865   1.707  0.1952 -0.0414  0.3734
13098WAT     H154197   8.142   3.810   1.786  1.1729 -2.7367 -1.2589
13098WAT     H254198   8.217   3.930   1.730  1.0787 -1.3039  1.5208
13098WAT    EPW54199   8.158   3.866   1.721  0.4411 -0.5635  0.3095
13099WAT      O54200   1.238   7.013   0.016  0.4466 -0.2486  0.3128
13099WAT     H154201   1.149   7.048   0.010  0.4886 -0.2096 -0.0945
13099WAT     H254202   1.279   7.036  -0.067 -0.4144 -3.7899 -1.2402
13099WAT    EPW54203   1.232   7.021   0.004  0.3386 -0.7107  0.0542
13100WAT      O54204   8.615   1.204   1.824 -0.0634  1.0031 -0.2034
13100WAT     H154205   8.568   1.266   1.768  1.9837  1.5796 -1.3974
13100WAT     H254206   8.657   1.144   1.762  0.1602  0.0456  0.8471
13100WAT    EPW54207   8.614   1.204   1.808  0.2360  0.9528 -0.2223
13101WAT      O54208   2.898   9.234   8.507  0.1193  0.3846 -0.2208
13101WAT     H154209   2.877   9.219   8.414 -2.7088 -2.2316  0.6740
13101WAT     H254210   2.981   9.189   8.520 -0.7021 -1.4786 -1.0081
13101WAT    EPW54211   2.906   9.226   8.496 -0.3620 -0.2060 -0.2069
13102WAT      O54212   9.948   4.641   1.943 -1.1225 -0.5357  0.7591
13102WAT     H154213   9.923   4.733   1.932  1.5814  0.2062  0.1477
13102WAT     H254214   9.866   4.597   1.966 -2.8459  1.6994 -0.6472
13102WAT    EPW54215   9.933   4.648   1.944 -0.9928 -0.1433  0.4930
13103WAT      O54216   1.157   7.840   8.107  0.5142 -0.2074  0.2234
13103WAT     H154217   1.195   7.758   8.137  0.3775 -0.9804 -1.5688
13103WAT     H254218   1.070   7.842   8.145  1.0154 -0.1699  1.4300
13103WAT    EPW54219   1.151   7.830   8.116  0.5623 -0.3045  0.1464
13104WAT      O54220   1.108   4.061   3.976  0.4976 -0.3462 -0.3956
13104WAT     H154221   1.160   4.028   3.903 -1.6230 -0.3498 -2.0013
13104WAT     H254222   1.034   4.001   3.983  0.4677 -0.1653  1.5853
13104WAT    EPW54223   1.105   4.049   3.967  0.2139 -0.3231 -0.3462
13105WAT      O54224   9.721   1.550   2.882  0.4103 -0.1726 -0.0186
13105WAT     H154225   9.748   1.567   2.792  1.0749  0.1884  0.2443
13105WAT     H254226   9.757   1.623   2.932  1.1220 -1.0250  0.7469
13105WAT    EPW54227   9.729   1.562   2.877  0.5918 -0.2374  0.1171
13106WAT      O54228   0.829   8.003   1.019  0.3265 -0.3247  0.9898
13106WAT     H154229   0.758   8.066   1.035 -0.6691 -0.9305 -0.7364
13106WAT     H254230   0.902   8.056   0.987 -0.0533  0.0977  0.8187
13106WAT    EPW54231   0.829   8.018   1.017  0.1451 -0.3486  0.7396
13107WAT      O54232   1.704   6.697   1.959  0.3911  0.2355 -0.4450
13107WAT     H154233   1.703   6.603   1.941  1.4050 -0.5441  2.8069
13107WAT     H254234   1.785   6.728   1.919  1.5680 -0.9666  0.8613
13107WAT    EPW54235   1.714   6.689   1.952  0.6801 -0.0257  0.1562
13108WAT      O54236   8.784   4.667   2.414  0.4144  0.4599 -0.2326
13108WAT     H154237   8.861   4.644   2.362 -0.5803 -3.3915 -0.3209
13108WAT     H254238   8.814   4.663   2.505  0.7577  1.0581 -0.3143
13108WAT    EPW54239   8.798   4.663   2.419  0.3285  0.0310 -0.2551
13109WAT      O54240   5.980   7.728   8.557  0.1249 -0.5563  0.3562
13109WAT     H154241   6.060   7.739   8.506  0.2265 -0.8444  0.4567
13109WAT     H254242   5.995   7.781   8.635 -0.0885  0.0022  0.0264
13109WAT    EPW54243   5.992   7.737   8.561  0.1101 -0.5209  0.3257
13110WAT      O54244   8.765   3.598   0.507  0.0456  0.1628 -0.6180
13110WAT     H154245   8.714   3.537   0.559  1.6067 -1.2639 -0.7102
13110WAT     H254246   8.761   3.680   0.556  1.7912 -1.1991  2.0472
13110WAT    EPW54247   8.757   3.601   0.520  0.4821 -0.2049 -0.2787
13111WAT      O54248  10.727   5.272   8.904  0.2252 -0.7209 -0.8544
13111WAT     H154249  10.642   5.266   8.947  0.6580 -1.2924 -0.0608
13111WAT     H254250  10.780   5.204   8.946  0.7950 -1.0078 -1.9868
13111WAT    EPW54251  10.723   5.262   8.915  0.3576 -0.8340 -0.8988
13112WAT      O54252   6.763   2.375   7.306 -0.5729 -1.3859 -0.2566
13112WAT     H154253   6.784   2.377   7.213  0.1046  0.2129 -0.1077
13112WAT     H254254   6.773   2.466   7.335  1.8473 -2.2077  1.9122
13112WAT    EPW54255   6.767   2.387   7.298 -0.1643 -1.2834  0.0491
13113WAT      O54256   4.148   8.804   8.811  0.0624 -0.7812  0.0925
13113WAT     H154257   4.219   8.783   8.873 -1.7142 -2.6727  1.6445
13113WAT     H254258   4.096   8.724   8.807 -1.6727  0.3545 -1.4409
13113WAT    EPW54259   4.151   8.791   8.819 -0.4010 -0.8807  0.0954
13114WAT      O54260   0.468   6.819   8.962 -0.2589  0.2502 -0.0745
13114WAT     H154261   0.447   6.777   9.045  0.3283  0.5370  0.2276
13114WAT     H254262   0.564   6.825   8.962 -0.3566  3.0890  0.6644
13114WAT    EPW54263   0.478   6.814   8.973 -0.1943  0.6626  0.0625
13115WAT      O54264  10.895   8.684   6.593 -0.3145  0.7103 -0.0729
13115WAT     H154265  10.841   8.616   6.554 -0.5849  0.5430  0.5847
13115WAT     H254266  10.951   8.637   6.655 -0.3185  1.0504  0.1913
13115WAT    EPW54267  10.896   8.669   6.596 -0.3510  0.7334  0.0486
13116WAT      O54268   8.457   4.808   0.630 -0.1589  0.7496  0.2376
13116WAT     H154269   8.367   4.808   0.598  0.3999 -1.1895 -1.6045
13116WAT     H254270   8.498   4.883   0.588  0.3617 -1.3235 -3.3847
13116WAT    EPW54271   8.451   4.818   0.620 -0.0162  0.2205 -0.4831
13117WAT      O54272  10.206   1.644   2.596  0.3983 -0.2120 -0.6738
13117WAT     H154273  10.157   1.564   2.611 -1.6667  0.5221 -2.7766
13117WAT     H254274  10.204   1.690   2.680 -0.2565 -1.4040 -0.0129
13117WAT    EPW54275  10.199   1.640   2.609  0.0401 -0.2725 -0.8640
13118WAT      O54276   1.756   9.254   7.528 -0.1201 -0.2417 -0.2210
13118WAT     H154277   1.840   9.279   7.491  0.9276 -2.0442  0.8117
13118WAT     H254278   1.696   9.323   7.499  2.2894  2.9072  1.6478
13118WAT    EPW54279   1.759   9.266   7.519  0.3359 -0.0648  0.1616
13119WAT      O54280   8.292   4.714   1.917  0.3659  0.6458  0.2071
13119WAT     H154281   8.262   4.786   1.972 -0.7425 -0.4051  1.0303
13119WAT     H254282   8.387   4.726   1.910  0.1530  2.3959 -0.0268
13119WAT    EPW54283   8.301   4.725   1.923  0.1917  0.7379  0.2849
13120WAT      O54284   1.776  10.241   6.998  0.5801  0.2550 -0.0859
13120WAT     H154285   1.807  10.320   7.043 -1.1062  0.3826  0.9130
13120WAT     H254286   1.775  10.265   6.906  1.0571  1.0474  0.1034
13120WAT    EPW54287   1.780  10.255   6.992  0.4206  0.3762  0.0708
13121WAT      O54288   2.224   3.940   1.385  0.1809 -0.6442  1.1724
13121WAT     H154289   2.205   3.893   1.304  1.3570 -0.2716  0.6681
13121WAT     H254290   2.316   3.964   1.378 -0.2993  1.4714  1.5477
13121WAT    EPW54291   2.233   3.937   1.374  0.2728 -0.3161  1.1554
13122WAT      O54292  10.910   8.433   7.753 -0.3544  0.6187 -0.2299
13122WAT     H154293  10.948   8.364   7.808 -1.2042 -0.9291 -1.5176
13122WAT     H254294  10.853   8.482   7.813 -0.4116 -0.3346  0.5280
13122WAT    EPW54295  10.908   8.430   7.768 -0.4740  0.2890 -0.2997
13123WAT      O54296   7.581   6.552   3.454 -0.1623 -0.1949 -0.3106
13123WAT     H154297   7.547   6.638   3.482 -0.7466 -0.8546  1.1172
13123WAT     H254298   7.663   6.543   3.502 -0.4802 -0.7436  0.1486
13123WAT    EPW54299   7.587   6.562   3.464 -0.2813 -0.3543 -0.0616
13124WAT      O54300   9.544   6.517   0.719  0.1460  0.3133 -0.4290
13124WAT     H154301   9.563   6.481   0.632 -2.1589 -3.2231  0.3288
13124WAT     H254302   9.449   6.526   0.722  0.1889  0.6124  1.6589
13124WAT    EPW54303   9.534   6.514   0.708 -0.1526 -0.1135 -0.0537
13125WAT      O54304   8.114   0.003   8.664  0.0664  0.6040 -0.3885
13125WAT     H154305   8.101   0.097   8.682  1.0503  0.4147  1.6086
13125WAT     H254306   8.026  -0.035   8.674 -0.4999  1.3969 -2.0611
13125WAT    EPW54307   8.101   0.011   8.668  0.1216  0.6843 -0.3448
13126WAT      O54308   2.315   9.469   7.926  0.0559 -0.4005 -0.0938
13126WAT     H154309   2.392   9.485   7.871  0.3822  1.3659  0.7926
13126WAT     H254310   2.347   9.483   8.016 -1.5609  1.8721  0.2179
13126WAT    EPW54311   2.330   9.473   7.931 -0.1143  0.1326  0.0641
13127WAT      O54312   7.634   3.007   6.290  0.2820  0.3637 -0.1996
13127WAT     H154313   7.659   3.068   6.220  3.9047  0.1864  0.6998
13127WAT     H254314   7.655   2.920   6.255  1.5946  0.2346  0.8158
13127WAT    EPW54315   7.640   3.004   6.277  0.9329  0.3234  0.0527
13128WAT      O54316   0.821   0.481   2.131 -0.5349 -0.3692  0.5947
13128WAT     H154317   0.872   0.478   2.051  0.4539  0.3800  1.1740
13128WAT     H254318   0.829   0.393   2.168 -0.3359 -0.4894  0.2729
13128WAT    EPW54319   0.829   0.469   2.125 -0.3782 -0.2862  0.6286
13129WAT      O54320   1.892   5.256   1.841  0.3900 -0.0528 -0.4866
13129WAT     H154321   1.923   5.313   1.912 -0.7335  0.0073 -0.0255
13129WAT     H254322   1.875   5.316   1.769 -0.4200  0.1519 -0.1300
13129WAT    EPW54323   1.894   5.272   1.841  0.1350 -0.0179 -0.3788
13130WAT      O54324  10.378   3.052   0.987 -0.5707  0.5964  0.2128
13130WAT     H154325  10.360   3.044   1.080  1.0415 -0.2186  0.4918
13130WAT     H254326  10.402   2.964   0.959  0.7464  1.1735 -0.5571
13130WAT    EPW54327  10.379   3.039   0.996 -0.1845  0.5653  0.1480
13131WAT      O54328   1.669   8.311   7.423 -0.2473 -0.8946 -0.0233
13131WAT     H154329   1.642   8.328   7.513  0.5689  2.1209 -0.2503
13131WAT     H254330   1.727   8.384   7.400 -0.5158 -1.4716 -3.0496
13131WAT    EPW54331   1.673   8.323   7.432 -0.1751 -0.5732 -0.4525
13132WAT      O54332   0.360   5.247   2.039  0.0270  0.3365  1.0105
13132WAT     H154333   0.442   5.256   2.087 -0.4522  0.5918  1.7916
13132WAT     H254334   0.368   5.311   1.967  1.7712 -1.7550 -0.7889
13132WAT    EPW54335   0.372   5.257   2.036  0.1938  0.0944  0.8762
13133WAT      O54336   2.091   9.484   8.321 -0.1362  0.6249 -0.2400
13133WAT     H154337   2.117   9.520   8.236  0.3249  1.4395  0.2379
13133WAT     H254338   2.172   9.474   8.369 -0.3241 -0.5003 -0.1319
13133WAT    EPW54339   2.105   9.487   8.316 -0.1001  0.5836 -0.1626
13134WAT      O54340   5.665   8.825   0.070  0.1159  0.0933  0.2529
13134WAT     H154341   5.703   8.913   0.063 -1.0957  0.8853  2.4747
13134WAT     H254342   5.737   8.771   0.102  0.6333  0.4749 -0.2450
13134WAT    EPW54343   5.680   8.830   0.074  0.0243  0.2480  0.4803
13135WAT      O54344   9.360   4.317   3.587  0.4624  0.0717 -0.4242
13135WAT     H154345   9.390   4.407   3.590 -0.5314  0.4083  2.5040
13135WAT     H254346   9.439   4.264   3.593  0.9369  0.7562 -0.5695
13135WAT    EPW54347   9.374   4.322   3.588  0.3939  0.2065 -0.0571
13136WAT      O54348   1.213   2.874   3.149 -0.0306 -0.8416  0.4343
13136WAT     H154349   1.169   2.802   3.104  2.1243 -0.7942 -1.9894
13136WAT     H254350   1.301   2.841   3.169  0.9358  0.9493 -0.5285
13136WAT    EPW54351   1.219   2.860   3.146  0.3811 -0.5991 -0.0124
13137WAT      O54352   1.611   7.412   8.304  0.5007  0.8388 -0.9981
13137WAT     H154353   1.671   7.383   8.235 -0.0488  1.7579 -1.8871
13137WAT     H254354   1.648   7.495   8.334  0.2471  0.8850 -0.8118
13137WAT    EPW54355   1.624   7.419   8.298  0.3948  0.9661 -1.0905
13138WAT      O54356   3.122   6.326   0.535 -0.0211  0.1897  0.2717
13138WAT     H154357   3.138   6.338   0.628  0.3316  0.2106  0.2096
13138WAT     H254358   3.028   6.307   0.529 -0.0227  0.0757  0.6394
13138WAT    EPW54359   3.112   6.325   0.546  0.0252  0.1774  0.3120
13139WAT      O54360   6.305   2.125   5.163  0.5038 -1.1037 -1.1041
13139WAT     H154361   6.213   2.108   5.179  0.8153  0.1306  3.4890
13139WAT     H254362   6.306   2.201   5.105 -1.6110  0.9022  1.2389
13139WAT    EPW54363   6.293   2.133   5.157  0.2661 -0.6763 -0.1891
13140WAT      O54364   0.873   1.876   1.804  0.8367  0.1748 -0.4810
13140WAT     H154365   0.942   1.821   1.840  2.1339  0.9003 -1.7519
13140WAT     H254366   0.863   1.845   1.713 -2.6967 -1.9581  0.4262
13140WAT    EPW54367   0.881   1.864   1.797  0.5417 -0.0107 -0.5291
13141WAT      O54368   0.592   5.065   3.512 -0.2510  1.0404  0.4048
13141WAT     H154369   0.584   4.985   3.459  0.6469 -0.0301  1.8113
13141WAT     H254370   0.503   5.098   3.520 -0.9560 -0.9627  1.4413
13141WAT    EPW54371   0.580   5.059   3.506 -0.2256  0.6347  0.7271
13142WAT      O54372   4.553   7.571   7.349 -0.1318  0.0429  0.1338
13142WAT     H154373   4.584   7.622   7.274 -0.4465 -0.5145 -0.3814
13142WAT     H254374   4.576   7.625   7.425  1.1463  0.1268 -0.2858
13142WAT    EPW54375   4.560   7.585   7.350 -0.0045 -0.0196  0.0105
13143WAT      O54376   4.601   8.188   6.574  0.7314 -1.1733 -0.2949
13143WAT     H154377   4.681   8.232   6.545  0.4312  0.5902  1.3434
13143WAT     H254378   4.618   8.164   6.665 -1.8706  3.0686  1.6344
13143WAT    EPW54379   4.614   8.191   6.582  0.3486 -0.3815  0.1757
13144WAT      O54380   0.605   8.353   1.430  0.7659  0.7193  0.5752
13144WAT     H154381   0.672   8.286   1.441  1.2199  1.3721  2.0476
13144WAT     H254382   0.549   8.344   1.507  1.1316  2.3154  1.0866
13144WAT    EPW54383   0.606   8.343   1.442  0.8740  1.0161  0.8368
13145WAT      O54384   3.935   1.119   5.632 -0.1859  0.5223  0.3582
13145WAT     H154385   3.842   1.111   5.654  0.3070 -0.8331  2.1047
13145WAT     H254386   3.979   1.128   5.716  1.5240 -1.6300 -0.2303
13145WAT    EPW54387   3.928   1.119   5.646  0.1047  0.0597  0.5109
13146WAT      O54388   3.871   7.209   7.734  0.0192 -0.1327 -0.1886
13146WAT     H154389   3.879   7.252   7.820  2.3315 -0.2016 -0.3156
13146WAT     H254390   3.856   7.281   7.673  3.3552  0.5999 -0.3311
13146WAT    EPW54391   3.870   7.224   7.738  0.7641 -0.0453 -0.2239
13147WAT      O54392   1.308   5.952   6.316  0.0895 -0.2579 -0.3369
13147WAT     H154393   1.320   5.871   6.267  0.0356 -1.4954  1.6095
13147WAT     H254394   1.346   5.935   6.402  0.7533  2.0477 -0.0891
13147WAT    EPW54395   1.315   5.939   6.321  0.1700 -0.1173 -0.0474
13148WAT      O54396   0.471   7.605   6.748  0.2319 -0.4376 -0.7922
13148WAT     H154397   0.414   7.665   6.796  1.2480 -1.4012  1.7927
13148WAT     H254398   0.545   7.659   6.720 -0.4115  0.1526 -1.3944
13148WAT    EPW54399   0.473   7.620   6.750  0.2811 -0.4866 -0.5305
13149WAT      O54400   1.199   9.435   8.438  0.6610  0.1105  0.0827
13149WAT     H154401   1.191   9.427   8.533 -0.7250 -0.1616 -0.0336
13149WAT     H254402   1.279   9.387   8.417  0.1495 -1.2119  0.9578
13149WAT    EPW54403   1.208   9.428   8.448  0.4107 -0.1006  0.1831
13150WAT      O54404   2.828   9.179   8.237  0.2235  0.7150 -0.0494
13150WAT     H154405   2.770   9.255   8.238 -0.7758 -0.0406 -0.2017
13150WAT     H254406   2.899   9.205   8.178 -1.3336  0.6541 -2.0300
13150WAT    EPW54407   2.830   9.193   8.229 -0.1137  0.6075 -0.3309
13151WAT      O54408   4.013   8.528   8.656 -0.1693  0.1692 -0.4801
13151WAT     H154409   4.034   8.443   8.694  0.6884 -0.2947 -1.8959
13151WAT     H254410   4.078   8.539   8.586 -1.6858  0.9031 -1.8391
13151WAT    EPW54411   4.024   8.518   8.652 -0.2561  0.2055 -0.8454
13152WAT      O54412   8.579   6.292   0.404 -0.6483 -0.1657 -0.3745
13152WAT     H154413   8.521   6.239   0.459 -1.0980 -0.8088 -1.4343
13152WAT     H254414   8.656   6.238   0.391  1.2615  1.4926  2.7744
13152WAT    EPW54415   8.581   6.278   0.410 -0.4559 -0.0319 -0.0990
13153WAT      O54416   9.681   2.236   1.001 -0.1348  0.1286 -0.6910
13153WAT     H154417   9.599   2.189   1.016 -0.5426  0.8109 -0.7812
13153WAT     H254418   9.734   2.217   1.079 -0.8084  0.6109 -0.1101
13153WAT    EPW54419   9.677   2.227   1.013 -0.2775  0.2822 -0.6263
13154WAT      O54420   9.210   0.225   6.703  0.0115  0.2757  0.4746
13154WAT     H154421   9.191   0.165   6.631  0.1685  1.8712 -0.9633
13154WAT     H254422   9.263   0.294   6.664 -2.6102  2.9577  1.2512
13154WAT    EPW54423   9.214   0.226   6.689 -0.3138  0.8399  0.3874
13155WAT      O54424   0.009   5.500   2.012  0.4747 -0.5822  0.4575
13155WAT     H154425   0.031   5.483   1.920 -0.2957 -0.6388  0.2792
13155WAT     H254426   0.049   5.584   2.031 -0.3254 -0.0198 -0.2718
13155WAT    EPW54427   0.017   5.509   2.002  0.2675 -0.5152  0.3377
13156WAT      O54428   1.987   2.556   1.836 -0.3551  0.0502  0.0139
13156WAT     H154429   2.049   2.600   1.779 -0.7883 -0.1417 -0.6175
13156WAT     H254430   2.011   2.464   1.831  0.6647  0.2036  1.4746
13156WAT    EPW54431   1.998   2.550   1.828 -0.2777  0.0451  0.1232
13157WAT      O54432   7.948   5.453   1.559  0.5160 -0.1281 -0.0828
13157WAT     H154433   7.944   5.372   1.508 -2.7994  0.1323 -0.4312
13157WAT     H254434   7.966   5.521   1.495 -1.2598 -0.1011 -0.6077
13157WAT    EPW54435   7.950   5.451   1.544 -0.1554 -0.0904 -0.1980
13158WAT      O54436   3.743   1.231   7.468  0.2026 -0.2041  0.0987
13158WAT     H154437   3.799   1.181   7.409 -0.9871 -0.3453 -0.9702
13158WAT     H254438   3.794   1.240   7.549  2.4811  1.2245 -1.3857
13158WAT    EPW54439   3.757   1.225   7.471  0.3462 -0.0343 -0.2379
13159WAT      O54440   0.488   8.802   8.161 -0.1026 -0.4613 -0.4522
13159WAT     H154441   0.476   8.897   8.153 -0.3936 -0.4812 -0.2557
13159WAT     H254442   0.543   8.779   8.086  4.7520  0.6890  2.2796
13159WAT    EPW54443   0.494   8.812   8.150  0.4993 -0.3123 -0.0663
13160WAT      O54444   3.398   8.476   6.655  0.5368 -0.0882  0.6322
13160WAT     H154445   3.370   8.568   6.654 -1.6638 -0.6946  1.2353
13160WAT     H254446   3.466   8.472   6.721  0.7371  1.1247  0.5209
13160WAT    EPW54447   3.403   8.488   6.663  0.2731 -0.0086  0.6971
13161WAT      O54448   1.100   2.351   2.729 -0.2928  0.2197  0.0573
13161WAT     H154449   1.052   2.367   2.648 -0.8003  1.1915  0.5290
13161WAT     H254450   1.051   2.281   2.773  2.1602 -3.2148 -2.2015
13161WAT    EPW54451   1.087   2.344   2.724 -0.0362 -0.1050 -0.1785
13162WAT      O54452   3.638   9.842   6.945 -0.3939 -0.2397 -0.1236
13162WAT     H154453   3.581   9.838   7.022 -1.5811 -1.4653 -1.0275
13162WAT     H254454   3.707   9.904   6.970 -0.8505 -0.4596  1.8419
13162WAT    EPW54455   3.639   9.850   6.958 -0.6109 -0.4306  0.0167
13163WAT      O54456  10.329   4.498   3.867 -0.2425 -0.2491  0.8296
13163WAT     H154457  10.341   4.583   3.909  1.4457  0.3653 -0.7812
13163WAT     H254458  10.272   4.516   3.792  0.0416 -0.5670  0.5375
13163WAT    EPW54459  10.323   4.512   3.863  0.0176 -0.2100  0.5786
13164WAT      O54460   8.855   7.214   0.908  0.3560  0.1679  0.4071
13164WAT     H154461   8.901   7.241   0.987 -0.9724  1.1430  0.8813
13164WAT     H254462   8.808   7.134   0.933  1.2128 -0.4384  0.1195
13164WAT    EPW54463   8.855   7.207   0.921  0.2942  0.2165  0.4317
13165WAT      O54464   0.633   8.812   8.394 -0.0592  0.3193 -0.0847
13165WAT     H154465   0.687   8.889   8.375 -0.2944 -0.2045 -3.3579
13165WAT     H254466   0.555   8.823   8.339  0.5941 -2.9255 -1.9017
13165WAT    EPW54467   0.630   8.824   8.385 -0.0040 -0.1779 -0.7558
13166WAT      O54468   9.755   3.209   0.917 -0.2490  0.2146  1.2691
13166WAT     H154469   9.817   3.283   0.916 -0.2620  0.2469  1.9984
13166WAT     H254470   9.808   3.134   0.945 -0.3756  0.0817  1.1534
13166WAT    EPW54471   9.770   3.209   0.921 -0.2675  0.2015  1.3500
13167WAT      O54472  10.533   2.517   3.327  0.1647 -0.2364 -0.2674
13167WAT     H154473  10.560   2.507   3.236  0.9210 -0.5868 -0.0175
13167WAT     H254474  10.580   2.448   3.374 -2.1913 -1.7635  0.0228
13167WAT    EPW54475  10.543   2.507   3.321 -0.0463 -0.4841 -0.1960
13168WAT      O54476   1.305   3.621   1.427 -0.4949 -0.3351  0.0366
13168WAT     H154477   1.307   3.593   1.335 -2.3558  0.1019 -0.1834
13168WAT     H254478   1.277   3.543   1.475  1.7774 -0.9663  0.4766
13168WAT    EPW54479   1.302   3.607   1.421 -0.4407 -0.3607  0.0656
13169WAT      O54480   1.023   3.181   0.951 -0.1415  0.0558 -0.1082
13169WAT     H154481   1.026   3.135   0.868 -0.5631  1.7168 -1.0947
13169WAT     H254482   1.004   3.113   1.016 -1.2289 -1.0665 -1.5430
13169WAT    EPW54483   1.021   3.166   0.949 -0.3406  0.1270 -0.4275
13170WAT      O54484   0.147   5.014   1.416 -0.4760 -0.8462 -0.8573
13170WAT     H154485   0.086   5.087   1.421  0.4838 -0.0814  0.1019
13170WAT     H254486   0.233   5.054   1.400  0.4669 -1.4813  1.9620
13170WAT    EPW54487   0.151   5.029   1.415 -0.2251 -0.8292 -0.3589
13171WAT      O54488   8.749   6.918   0.375 -0.0216  0.7618  0.4714
13171WAT     H154489   8.665   6.877   0.396 -2.2328  4.6411  0.1120
13171WAT     H254490   8.801   6.908   0.455 -0.9000 -1.4634  0.8272
13171WAT    EPW54491   8.745   6.911   0.389 -0.4287  0.9799  0.4709
13172WAT      O54492   8.343   2.660   2.457  0.1691 -0.5799  0.1481
13172WAT     H154493   8.395   2.625   2.384 -1.5915 -2.0421 -0.4887
13172WAT     H254494   8.286   2.587   2.483  0.9889 -0.2393  3.3005
13172WAT    EPW54495   8.342   2.646   2.451  0.0448 -0.7278  0.4799
13173WAT      O54496   0.801   4.587   0.357  1.0923  0.8586  0.1454
13173WAT     H154497   0.856   4.665   0.349  3.0200 -0.4955 -0.5570
13173WAT     H254498   0.792   4.574   0.451 -0.1828  2.4983  0.2963
13173WAT    EPW54499   0.807   4.596   0.368  1.1784  0.8962  0.0727
13174WAT      O54500   9.120   4.030   0.940 -0.0608 -0.2137  0.1121
13174WAT     H154501   9.180   4.104   0.951 -1.4527  0.6425  2.5202
13174WAT     H254502   9.155   3.983   0.863  1.8017  1.9905 -0.5107
13174WAT    EPW54503   9.133   4.033   0.931  0.0010  0.1898  0.3476
13175WAT      O54504   2.336   6.785   3.741  0.3382 -0.0974 -0.4210
13175WAT     H154505   2.330   6.858   3.679  4.1732 -0.1842 -1.1297
13175WAT     H254506   2.248   6.777   3.777 -0.7136  3.6319 -1.7028
13175WAT    EPW54507   2.324   6.793   3.738  0.7051  0.3831 -0.6834
13176WAT      O54508   9.898   3.817   0.920 -0.0061 -0.3470 -1.1367
13176WAT     H154509   9.965   3.832   0.853  2.5952  1.3137  1.6031
13176WAT     H254510   9.832   3.884   0.903  1.2988  0.9510 -1.2791
13176WAT    EPW54511   9.898   3.828   0.909  0.5088  0.0432 -0.7941
13177WAT      O54512   0.072   5.322   3.187  0.1915 -0.4112  0.1706
13177WAT     H154513   0.149   5.314   3.243 -0.6882  0.5829  1.5953
13177WAT     H254514   0.052   5.416   3.187 -1.2309 -0.6868  0.1604
13177WAT    EPW54515   0.079   5.334   3.194 -0.1122 -0.3161  0.3572
13178WAT      O54516   6.771   1.055   7.226  0.1398  0.3623 -0.6618
13178WAT     H154517   6.699   1.042   7.288  1.4269  0.4109  0.9166
13178WAT     H254518   6.776   1.150   7.215 -0.2002  0.3453 -1.0117
13178WAT    EPW54519   6.762   1.066   7.233  0.2649  0.3665 -0.4995
13179WAT      O54520   2.474   9.894   7.723 -0.2167 -0.7182 -0.0432
13179WAT     H154521   2.558   9.873   7.764  0.0353 -1.2319 -0.7860
13179WAT     H254522   2.439   9.809   7.696 -0.2573 -0.3881 -1.0837
13179WAT    EPW54523   2.481   9.880   7.725 -0.1887 -0.7424 -0.2785
13180WAT      O54524   2.964   8.704   8.051 -0.3964 -0.5582  0.5618
13180WAT     H154525   2.876   8.666   8.043 -0.1467 -0.7260 -2.5691
13180WAT     H254526   3.018   8.631   8.084 -1.5078 -0.1671  3.5216
13180WAT    EPW54527   2.960   8.689   8.054 -0.5100 -0.5288  0.5388
13181WAT      O54528   9.867   4.100   0.204 -0.1232 -0.3078  0.1475
13181WAT     H154529   9.905   4.014   0.190  0.5095 -0.3425  1.8983
13181WAT     H254530   9.866   4.140   0.116 -1.5070 -2.4737 -0.9001
13181WAT    EPW54531   9.872   4.094   0.190 -0.2222 -0.5980  0.2402
13182WAT      O54532   4.516   8.060   7.428 -0.0427  0.0811  0.0287
13182WAT     H154533   4.560   7.988   7.471 -0.2919 -0.7816 -1.1084
13182WAT     H254534   4.549   8.057   7.338 -0.8079  0.7671 -0.2848
13182WAT    EPW54535   4.527   8.050   7.422 -0.1764  0.0582 -0.1628
13183WAT      O54536   1.641   5.006   2.186  0.5407  1.0628 -0.8118
13183WAT     H154537   1.556   5.014   2.144  1.5010  0.0439 -3.1486
13183WAT     H254538   1.702   4.992   2.113  1.8415 -5.4664  0.9227
13183WAT    EPW54539   1.638   5.005   2.171  0.8390  0.0672 -0.8912
13184WAT      O54540   7.123  10.002   8.575  0.1587  0.3487  0.4958
13184WAT     H154541   7.192  10.068   8.587  0.4501 -0.1503  1.7973
13184WAT     H254542   7.051  10.049   8.533  0.5739  1.3528  0.8836
13184WAT    EPW54543   7.123  10.017   8.571  0.2515  0.4153  0.7186
13185WAT      O54544   3.114   9.733   7.964  0.3914  0.6506 -0.3109
13185WAT     H154545   3.110   9.827   7.976 -0.6814  0.5926 -0.1149
13185WAT     H254546   3.123   9.722   7.869  0.2218  0.9439 -0.3630
13185WAT    EPW54547   3.115   9.744   7.953  0.2277  0.6814 -0.2918
13186WAT      O54548   1.684   4.354   0.411  0.4497 -0.3987 -0.1415
13186WAT     H154549   1.752   4.420   0.418  0.1516 -0.0430 -0.5886
13186WAT     H254550   1.725   4.274   0.445  0.8502 -0.0226  0.2737
13186WAT    EPW54551   1.698   4.352   0.417  0.4632 -0.3021 -0.1457
13187WAT      O54552   7.421   1.599   6.772  0.8183  0.2967 -0.4016
13187WAT     H154553   7.505   1.634   6.744  0.2026  2.4236  0.2223
13187WAT     H254554   7.371   1.588   6.691  2.6172 -4.0645 -1.2100
13187WAT    EPW54555   7.426   1.602   6.757  0.9747  0.0020 -0.4258
13188WAT      O54556  10.455   6.327   4.098 -0.5163  0.0032  0.5814
13188WAT     H154557  10.378   6.298   4.147 -1.6083 -1.4389 -1.8216
13188WAT     H254558  10.524   6.265   4.125 -1.3636 -1.4049 -0.3572
13188WAT    EPW54559  10.454   6.315   4.108 -0.7720 -0.3729  0.1407
13189WAT      O54560   3.112   8.729   8.976 -0.3855 -0.0881  0.2519
13189WAT     H154561   3.080   8.701   9.061 -1.4186  3.0209  1.0446
13189WAT     H254562   3.204   8.751   8.990 -0.8169  1.4303  0.9177
13189WAT    EPW54563   3.120   8.729   8.989 -0.5786  0.5221  0.4439
13190WAT      O54564   2.967   9.095   7.499  0.1865  0.0685 -0.5321
13190WAT     H154565   2.901   9.100   7.568 -1.8880 -2.4904 -2.1355
13190WAT     H254566   3.044   9.059   7.543 -0.8866 -0.9502  0.5921
13190WAT    EPW54567   2.968   9.091   7.514 -0.2289 -0.4029 -0.5953
13191WAT      O54568   7.394   0.641   8.251 -0.2975 -0.0958  0.2051
13191WAT     H154569   7.390   0.692   8.332  0.1487  1.5380 -0.7543
13191WAT     H254570   7.469   0.677   8.204 -1.1104 -0.3675 -1.3653
13191WAT    EPW54571   7.404   0.652   8.255 -0.3457  0.0839 -0.1292
13192WAT      O54572   3.695   9.055   7.820  0.2162  0.0503 -0.1248
13192WAT     H154573   3.647   9.136   7.834 -0.3295 -0.3192  0.1635
13192WAT     H254574   3.653   9.015   7.744 -0.4919 -0.6776  0.6276
13192WAT    EPW54575   3.683   9.060   7.812  0.0508 -0.0939  0.0126
13193WAT      O54576   8.264   2.915   8.203  0.5188 -0.2393 -0.8298
13193WAT     H154577   8.347   2.933   8.246  0.7244 -0.5263 -1.1082
13193WAT     H254578   8.246   2.823   8.223  0.4668 -0.2892 -1.1107
13193WAT    EPW54579   8.272   2.906   8.212  0.5393 -0.2838 -0.9041
13194WAT      O54580   7.007   1.165   7.546 -0.5087 -0.0033  0.0259
13194WAT     H154581   7.060   1.238   7.579 -1.3970  0.6289  0.0829
13194WAT     H254582   7.017   1.097   7.612 -2.2267  1.2231  1.6402
13194WAT    EPW54583   7.015   1.166   7.559 -0.8523  0.2418  0.2468
13195WAT      O54584   3.127   7.046   2.559 -0.4604 -0.1919  0.5950
13195WAT     H154585   3.115   7.041   2.653  1.8837 -0.3406  0.9445
13195WAT     H254586   3.114   7.138   2.537 -1.1804 -0.1886  1.0092
13195WAT    EPW54587   3.124   7.057   2.568 -0.2464 -0.2110  0.6958
13196WAT      O54588   3.031   6.536   1.485  0.2182 -0.0428 -0.6703
13196WAT     H154589   2.956   6.504   1.535  1.6181  2.0842  3.3054
13196WAT     H254590   3.003   6.621   1.452  1.5090  2.4758  3.7907
13196WAT    EPW54591   3.017   6.543   1.488  0.5730  0.5696  0.4424
13197WAT      O54592   0.764   4.056   0.579 -0.2436 -0.0092 -0.0429
13197WAT     H154593   0.698   4.017   0.521  0.7819 -0.3397 -1.0251
13197WAT     H254594   0.820   3.982   0.603 -0.7862  0.0669  1.6126
13197WAT    EPW54595   0.763   4.041   0.575 -0.1799 -0.0427  0.0459
13198WAT      O54596   8.495   0.925   8.622 -0.2463  1.2071 -0.1992
13198WAT     H154597   8.538   0.888   8.699  1.8204  1.6620 -1.0633
13198WAT     H254598   8.484   0.851   8.563 -0.8523  1.0619  0.0814
13198WAT    EPW54599   8.499   0.911   8.625 -0.0539  1.2479 -0.2761
13199WAT      O54600   1.222   5.359   4.745  0.3839 -0.0983  0.5050
13199WAT     H154601   1.136   5.385   4.711  1.7139  1.7303 -1.8046
13199WAT     H254602   1.253   5.293   4.684  0.8225 -0.4283  1.0708
13199WAT    EPW54603   1.215   5.354   4.733  0.6173  0.0992  0.2751
13200WAT      O54604   2.339   5.365   1.478  0.6048 -0.3205 -0.8245
13200WAT     H154605   2.323   5.413   1.560 -1.3425 -3.0324  0.5356
13200WAT     H254606   2.434   5.358   1.473  0.7891  0.1484  1.0679
13200WAT    EPW54607   2.350   5.370   1.488  0.3724 -0.6163 -0.3955
13201WAT      O54608   9.100   5.723   1.611  0.4686 -0.2416  0.2594
13201WAT     H154609   9.111   5.707   1.517  3.4501 -2.4414  0.8133
13201WAT     H254610   9.159   5.795   1.631  2.3359 -1.8349  0.8328
13201WAT    EPW54611   9.109   5.730   1.602  1.1082 -0.7420  0.4081
13202WAT      O54612   0.351   6.101   0.287  0.0991 -0.0638 -0.2462
13202WAT     H154613   0.443   6.084   0.268  0.1731  0.2280 -0.1532
13202WAT     H254614   0.304   6.032   0.240  0.4145 -0.7608  0.4381
13202WAT    EPW54615   0.357   6.090   0.278  0.1504 -0.1173 -0.1437
13203WAT      O54616   5.534   7.651   8.178 -0.2673 -0.1142 -0.7289
13203WAT     H154617   5.566   7.712   8.110  2.7968 -0.7755 -0.0346
13203WAT     H254618   5.467   7.700   8.224  0.4626  1.9007 -1.6748
13203WAT    EPW54619   5.530   7.666   8.175  0.2329  0.0644 -0.7625
13204WAT      O54620   3.458  10.208   7.872 -0.2846  0.4275 -0.1783
13204WAT     H154621   3.419  10.295   7.884 -2.6554 -0.7583  1.4908
13204WAT     H254622   3.537  10.210   7.925 -0.8324  1.2584  0.6339
13204WAT    EPW54623   3.463  10.220   7.880 -0.6696  0.3810  0.1488
13205WAT      O54624   9.682   5.308   6.105  0.2826  0.1257 -0.4314
13205WAT     H154625   9.669   5.387   6.158  2.4414  0.0271  0.3612
13205WAT     H254626   9.698   5.239   6.170 -0.6466 -0.7909 -1.1481
13205WAT    EPW54627   9.682   5.309   6.121  0.4449 -0.0081 -0.4215
13206WAT      O54628   4.031   7.637   0.801  0.0742  0.0314 -0.4094
13206WAT     H154629   4.055   7.729   0.808 -1.1886  0.4996 -1.7274
13206WAT     H254630   4.020   7.609   0.892 -1.1855  1.6649  0.0007
13206WAT    EPW54631   4.033   7.645   0.814 -0.2587  0.3090 -0.5292
13207WAT      O54632   4.431   8.725   7.096  0.7861 -0.2027 -0.4996
13207WAT     H154633   4.422   8.674   7.177 -2.4375 -0.0589 -0.6727
13207WAT     H254634   4.342   8.733   7.062  1.7877  1.5407 -2.9923
13207WAT    EPW54635   4.418   8.719   7.103  0.4928  0.0463 -0.8514
13208WAT      O54636   2.046   2.889   3.714 -0.3840  0.1393 -0.1419
13208WAT     H154637   1.976   2.924   3.769 -0.2679  0.9882 -0.5101
13208WAT     H254638   2.087   2.821   3.767 -0.2904  0.9203  0.8249
13208WAT    EPW54639   2.042   2.885   3.728 -0.3563  0.3544 -0.0628
13209WAT      O54640   5.437   8.313   7.372 -0.4159  0.3795  0.3557
13209WAT     H154641   5.399   8.286   7.456  0.1205  1.3380  0.9201
13209WAT     H254642   5.531   8.313   7.387 -0.1214 -1.7508 -0.9669
13209WAT    EPW54643   5.444   8.309   7.385 -0.3061  0.2251  0.2561
13210WAT      O54644   6.175   8.837   7.486  0.7352 -0.3380  0.4377
13210WAT     H154645   6.266   8.839   7.457  1.0034  1.7836  1.2415
13210WAT     H254646   6.125   8.814   7.408  1.9036 -0.9310 -0.1559
13210WAT    EPW54647   6.181   8.835   7.472  0.9248 -0.1369  0.4652
13211WAT      O54648   0.279   1.352   0.600  0.2302 -0.4453  0.0337
13211WAT     H154649   0.262   1.402   0.520  2.5491  1.1159  0.4353
13211WAT     H254650   0.205   1.372   0.657  0.1894  1.0837 -0.5232
13211WAT    EPW54651   0.267   1.361   0.597  0.5306 -0.0377  0.0132
13212WAT      O54652   5.714   1.392   6.288  0.1795  0.2872 -0.4607
13212WAT     H154653   5.701   1.321   6.226 -1.5378  0.8883 -0.8517
13212WAT     H254654   5.795   1.435   6.260  0.8293 -1.0227 -0.6666
13212WAT    EPW54655   5.723   1.388   6.276  0.0386  0.1937 -0.5393
13213WAT      O54656   3.859   9.206   7.066 -0.5847  0.1129 -0.0636
13213WAT     H154657   3.910   9.213   7.146  0.4320 -0.4869 -0.6366
13213WAT     H254658   3.772   9.238   7.090  0.0765  1.2486  0.9124
13213WAT    EPW54659   3.854   9.211   7.080 -0.3635  0.1841 -0.0103
13214WAT      O54660   5.505  10.087   7.949  0.2502  0.3545  0.6409
13214WAT     H154661   5.574  10.022   7.962 -0.4815 -0.0800  2.9781
13214WAT     H254662   5.489  10.122   8.037 -2.4581  0.4645  0.1945
13214WAT    EPW54663   5.512  10.083   7.963 -0.2036  0.3119  0.8903
13215WAT      O54664   4.986   1.087   5.925 -0.5624 -1.0076  0.0921
13215WAT     H154665   4.905   1.135   5.906 -0.0264 -0.1787 -0.1549
13215WAT     H254666   5.019   1.060   5.840  0.4873  0.4651 -0.0071
13215WAT    EPW54667   4.980   1.090   5.912 -0.3533 -0.7041  0.0467
13216WAT      O54668   2.365   9.130   7.196 -0.1994 -0.2319  1.1298
13216WAT     H154669   2.412   9.124   7.113  0.8709  1.5347  1.5650
13216WAT     H254670   2.316   9.047   7.201  0.9290 -1.0638 -0.4963
13216WAT    EPW54671   2.365   9.118   7.186  0.0906 -0.1087  0.9727
13217WAT      O54672   8.997   1.547   7.462  0.4063  0.3797  0.4067
13217WAT     H154673   9.085   1.579   7.481  0.5674  0.0592  0.2052
13217WAT     H254674   8.963   1.608   7.396  1.7855 -1.4446 -2.1955
13217WAT    EPW54675   9.004   1.560   7.456  0.6099  0.0968  0.0370
13218WAT      O54676  10.562   6.446   0.884  0.2302  0.0453  0.0779
13218WAT     H154677  10.632   6.416   0.825 -1.2744  1.7218 -2.8305
13218WAT     H254678  10.591   6.532   0.913  0.1729 -0.0440  0.4049
13218WAT    EPW54679  10.575   6.453   0.880  0.0243  0.2546 -0.2626
13219WAT      O54680   3.706   7.840   8.461 -0.3049  0.5606  0.2164
13219WAT     H154681   3.716   7.764   8.518  1.4684  0.1914 -0.5060
13219WAT     H254682   3.649   7.899   8.510 -0.2590 -0.4643  1.5851
13219WAT    EPW54683   3.700   7.837   8.475 -0.0648  0.3769  0.3014
13220WAT      O54684   5.370   0.101   7.640 -0.1747 -0.3585 -0.0303
13220WAT     H154685   5.356   0.007   7.631 -0.5125 -0.1791 -1.8162
13220WAT     H254686   5.442   0.109   7.703  0.0221 -1.8134 -0.0410
13220WAT    EPW54687   5.377   0.089   7.647 -0.1931 -0.5267 -0.2670
13221WAT      O54688   4.440   6.955   3.301 -0.0491  0.0042  0.2178
13221WAT     H154689   4.488   7.002   3.233  2.5350 -2.1959  0.3320
13221WAT     H254690   4.356   7.000   3.308  0.9488  2.4072 -1.9717
13221WAT    EPW54691   4.435   6.967   3.293  0.4234  0.0308 -0.0559
13222WAT      O54692   7.632   5.705   0.816  0.0951 -0.3689 -0.0746
13222WAT     H154693   7.688   5.629   0.830  0.1172 -0.3983 -0.3089
13222WAT     H254694   7.665   5.771   0.877  2.1747  0.5670 -2.0793
13222WAT    EPW54695   7.644   5.703   0.826  0.3724 -0.2494 -0.3699
13223WAT      O54696  10.391   5.208   1.970  1.3627  0.0245 -0.2860
13223WAT     H154697  10.484   5.205   1.992  1.5647 -2.5924 -1.1888
13223WAT     H254698  10.388   5.198   1.875  0.1522 -0.5536 -0.2128
13223WAT    EPW54699  10.403   5.206   1.961  1.2293 -0.3967 -0.3954
13224WAT      O54700   8.510   0.987   7.116 -0.0035 -0.3186 -0.9656
13224WAT     H154701   8.426   1.019   7.085  0.3370  1.0254 -0.5517
13224WAT     H254702   8.575   1.047   7.079  0.7110 -0.8814 -0.6595
13224WAT    EPW54703   8.507   0.999   7.107  0.1354 -0.2156 -0.8709
13225WAT      O54704   8.125   1.572   8.408  0.8709 -0.8223  0.1636
13225WAT     H154705   8.116   1.645   8.346  1.0769 -0.3014  0.7476
13225WAT     H254706   8.183   1.604   8.476 -0.5151 -0.8743  1.4087
13225WAT    EPW54707   8.131   1.585   8.409  0.7153 -0.7604  0.4044
13226WAT      O54708   8.081   1.941   7.714 -0.5416  0.5806  0.0552
13226WAT     H154709   8.094   1.976   7.802  2.0658  0.7755 -0.3403
13226WAT     H254710   8.035   2.010   7.667 -2.8158  0.1224  1.4245
13226WAT    EPW54711   8.077   1.955   7.720 -0.4978  0.5459  0.1836
13227WAT      O54712   5.252   8.789   8.964 -0.0402 -0.8326  0.0871
13227WAT     H154713   5.320   8.750   9.020 -1.0795 -0.0888  1.9582
13227WAT     H254714   5.225   8.718   8.906 -0.0372 -2.1332  1.6129
13227WAT    EPW54715   5.258   8.775   8.964 -0.1769 -0.9065  0.5350
13228WAT      O54716   2.797   7.525   0.237 -0.5961  0.0454 -0.1706
13228WAT     H154717   2.796   7.613   0.275 -2.2160  0.5338 -1.2591
13228WAT     H254718   2.715   7.485   0.266  0.2669 -1.2590  0.5778
13228WAT    EPW54719   2.786   7.531   0.246 -0.6959 -0.0622 -0.2154
13229WAT      O54720   6.277   1.725   5.558 -0.3004  0.1700  0.3326
13229WAT     H154721   6.192   1.766   5.545  0.9992  2.5006 -1.5953
13229WAT     H254722   6.330   1.756   5.485  2.8465  0.5799  2.6026
13229WAT    EPW54723   6.273   1.734   5.547  0.2859  0.5314  0.3774
13230WAT      O54724   7.548   0.728   6.030 -0.1604  0.0600  0.0471
13230WAT     H154725   7.464   0.687   6.010  0.2995 -0.9802  0.1636
13230WAT     H254726   7.526   0.815   6.063 -1.1527  0.0309 -0.5222
13230WAT    EPW54727   7.534   0.734   6.032 -0.2308 -0.0811 -0.0126
13231WAT      O54728   1.589   2.844   1.785 -0.4274 -0.2089 -0.8266
13231WAT     H154729   1.654   2.906   1.751 -1.1575 -1.1471 -4.3688
13231WAT     H254730   1.636   2.793   1.850  0.8070  2.5497  0.5723
13231WAT    EPW54731   1.604   2.845   1.789 -0.3610  0.0311 -1.1093
13232WAT      O54732   8.995   6.093   0.449  0.4550 -0.0627  0.7215
13232WAT     H154733   9.007   6.077   0.356  1.0447  0.1979  0.7469
13232WAT     H254734   8.904   6.123   0.457  0.9419  1.7256 -0.0314
13232WAT    EPW54735   8.984   6.095   0.438  0.5970  0.2074  0.6256
13233WAT      O54736   4.209  10.063   6.372  0.4120 -1.0825 -0.1138
13233WAT     H154737   4.142  10.046   6.438  0.8438 -1.6414  0.1796
13233WAT     H254738   4.268  10.126   6.413 -1.5062  1.7981 -1.3992
13233WAT    EPW54739   4.208  10.069   6.386  0.2160 -0.7763 -0.2444
13234WAT      O54740   0.574   6.704   0.640  0.5165 -0.5035 -0.0424
13234WAT     H154741   0.479   6.695   0.647  0.4993 -1.1824 -0.9370
13234WAT     H254742   0.595   6.781   0.693 -0.8924  1.5978 -2.3488
13234WAT    EPW54743   0.565   6.713   0.648  0.3283 -0.3159 -0.4646
13235WAT      O54744   1.706   7.489   1.296 -0.4355 -0.2825  0.0852
13235WAT     H154745   1.622   7.534   1.301  0.1862  1.3801 -2.2535
13235WAT     H254746   1.687   7.409   1.247 -0.5825  0.4232 -1.0467
13235WAT    EPW54747   1.693   7.485   1.290 -0.3729  0.0300 -0.3726
13236WAT      O54748   3.497   9.650   6.533 -0.0812 -0.0018 -1.4393
13236WAT     H154749   3.475   9.556   6.536 -0.6312  0.1529 -0.3105
13236WAT     H254750   3.413   9.695   6.543  0.4310  0.5972  0.6006
13236WAT    EPW54751   3.483   9.643   6.535 -0.0861  0.0973 -1.0216
13237WAT      O54752   4.219   2.717   6.809 -0.5480 -0.1830 -0.9060
13237WAT     H154753   4.195   2.805   6.839 -0.0124 -0.9575  2.0646
13237WAT     H254754   4.162   2.701   6.734 -3.1088  1.3883  0.5623
13237WAT    EPW54755   4.208   2.727   6.803 -0.8152 -0.0778 -0.3204
13238WAT      O54756   9.584   1.613   7.046  0.5105  0.2215  0.3475
13238WAT     H154757   9.530   1.685   7.014  1.0535  0.4312 -0.1305
13238WAT     H254758   9.588   1.625   7.140 -0.0628  0.3489  0.3595
13238WAT    EPW54759   9.578   1.624   7.054  0.5069  0.2659  0.2861
13239WAT      O54760   6.951   1.456   4.625  0.7949 -0.0404  0.0863
13239WAT     H154761   6.991   1.484   4.543 -0.4479 -0.9559 -0.8767
13239WAT     H254762   6.861   1.489   4.620  0.1411 -1.7148  0.1893
13239WAT    EPW54763   6.944   1.464   4.614  0.5448 -0.3819 -0.0274
13240WAT      O54764   0.384   4.386   0.608  0.1708 -0.0351  0.0140
13240WAT     H154765   0.298   4.422   0.630 -0.4404 -1.2452 -0.3427
13240WAT     H254766   0.371   4.346   0.522  0.4582 -2.2797  0.9564
13240WAT    EPW54767   0.371   4.386   0.599  0.1281 -0.4909  0.0912
13241WAT      O54768   0.957   2.404   4.567  0.2241 -0.0751 -0.0300
13241WAT     H154769   1.024   2.374   4.505  0.5153  0.8642 -0.1877
13241WAT     H254770   0.875   2.397   4.518  0.1143 -1.7044  0.3281
13241WAT    EPW54771   0.955   2.399   4.552  0.2480 -0.1662 -0.0036
13242WAT      O54772   5.230   9.816   7.358 -0.0367 -0.0291 -0.5217
13242WAT     H154773   5.204   9.736   7.402  0.8778  0.1329  0.3537
13242WAT     H254774   5.236   9.882   7.428 -4.2363  1.8302 -1.5906
13242WAT    EPW54775   5.228   9.814   7.373 -0.4699  0.2379 -0.5472
13243WAT      O54776   3.762   1.494   7.264  0.3104 -0.0623  0.0951
13243WAT     H154777   3.723   1.428   7.321 -2.5929  0.2778 -1.3527
13243WAT     H254778   3.772   1.451   7.179 -3.0420  1.5959 -1.3063
13243WAT    EPW54779   3.758   1.480   7.260 -0.5147  0.2012 -0.2809
13244WAT      O54780   9.667   0.138   7.692 -0.3278  0.2580  0.3418
13244WAT     H154781   9.576   0.147   7.662  0.0928 -0.2293 -1.2076
13244WAT     H254782   9.682   0.044   7.695 -0.1481  0.3187  1.5084
13244WAT    EPW54783   9.657   0.127   7.688 -0.2489  0.2018  0.2916
13245WAT      O54784   3.088   9.972   7.335  0.3588  0.0783 -0.1660
13245WAT     H154785   3.114   9.947   7.247  2.3166 -0.6120  0.5508
13245WAT     H254786   3.163  10.021   7.369 -0.8305  1.3797  0.7304
13245WAT    EPW54787   3.101   9.975   7.328  0.4601  0.1588  0.0470
13246WAT      O54788   0.853   4.131   1.599  0.1379  0.1194  0.9701
13246WAT     H154789   0.819   4.209   1.555 -0.7624 -0.4871  0.5669
13246WAT     H254790   0.948   4.134   1.583 -0.2951 -1.0340 -2.6320
13246WAT    EPW54791   0.861   4.142   1.591 -0.0379 -0.1125  0.4418
13247WAT      O54792   5.164   6.714   1.507 -0.1282 -0.6591 -0.4841
13247WAT     H154793   5.186   6.703   1.599 -3.2251  1.9611  0.7617
13247WAT     H254794   5.092   6.652   1.492 -0.3921 -0.2881 -0.7865
13247WAT    EPW54795   5.157   6.704   1.517 -0.5715 -0.2646 -0.3597
13248WAT      O54796  10.119   4.310   8.563 -0.0321  0.1073 -0.1305
13248WAT     H154797  10.055   4.377   8.585  0.6062  0.4963  0.5935
13248WAT     H254798  10.067   4.232   8.544 -0.7163  0.4318  0.3769
13248WAT    EPW54799  10.104   4.308   8.563 -0.0381  0.2012  0.0324
13249WAT      O54800   2.523   3.828   8.488 -0.0866  0.3872 -0.6499
13249WAT     H154801   2.588   3.854   8.423  2.0910 -0.8792  0.8816
13249WAT     H254802   2.479   3.752   8.448  0.6240  0.1548 -1.0105
13249WAT    EPW54803   2.526   3.821   8.474  0.2943  0.1897 -0.4954
13250WAT      O54804   5.537   6.604   1.141 -0.3109 -0.1992 -0.0062
13250WAT     H154805   5.620   6.605   1.189  0.6926 -1.7645 -1.6318
13250WAT     H254806   5.511   6.696   1.138  2.2326  0.5771 -0.8716
13250WAT    EPW54807   5.544   6.616   1.147  0.1566 -0.3033 -0.3348
13251WAT      O54808   0.131   2.398   7.897 -0.7052 -0.3835  0.4756
13251WAT     H154809   0.095   2.478   7.858  0.4405 -0.5081 -0.9339
13251WAT     H254810   0.225   2.409   7.889 -0.4450 -0.8837  2.3927
13251WAT    EPW54811   0.138   2.410   7.891 -0.5198 -0.4659  0.5422
13252WAT      O54812   5.931   6.943   0.253  0.0152  0.6948  0.0052
13252WAT     H154813   5.967   7.008   0.313  1.1447  3.7734 -3.6083
13252WAT     H254814   5.838   6.936   0.278 -0.5051  4.8041 -0.1119
13252WAT    EPW54815   5.923   6.950   0.264  0.0956  1.6429 -0.4869
13253WAT      O54816   6.294   8.174   4.443 -0.1120  0.0357  0.1611
13253WAT     H154817   6.241   8.108   4.398  1.2895  0.0829 -1.6628
13253WAT     H254818   6.372   8.127   4.472  1.7142  1.0733 -2.6281
13253WAT    EPW54819   6.297   8.159   4.441  0.3138  0.1788 -0.4475
13254WAT      O54820   8.106   6.057   1.490 -0.3022  0.2835  0.2789
13254WAT     H154821   8.024   6.010   1.507 -0.5872  0.1413 -1.3206
13254WAT     H254822   8.175   5.993   1.511 -0.6737 -0.6236 -1.1129
13254WAT    EPW54823   8.104   6.042   1.495 -0.3886  0.1450 -0.1156
13255WAT      O54824   1.136   4.552   7.709  0.5795 -0.3558  0.1308
13255WAT     H154825   1.152   4.583   7.798  1.7249 -1.2001  0.2399
13255WAT     H254826   1.097   4.465   7.720 -1.0330  0.2929 -0.1880
13255WAT    EPW54827   1.133   4.545   7.722  0.5179 -0.3815  0.1030
13256WAT      O54828   3.574   6.731   0.804 -0.7927 -0.2748 -0.6673
13256WAT     H154829   3.668   6.724   0.791 -0.8134 -0.0132 -0.9533
13256WAT     H254830   3.555   6.666   0.871 -0.2899  0.2253 -0.0232
13256WAT    EPW54831   3.584   6.721   0.811 -0.7292 -0.1743 -0.6200
13257WAT      O54832   0.556   2.154   7.488 -0.8748 -0.7515  0.2353
13257WAT     H154833   0.626   2.093   7.512 -1.5646 -1.4776  0.4048
13257WAT     H254834   0.498   2.154   7.564 -0.6056  0.5409  0.4701
13257WAT    EPW54835   0.558   2.146   7.501 -0.9303 -0.6769  0.2887
13258WAT      O54836   7.467   8.988   8.342  0.6875 -0.4127 -0.2339
13258WAT     H154837   7.419   9.044   8.403  0.9398 -0.9115  0.4346
13258WAT     H254838   7.524   8.935   8.397  0.7617 -1.0337 -0.8810
13258WAT    EPW54839   7.468   8.988   8.357  0.7303 -0.5603 -0.2313
13259WAT      O54840   9.554   4.942   7.458  0.1139  0.3135 -0.1925
13259WAT     H154841   9.557   4.953   7.363 -0.9371  0.3876 -0.2305
13259WAT     H254842   9.511   5.021   7.489  0.6856  0.4070  0.3788
13259WAT    EPW54843   9.549   4.954   7.449  0.0510  0.3357 -0.1221
13260WAT      O54844   2.862   8.309   1.426 -0.1497  0.3018 -0.4732
13260WAT     H154845   2.873   8.342   1.515  0.1234  0.6354 -0.6292
13260WAT     H254846   2.769   8.323   1.407 -0.4278 -0.6669  0.1104
13260WAT    EPW54847   2.851   8.315   1.435 -0.1503  0.2174 -0.4168
13261WAT      O54848   2.484   0.278   8.567  1.1813 -1.4754 -0.3158
13261WAT     H154849   2.402   0.298   8.613  0.3239 -3.3744 -0.8991
13261WAT     H254850   2.513   0.362   8.533 -0.5387 -0.7418 -0.1002
13261WAT    EPW54851   2.477   0.292   8.569  0.8414 -1.6291 -0.3638
13262WAT      O54852   9.690   4.136   7.414  0.3763 -0.1991 -0.0005
13262WAT     H154853   9.673   4.221   7.374 -0.2590  0.1600  0.9972
13262WAT     H254854   9.774   4.147   7.459  1.1159 -0.6181 -1.2174
13262WAT    EPW54855   9.699   4.149   7.415  0.3901 -0.2069 -0.0293
13263WAT      O54856   1.286   3.049   7.097 -0.4776  0.2127  0.6806
13263WAT     H154857   1.323   2.964   7.120  0.5255 -0.5976 -3.1740
13263WAT     H254858   1.201   3.051   7.140 -0.6250 -2.8491  0.7553
13263WAT    EPW54859   1.280   3.038   7.106 -0.3647 -0.2980  0.1817
13264WAT      O54860   0.078   4.388   8.168 -0.1919 -0.1441 -0.1574
13264WAT     H154861   0.122   4.467   8.199  1.0918 -0.1069 -1.9330
13264WAT     H254862   0.144   4.319   8.178 -0.9591 -0.8105  0.4190
13264WAT    EPW54863   0.093   4.389   8.174 -0.1238 -0.2272 -0.3157
13265WAT      O54864  10.190   1.664   6.759 -0.0799  0.2663  0.1345
13265WAT     H154865  10.255   1.698   6.697  0.1644 -0.4839 -0.0253
13265WAT     H254866  10.238   1.657   6.841  0.0556 -0.3212  0.0082
13265WAT    EPW54867  10.205   1.668   6.762 -0.0291  0.0899  0.0968
13266WAT      O54868   7.876   7.324   0.021  0.3355 -0.1814 -0.0152
13266WAT     H154869   7.858   7.264   0.094 -1.3299 -0.7531 -0.8387
13266WAT     H254870   7.890   7.266  -0.054  1.6774  0.4097 -0.2534
13266WAT    EPW54871   7.875   7.308   0.021  0.2928 -0.1788 -0.1554
13267WAT      O54872  10.145   9.965   7.641  0.0948 -0.0590 -0.1028
13267WAT     H154873  10.163   9.981   7.549  0.0543  0.7644  0.0224
13267WAT     H254874  10.139   9.870   7.649  1.4924 -0.2187 -0.6898
13267WAT    EPW54875  10.147   9.955   7.630  0.2737  0.0286 -0.1638
13268WAT      O54876   5.910   1.178   0.008 -0.6453  0.7826 -0.4739
13268WAT     H154877   5.836   1.117   0.015 -1.3571  1.7832  1.7909
13268WAT     H254878   5.980   1.126  -0.030 -1.7529 -0.9428 -0.2725
13268WAT    EPW54879   5.909   1.163   0.004 -0.8855  0.6866 -0.1483
13269WAT      O54880   3.264   4.300   7.489  0.0986 -0.4597  0.8401
13269WAT     H154881   3.270   4.380   7.541  1.5993 -0.9615  1.5205
13269WAT     H254882   3.293   4.326   7.401  0.4142 -0.2046  1.0157
13269WAT    EPW54883   3.269   4.314   7.484  0.3382 -0.4921  0.9530
13270WAT      O54884   7.087   8.072   1.425  0.5491  0.3655  0.1905
13270WAT     H154885   7.055   8.047   1.338 -2.1976 -1.0591  1.4832
13270WAT     H254886   7.043   8.012   1.485  0.3541  2.8932  2.7938
13270WAT    EPW54887   7.077   8.061   1.421  0.1612  0.5107  0.7043
13271WAT      O54888   5.779   6.515   1.800  0.4836  0.0106  0.3524
13271WAT     H154889   5.824   6.571   1.737  1.6411 -0.0485  1.1068
13271WAT     H254890   5.771   6.569   1.878 -0.8430  0.0413  0.2310
13271WAT    EPW54891   5.784   6.529   1.802  0.4613  0.0069  0.4359
13272WAT      O54892   9.210   1.532   7.849  0.7202 -0.1790 -0.0904
13272WAT     H154893   9.298   1.502   7.827  1.4816  2.3904 -0.9565
13272WAT     H254894   9.219   1.572   7.936  0.1564 -0.7473  0.2424
13272WAT    EPW54895   9.223   1.534   7.858  0.7463  0.0849 -0.1609
13273WAT      O54896   3.347   0.711   6.933  0.2608  0.1453 -0.2506
13273WAT     H154897   3.405   0.781   6.900  0.3825  0.1909  0.0492
13273WAT     H254898   3.404   0.635   6.941  0.0267 -0.1147 -1.0003
13273WAT    EPW54899   3.362   0.710   6.930  0.2459  0.1170 -0.3099
13274WAT      O54900   3.110   5.100   5.663 -0.8966  0.1132  0.3898
13274WAT     H154901   3.142   5.125   5.576 -0.7759  0.3196  0.4928
13274WAT     H254902   3.163   5.152   5.724 -0.1423 -0.9332  0.6437
13274WAT    EPW54903   3.121   5.110   5.659 -0.7811  0.0024  0.4370
13275WAT      O54904   2.719   2.822   4.906  0.3538  0.7234 -0.8011
13275WAT     H154905   2.739   2.903   4.953  1.7490  0.5755 -1.0962
13275WAT     H254906   2.681   2.851   4.823  0.2652  1.0489 -0.6483
13275WAT    EPW54907   2.716   2.836   4.901  0.5261  0.7468 -0.8199
13276WAT      O54908   3.641   7.780   1.481  0.4194  1.0121 -0.1840
13276WAT     H154909   3.562   7.744   1.440  0.3768  1.2187 -0.2829
13276WAT     H254910   3.714   7.737   1.436  0.3680  1.0212 -0.2754
13276WAT    EPW54911   3.640   7.770   1.470  0.4070  1.0407 -0.2090
13277WAT      O54912   6.257   6.314   0.311 -0.2009  0.5041 -0.9007
13277WAT     H154913   6.241   6.280   0.399 -1.3629  0.0580 -1.2679
13277WAT     H254914   6.350   6.338   0.311 -0.5392  2.1436  0.9975
13277WAT    EPW54915   6.267   6.313   0.322 -0.3989  0.6614 -0.6988
13278WAT      O54916  10.468   4.531   7.629  0.3171 -0.4261  0.6444
13278WAT     H154917  10.382   4.491   7.613  1.0927 -1.7052 -0.4517
13278WAT     H254918  10.487   4.579   7.549  1.1240 -1.0905  0.4262
13278WAT    EPW54919  10.459   4.532   7.617  0.5260 -0.6826  0.4709
13279WAT      O54920   7.722   7.918   1.398  0.5624 -0.2786  0.4405
13279WAT     H154921   7.762   7.979   1.460 -1.4700  0.9016  0.6952
13279WAT     H254922   7.724   7.964   1.314  0.3537 -0.4760  0.3267
13279WAT    EPW54923   7.727   7.932   1.395  0.2670 -0.1490  0.4590
13280WAT      O54924   2.202   5.408   8.677 -0.0792 -0.1928  0.6079
13280WAT     H154925   2.190   5.342   8.609  2.7607 -0.8443  0.6341
13280WAT     H254926   2.266   5.470   8.640  0.0288  0.5372  1.9423
13280WAT    EPW54927   2.209   5.408   8.664  0.3096 -0.1826  0.7873
13281WAT      O54928   0.667   1.706   7.351 -0.1423  0.1661  0.1618
13281WAT     H154929   0.581   1.746   7.367 -1.0361 -2.3354  2.1950
13281WAT     H254930   0.655   1.655   7.271 -1.0534 -1.2730  1.1646
13281WAT    EPW54931   0.654   1.705   7.342 -0.3803 -0.3536  0.5620
13282WAT      O54932   4.860   5.548   2.856 -0.4530  1.0565 -0.5670
13282WAT     H154933   4.931   5.564   2.918 -0.9574 -1.1001  0.6541
13282WAT     H254934   4.781   5.548   2.910 -1.2532  1.9261 -1.6840
13282WAT    EPW54935   4.859   5.550   2.871 -0.6247  0.8867 -0.5531
13283WAT      O54936   3.427   8.623   1.879 -0.4297  0.4072 -0.4456
13283WAT     H154937   3.484   8.550   1.903 -1.5407  0.1649  1.7247
13283WAT     H254938   3.362   8.584   1.820  0.0038  0.0810 -0.7183
13283WAT    EPW54939   3.426   8.608   1.874 -0.5190  0.3319 -0.1953
13284WAT      O54940   1.293   6.600   7.711  0.2602  0.2803 -0.3546
13284WAT     H154941   1.383   6.567   7.718  0.2020  0.3852  1.5709
13284WAT     H254942   1.252   6.572   7.793 -1.5607 -0.0212 -1.3374
13284WAT    EPW54943   1.300   6.592   7.723  0.0124  0.2544 -0.2301
13285WAT      O54944  10.957   1.096   6.831 -0.0185 -0.2642  0.5701
13285WAT     H154945  11.044   1.135   6.827  0.4907 -1.2452  1.5929
13285WAT     H254946  10.909   1.153   6.891  0.3164 -0.4416  1.0132
13285WAT    EPW54947  10.962   1.109   6.839  0.0930 -0.4170  0.7634
13286WAT      O54948   3.449   4.800   0.051 -0.1695  0.5262 -0.2233
13286WAT     H154949   3.520   4.824   0.111 -0.3928 -3.0198  1.7237
13286WAT     H254950   3.374   4.851   0.081  0.6815  1.7669 -0.1129
13286WAT    EPW54951   3.449   4.810   0.063 -0.0868  0.2222  0.0480
13287WAT      O54952   0.274   2.324   8.354  0.4728 -0.3413 -0.0106
13287WAT     H154953   0.356   2.338   8.307  0.8071 -1.0017  0.3596
13287WAT     H254954   0.240   2.412   8.370 -0.0119 -0.1101 -2.0938
13287WAT    EPW54955   0.281   2.337   8.350  0.4530 -0.3978 -0.2365
13288WAT      O54956   2.250   3.934   7.337  0.4534  0.4915  0.4113
13288WAT     H154957   2.261   3.901   7.426  2.2071 -1.5453 -0.4679
13288WAT     H254958   2.176   3.884   7.302  0.2692  0.7213  0.4710
13288WAT    EPW54959   2.242   3.923   7.344  0.6605  0.2531  0.3033
13289WAT      O54960   1.503   0.012   7.193  0.0245 -0.6899  0.1095
13289WAT     H154961   1.519   0.040   7.283 -1.3212  0.1590  0.1109
13289WAT     H254962   1.541   0.082   7.139 -3.1376  1.2098  0.1109
13289WAT    EPW54963   1.510   0.025   7.198 -0.5700 -0.3274  0.1099
13290WAT      O54964   2.215   1.548   6.864 -0.3981  0.1179  0.1022
13290WAT     H154965   2.232   1.581   6.776 -0.8077  1.1297  0.3954
13290WAT     H254966   2.142   1.487   6.853 -1.0224  0.8965 -0.1322
13290WAT    EPW54967   2.208   1.544   6.851 -0.5345  0.3540  0.1101
13291WAT      O54968   4.028   6.619   2.948  0.6897 -0.1053  0.4890
13291WAT     H154969   4.116   6.657   2.954  0.5218  0.3962 -0.1419
13291WAT     H254970   3.980   6.678   2.890  0.4510 -1.3561 -0.6319
13291WAT    EPW54971   4.033   6.632   2.942  0.6361 -0.2043  0.2578
13292WAT      O54972   9.718   1.366   6.987  0.1831  0.5540 -0.1496
13292WAT     H154973   9.685   1.455   7.000 -0.4764  0.6623 -2.2175
13292WAT     H254974   9.803   1.379   6.946  0.9113  0.2156  1.1991
13292WAT    EPW54975   9.725   1.380   6.984  0.1922  0.5236 -0.2444
13293WAT      O54976   1.696   3.802   8.469 -1.0105 -0.2047 -0.1210
13293WAT     H154977   1.708   3.883   8.421  3.4452 -1.0899 -0.8643
13293WAT     H254978   1.699   3.733   8.402 -0.6215 -1.1751  0.8564
13293WAT    EPW54979   1.698   3.803   8.454 -0.3715 -0.4494 -0.0906
13294WAT      O54980   0.778   4.219   7.418  0.0174  0.3380 -0.2989
13294WAT     H154981   0.866   4.238   7.452  0.3272 -1.0812 -0.2426
13294WAT     H254982   0.728   4.192   7.495  0.2078 -1.0972 -0.6305
13294WAT    EPW54983   0.783   4.218   7.433  0.0834 -0.0384 -0.3350
13295WAT      O54984   0.075   3.745   6.049 -0.0851  0.0430 -0.0828
13295WAT     H154985   0.030   3.797   6.116 -0.2619 -1.4273  0.9922
13295WAT     H254986   0.005   3.713   5.992 -0.1988 -0.6377  0.4326
13295WAT    EPW54987   0.060   3.748   6.050 -0.1234 -0.2406  0.1271
13296WAT      O54988   0.299   1.761   6.861  1.0095 -0.0748 -0.0654
13296WAT     H154989   0.393   1.753   6.843  0.9002  0.9982 -1.2727
13296WAT     H254990   0.259   1.689   6.814  1.1741 -0.1941 -0.0248
13296WAT    EPW54991   0.306   1.751   6.853  1.0168  0.0510 -0.2193
13297WAT      O54992   9.979   2.520   7.937 -0.5448 -0.5564  0.1121
13297WAT     H154993   9.926   2.599   7.927 -2.0724 -1.5605  0.0716
13297WAT     H254994  10.042   2.524   7.865 -1.0207  0.2853 -0.2686
13297WAT    EPW54995   9.980   2.531   7.926 -0.8092 -0.5778  0.0567
13298WAT      O54996   2.523   1.678   5.861 -0.6113 -0.6700 -0.4672
13298WAT     H154997   2.559   1.722   5.783  0.6909 -2.8143 -1.1575
13298WAT     H254998   2.436   1.716   5.871  0.3809  2.0103 -1.0018
13298WAT    EPW54999   2.516   1.689   5.852 -0.3086 -0.5993 -0.6289
13299WAT      O55000   9.362   2.005   7.844 -0.2903  0.4341 -0.5838
13299WAT     H155001   9.395   2.080   7.893 -3.8410  2.9953 -1.7012
13299WAT     H255002   9.288   1.973   7.897 -0.3904 -0.6492 -1.3476
13299WAT    EPW55003   9.356   2.011   7.857 -0.7715  0.6289 -0.8321
13300WAT      O55004   0.589   4.470   8.773  0.2903 -0.1326  0.4964
13300WAT     H155005   0.643   4.545   8.800 -0.0522 -0.2972  1.7058
13300WAT     H255006   0.551   4.438   8.855 -3.1625  1.1054 -0.4643
13300WAT    EPW55007   0.591   4.476   8.788 -0.2103  0.0088  0.5298
13301WAT      O55008   1.401   1.157   6.362 -0.5252 -0.0114  0.0915
13301WAT     H155009   1.444   1.089   6.311  1.3635  0.9291  0.3402
13301WAT     H255010   1.346   1.204   6.299  0.6686  0.2447 -0.7977
13301WAT    EPW55011   1.400   1.154   6.347 -0.1186  0.1464  0.0069
13302WAT      O55012   1.337   3.211   5.960  0.4004  0.4651 -0.1798
13302WAT     H155013   1.397   3.228   6.033 -0.0139  0.9985  0.0426
13302WAT     H255014   1.393   3.176   5.891  0.4587 -2.7286  1.2821
13302WAT    EPW55015   1.353   3.208   5.961  0.3535  0.1141  0.0424
13303WAT      O55016   9.688   1.857   8.444  0.5734  0.1974 -0.8202
13303WAT     H155017   9.636   1.839   8.522  0.1400  0.5320 -1.0342
13303WAT     H255018   9.653   1.796   8.378  2.0756 -1.3290 -0.2912
13303WAT    EPW55019   9.677   1.846   8.446  0.7143  0.0402 -0.7787
13304WAT      O55020   0.949   3.928   7.824 -0.1421 -0.1197 -0.0174
13304WAT     H155021   0.979   3.864   7.888 -0.0144 -0.2731 -0.2287
13304WAT     H255022   0.941   4.009   7.874  0.6783 -0.0645  0.0416
13304WAT    EPW55023   0.952   3.930   7.839 -0.0170 -0.1326 -0.0377
13305WAT      O55024   4.612   9.755   2.103 -0.3161  0.0525  0.0514
13305WAT     H155025   4.660   9.715   2.030  0.6434  1.1659  0.0446
13305WAT     H255026   4.678   9.767   2.172 -0.2215  2.7802 -0.4046
13305WAT    EPW55027   4.627   9.751   2.103 -0.1771  0.5593 -0.0097
13306WAT      O55028   0.820   0.062   6.094  0.2767  0.1272 -0.4249
13306WAT     H155029   0.911   0.052   6.068  0.3884 -1.8523  0.5927
13306WAT     H255030   0.800  -0.016   6.145 -2.0799  0.3754 -0.8392
13306WAT    EPW55031   0.829   0.051   6.098 -0.0194 -0.1012 -0.3457
13307WAT      O55032   0.823   1.162   7.524  0.6406 -0.8710  0.1751
13307WAT     H155033   0.752   1.225   7.530  0.2770 -1.2622 -0.0285
13307WAT     H255034   0.791   1.084   7.571  1.4825 -0.5501  1.3267
13307WAT    EPW55035   0.810   1.160   7.531  0.7037 -0.8804  0.3002
13308WAT      O55036   4.972   6.254   1.837  0.2651  0.0961 -0.7239
13308WAT     H155037   4.960   6.174   1.888 -0.3577 -0.1085 -1.1837
13308WAT     H255038   4.950   6.324   1.898  0.3649 -0.1041 -0.4548
13308WAT    EPW55039   4.967   6.253   1.852  0.1962  0.0424 -0.7490
13309WAT      O55040   8.559   6.530   5.420 -0.5207  0.5779  0.2324
13309WAT     H155041   8.592   6.604   5.368  0.7339 -0.1781 -0.0975
13309WAT     H255042   8.490   6.492   5.366  0.4878  0.0503 -0.7391
13309WAT    EPW55043   8.555   6.535   5.406 -0.2222  0.4086  0.0610
13310WAT      O55044   2.495   7.288   0.071 -0.1291  0.6835 -0.4894
13310WAT     H155045   2.571   7.256   0.119 -0.6848 -0.2457 -0.1839
13310WAT     H255046   2.439   7.327   0.139 -0.9120 -0.6236 -0.3413
13310WAT    EPW55047   2.498   7.289   0.087 -0.3057  0.3884 -0.4296
13311WAT      O55048   4.221   4.984   0.105  0.8447  0.6411  0.3042
13311WAT     H155049   4.232   4.917   0.172 -1.2986 -1.6150 -1.3962
13311WAT     H255050   4.135   5.022   0.124  1.0806  1.3629 -0.0462
13311WAT    EPW55051   4.211   4.980   0.116  0.5929  0.4387  0.0337
13312WAT      O55052  10.800   2.114   7.654  0.2765  0.3522 -1.3313
13312WAT     H155053  10.717   2.108   7.606 -0.2048 -1.0167 -0.3926
13312WAT     H255054  10.784   2.066   7.735  2.2836 -0.8292 -1.5688
13312WAT    EPW55055  10.787   2.107   7.658  0.4778  0.0157 -1.2388
13313WAT      O55056   2.146   3.854   8.255 -1.7271  0.1392 -0.1885
13313WAT     H155057   2.098   3.908   8.193 -1.3012  0.8234  0.0687
13313WAT     H255058   2.149   3.906   8.336  1.1277  1.0522 -0.7387
13313WAT    EPW55059   2.140   3.868   8.258 -1.2944  0.3498 -0.2275
13314WAT      O55060   4.558   6.719   1.649 -0.3465  0.9833  0.2086
13314WAT     H155061   4.504   6.697   1.725 -0.5727  2.3561  0.4709
13314WAT     H255062   4.639   6.754   1.685  0.9257 -1.3238 -0.1825
13314WAT    EPW55063   4.561   6.720   1.663 -0.2086  0.8600  0.1916
13315WAT      O55064   1.763   4.413   0.044  0.6105  0.0002  0.4448
13315WAT     H155065   1.782   4.387  -0.046  0.8726  1.8576 -0.0761
13315WAT     H255066   1.822   4.487   0.061  0.1239  0.0892  1.9373
13315WAT    EPW55067   1.774   4.419   0.035  0.5810  0.2575  0.5727
13316WAT      O55068  10.618   9.769   7.531  0.6622 -0.1794 -0.1345
13316WAT     H155069  10.624   9.865   7.527  0.7025 -0.1550  0.4167
13316WAT     H255070  10.601   9.743   7.441 -2.3342  0.5269  0.1359
13316WAT    EPW55071  10.617   9.778   7.519  0.2723 -0.0834 -0.0260
13317WAT      O55072   2.663   0.906   6.950  0.3020 -0.6082 -0.8998
13317WAT     H155073   2.699   0.951   6.873  0.8087  0.7106  0.0707
13317WAT     H255074   2.569   0.904   6.934  0.3319  0.2955 -1.2416
13317WAT    EPW55075   2.655   0.912   6.938  0.3728 -0.3151 -0.8166
13318WAT      O55076   4.995   8.599   1.732 -0.1306  0.2153 -0.2240
13318WAT     H155077   4.970   8.507   1.725 -0.0344  0.2736 -1.4804
13318WAT     H255078   4.968   8.638   1.649 -0.6339  1.4472  0.4821
13318WAT    EPW55079   4.988   8.592   1.720 -0.1841  0.3853 -0.2966
13319WAT      O55080   9.762   1.307   8.489 -0.9536  0.1573  0.3529
13319WAT     H155081   9.789   1.324   8.399 -1.0678 -0.3717  0.2152
13319WAT     H255082   9.832   1.343   8.543 -0.7720  0.2626  0.0465
13319WAT    EPW55083   9.775   1.314   8.484 -0.9451  0.1014  0.2942
13320WAT      O55084   5.827   5.571   2.946  0.8608 -0.0633  0.3287
13320WAT     H155085   5.871   5.587   3.029  1.7636  0.3522 -0.2145
13320WAT     H255086   5.786   5.655   2.923 -2.4640 -1.0616  2.0633
13320WAT    EPW55087   5.828   5.584   2.954  0.5412 -0.1402  0.4858
13321WAT      O55088   9.697   4.488   8.324  0.0391 -0.6879 -0.5416
13321WAT     H155089   9.661   4.422   8.383 -1.0496  1.4146  1.3027
13321WAT     H255090   9.629   4.501   8.258 -2.0504  1.9708  1.9023
13321WAT    EPW55091   9.683   4.481   8.323 -0.3800 -0.0601  0.0238
13322WAT      O55092   3.463   5.518   7.779  0.9754 -0.6454 -0.1471
13322WAT     H155093   3.452   5.593   7.837  0.8262 -0.7460 -0.0454
13322WAT     H255094   3.557   5.500   7.781  1.1298  0.0394 -0.8037
13322WAT    EPW55095   3.474   5.525   7.787  0.9761 -0.5684 -0.2205
13323WAT      O55096   1.844   5.107   7.095 -0.0749 -0.2499 -0.4542
13323WAT     H155097   1.849   5.067   7.182  3.2505  0.5423 -0.1519
13323WAT     H255098   1.867   5.198   7.109 -1.1778  0.3171 -2.0066
13323WAT    EPW55099   1.847   5.114   7.109  0.2183 -0.0706 -0.6187
13324WAT      O55100   5.837  10.034   0.297 -0.7828  0.0126 -0.0195
13324WAT     H155101   5.916   9.987   0.323  0.4266  0.7133 -2.1873
13324WAT     H255102   5.809  10.080   0.377  1.8035  0.8586  0.4937
13324WAT    EPW55103   5.844  10.034   0.311 -0.2823  0.2165 -0.2377
13325WAT      O55104   4.351   4.331   8.617 -0.1342 -0.2676  0.1170
13325WAT     H155105   4.300   4.355   8.540  2.9462  0.0593 -2.0107
13325WAT     H255106   4.403   4.409   8.637 -0.0855 -0.7108  1.8761
13325WAT    EPW55107   4.351   4.345   8.609  0.2787 -0.2830  0.0682
13326WAT      O55108  10.360   5.669   4.698 -0.0170  0.1854  0.3079
13326WAT     H155109  10.312   5.610   4.641 -0.6802  1.0040 -0.0030
13326WAT     H255110  10.388   5.741   4.640 -1.2322  1.3368  1.1025
13326WAT    EPW55111  10.357   5.671   4.683 -0.2651  0.4454  0.3717
13327WAT      O55112   5.507   7.676   0.594  0.4400  0.0629  0.7595
13327WAT     H155113   5.588   7.635   0.564  0.5572 -0.7413  2.0786
13327WAT     H255114   5.474   7.617   0.662 -1.8054 -0.1691 -0.4209
13327WAT    EPW55115   5.513   7.662   0.599  0.1590 -0.0739  0.7778
13328WAT      O55116   0.636   3.377   7.207 -0.0732 -0.2931  0.4988
13328WAT     H155117   0.615   3.371   7.300  2.0899 -1.3678  0.9947
13328WAT     H255118   0.722   3.420   7.205  0.3690 -1.1821 -0.9242
13328WAT    EPW55119   0.645   3.382   7.219  0.2704 -0.5522  0.3765
13329WAT      O55120   5.679   8.504   0.969  0.2574  0.5202  0.1481
13329WAT     H155121   5.596   8.550   0.982 -0.0730 -0.6205  2.6541
13329WAT     H255122   5.742   8.574   0.950 -0.3316  2.0739  3.1944
13329WAT    EPW55123   5.676   8.520   0.968  0.1361  0.5741  0.8804
13330WAT      O55124   2.107   6.319   4.836 -0.3630 -0.3444  0.1544
13330WAT     H155125   2.019   6.282   4.832 -0.6983  0.4717 -0.5990
13330WAT     H255126   2.132   6.314   4.928 -1.3243 -0.3130  0.4233
13330WAT    EPW55127   2.099   6.314   4.848 -0.5341 -0.2322  0.0904
13331WAT      O55128   1.293   5.474   6.162 -0.5418 -0.0003  0.2362
13331WAT     H155129   1.239   5.475   6.083 -1.9640 -2.0409  1.0861
13331WAT     H255130   1.327   5.563   6.169 -1.3523  0.5534 -1.9970
13331WAT    EPW55131   1.291   5.486   6.152 -0.8363 -0.1965  0.0539
13332WAT      O55132   3.003   1.797   7.641  0.4526 -0.2731  0.3243
13332WAT     H155133   3.036   1.868   7.696 -2.3711  0.8258  0.7410
13332WAT     H255134   3.037   1.818   7.554  2.2786 -0.2467  0.9870
13332WAT    EPW55135   3.012   1.809   7.637  0.3210 -0.1247  0.4666
13333WAT      O55136   2.066   3.673   6.078  0.6417 -0.2886 -0.1602
13333WAT     H155137   2.049   3.631   6.162  1.5511  2.1696  1.3861
13333WAT     H255138   2.156   3.704   6.085 -0.1872  2.5537 -0.7596
13333WAT    EPW55139   2.076   3.672   6.090  0.6523  0.4104 -0.0353
13334WAT      O55140  10.876   5.803   7.409  0.2669 -0.7572 -0.4971
13334WAT     H155141  10.918   5.718   7.423 -0.8512 -1.2619 -0.0812
13334WAT     H255142  10.943   5.867   7.433  1.5491 -1.4816 -2.0362
13334WAT    EPW55143  10.890   5.800   7.414  0.2890 -0.9196 -0.6454
13335WAT      O55144   9.563   0.316   0.306  0.1204  0.8569  0.2155
13335WAT     H155145   9.485   0.262   0.291  0.9405 -0.4454  0.5103
13335WAT     H255146   9.588   0.347   0.218 -0.1760  0.5000  0.0032
13335WAT    EPW55147   9.556   0.313   0.292  0.1898  0.6381  0.2264
13336WAT      O55148   0.135   6.764   8.697  0.3480 -0.1969  0.3656
13336WAT     H155149   0.096   6.790   8.781  1.1248  0.7709  0.4531
13336WAT     H255150   0.062   6.765   8.635 -0.4876 -2.1567  1.2515
13336WAT    EPW55151   0.120   6.767   8.700  0.3403 -0.3281  0.4940
13337WAT      O55152   2.300   4.233   7.163  0.4542  0.1408  0.5792
13337WAT     H155153   2.391   4.263   7.152  0.5225 -0.4010 -0.4906
13337WAT     H255154   2.304   4.139   7.145 -0.3572  0.1509  0.3186
13337WAT    EPW55155   2.313   4.225   7.159  0.3561  0.0706  0.4036
13338WAT      O55156   1.972   3.758   8.615 -0.0466 -0.1480 -0.1885
13338WAT     H155157   1.972   3.668   8.646  0.8386  0.2276  0.9640
13338WAT     H255158   1.886   3.769   8.574 -1.0386 -0.8716  1.5908
13338WAT    EPW55159   1.961   3.748   8.614 -0.0607 -0.1938  0.1979
13339WAT      O55160   1.835   6.044   8.261 -0.1941 -0.2913 -0.5296
13339WAT     H155161   1.845   6.080   8.349 -0.4993  0.5805 -0.8352
13339WAT     H255162   1.917   6.066   8.217 -0.3153 -0.1120 -0.6678
13339WAT    EPW55163   1.847   6.052   8.267 -0.2503 -0.1526 -0.5884
13340WAT      O55164   3.378   9.057   0.159 -0.2248  0.5331  0.4113
13340WAT     H155165   3.337   9.030   0.077  1.9309 -0.1027 -0.5293
13340WAT     H255166   3.432   9.132   0.136  2.4780 -1.2182  0.5519
13340WAT    EPW55167   3.380   9.063   0.145  0.4160  0.2184  0.3057
13341WAT      O55168   7.617   9.411   1.137  0.3012  0.2893 -0.0119
13341WAT     H155169   7.606   9.505   1.151 -2.0702  0.5602 -2.7243
13341WAT     H255170   7.580   9.371   1.215 -0.1072  1.6170  0.5057
13341WAT    EPW55171   7.611   9.418   1.149 -0.0656  0.4997 -0.3014
13342WAT      O55172   0.456   4.730   8.235 -0.2489  0.4044  0.8603
13342WAT     H155173   0.443   4.824   8.250 -3.3781 -0.0873  1.9896
13342WAT     H255174   0.512   4.703   8.308  4.1661  1.8595 -1.5702
13342WAT    EPW55175   0.462   4.739   8.247 -0.0793  0.5314  0.6890
13343WAT      O55176   7.171  10.143   0.174  0.2955 -0.5190 -0.4216
13343WAT     H155177   7.179  10.087   0.096 -0.6425  1.2784 -1.8980
13343WAT     H255178   7.078  10.167   0.176  0.4373 -0.0032  0.8863
13343WAT    EPW55179   7.159  10.139   0.164  0.1903 -0.2136 -0.4439
13344WAT      O55180   3.243   9.110   1.263  0.0886  0.0729 -0.2719
13344WAT     H155181   3.195   9.073   1.337  0.9993 -2.8513 -1.0257
13344WAT     H255182   3.325   9.141   1.301  1.4156 -3.1713 -0.1409
13344WAT    EPW55183   3.248   9.109   1.278  0.3837 -0.7410 -0.3541
13345WAT      O55184   3.739   3.248   8.011  0.2779 -0.7457 -0.1080
13345WAT     H155185   3.758   3.169   7.960  3.5264 -0.4302  0.3934
13345WAT     H255186   3.813   3.256   8.071 -2.1798  0.2191  3.1196
13345WAT    EPW55187   3.751   3.239   8.012  0.3822 -0.5767  0.3829
13346WAT      O55188   2.771   6.720   1.434  0.2653 -0.6592  0.1683
13346WAT     H155189   2.852   6.705   1.387 -0.9261 -0.2282 -2.1525
13346WAT     H255190   2.702   6.695   1.373 -1.4186  1.5784  1.0126
13346WAT    EPW55191   2.772   6.715   1.420 -0.1140 -0.3073 -0.0265
13347WAT      O55192  10.674   4.539   8.181 -0.7950 -0.9198  0.2212
13347WAT     H155193  10.732   4.557   8.255  1.1127  1.9450 -1.7653
13347WAT     H255194  10.598   4.595   8.196 -0.7701 -0.9402  0.4228
13347WAT    EPW55195  10.672   4.549   8.193 -0.5403 -0.5448 -0.0148
13348WAT      O55196   7.588   7.034   0.027 -0.2673  0.3289  0.1763
13348WAT     H155197   7.568   6.982   0.104  1.0777 -0.3662  0.0867
13348WAT     H255198   7.585   7.125   0.058  0.4903  0.0537  1.1245
13348WAT    EPW55199   7.585   7.039   0.041  0.0100  0.2010  0.2896
13349WAT      O55200   8.189   8.799   0.361  0.3237  0.2673 -1.2485
13349WAT     H155201   8.177   8.771   0.452 -1.1509  0.4903 -1.3482
13349WAT     H255202   8.104   8.786   0.321  0.2784  2.4451 -1.9675
13349WAT    EPW55203   8.177   8.794   0.368  0.1230  0.5841 -1.3564
13350WAT      O55204   3.025   6.099   7.231 -0.4661 -0.0850 -0.0707
13350WAT     H155205   3.045   6.175   7.176  2.0007  1.0263  2.1534
13350WAT     H255206   3.002   6.136   7.316 -2.1528 -1.8171  0.3109
13350WAT    EPW55207   3.025   6.114   7.235 -0.3632 -0.1671  0.2730
13351WAT      O55208   2.773   4.148   6.329  0.4873  0.2494  0.0382
13351WAT     H155209   2.786   4.108   6.243  2.4048 -3.3276  1.7663
13351WAT     H255210   2.847   4.208   6.339  0.4622  0.4049 -0.6199
13351WAT    EPW55211   2.784   4.150   6.319  0.7370 -0.2019  0.1793
13352WAT      O55212   8.157   1.397   6.212 -0.1840 -0.3149 -0.6116
13352WAT     H155213   8.229   1.368   6.268  0.5378 -0.5988 -1.6455
13352WAT     H255214   8.139   1.322   6.156 -1.0407 -0.1141 -0.6129
13352WAT    EPW55215   8.164   1.383   6.212 -0.2022 -0.3259 -0.7482
13353WAT      O55216   2.569   2.140   6.564 -0.2418  0.5817  0.4078
13353WAT     H155217   2.490   2.177   6.602  0.4061  1.0169  1.3775
13353WAT     H255218   2.547   2.125   6.472 -1.4180  0.7557  0.6442
13353WAT    EPW55219   2.556   2.143   6.557 -0.3115  0.6618  0.5672
13354WAT      O55220   6.719   1.450   0.138  0.1474  0.0836  0.1993
13354WAT     H155221   6.674   1.531   0.114 -1.0575  0.1356  2.3578
13354WAT     H255222   6.752   1.466   0.227  1.2867 -1.2332  0.0486
13354WAT    EPW55223   6.717   1.463   0.147  0.1388 -0.0832  0.4641
13355WAT      O55224   9.225   0.495   1.095 -0.2895 -0.0457 -0.2645
13355WAT     H155225   9.138   0.509   1.058 -0.7793 -1.8669  0.0809
13355WAT     H255226   9.285   0.528   1.028 -1.2077  2.0992 -0.1262
13355WAT    EPW55227   9.222   0.501   1.081 -0.4759 -0.0030 -0.2007
13356WAT      O55228   2.397   3.945   8.160  0.1663  0.0203 -0.4141
13356WAT     H155229   2.375   3.895   8.081 -0.6074 -1.8079  0.8870
13356WAT     H255230   2.330   3.920   8.223 -0.5672  3.1487  0.2085
13356WAT    EPW55231   2.385   3.935   8.158 -0.0325  0.1917 -0.1602
13357WAT      O55232   1.315   3.231   5.028  0.8585  0.6839 -0.7727
13357WAT     H155233   1.366   3.308   5.003  2.5740 -0.3781 -0.7248
13357WAT     H255234   1.304   3.182   4.947  1.3629  0.0821 -0.4766
13357WAT    EPW55235   1.320   3.235   5.014  1.1513  0.4646 -0.7277
13358WAT      O55236   4.680   4.297   7.454 -0.1011 -0.0527  0.0849
13358WAT     H155237   4.769   4.311   7.487  0.4232 -1.7597 -0.4802
13358WAT     H255238   4.634   4.379   7.472  1.7563  1.1037 -0.1894
13358WAT    EPW55239   4.685   4.310   7.461  0.2129 -0.1252 -0.0255
13359WAT      O55240  10.631   7.749   7.446  0.0515  0.1648  0.7857
13359WAT     H155241  10.547   7.786   7.474 -0.4392 -1.7071  1.9925
13359WAT     H255242  10.609   7.690   7.374  0.2417 -0.6337  1.3621
13359WAT    EPW55243  10.617   7.746   7.440  0.0119 -0.1874  1.0209
13360WAT      O55244   3.392   5.351   0.858 -0.3829 -0.6112 -0.3661
13360WAT     H155245   3.345   5.403   0.792 -0.0848  2.2846  1.5224
13360WAT     H255246   3.482   5.348   0.825  0.1237  2.1934  0.5321
13360WAT    EPW55247   3.398   5.357   0.845 -0.2768  0.1407  0.0015
13361WAT      O55248   2.157   1.036   6.020 -0.1311  0.1040  0.8918
13361WAT     H155249   2.207   0.954   6.026  2.6217  1.7239  1.6792
13361WAT     H255250   2.173   1.068   5.932 -0.2911  0.3686  0.9587
13361WAT    EPW55251   2.165   1.029   6.009  0.2109  0.3526  1.0047
13362WAT      O55252   5.122   3.552   7.924  0.3544 -0.0024  0.1187
13362WAT     H155253   5.122   3.502   8.006 -1.7990 -0.1999  0.0600
13362WAT     H255254   5.213   3.581   7.913  1.6629 -3.5812  0.3357
13362WAT    EPW55255   5.134   3.549   7.934  0.2429 -0.5004  0.1395
13363WAT      O55256   6.867   9.241   2.297 -0.2094  0.0891  0.0404
13363WAT     H155257   6.955   9.248   2.333 -0.3680  1.1441  0.2596
13363WAT     H255258   6.831   9.329   2.304 -0.1053  0.5121 -3.1180
13363WAT    EPW55259   6.874   9.253   2.302 -0.2167  0.2842 -0.3473
13364WAT      O55260   7.190   2.439   0.965  0.1491  0.1408  0.5463
13364WAT     H155261   7.104   2.482   0.965 -1.2385 -2.4353  0.8909
13364WAT     H255262   7.239   2.483   1.035 -1.6161  0.3932  1.6838
13364WAT    EPW55263   7.185   2.450   0.975 -0.2668 -0.1656  0.7418
13365WAT      O55264   2.108   2.667   4.575 -0.0868 -0.3541  0.4201
13365WAT     H155265   2.117   2.589   4.630  2.3202  0.5126  1.3637
13365WAT     H255266   2.114   2.634   4.485 -0.1041 -1.3439  0.7693
13365WAT    EPW55267   2.110   2.652   4.570  0.2283 -0.3704  0.5903
13366WAT      O55268   2.166   2.595   7.055 -0.0719 -0.3272 -0.5544
13366WAT     H155269   2.192   2.638   6.973 -2.8348 -3.7150 -3.5920
13366WAT     H255270   2.093   2.648   7.088  1.9522  1.8636  0.6920
13366WAT    EPW55271   2.160   2.608   7.048 -0.1693 -0.4852 -0.7904
13367WAT      O55272   1.808   8.852   7.107 -0.0647 -0.0620 -0.0067
13367WAT     H155273   1.775   8.892   7.027 -0.5963 -0.2195  0.1258
13367WAT     H255274   1.751   8.775   7.121  1.0610 -0.9781 -0.3605
13367WAT    EPW55275   1.796   8.847   7.098  0.0136 -0.2031 -0.0358
13368WAT      O55276   1.543   5.616   3.379  0.7614 -0.0267 -0.8575
13368WAT     H155277   1.543   5.595   3.472 -0.8531  2.2038 -0.2822
13368WAT     H255278   1.634   5.637   3.359  1.6229 -2.8977 -0.4561
13368WAT    EPW55279   1.555   5.616   3.389  0.6621 -0.1111 -0.7286
13369WAT      O55280   2.872   5.475   8.546 -0.6102  0.5173  0.0812
13369WAT     H155281   2.843   5.445   8.632  0.8635  0.0728  0.4473
13369WAT     H255282   2.791   5.499   8.501 -1.7269 -2.0556  0.5221
13369WAT    EPW55283   2.857   5.474   8.551 -0.5633  0.1194  0.1879
13370WAT      O55284   0.680   6.873   8.675  0.2380  0.6284  0.2360
13370WAT     H155285   0.617   6.844   8.609  0.4478  0.4627  0.1060
13370WAT     H255286   0.684   6.968   8.663  0.0839  0.6280  0.1796
13370WAT    EPW55287   0.672   6.882   8.665  0.2453  0.6065  0.2117
13371WAT      O55288   1.252   0.144   7.887 -0.3494  0.1360  0.1511
13371WAT     H155289   1.278   0.178   7.972 -3.1637 -2.5722  2.3113
13371WAT     H255290   1.251   0.049   7.898  0.6816 -0.4773 -3.4788
13371WAT    EPW55291   1.256   0.136   7.899 -0.5845 -0.3021 -0.0427
13372WAT      O55292   2.412   6.453   5.776  0.1403  0.4916 -0.4563
13372WAT     H155293   2.374   6.442   5.863 -0.7606  0.7803 -0.8053
13372WAT     H255294   2.435   6.546   5.772 -1.1366  0.8029 -1.0344
13372WAT    EPW55295   2.410   6.464   5.787 -0.1469  0.5708 -0.5789
13373WAT      O55296   0.737   4.127   7.690  0.1158 -0.6240 -0.1957
13373WAT     H155297   0.830   4.102   7.687 -0.2612 -2.0889 -2.1301
13373WAT     H255298   0.697   4.064   7.749  0.1979 -0.5625 -0.0738
13373WAT    EPW55299   0.744   4.115   7.697  0.0769 -0.8092 -0.4349
13374WAT      O55300   0.032   2.298   8.580  0.3834  0.6812 -0.1373
13374WAT     H155301   0.096   2.227   8.577 -0.4082 -0.0955  0.7522
13374WAT     H255302   0.081   2.372   8.616  0.8862  0.2121  0.1613
13374WAT    EPW55303   0.047   2.298   8.584  0.3452  0.5170  0.0191
13375WAT      O55304   5.440   1.066   0.070 -0.3699 -0.1614  0.3476
13375WAT     H155305   5.358   1.094   0.112 -1.0855 -1.9259  0.2071
13375WAT     H255306   5.427   1.088  -0.023 -0.1727  0.6478  0.5013
13375WAT    EPW55307   5.427   1.073   0.063 -0.4382 -0.2873  0.3494
13376WAT      O55308   1.060   2.224   8.496  0.4224 -0.3507 -0.1595
13376WAT     H155309   1.012   2.163   8.440 -2.9327  1.6781  0.2187
13376WAT     H255310   1.051   2.188   8.584  0.9740 -0.7616 -0.2676
13376WAT    EPW55311   1.053   2.211   8.500  0.0527 -0.1372 -0.1240
13377WAT      O55312   3.072   3.496   7.305  0.4309  0.1405 -0.6577
13377WAT     H155313   3.001   3.433   7.320 -1.1481  1.5819 -1.6837
13377WAT     H255314   3.126   3.491   7.384  0.5490 -2.6663 -0.8176
13377WAT    EPW55315   3.070   3.487   7.317  0.2382 -0.0397 -0.8142
13378WAT      O55316   1.088   7.145   3.262  0.3884 -0.4504 -0.2123
13378WAT     H155317   1.001   7.185   3.261  0.2348 -0.7711 -1.6368
13378WAT     H255318   1.131   7.183   3.339 -0.5534  0.7065 -0.2358
13378WAT    EPW55319   1.083   7.155   3.272  0.2439 -0.3400 -0.4034
13379WAT      O55320   3.664   4.145   8.748  0.1516  0.1759  1.0586
13379WAT     H155321   3.691   4.195   8.825  2.1893 -1.9919  1.8587
13379WAT     H255322   3.598   4.200   8.706  0.1361  2.1607  3.4548
13379WAT    EPW55323   3.659   4.159   8.752  0.4183  0.1519  1.4806
13380WAT      O55324   3.209   2.018   4.051 -0.7701 -0.6032 -0.5132
13380WAT     H155325   3.300   2.045   4.043 -1.1502  1.2307  0.7721
13380WAT     H255326   3.177   2.062   4.129 -2.8418 -1.0008 -1.0635
13380WAT    EPW55327   3.216   2.027   4.060 -1.0934 -0.4137 -0.4160
13381WAT      O55328  10.047   5.213   7.546  0.4848  0.0220  0.2347
13381WAT     H155329   9.974   5.166   7.504 -0.2030  0.7094  0.6511
13381WAT     H255330  10.099   5.144   7.587 -0.4941 -0.3851  0.8005
13381WAT    EPW55331  10.045   5.197   7.546  0.2646  0.0589  0.3641
13382WAT      O55332   8.171   9.107   2.008  0.3142  0.3769  0.5679
13382WAT     H155333   8.210   9.100   1.921  0.4897 -0.8346  0.7289
13382WAT     H255334   8.162   9.201   2.022 -0.6377  0.5832 -1.1538
13382WAT    EPW55335   8.175   9.119   1.998  0.2112  0.2446  0.3620
13383WAT      O55336   8.780   1.185   0.181 -0.1321  0.4554  0.0883
13383WAT     H155337   8.715   1.151   0.119  3.4702 -1.0222 -3.2593
13383WAT     H255338   8.795   1.113   0.242  1.2702 -0.8921 -1.7420
13383WAT    EPW55339   8.773   1.171   0.181  0.5279  0.0827 -0.5946
13384WAT      O55340   4.112   2.409   5.377  0.6293  1.0580 -0.4853
13384WAT     H155341   4.184   2.471   5.370  1.1262  0.4463 -0.9904
13384WAT     H255342   4.058   2.426   5.299  1.0331  0.5398 -0.8858
13384WAT    EPW55343   4.114   2.419   5.366  0.7479  0.9090 -0.6046
13385WAT      O55344   3.714   2.484   6.792  0.1467 -0.3569  0.0974
13385WAT     H155345   3.631   2.437   6.789  0.9508 -1.7894 -1.5575
13385WAT     H255346   3.694   2.571   6.757 -0.8623 -0.3087  0.7777
13385WAT    EPW55347   3.701   2.489   6.787  0.1196 -0.5395 -0.0315
13386WAT      O55348   1.526   3.263   8.684  0.1000 -0.1014  0.0191
13386WAT     H155349   1.582   3.302   8.617  2.4772 -0.1425  1.8445
13386WAT     H255350   1.537   3.169   8.674 -1.3006 -0.2045 -0.8760
13386WAT    EPW55351   1.535   3.256   8.674  0.2289 -0.1203  0.1411
13387WAT      O55352   7.961   0.049   0.883  0.2821 -0.1531  0.1794
13387WAT     H155353   7.939   0.141   0.892  0.1441 -0.3116  1.7046
13387WAT     H255354   7.906   0.018   0.811 -2.4877  0.1423  2.0053
13387WAT    EPW55355   7.951   0.057   0.875 -0.1016 -0.1350  0.6214
13388WAT      O55356   4.787   6.642   0.285 -0.1925 -0.0861 -0.2940
13388WAT     H155357   4.782   6.721   0.339  1.9725 -0.1183  0.0781
13388WAT     H255358   4.789   6.570   0.348  1.0171 -0.2020 -0.4262
13388WAT    EPW55359   4.787   6.643   0.301  0.2525 -0.1054 -0.2624
13389WAT      O55360   2.041   6.430   4.233 -0.2686 -0.5091 -0.2483
13389WAT     H155361   2.023   6.346   4.191  1.4935 -0.5825 -0.9292
13389WAT     H255362   2.136   6.431   4.245 -0.3771  0.9397  0.7238
13389WAT    EPW55363   2.051   6.419   4.229 -0.0505 -0.3278 -0.2098
13390WAT      O55364  10.948   3.872   6.260 -0.3801  0.1202 -0.2841
13390WAT     H155365  10.977   3.870   6.352 -2.4346 -3.2777  0.4699
13390WAT     H255366  10.864   3.918   6.263 -0.6259 -0.3193 -0.3836
13390WAT    EPW55367  10.941   3.878   6.273 -0.6838 -0.3861 -0.1976
13391WAT      O55368   3.643   3.111   8.915 -0.7229 -0.8138 -0.1878
13391WAT     H155369   3.565   3.111   8.971 -0.1629  1.0333  0.6835
13391WAT     H255370   3.611   3.143   8.830 -0.9803 -0.3924  0.0642
13391WAT    EPW55371   3.628   3.115   8.911 -0.6828 -0.5145 -0.0401
13392WAT      O55372   9.820   6.018   6.598  0.2489 -0.1678 -0.0074
13392WAT     H155373   9.847   6.025   6.690 -0.3879  0.2600  0.1561
13392WAT     H255374   9.837   6.105   6.562  1.6733 -0.6779 -0.6406
13392WAT    EPW55375   9.826   6.031   6.605  0.3529 -0.1788 -0.0694
13393WAT      O55376   2.977   3.633   8.794 -0.6998  0.2113  0.5070
13393WAT     H155377   2.897   3.685   8.802 -2.3644 -2.0079 -0.5583
13393WAT     H255378   3.017   3.663   8.712  0.4072  2.2842  1.7084
13393WAT    EPW55379   2.972   3.644   8.784 -0.7732  0.1920  0.5245
13394WAT      O55380   3.362   2.841   8.561 -0.0152  0.2825  1.3214
13394WAT     H155381   3.363   2.780   8.635  1.1693  0.5215  1.5372
13394WAT     H255382   3.376   2.927   8.601 -0.5983  0.5707  0.9221
13394WAT    EPW55383   3.364   2.845   8.576  0.0641  0.3520  1.2975
13395WAT      O55384   0.791   1.202   7.804  0.0379  0.2753 -0.0314
13395WAT     H155385   0.841   1.187   7.724  0.2351 -0.1614  0.1717
13395WAT     H255386   0.790   1.298   7.813 -1.1802  0.4148 -1.2958
13395WAT    EPW55387   0.797   1.213   7.794 -0.0967  0.2361 -0.1712
13396WAT      O55388   4.950   8.253   1.982  0.8262 -0.5038 -0.0830
13396WAT     H155389   5.036   8.227   1.949  1.7011 -0.0618  1.7151
13396WAT     H255390   4.890   8.233   1.910  2.5765  0.4038 -1.9226
13396WAT    EPW55391   4.954   8.247   1.968  1.1725 -0.3262 -0.0886
13397WAT      O55392   7.803   6.142   0.633 -0.1923  0.3995 -0.5820
13397WAT     H155393   7.723   6.093   0.611  1.1642 -0.7783 -3.3934
13397WAT     H255394   7.775   6.233   0.638 -1.7734 -0.0213 -1.2465
13397WAT    EPW55395   7.789   6.147   0.631 -0.2220  0.1886 -1.0405
13398WAT      O55396   0.907   1.272   8.198  0.0955 -0.8976  0.4901
13398WAT     H155397   0.875   1.325   8.271 -1.1767 -0.3557 -0.4175
13398WAT     H255398   0.908   1.332   8.124 -0.5173 -1.9174 -0.3697
13398WAT    EPW55399   0.903   1.287   8.198 -0.1531 -0.9607  0.2565
13399WAT      O55400   3.887   5.111   8.139  0.2959  0.5272  0.2668
13399WAT     H155401   3.832   5.074   8.070  1.4671  1.4515 -1.2251
13399WAT     H255402   3.973   5.071   8.126  0.4216  0.3392  1.5205
13399WAT    EPW55403   3.891   5.101   8.128  0.4669  0.6244  0.2356
13400WAT      O55404   4.961   6.795   0.934  0.3683 -0.0721 -0.0638
13400WAT     H155405   4.946   6.782   1.027  0.0690  1.5282  0.1479
13400WAT     H255406   5.051   6.829   0.929  0.7642 -1.1625 -0.4660
13400WAT    EPW55407   4.971   6.798   0.945  0.3808 -0.0050 -0.0890
13401WAT      O55408   0.273   2.422   6.888 -0.1851 -0.2255  0.4402
13401WAT     H155409   0.191   2.389   6.923 -0.9506  0.2172 -0.8642
13401WAT     H255410   0.247   2.475   6.812  1.2218  0.8112  0.6470
13401WAT    EPW55411   0.259   2.425   6.882 -0.1005 -0.0304  0.2954
13402WAT      O55412   9.914   4.958   7.215  0.0448  0.0800  0.0565
13402WAT     H155413   9.860   4.987   7.142 -0.7236 -0.7583  0.2842
13402WAT     H255414   9.874   4.998   7.292  0.0888 -0.0943  0.1684
13402WAT    EPW55415   9.902   4.967   7.215 -0.0510 -0.0536  0.1013
13403WAT      O55416   1.148   4.802   6.289  0.0786 -0.4484  0.3352
13403WAT     H155417   1.117   4.893   6.295  0.8060 -0.1788  0.1600
13403WAT     H255418   1.229   4.808   6.237  1.7643 -0.8018  2.7618
13403WAT    EPW55419   1.155   4.815   6.283  0.3969 -0.4594  0.6323
13404WAT      O55420   0.193   5.704   6.124 -0.3876  0.2126  0.1777
13404WAT     H155421   0.228   5.621   6.090 -0.9347  0.0855 -0.0848
13404WAT     H255422   0.249   5.724   6.199 -0.6156 -0.7071  0.6135
13404WAT    EPW55423   0.205   5.696   6.130 -0.4898  0.0746  0.2007
13405WAT      O55424   1.020   4.245   8.327 -0.0898 -0.0287  0.8772
13405WAT     H155425   1.059   4.270   8.410  1.7705  1.8430 -0.4438
13405WAT     H255426   1.068   4.297   8.262 -1.8291 -1.0076 -1.3111
13405WAT    EPW55427   1.031   4.255   8.329 -0.0738  0.0889  0.4139
13406WAT      O55428   2.662   5.685   7.517 -0.2079 -0.0337 -0.5825
13406WAT     H155429   2.733   5.636   7.560 -0.7627  1.4416  2.1996
13406WAT     H255430   2.700   5.771   7.499 -0.7797  0.2049 -0.6677
13406WAT    EPW55431   2.677   5.690   7.520 -0.3564  0.1926 -0.2267
13407WAT      O55432   2.233   4.547   6.437 -0.3849 -0.3304  0.1863
13407WAT     H155433   2.225   4.581   6.348  1.9672  0.3443  0.1550
13407WAT     H255434   2.294   4.474   6.429 -0.3315 -0.4150  1.2083
13407WAT    EPW55435   2.240   4.542   6.424 -0.0677 -0.2527  0.3169
13408WAT      O55436   4.095   3.547   6.881 -0.1246 -0.3059  0.8606
13408WAT     H155437   4.100   3.608   6.808  1.3122  2.5271  3.1475
13408WAT     H255438   4.010   3.504   6.870 -1.0166  1.7723 -1.1301
13408WAT    EPW55439   4.084   3.549   6.870 -0.0529  0.3419  0.8998
13409WAT      O55440   9.316   6.196   7.356 -0.5239 -0.0440  0.0925
13409WAT     H155441   9.274   6.151   7.283  2.0374 -4.2090  0.8456
13409WAT     H255442   9.247   6.204   7.422 -1.8525 -0.0106 -1.2617
13409WAT    EPW55443   9.302   6.191   7.355 -0.3610 -0.5889  0.0134
13410WAT      O55444   8.432   0.013   1.429  0.0857  0.2043  0.6759
13410WAT     H155445   8.459  -0.027   1.346 -0.6736  2.0012 -0.5171
13410WAT     H255446   8.364   0.076   1.403 -0.4301  0.5507  2.7266
13410WAT    EPW55447   8.426   0.016   1.414 -0.0830  0.4870  0.7890
13411WAT      O55448   0.357   6.970   5.833 -0.2715  0.2907 -0.8535
13411WAT     H155449   0.356   6.884   5.874 -2.0673  0.3526 -0.6855
13411WAT     H255450   0.436   6.971   5.779  0.2904 -1.0757 -0.0848
13411WAT    EPW55451   0.367   6.959   5.831 -0.4342  0.1187 -0.7298
13412WAT      O55452   8.424   8.171   0.882 -0.9104 -0.1318 -0.2582
13412WAT     H155453   8.408   8.244   0.821 -0.4244 -0.9776 -1.4477
13412WAT     H255454   8.426   8.212   0.968 -0.0340  1.3797 -0.9444
13412WAT    EPW55455   8.422   8.186   0.885 -0.7305 -0.0439 -0.5056
13413WAT      O55456   0.823   3.953   6.916  0.5007 -0.5837  0.2896
13413WAT     H155457   0.867   3.983   6.835  1.2330 -3.4732 -0.5017
13413WAT     H255458   0.803   3.861   6.899 -1.8972 -0.5290  2.3958
13413WAT    EPW55459   0.826   3.945   6.903  0.2810 -0.9576  0.4630
13414WAT      O55460  10.802   3.325   6.600  0.3751 -0.1385 -0.1864
13414WAT     H155461  10.820   3.363   6.514 -0.7271 -0.4440 -0.5633
13414WAT     H255462  10.885   3.333   6.647  0.3086  2.4077 -0.3705
13414WAT    EPW55463  10.816   3.331   6.595  0.2208  0.1571 -0.2604
13415WAT      O55464   9.140   1.594   6.723  0.0298  1.6067 -0.0908
13415WAT     H155465   9.220   1.556   6.688 -0.9774 -0.5500 -0.1702
13415WAT     H255466   9.069   1.552   6.673 -1.4594 -1.1351  3.8438
13415WAT    EPW55467   9.141   1.584   6.712 -0.2995  0.9606  0.4175
13416WAT      O55468   1.167   7.653   2.930 -0.6403 -0.2319 -0.0703
13416WAT     H155469   1.102   7.724   2.934  0.5336  0.8770 -0.2392
13416WAT     H255470   1.168   7.627   2.838 -0.9876 -0.4038 -0.0296
13416WAT    EPW55471   1.158   7.659   2.918 -0.5313 -0.1080 -0.0871
13417WAT      O55472   3.618   5.657   5.703 -0.0400  0.4115 -0.3620
13417WAT     H155473   3.535   5.647   5.656  1.1249  0.2186 -2.5202
13417WAT     H255474   3.682   5.611   5.649  1.4517  0.3070  1.3850
13417WAT    EPW55475   3.615   5.650   5.690  0.3104  0.3722 -0.4163
13418WAT      O55476   0.622   2.142   8.381 -0.5782  0.8626  1.0815
13418WAT     H155477   0.555   2.178   8.439 -1.6990  0.1534  0.2533
13418WAT     H255478   0.609   2.186   8.297  0.0565  0.7753  0.9265
13418WAT    EPW55479   0.612   2.153   8.378 -0.6423  0.7575  0.9518
13419WAT      O55480   2.790   9.164   1.187  0.5668 -0.2007 -0.5242
13419WAT     H155481   2.871   9.133   1.146  1.8570  1.2917  0.7702
13419WAT     H255482   2.760   9.089   1.239 -0.1434 -1.5126 -2.6795
13419WAT    EPW55483   2.797   9.150   1.189  0.6434 -0.1769 -0.6377
13420WAT      O55484   2.656   8.145   1.254 -0.8993  0.0818  0.2003
13420WAT     H155485   2.728   8.106   1.303 -1.2089 -0.2719  0.3857
13420WAT     H255486   2.616   8.207   1.316 -0.1167  1.0573 -0.2527
13420WAT    EPW55487   2.660   8.148   1.269 -0.8370  0.1640  0.1649
13421WAT      O55488   0.291   6.665   7.978  0.0651 -0.6459  0.7374
13421WAT     H155489   0.262   6.735   8.037  0.3494  0.1106 -0.0076
13421WAT     H255490   0.346   6.610   8.033  1.4761  0.8112  0.8599
13421WAT    EPW55491   0.294   6.667   7.993  0.2887 -0.3541  0.6554
13422WAT      O55492   7.606   0.775   0.289  0.0104  0.0435  0.7076
13422WAT     H155493   7.599   0.867   0.263  1.3339  0.1337  0.6029
13422WAT     H255494   7.554   0.770   0.370 -0.2424  0.8356  0.6075
13422WAT    EPW55495   7.598   0.787   0.297  0.1514  0.1598  0.6806
13423WAT      O55496  10.809   4.361   7.761 -0.6076  0.3828  0.1117
13423WAT     H155497  10.814   4.436   7.821 -2.7517  0.5261  0.1895
13423WAT     H255498  10.900   4.346   7.734  0.0069  2.3657  0.8740
13423WAT    EPW55499  10.822   4.369   7.765 -0.8097  0.6633  0.2224
13424WAT      O55500   7.146   4.067   2.512  0.6231  0.4972 -0.3369
13424WAT     H155501   7.062   4.068   2.558  1.4394  1.3994  1.2198
13424WAT     H255502   7.126   4.030   2.426 -2.0931  3.7802 -1.3571
13424WAT    EPW55503   7.133   4.062   2.507  0.3724  1.0493 -0.2660
13425WAT      O55504   2.250   0.987   5.254  0.8016  0.0816  0.2562
13425WAT     H155505   2.166   0.942   5.247  1.7514 -1.5475 -1.4024
13425WAT     H255506   2.311   0.933   5.204  2.0109  3.3132 -2.0674
13425WAT    EPW55507   2.247   0.974   5.247  1.0864  0.2930 -0.2689
13426WAT      O55508   7.678   9.018   0.535 -0.4259  0.6980 -0.0778
13426WAT     H155509   7.651   9.038   0.446  0.9308  0.5532 -0.5526
13426WAT     H255510   7.751   8.956   0.524 -0.6821  0.1424  1.1538
13426WAT    EPW55511   7.684   9.012   0.522 -0.2809  0.6056  0.0220
13427WAT      O55512   4.481   4.154   7.733 -0.0786  0.5336  0.5208
13427WAT     H155513   4.438   4.068   7.740  0.6917 -0.1205 -1.7739
13427WAT     H255514   4.416   4.210   7.691 -0.0468  0.6715  0.6523
13427WAT    EPW55515   4.467   4.150   7.729  0.0272  0.4654  0.2353
13428WAT      O55516   6.824   9.522   0.390  0.0570  0.4982 -0.1465
13428WAT     H155517   6.737   9.485   0.406 -0.5674  1.2666 -1.6059
13428WAT     H255518   6.875   9.494   0.465 -0.7920 -2.0113 -0.4003
13428WAT    EPW55519   6.819   9.513   0.402 -0.1373  0.2685 -0.3725
13429WAT      O55520   3.391   3.495   6.516  0.0495  0.1857  0.1033
13429WAT     H155521   3.432   3.581   6.522 -0.8734  0.6635 -0.2180
13429WAT     H255522   3.312   3.510   6.464 -0.8877 -0.5590  1.2563
13429WAT    EPW55523   3.386   3.508   6.510 -0.1960  0.1504  0.2127
13430WAT      O55524   7.482   6.439   1.552 -0.4947  0.3600 -0.3053
13430WAT     H155525   7.439   6.412   1.471 -2.6579 -1.1618  1.1999
13430WAT     H255526   7.415   6.489   1.599  0.6813  1.1762  0.5616
13430WAT    EPW55527   7.467   6.442   1.548 -0.6249  0.2670  0.0075
13431WAT      O55528   8.245   0.045   0.354  0.1354 -0.2759 -0.8169
13431WAT     H155529   8.173  -0.015   0.374 -0.2945 -0.0101 -1.5405
13431WAT     H255530   8.282   0.012   0.273  0.8786 -0.4490 -0.4146
13431WAT    EPW55531   8.240   0.033   0.346  0.1764 -0.2637 -0.8592
13432WAT      O55532   1.202   2.827   4.667 -0.0514  0.7819  0.0135
13432WAT     H155533   1.203   2.863   4.579  0.2357 -1.8355 -1.1350
13432WAT     H255534   1.270   2.875   4.714  1.1873  0.8500 -1.7850
13432WAT    EPW55535   1.211   2.838   4.662  0.1499  0.4457 -0.3753
13433WAT      O55536   3.609   5.737   0.588  0.3780  0.9152 -0.2482
13433WAT     H155537   3.566   5.816   0.619  1.0615  0.3093  2.5802
13433WAT     H255538   3.679   5.721   0.652  0.3134 -1.9247 -0.7439
13433WAT    EPW55539   3.613   5.745   0.601  0.4597  0.4609  0.0595
13434WAT      O55540   2.563   7.214   5.485 -0.3190 -0.6973 -0.0130
13434WAT     H155541   2.476   7.184   5.510 -0.2174 -0.4763  0.6145
13434WAT     H255542   2.547   7.280   5.418 -0.6409 -0.5351  0.2221
13434WAT    EPW55543   2.550   7.219   5.480 -0.3481 -0.6466  0.1009
13435WAT      O55544   0.532   0.782   6.352  0.6366  0.6399 -0.5999
13435WAT     H155545   0.581   0.846   6.300  1.1576 -0.8665 -2.0397
13435WAT     H255546   0.596   0.749   6.414  1.1913 -0.5105 -1.7402
13435WAT    EPW55547   0.547   0.786   6.353  0.7785  0.2895 -0.9403
13436WAT      O55548   4.005   1.849   8.631  0.1031  0.1851  0.5973
13436WAT     H155549   3.920   1.812   8.652 -0.3060 -0.1142 -1.4231
13436WAT     H255550   4.059   1.831   8.709 -0.7673 -2.4584  0.6679
13436WAT    EPW55551   4.001   1.842   8.644 -0.0656 -0.2030  0.3400
13437WAT      O55552  10.768   1.875   7.018  0.3034 -0.0489 -0.5056
13437WAT     H155553  10.761   1.809   6.949 -0.0779 -1.0383  0.4500
13437WAT     H255554  10.678   1.905   7.032  0.1175 -1.0916  0.7082
13437WAT    EPW55555  10.755   1.870   7.011  0.2289 -0.3169 -0.2191
13438WAT      O55556   2.567   0.824   8.311 -0.2073 -0.1701 -0.1769
13438WAT     H155557   2.590   0.849   8.221 -1.9453 -0.9922 -0.9048
13438WAT     H255558   2.482   0.779   8.302  0.2985 -1.6175  1.6926
13438WAT    EPW55559   2.559   0.821   8.298 -0.3697 -0.4694 -0.0262
13439WAT      O55560   9.801   7.770   2.713  0.1674 -0.1348 -0.0118
13439WAT     H155561   9.816   7.817   2.796 -2.3477 -0.6588  0.8103
13439WAT     H255562   9.879   7.714   2.704 -0.6182 -2.1420  3.5108
13439WAT    EPW55563   9.813   7.769   2.723 -0.2680 -0.4687  0.5612
13440WAT      O55564   4.158   3.848   8.304  0.1385  0.0572 -0.3521
13440WAT     H155565   4.171   3.792   8.228 -0.9848  1.9429 -2.0300
13440WAT     H255566   4.076   3.817   8.342 -0.3487  0.3795 -1.1230
13440WAT    EPW55567   4.149   3.836   8.299 -0.0737  0.3486 -0.6752
13441WAT      O55568  10.214   6.655   6.879  0.5428  0.0363  0.3017
13441WAT     H155569  10.149   6.587   6.860  0.5696  0.6492 -2.3353
13441WAT     H255570  10.256   6.625   6.960 -1.5160 -1.4811  0.9057
13441WAT    EPW55571  10.211   6.642   6.887  0.2747 -0.0827  0.0334
13442WAT      O55572   6.716   9.450   0.067 -0.6147  0.3721  0.1275
13442WAT     H155573   6.634   9.410   0.097 -0.8972  0.4342 -0.5489
13442WAT     H255574   6.778   9.377   0.063 -0.2032  0.5554  2.0597
13442WAT    EPW55575   6.713   9.435   0.071 -0.5977  0.4046  0.2933
13443WAT      O55576   2.618   7.369   7.357  0.2561  0.3992 -0.0232
13443WAT     H155577   2.584   7.398   7.442  1.0200  1.7031 -0.1381
13443WAT     H255578   2.657   7.284   7.374 -0.7182  0.0707  0.6563
13443WAT    EPW55579   2.618   7.362   7.370  0.2283  0.5279  0.0513
13444WAT      O55580   9.556  10.174   7.658 -0.0148 -0.1826 -0.3360
13444WAT     H155581   9.520  10.181   7.747 -1.7874  1.6777 -1.1074
13444WAT     H255582   9.647  10.148   7.671  1.0130  3.8339  2.3037
13444WAT    EPW55583   9.563  10.171   7.672 -0.1135  0.5922 -0.0896
13445WAT      O55584   1.910   9.189   8.614  0.0137  0.0828  0.1916
13445WAT     H155585   1.840   9.209   8.552 -0.7001 -2.3316  0.1320
13445WAT     H255586   1.864   9.171   8.696  0.5523 -1.3332  0.2040
13445WAT    EPW55587   1.895   9.190   8.617 -0.0094 -0.4220  0.1855
13446WAT      O55588   4.919   7.909   3.540  0.3389 -0.4273  0.2507
13446WAT     H155589   4.835   7.947   3.567  0.8603  2.6217 -1.8172
13446WAT     H255590   4.982   7.945   3.603  0.1463 -3.2496  2.2142
13446WAT    EPW55591   4.916   7.919   3.552  0.3819 -0.3972  0.2370
13447WAT      O55592   2.377   6.879   5.191  0.0992 -0.1672  0.5643
13447WAT     H155593   2.428   6.806   5.157  0.6663  0.6762 -0.4598
13447WAT     H255594   2.442   6.939   5.228 -0.2365  0.4109  0.2352
13447WAT    EPW55595   2.392   6.877   5.192  0.1297  0.0205  0.3858
13448WAT      O55596   8.248   0.480   0.154  0.0791  0.6215  0.8512
13448WAT     H155597   8.270   0.422   0.081 -1.3507  0.6928  0.3121
13448WAT     H255598   8.293   0.562   0.135 -1.3401  1.0936 -0.7230
13448WAT    EPW55599   8.257   0.483   0.142 -0.2971  0.6932  0.5725
13449WAT      O55600   2.954   6.432   5.715  0.0399  0.4787 -0.1908
13449WAT     H155601   2.913   6.376   5.781  0.1481  0.2940 -0.2800
13449WAT     H255602   3.043   6.445   5.746  0.3604 -0.3342 -0.7445
13449WAT    EPW55603   2.960   6.427   5.727  0.0964  0.3471 -0.2759
13450WAT      O55604   0.320   3.103   6.960 -0.2603 -0.0063 -0.0375
13450WAT     H155605   0.242   3.047   6.955  0.1307 -0.4869 -1.1348
13450WAT     H255606   0.366   3.087   6.877  0.0760  1.6470 -0.2011
13450WAT    EPW55607   0.316   3.093   6.948 -0.1644  0.1483 -0.2036
13451WAT      O55608   2.266   4.490   8.975  0.7712  0.4770  0.4871
13451WAT     H155609   2.298   4.432   8.905 -0.9408  0.2901 -0.1949
13451WAT     H255610   2.311   4.573   8.960 -0.3601  0.7889 -1.5678
13451WAT    EPW55611   2.276   4.493   8.964  0.3963  0.4935  0.1259
13452WAT      O55612   0.627   4.447   8.323 -0.4006 -0.2992 -0.0718
13452WAT     H155613   0.548   4.436   8.375  0.5971  0.7498  1.7827
13452WAT     H255614   0.694   4.472   8.387  1.7073 -2.1834 -1.3982
13452WAT    EPW55615   0.626   4.449   8.338  0.0090 -0.4094 -0.0019
13453WAT      O55616  10.948   2.590   8.606  0.4698 -0.1094  0.4196
13453WAT     H155617  11.027   2.594   8.659  0.4483  0.6075  0.4051
13453WAT     H255618  10.969   2.530   8.535  0.1497 -1.9278  1.8065
13453WAT    EPW55619  10.961   2.583   8.604  0.4244 -0.2548  0.6008
13454WAT      O55620   8.393   1.374   0.212  0.0304  0.6862 -0.0925
13454WAT     H155621   8.368   1.320   0.288 -0.3578  0.2755 -0.5003
13454WAT     H255622   8.411   1.460   0.248  1.3872  0.1057  0.6822
13454WAT    EPW55623   8.392   1.378   0.227  0.1583  0.5555 -0.0441
13455WAT      O55624   9.487   7.433   4.431 -0.4934  0.0505 -0.1499
13455WAT     H155625   9.413   7.414   4.373 -0.6913 -0.6652  0.3142
13455WAT     H255626   9.447   7.466   4.511 -0.2317  0.8466 -0.3356
13455WAT    EPW55627   9.472   7.435   4.434 -0.4849  0.0610 -0.1130
13456WAT      O55628   0.749   6.789   8.929  0.2419 -0.2591 -0.1306
13456WAT     H155629   0.827   6.841   8.946 -0.6892  0.8067  1.1050
13456WAT     H255630   0.722   6.813   8.841 -0.1737  1.4042  0.4125
13456WAT    EPW55631   0.756   6.799   8.920  0.0643  0.1009  0.1044
13457WAT      O55632   7.701   4.984   7.832 -0.4598 -1.1704  0.0248
13457WAT     H155633   7.746   5.006   7.750 -1.0634  0.3824  0.0802
13457WAT     H255634   7.648   4.907   7.810 -2.1370  0.3587 -1.6425
13457WAT    EPW55635   7.700   4.977   7.818 -0.7606 -0.7641 -0.1876
13458WAT      O55636  10.815   2.359   4.694 -0.1583  0.3113 -0.4814
13458WAT     H155637  10.810   2.349   4.789 -1.0763 -1.6840 -0.6976
13458WAT     H255638  10.771   2.442   4.677 -1.3640 -0.0483  0.7268
13458WAT    EPW55639  10.809   2.369   4.704 -0.4387  0.0008 -0.3502
13459WAT      O55640   5.109   7.916   0.331  0.0673 -0.5180 -0.0977
13459WAT     H155641   5.171   7.989   0.341  3.3495 -3.2828  1.8570
13459WAT     H255642   5.097   7.907   0.237 -0.3829  2.3534 -0.4178
13459WAT    EPW55643   5.115   7.925   0.320  0.4408 -0.5040  0.1179
13460WAT      O55644   3.335   3.259   7.763 -0.4032  0.2107  0.2929
13460WAT     H155645   3.352   3.257   7.857  0.2041  2.7089  0.3052
13460WAT     H255646   3.359   3.171   7.733 -3.9912 -1.9130  2.8907
13460WAT    EPW55647   3.341   3.247   7.771 -0.7962  0.2601  0.6373
13461WAT      O55648   3.670   2.565   8.475  0.4794  0.6126 -0.0229
13461WAT     H155649   3.720   2.592   8.553  1.9016  0.8649 -0.9787
13461WAT     H255650   3.661   2.646   8.425  2.6538 -0.1132 -1.7526
13461WAT    EPW55651   3.676   2.579   8.479  0.9539  0.5502 -0.3772
13462WAT      O55652   6.510   8.935   7.761 -0.2620 -0.4001  0.5886
13462WAT     H155653   6.417   8.935   7.784 -0.1751  0.7387  1.0330
13462WAT     H255654   6.520   9.013   7.705  0.6628  0.2776  1.6493
13462WAT    EPW55655   6.499   8.945   7.757 -0.1283 -0.1607  0.7873
13463WAT      O55656   7.916   8.924   1.467  0.1001 -0.8046 -0.3190
13463WAT     H155657   7.986   8.968   1.418  1.2773 -0.5813  1.4708
13463WAT     H255658   7.904   8.841   1.421  2.1764 -1.2334 -0.1862
13463WAT    EPW55659   7.924   8.919   1.454  0.5291 -0.8316 -0.0654
13464WAT      O55660   3.468   4.090   8.262 -0.4213  0.1638 -0.1263
13464WAT     H155661   3.526   4.157   8.227  0.1425 -0.4578 -0.4122
13464WAT     H255662   3.456   4.114   8.354 -0.8595  1.0788 -0.4102
13464WAT    EPW55663   3.474   4.102   8.270 -0.4046  0.2022 -0.2012
13465WAT      O55664  10.053   5.982   7.021  0.3749 -0.0062 -0.1406
13465WAT     H155665  10.053   6.042   7.095  0.2938  2.2519 -1.8601
13465WAT     H255666  10.144   5.979   6.992  0.1915  0.2488 -0.7707
13465WAT    EPW55667  10.065   5.990   7.027  0.3400  0.3252 -0.4504
13466WAT      O55668   9.133   3.379   6.644  0.1529 -1.0940  0.3693
13466WAT     H155669   9.215   3.329   6.647 -0.0546 -1.5558 -0.9859
13466WAT     H255670   9.160   3.469   6.660  0.8680 -1.3041  0.4012
13466WAT    EPW55671   9.147   3.384   6.647  0.2203 -1.1826  0.1945
13467WAT      O55672   7.190   9.452   1.103 -0.0464 -0.1030 -0.0028
13467WAT     H155673   7.219   9.543   1.097 -2.2200  0.6290 -0.5793
13467WAT     H255674   7.096   9.458   1.116 -0.8927 -2.2015 -3.5691
13467WAT    EPW55675   7.181   9.465   1.104 -0.4447 -0.2832 -0.5491
13468WAT      O55676  10.462   3.484   6.356  0.7590  0.2534  0.0335
13468WAT     H155677  10.450   3.389   6.358 -0.3742  0.3949  1.3609
13468WAT     H255678  10.410   3.517   6.429  0.9736  1.9255 -0.5076
13468WAT    EPW55679  10.453   3.476   6.366  0.6385  0.4926  0.1371
13469WAT      O55680   6.092   9.250   0.867  0.4321  0.1222 -0.0773
13469WAT     H155681   6.006   9.230   0.830  0.7242 -1.1749 -0.1191
13469WAT     H255682   6.077   9.323   0.926 -0.0623  2.3853 -2.7692
13469WAT    EPW55683   6.079   9.257   0.870  0.4055  0.2494 -0.4378
13470WAT      O55684   0.913   6.784   8.538 -0.1881  0.1293 -0.6737
13470WAT     H155685   0.842   6.796   8.601  0.0180 -0.0378 -0.4098
13470WAT     H255686   0.942   6.694   8.552  1.2823  0.7402  0.4702
13470WAT    EPW55687   0.907   6.774   8.548  0.0330  0.1879 -0.4883
13471WAT      O55688   1.127   6.263   7.580  0.5724  0.0204 -0.5675
13471WAT     H155689   1.191   6.330   7.556  0.4910 -0.3022 -1.7794
13471WAT     H255690   1.171   6.180   7.559  0.9664 -0.3740  1.6188
13471WAT    EPW55691   1.141   6.261   7.574  0.6136 -0.0744 -0.4389
13472WAT      O55692   2.143   6.543   3.602  0.0184  0.7511  0.2469
13472WAT     H155693   2.184   6.584   3.525 -0.5953  1.6465  0.3787
13472WAT     H255694   2.216   6.506   3.651  0.8924  3.3562  1.1084
13472WAT    EPW55695   2.158   6.544   3.598  0.0527  1.2131  0.3779
13473WAT      O55696   6.379   7.678   0.209  0.6038  0.8097 -0.3587
13473WAT     H155697   6.432   7.755   0.188  3.4894 -0.4720  1.5881
13473WAT     H255698   6.343   7.698   0.296  1.1642  0.1063  0.0439
13473WAT    EPW55699   6.381   7.691   0.218  1.0583  0.5476 -0.0488
13474WAT      O55700   6.120  10.160   0.529  0.0030  0.2571  0.6522
13474WAT     H155701   6.073  10.231   0.484 -3.4003 -2.8963 -1.3767
13474WAT     H255702   6.186  10.132   0.465  1.1380  1.2642  1.3314
13474WAT    EPW55703   6.123  10.166   0.514 -0.2959 -0.0257  0.4742
13475WAT      O55704   0.877   8.260   6.858  0.2065 -0.0544  0.2938
13475WAT     H155705   0.865   8.342   6.811 -0.7660 -1.2796 -1.7599
13475WAT     H255706   0.848   8.193   6.796 -0.0719 -1.8809  2.2807
13475WAT    EPW55707   0.871   8.262   6.843  0.0415 -0.4568  0.2854
13476WAT      O55708   5.744  10.241   1.910 -0.6337  0.0295  1.1324
13476WAT     H155709   5.791  10.303   1.854  1.1482 -1.3040  1.0813
13476WAT     H255710   5.677  10.202   1.852  1.0341 -1.1762 -0.0722
13476WAT    EPW55711   5.741  10.244   1.895 -0.1788 -0.3047  0.9668
13477WAT      O55712   1.767   4.037   4.944  0.1584  0.3010  0.7775
13477WAT     H155713   1.795   4.129   4.942  1.7742 -0.1139  2.2064
13477WAT     H255714   1.722   4.024   4.860 -0.0530  2.3643  0.5201
13477WAT    EPW55715   1.764   4.048   4.932  0.3437  0.5181  0.9320
13478WAT      O55716   0.176   8.624   5.738  0.4273 -0.1308  0.0880
13478WAT     H155717   0.250   8.618   5.799  0.3101 -1.3613  0.1414
13478WAT     H255718   0.212   8.669   5.662  1.2659 -0.7450  0.0984
13478WAT    EPW55719   0.191   8.629   5.736  0.5224 -0.3748  0.0966
13479WAT      O55720   9.580   3.778   6.180  0.0355  0.0604  0.9783
13479WAT     H155721   9.522   3.854   6.191  0.8235  0.6472  1.1439
13479WAT     H255722   9.615   3.787   6.091  0.9661  0.5016  1.3737
13479WAT    EPW55723   9.577   3.790   6.170  0.2623  0.1960  1.0526
13480WAT      O55724   2.608   5.515   5.998 -1.0047  0.2407  1.0303
13480WAT     H155725   2.673   5.452   6.029  0.1286  0.3645 -0.9462
13480WAT     H255726   2.524   5.477   6.024 -0.2414 -0.8343  2.0373
13480WAT    EPW55727   2.606   5.502   6.005 -0.7545  0.1152  0.9024
13481WAT      O55728   6.708   8.239   0.886  0.3006  1.0372  0.1710
13481WAT     H155729   6.709   8.174   0.816 -0.0086 -0.2717  1.3290
13481WAT     H255730   6.798   8.238   0.921  0.3322  1.3326  0.0954
13481WAT    EPW55731   6.720   8.230   0.882  0.2639  0.9036  0.3138
13482WAT      O55732   1.858   2.621   4.935 -0.2136 -0.2674  0.1333
13482WAT     H155733   1.880   2.638   5.027 -0.6950 -2.6946  0.7573
13482WAT     H255734   1.943   2.602   4.894 -0.2771 -2.2001  0.8183
13482WAT    EPW55735   1.872   2.621   4.941 -0.2854 -0.8426  0.3059
13483WAT      O55736   2.833   2.311   8.766  0.2815  0.5595 -0.7794
13483WAT     H155737   2.781   2.392   8.772  1.4663  1.4174 -1.7122
13483WAT     H255738   2.807   2.272   8.682  0.6595  0.6586 -0.9462
13483WAT    EPW55739   2.822   2.317   8.756  0.4876  0.6856 -0.9246
13484WAT      O55740   2.408   3.072   7.145 -0.9294  0.9044  0.2216
13484WAT     H155741   2.397   2.986   7.185 -0.7404  0.0256 -1.5507
13484WAT     H255742   2.499   3.097   7.165 -1.3630  1.3154  1.8365
13484WAT    EPW55743   2.419   3.064   7.153 -0.9617  0.8427  0.2007
13485WAT      O55744   3.071   5.022   7.884  1.0332 -0.2326  0.1624
13485WAT     H155745   3.143   4.966   7.915  1.2667  0.0441  0.1195
13485WAT     H255746   3.020   4.964   7.826  0.6466 -0.7208  0.9762
13485WAT    EPW55747   3.074   5.007   7.880  1.0128 -0.2604  0.2639
13486WAT      O55748   4.674   6.424   0.456  0.0236  0.6578  0.8081
13486WAT     H155749   4.640   6.500   0.503  1.8399  0.7267  2.1172
13486WAT     H255750   4.597   6.368   0.443 -1.0821  2.0441  1.1214
13486WAT    EPW55751   4.659   6.427   0.461  0.1175  0.8497  1.0221
13487WAT      O55752   2.951   3.923   8.394  0.1767 -0.5511  0.5161
13487WAT     H155753   2.886   3.979   8.351 -0.5552 -1.3812  0.4950
13487WAT     H255754   3.032   3.938   8.346  0.0208  0.5363  0.5615
13487WAT    EPW55755   2.953   3.932   8.382  0.0597 -0.5171  0.5193
13488WAT      O55756   2.738   3.380   7.807  0.6120  0.0979 -0.4364
13488WAT     H155757   2.810   3.354   7.865  0.6547  0.7512 -0.1858
13488WAT     H255758   2.732   3.475   7.817  1.4311  0.4209 -2.4168
13488WAT    EPW55759   2.747   3.389   7.816  0.7257  0.2267 -0.6642
13489WAT      O55760   3.272   0.181   8.342 -0.2877  0.1038 -1.0324
13489WAT     H155761   3.241   0.268   8.369  0.0250  0.0456 -0.4734
13489WAT     H255762   3.217   0.159   8.267 -2.2955 -0.4083  0.4844
13489WAT    EPW55763   3.261   0.189   8.336 -0.5112  0.0286 -0.7596
13490WAT      O55764   5.920  10.171   1.194  0.3346  0.0242 -0.5194
13490WAT     H155765   5.942  10.162   1.287  1.3217 -0.6081 -0.7887
13490WAT     H255766   6.003  10.195   1.153  0.3699 -1.5882 -1.4895
13490WAT    EPW55767   5.934  10.173   1.201  0.4694 -0.2718 -0.6829
13491WAT      O55768   4.080   4.237   7.906  0.5111 -0.6695  0.3829
13491WAT     H155769   4.081   4.235   7.810 -1.8112 -1.6498  0.3133
13491WAT     H255770   4.049   4.150   7.931  1.2263 -0.4728  2.0477
13491WAT    EPW55771   4.076   4.226   7.897  0.2990 -0.7725  0.5934
13492WAT      O55772  10.211   0.976   0.412 -0.4278  0.4298 -0.1325
13492WAT     H155773  10.289   0.983   0.357 -0.4669 -1.4137 -0.5058
13492WAT     H255774  10.230   1.030   0.489  0.2449  1.8500 -1.2495
13492WAT    EPW55775  10.224   0.984   0.415 -0.3443  0.3740 -0.3290
13493WAT      O55776  10.587   0.788   1.996  0.1519  0.2370  0.3465
13493WAT     H155777  10.531   0.863   2.014  0.3053  0.3116  0.5221
13493WAT     H255778  10.527   0.716   1.979  0.0053  0.3073  0.5681
13493WAT    EPW55779  10.572   0.789   1.996  0.1531  0.2561  0.3988
13494WAT      O55780   8.773   1.520   0.155  0.3236 -0.0392  0.4150
13494WAT     H155781   8.745   1.432   0.180 -1.5516 -0.0948 -1.6146
13494WAT     H255782   8.869   1.514   0.149  0.3190 -1.5997  1.4199
13494WAT    EPW55783   8.782   1.508   0.157  0.0753 -0.2524  0.2798
13495WAT      O55784   2.908   5.624   6.640  0.0440  0.3006  0.4286
13495WAT     H155785   3.003   5.637   6.647 -0.0804  1.6545 -0.1297
13495WAT     H255786   2.897   5.572   6.560  0.1914  2.3575 -0.9929
13495WAT    EPW55787   2.919   5.619   6.630  0.0471  0.7508  0.1674
13496WAT      O55788   0.932   5.806   1.201  0.0871  0.1878  0.2844
13496WAT     H155789   0.998   5.743   1.230  0.4678 -0.1401 -1.2189
13496WAT     H255790   0.935   5.875   1.267 -1.1117 -1.8158  2.5814
13496WAT    EPW55791   0.941   5.807   1.214 -0.0208 -0.1197  0.3891
13497WAT      O55792   5.603   9.457   0.228  0.6165 -0.1522  0.6638
13497WAT     H155793   5.569   9.397   0.294  1.8380 -0.5909  0.9281
13497WAT     H255794   5.653   9.401   0.168  0.8274  0.4502  0.2654
13497WAT    EPW55795   5.605   9.442   0.229  0.8056 -0.1302  0.6461
13498WAT      O55796   6.825   0.734   1.110 -0.0496 -0.2182 -0.1558
13498WAT     H155797   6.905   0.729   1.163  0.3482  1.8073 -0.4935
13498WAT     H255798   6.845   0.798   1.042 -1.4522 -0.8348 -1.2015
13498WAT    EPW55799   6.838   0.742   1.108 -0.1822 -0.0323 -0.3383
13499WAT      O55800   5.934   1.708   0.033  0.5008  0.0475 -0.1880
13499WAT     H155801   5.861   1.660   0.070 -0.2566  1.7683  0.7027
13499WAT     H255802   6.012   1.657   0.057 -0.3698 -1.7845 -1.1309
13499WAT    EPW55803   5.935   1.695   0.041  0.2861  0.0328 -0.1949
13500WAT      O55804   5.458   7.573   1.342  0.7506 -0.6991 -0.3195
13500WAT     H155805   5.463   7.485   1.305 -0.9668 -0.1347 -2.0810
13500WAT     H255806   5.510   7.568   1.423  1.9556 -2.8824 -1.1382
13500WAT    EPW55807   5.465   7.561   1.348  0.6831 -0.9124 -0.6598
13501WAT      O55808  10.561   0.669   7.362  0.2976  0.0476  0.3356
13501WAT     H155809  10.501   0.659   7.288 -0.3336 -1.2146  0.9817
13501WAT     H255810  10.592   0.759   7.355 -0.1951  0.1399 -1.1226
13501WAT    EPW55811  10.557   0.680   7.351  0.1493 -0.1067  0.2286
13502WAT      O55812   4.268   2.439   6.547 -0.2121  0.4784 -0.4752
13502WAT     H155813   4.263   2.428   6.452  1.2308 -1.3943 -0.4114
13502WAT     H255814   4.183   2.410   6.579 -0.6932  1.0723 -1.1802
13502WAT    EPW55815   4.256   2.434   6.538 -0.0851  0.3096 -0.5598
13503WAT      O55816   2.125   3.748   7.126  0.1881 -0.5392 -0.4997
13503WAT     H155817   2.172   3.669   7.152  3.2554  1.5568  0.8564
13503WAT     H255818   2.181   3.790   7.061 -2.2912 -0.3163 -2.6677
13503WAT    EPW55819   2.139   3.743   7.121  0.2657 -0.2333 -0.6065
13504WAT      O55820   6.300   9.730   0.862 -0.8875  0.0210 -0.0913
13504WAT     H155821   6.232   9.664   0.878 -0.6779 -0.2929 -0.4709
13504WAT     H255822   6.269   9.779   0.786  1.3129 -2.9979 -3.2358
13504WAT    EPW55823   6.287   9.728   0.854 -0.5693 -0.4187 -0.5561
13505WAT      O55824   1.920   6.762   5.944  0.0294  0.4531 -0.1743
13505WAT     H155825   1.867   6.840   5.964 -0.0013  0.6590 -1.0439
13505WAT     H255826   1.903   6.703   6.018  1.8125  2.1371  1.7217
13505WAT    EPW55827   1.911   6.764   5.957  0.2605  0.7026 -0.0389
13506WAT      O55828   5.287   8.120   2.192  0.3253 -0.1924  0.0553
13506WAT     H155829   5.330   8.080   2.268  1.8752  0.0632 -0.6422
13506WAT     H255830   5.308   8.213   2.199  1.9609 -0.3944 -1.5571
13506WAT    EPW55831   5.296   8.127   2.203  0.7455 -0.1850 -0.2494
13507WAT      O55832   3.296  10.320   1.860  0.1575  0.1419  0.3547
13507WAT     H155833   3.286  10.234   1.820  1.1300  0.0474  0.2736
13507WAT     H255834   3.334  10.301   1.946  0.3483  0.4870  0.3481
13507WAT    EPW55835   3.300  10.306   1.866  0.3109  0.1755  0.3431
13508WAT      O55836   0.903   5.068   7.052 -0.0703 -0.3256  1.0040
13508WAT     H155837   0.849   5.121   6.992  0.5517 -0.5104  0.2689
13508WAT     H255838   0.969   5.129   7.084  0.0062 -0.3909  0.9718
13508WAT    EPW55839   0.904   5.083   7.048  0.0218 -0.3583  0.9027
13509WAT      O55840   1.073   9.261   7.813  0.1774  0.7014 -0.6670
13509WAT     H155841   1.020   9.252   7.892  0.6716  0.9822 -0.3012
13509WAT     H255842   1.077   9.355   7.797 -1.2428  0.5996 -1.9428
13509WAT    EPW55843   1.066   9.272   7.821  0.0553  0.7253 -0.7873
13510WAT      O55844   6.608   7.406   2.728 -0.9078  1.0154  0.4569
13510WAT     H155845   6.516   7.413   2.754 -0.8063  2.2782  0.5427
13510WAT     H255846   6.634   7.496   2.709  0.0966  0.5791 -0.3255
13510WAT    EPW55847   6.599   7.419   2.729 -0.7615  1.1246  0.3651
13511WAT      O55848   2.594   7.754   2.323  0.5605  0.2786 -0.4258
13511WAT     H155849   2.527   7.732   2.388  1.3672 -0.4637  0.1627
13511WAT     H255850   2.647   7.822   2.365  0.0759  1.0090 -0.9673
13511WAT    EPW55851   2.592   7.760   2.337  0.6031  0.2773 -0.4196
13512WAT      O55852   3.339   4.428   6.113 -0.2102 -0.0021 -0.6751
13512WAT     H155853   3.349   4.501   6.051 -4.6452  1.1953 -0.2854
13512WAT     H255854   3.408   4.443   6.178  1.7483  1.2475 -2.8696
13512WAT    EPW55855   3.350   4.440   6.114 -0.5369  0.3207 -0.9131
13513WAT      O55856  10.704   6.043   8.335 -0.0156 -0.8001 -0.0731
13513WAT     H155857  10.786   6.071   8.296 -0.3648  0.0399 -0.2324
13513WAT     H255858  10.636   6.086   8.282 -0.5165 -0.2690  0.9729
13513WAT    EPW55859  10.706   6.052   8.323 -0.1273 -0.6192  0.0434
13514WAT      O55860   6.799   2.991   8.849 -0.1636  0.1857  0.1310
13514WAT     H155861   6.790   2.952   8.936 -2.0486  1.1133  0.3967
13514WAT     H255862   6.884   3.035   8.852  1.2069 -2.2930  0.4072
13514WAT    EPW55863   6.809   2.992   8.861 -0.2313 -0.0188  0.2027
13515WAT      O55864  10.338   7.682   8.026  0.3419 -0.6994 -1.1916
13515WAT     H155865  10.297   7.674   7.940  1.2791 -2.2991 -1.5146
13515WAT     H255866  10.430   7.662   8.011  1.0051  1.3318 -0.2078
13515WAT    EPW55867  10.344   7.679   8.013  0.5522 -0.6423 -1.1044
13516WAT      O55868   4.169   5.803   6.052  0.7029  0.3057 -0.3570
13516WAT     H155869   4.105   5.823   6.121  0.5573  0.2895 -0.4886
13516WAT     H255870   4.127   5.736   5.998  1.8939 -1.7466  1.1212
13516WAT    EPW55871   4.155   5.797   6.054  0.8407  0.0329 -0.1791
13517WAT      O55872   1.067   2.526   5.145 -0.0624 -0.1458 -0.3833
13517WAT     H155873   1.046   2.615   5.115 -0.0340  0.1442  0.4363
13517WAT     H255874   1.028   2.521   5.232  0.4092 -0.7531 -0.2071
13517WAT    EPW55875   1.059   2.537   5.152  0.0035 -0.1875 -0.2522
13518WAT      O55876   5.068   8.355   2.230  0.1419  0.1989  0.0841
13518WAT     H155877   5.006   8.390   2.294 -0.1527 -2.1524  1.1725
13518WAT     H255878   5.013   8.332   2.154 -0.4787 -2.1599  1.1567
13518WAT    EPW55879   5.052   8.357   2.228  0.0210 -0.4220  0.3691
13519WAT      O55880  10.593   5.933   6.565  0.3278  0.2671 -0.0863
13519WAT     H155881  10.532   5.873   6.522 -1.5772  1.6909  0.4957
13519WAT     H255882  10.601   5.900   6.654 -2.3967  1.9086  0.8848
13519WAT    EPW55883  10.586   5.921   6.571 -0.2832  0.6714  0.1185
13520WAT      O55884   7.771   8.581   2.914 -0.7570  0.1925  0.7359
13520WAT     H155885   7.686   8.562   2.874 -0.6828  1.7391 -0.2375
13520WAT     H255886   7.763   8.671   2.945  0.7892  0.6644 -0.1400
13520WAT    EPW55887   7.759   8.590   2.912 -0.5434  0.4587  0.4920
13521WAT      O55888   6.803   0.081   0.408  0.1669  0.4661 -0.7558
13521WAT     H155889   6.824   0.012   0.471  2.3358 -0.1986 -2.0846
13521WAT     H255890   6.743   0.040   0.346 -0.6963  0.6302 -0.0406
13521WAT    EPW55891   6.798   0.066   0.408  0.3390  0.4001 -0.8367
13522WAT      O55892   2.400   1.925   7.190  0.6935  0.2369  0.3232
13522WAT     H155893   2.364   1.960   7.271 -1.7222  0.2580 -0.7027
13522WAT     H255894   2.353   1.971   7.120 -0.5883 -2.9575 -1.0799
13522WAT    EPW55895   2.389   1.936   7.191  0.2059 -0.1817  0.0029
13523WAT      O55896   8.585   2.564   5.433 -0.8819  0.0205  0.4264
13523WAT     H155897   8.669   2.535   5.398 -1.6739 -0.8170 -0.8544
13523WAT     H255898   8.594   2.554   5.528  0.3815 -0.2557  0.2926
13523WAT    EPW55899   8.598   2.559   5.441 -0.8197 -0.1262  0.2396
13524WAT      O55900   2.375   6.031   6.219 -0.4021  0.4269  0.0085
13524WAT     H155901   2.333   6.115   6.204  1.2025  1.0819 -1.0148
13524WAT     H255902   2.302   5.971   6.237 -1.7958  1.4861 -1.7303
13524WAT    EPW55903   2.360   6.034   6.219 -0.3743  0.6530 -0.3560
13525WAT      O55904   1.333   7.602   5.370  0.4071  0.5369  0.2294
13525WAT     H155905   1.318   7.605   5.276  1.1582 -0.0875  0.0815
13525WAT     H255906   1.421   7.638   5.381  1.6630 -2.3151  0.3363
13525WAT    EPW55907   1.343   7.608   5.359  0.6718  0.0784  0.2239
13526WAT      O55908   1.126   5.166   8.483 -0.0944  0.1873 -1.2094
13526WAT     H155909   1.156   5.108   8.413  0.3769 -3.3312  1.6453
13526WAT     H255910   1.111   5.108   8.558  1.5018  3.8699  2.3258
13526WAT    EPW55911   1.128   5.151   8.484  0.1783  0.2089 -0.3662
13527WAT      O55912   5.791   7.104   1.096  0.0538 -0.6353 -0.1434
13527WAT     H155913   5.749   7.122   1.012 -0.2262 -1.9584 -0.3048
13527WAT     H255914   5.870   7.158   1.095 -2.1285  2.8202  0.6789
13527WAT    EPW55915   5.796   7.113   1.085 -0.2708 -0.3541 -0.0563
13528WAT      O55916   2.804   4.337   8.896  0.5875  0.2340  1.0015
13528WAT     H155917   2.793   4.337   8.801 -1.8724  0.1556  1.2372
13528WAT     H255918   2.891   4.299   8.909  0.8010 -0.1714 -1.1866
13528WAT    EPW55919   2.814   4.332   8.885  0.2913  0.1702  0.7439
13529WAT      O55920   3.109   4.713   8.429 -0.1195 -0.3002 -0.1800
13529WAT     H155921   3.138   4.677   8.513  0.6268  0.1631 -0.2395
13529WAT     H255922   3.015   4.694   8.427 -0.0870 -0.5913  0.6211
13529WAT    EPW55923   3.100   4.706   8.440 -0.0167 -0.2773 -0.0830
13530WAT      O55924   5.377   7.862   0.449 -0.0624 -0.4654  0.0512
13530WAT     H155925   5.409   7.779   0.485  1.0799 -0.7184 -1.4523
13530WAT     H255926   5.330   7.903   0.522  1.2983 -1.3909  1.5146
13530WAT    EPW55927   5.375   7.857   0.463  0.2675 -0.6208  0.0460
13531WAT      O55928   5.606   8.780   1.432 -0.0007  0.0939 -0.0342
13531WAT     H155929   5.595   8.777   1.337 -0.9935 -0.2595  0.0766
13531WAT     H255930   5.674   8.716   1.450 -2.5212 -2.8583 -0.1877
13531WAT    EPW55931   5.613   8.771   1.422 -0.4640 -0.3419 -0.0398
13532WAT      O55932   1.430   8.150   6.807 -0.2128  1.0346 -0.2294
13532WAT     H155933   1.478   8.184   6.883 -0.9697 -0.2389  0.8714
13532WAT     H255934   1.485   8.172   6.732  1.3299  0.9955  0.8441
13532WAT    EPW55935   1.444   8.157   6.807 -0.1092  0.8612  0.0575
13533WAT      O55936   7.801   0.022   3.726 -0.1611 -0.0513 -0.3774
13533WAT     H155937   7.853   0.079   3.670 -0.4624 -0.0579 -0.6691
13533WAT     H255938   7.714   0.063   3.728  0.2932  0.9671  1.5714
13533WAT    EPW55939   7.796   0.035   3.719 -0.1411  0.0821 -0.1589
13534WAT      O55940   1.842   6.516   7.532 -0.0887 -0.7426  0.1825
13534WAT     H155941   1.800   6.600   7.548 -0.4026 -0.9399  0.4015
13534WAT     H255942   1.935   6.537   7.522 -0.2581 -0.2790 -0.5066
13534WAT    EPW55943   1.849   6.530   7.533 -0.1525 -0.7074  0.1206
13535WAT      O55944   3.661   7.575   3.605 -0.5363  0.8832  1.0585
13535WAT     H155945   3.664   7.517   3.681 -0.1398  2.2128  2.0805
13535WAT     H255946   3.578   7.621   3.613 -0.4605  1.0861  0.7041
13535WAT    EPW55947   3.650   7.573   3.616 -0.4739  1.0853  1.1464
13536WAT      O55948   9.775   2.857   0.706  0.3395  0.2282  0.5026
13536WAT     H155949   9.680   2.864   0.718  0.4310 -0.3586  1.6687
13536WAT     H255950   9.811   2.850   0.794  1.8371  4.0919  0.3738
13536WAT    EPW55951   9.767   2.857   0.719  0.5493  0.6603  0.6394
13537WAT      O55952   1.346   6.129   5.193 -0.1078  0.3186  0.0807
13537WAT     H155953   1.267   6.152   5.241  1.0727  1.8925  1.3508
13537WAT     H255954   1.371   6.209   5.147 -0.4553 -0.7825 -2.1301
13537WAT    EPW55955   1.339   6.142   5.193  0.0021  0.3805 -0.0434
13538WAT      O55956   1.828   3.798   6.570  1.0820  0.5395  0.5834
13538WAT     H155957   1.792   3.772   6.485  0.1466  3.3480  0.0077
13538WAT     H255958   1.792   3.734   6.632 -0.9948  0.3897 -0.6861
13538WAT    EPW55959   1.818   3.786   6.567  0.6847  0.8903  0.3397
13539WAT      O55960   0.159   8.207   7.227 -0.7065  0.5273  0.1593
13539WAT     H155961   0.112   8.288   7.247 -1.9006  0.0206 -0.4907
13539WAT     H255962   0.090   8.143   7.210  0.2214 -0.5913  0.4973
13539WAT    EPW55963   0.144   8.209   7.227 -0.7416  0.3133  0.1178
13540WAT      O55964   7.015   7.626   0.863  0.8754 -0.0424  0.2070
13540WAT     H155965   6.982   7.576   0.789 -0.4017  1.4270 -0.2732
13540WAT     H255966   6.938   7.673   0.897  1.9312  1.3250  0.8237
13540WAT    EPW55967   7.000   7.626   0.858  0.8461  0.3316  0.2250
13541WAT      O55968   9.968   1.557   1.903 -1.0186 -0.5049 -0.5369
13541WAT     H155969   9.891   1.506   1.927 -1.2902  0.3917  0.5593
13541WAT     H255970   9.936   1.646   1.891 -0.4492 -0.4640 -1.8592
13541WAT    EPW55971   9.954   1.562   1.905 -0.9789 -0.3812 -0.5667
13542WAT      O55972   9.819   0.908   0.740 -0.3382 -0.2976  0.2540
13542WAT     H155973   9.734   0.872   0.763  0.4594 -2.5821 -0.1451
13542WAT     H255974   9.880   0.865   0.800  0.8890 -1.0399 -1.4404
13542WAT    EPW55975   9.816   0.898   0.751 -0.0706 -0.6968 -0.0221
13543WAT      O55976   0.198   3.627   8.757  0.6299  0.1806  0.1937
13543WAT     H155977   0.242   3.587   8.682  0.4754 -0.0518  0.2251
13543WAT     H255978   0.183   3.554   8.817  0.7045  0.3560  0.4284
13543WAT    EPW55979   0.202   3.612   8.755  0.6194  0.1731  0.2284
13544WAT      O55980   5.165   9.407   1.013 -0.3594 -0.1186  0.2152
13544WAT     H155981   5.120   9.405   0.928 -0.8986 -0.3038  0.5033
13544WAT     H255982   5.205   9.494   1.016 -0.5552 -0.0133 -0.1250
13544WAT    EPW55983   5.164   9.418   1.002 -0.4563 -0.1292  0.2084
13545WAT      O55984   0.814   4.495   7.432 -0.6110 -0.1682  0.2178
13545WAT     H155985   0.756   4.419   7.428 -1.3108  0.3797 -0.1052
13545WAT     H255986   0.828   4.509   7.526 -1.0333 -0.2710  0.2972
13545WAT    EPW55987   0.808   4.486   7.444 -0.7590 -0.1094  0.1855
13546WAT      O55988   2.827   6.197   1.376 -0.1866 -0.1977  0.4360
13546WAT     H155989   2.893   6.155   1.320  0.5673 -1.2126  1.9941
13546WAT     H255990   2.854   6.289   1.380  1.1497 -0.5819  0.9905
13546WAT    EPW55991   2.840   6.203   1.369  0.0890 -0.3822  0.7147
13547WAT      O55992   2.283   4.600   8.298 -0.6388 -0.2741  0.8992
13547WAT     H155993   2.199   4.624   8.336 -1.2712  0.3451 -0.7996
13547WAT     H255994   2.311   4.677   8.248  1.4777 -0.0746  2.2373
13547WAT    EPW55995   2.276   4.613   8.296 -0.4432 -0.1659  0.8516
13548WAT      O55996   6.676  10.001   2.828 -0.3166 -0.3132 -0.2635
13548WAT     H155997   6.622  10.058   2.883 -2.4612  0.1600 -2.6242
13548WAT     H255998   6.620   9.983   2.752  2.8174  0.1184 -2.8940
13548WAT    EPW55999   6.661  10.006   2.825 -0.1862 -0.1941 -0.9218
13549WAT      O56000   3.859   7.673   5.184  0.0488 -0.3299 -0.1420
13549WAT     H156001   3.833   7.737   5.117 -1.2269 -1.4325 -0.7546
13549WAT     H256002   3.828   7.711   5.266 -2.4969 -0.9815 -0.7071
13549WAT    EPW56003   3.852   7.686   5.186 -0.4551 -0.5615 -0.2971
13550WAT      O56004  10.415   6.141   8.402  0.2331 -0.1378 -0.0929
13550WAT     H156005  10.389   6.053   8.377 -0.4019 -0.3331  1.2155
13550WAT     H256006  10.368   6.198   8.340  0.9482 -0.7079 -1.1897
13550WAT    EPW56007  10.405   6.137   8.391  0.2441 -0.2387 -0.0648
13551WAT      O56008   1.914   8.863   7.770 -0.3095  0.0020 -0.5049
13551WAT     H156009   1.927   8.927   7.840  1.3513 -1.3676  0.4907
13551WAT     H256010   1.984   8.882   7.707  0.8352 -1.4236  0.2864
13551WAT    EPW56011   1.925   8.874   7.771  0.0605 -0.3667 -0.2692
13552WAT      O56012   7.992  10.165   0.288 -0.5786  0.0703 -0.1352
13552WAT     H156013   8.031  10.189   0.372  0.5524 -0.1040 -0.6048
13552WAT     H256014   8.061  10.179   0.224 -2.0135  2.1686 -1.3512
13552WAT    EPW56015   8.006  10.170   0.291 -0.6185  0.3242 -0.3575
13553WAT      O56016   3.147   5.210   7.554  0.4029  0.1692  0.3204
13553WAT     H156017   3.204   5.277   7.593  1.1649 -1.4936  2.2207
13553WAT     H256018   3.060   5.232   7.587  0.5019  0.7277  0.2255
13553WAT    EPW56019   3.143   5.222   7.564  0.5167  0.0236  0.5589
13554WAT      O56020   0.717   5.857   7.215  0.3106  0.4881  0.0939
13554WAT     H156021   0.792   5.813   7.175  0.5645  1.8121 -0.9729
13554WAT     H256022   0.729   5.950   7.193 -1.7192  0.7177 -0.2638
13554WAT    EPW56023   0.728   5.863   7.207  0.0763  0.6931 -0.0942
13555WAT      O56024   8.928   6.608   8.674  0.0608 -0.2352 -0.7736
13555WAT     H156025   8.900   6.582   8.586  0.9436  0.5734 -1.3140
13555WAT     H256026   9.008   6.659   8.660  0.5884 -0.6447  0.5519
13555WAT    EPW56027   8.935   6.612   8.661  0.2470 -0.1824 -0.6700
13556WAT      O56028   2.555   7.027   6.141 -0.0830 -0.8724  0.0428
13556WAT     H156029   2.568   6.963   6.211  0.5019  0.9022  1.6506
13556WAT     H256030   2.543   7.110   6.187  0.4489  0.3865 -1.9801
13556WAT    EPW56031   2.555   7.030   6.156  0.0643 -0.4723 -0.0122
13557WAT      O56032   1.109   7.007   7.202 -0.4213  0.2012  0.7099
13557WAT     H156033   1.084   7.076   7.140  3.2279 -0.2786 -1.5780
13557WAT     H256034   1.119   7.053   7.285  1.8012  2.6117 -0.7164
13557WAT    EPW56035   1.107   7.022   7.205  0.3531  0.4559  0.2201
13558WAT      O56036   1.544   3.681   7.581  0.3407 -1.1120 -0.3672
13558WAT     H156037   1.528   3.766   7.540  0.2490 -1.9289 -2.1062
13558WAT     H256038   1.595   3.632   7.517  4.1297 -1.0024  2.2098
13558WAT    EPW56039   1.549   3.686   7.567  0.8283 -1.2053 -0.2565
13559WAT      O56040   2.291   6.683   6.422  0.4697 -0.1887 -0.2456
13559WAT     H156041   2.302   6.666   6.516 -1.1540  2.7107  0.6116
13559WAT     H256042   2.203   6.650   6.402  1.1395 -1.5639 -0.9875
13559WAT    EPW56043   2.281   6.677   6.432  0.3438  0.0124 -0.2303
13560WAT      O56044   8.684   9.008   7.440  0.0484 -0.1296  0.0375
13560WAT     H156045   8.624   9.070   7.482  0.8158  1.2137 -0.7798
13560WAT     H256046   8.703   8.943   7.508 -1.3518  0.1069  0.6896
13560WAT    EPW56047   8.678   9.008   7.455 -0.0353  0.0787  0.0155
13561WAT      O56048   2.783   5.046   7.046 -0.6976  0.0578  0.3003
13561WAT     H156049   2.782   5.124   7.101  0.9939  0.6347 -0.4222
13561WAT     H256050   2.851   5.063   6.981 -1.8737 -1.0630 -1.3115
13561WAT    EPW56051   2.792   5.059   7.045 -0.6299 -0.0138 -0.0072
13562WAT      O56052   1.753   6.786   7.585 -0.1149 -1.0583 -0.1905
13562WAT     H156053   1.815   6.856   7.601  0.9480 -2.0369  0.1190
13562WAT     H256054   1.686   6.797   7.652  1.4232 -1.8730  1.5585
13562WAT    EPW56055   1.752   6.796   7.596  0.2282 -1.2949  0.0813
13563WAT      O56056   2.413   7.660   7.077 -0.3124 -0.1957 -0.2114
13563WAT     H156057   2.399   7.624   7.165  0.0355  0.2020  0.0084
13563WAT     H256058   2.325   7.667   7.040 -0.5438  0.4465  0.4285
13563WAT    EPW56059   2.400   7.656   7.084 -0.2971 -0.0587 -0.0980
13564WAT      O56060   0.410   9.019   5.798 -0.2916 -0.7982 -0.5091
13564WAT     H156061   0.402   9.102   5.750  0.0490  0.1536  1.0304
13564WAT     H256062   0.341   9.024   5.865  0.0734 -1.5271 -0.0723
13564WAT    EPW56063   0.400   9.030   5.800 -0.1985 -0.7687 -0.2484
13565WAT      O56064  10.120   5.547   6.257 -0.0286 -0.0978  1.0289
13565WAT     H156065  10.150   5.623   6.208  1.9641 -0.5174  1.4663
13565WAT     H256066  10.090   5.582   6.341 -2.1336  0.4815  0.0726
13565WAT    EPW56067  10.120   5.561   6.262 -0.0434 -0.0770  0.9606
13566WAT      O56068   0.958   7.045   4.351 -0.3204  0.1430  0.0543
13566WAT     H156069   0.918   7.114   4.404 -0.9448 -0.0737 -0.1235
13566WAT     H256070   0.936   7.069   4.261 -1.0173 -0.5764  0.0245
13566WAT    EPW56071   0.950   7.058   4.346 -0.4947  0.0198  0.0269
13567WAT      O56072   0.619   9.130   7.418  0.0002 -0.0019  0.3736
13567WAT     H156073   0.610   9.039   7.446 -0.2575 -0.2740 -0.5566
13567WAT     H256074   0.569   9.135   7.336  1.3262  0.5815 -0.4367
13567WAT    EPW56075   0.611   9.119   7.411  0.1411  0.0391  0.1442
13568WAT      O56076   0.844   2.909   3.829 -0.2726 -0.1163  0.3655
13568WAT     H156077   0.823   2.819   3.854 -2.5685  0.4074  0.5369
13568WAT     H256078   0.762   2.943   3.793 -0.5013  2.9176  3.3277
13568WAT    EPW56079   0.830   2.901   3.828 -0.6056  0.3529  0.7789
13569WAT      O56080   2.111   3.050   6.054  0.1332  0.0876 -0.4480
13569WAT     H156081   2.154   3.035   6.138 -0.9489 -0.9714 -0.0520
13569WAT     H256082   2.177   3.096   6.001  0.5192  1.5763  1.2479
13569WAT    EPW56083   2.126   3.054   6.058  0.0414  0.1442 -0.1721
13570WAT      O56084   1.953   1.131   6.415 -0.2475  0.2722 -0.6717
13570WAT     H156085   2.039   1.090   6.404  0.3390  0.9627  1.0495
13570WAT     H256086   1.972   1.215   6.458 -1.7708  0.5539 -0.4969
13570WAT    EPW56087   1.967   1.137   6.419 -0.3711  0.4004 -0.4215
13571WAT      O56088  10.165   7.660   8.226  0.5887 -0.4925 -0.6053
13571WAT     H156089  10.228   7.671   8.155  0.1132  0.4453 -0.8981
13571WAT     H256090  10.082   7.639   8.182  0.1556  0.6753 -0.3801
13571WAT    EPW56091  10.162   7.659   8.211  0.4692 -0.2148 -0.6142
13572WAT      O56092   1.402   8.460   6.753  0.4978  0.0155 -0.3324
13572WAT     H156093   1.423   8.492   6.840  0.9825  2.1116 -1.1623
13572WAT     H256094   1.341   8.388   6.768 -0.3539  1.0716  1.7081
13572WAT    EPW56095   1.397   8.455   6.766  0.4495  0.4315 -0.1729
13573WAT      O56096   2.426   4.041   7.780 -0.4532  0.0417 -0.1332
13573WAT     H156097   2.443   3.973   7.715  1.0082  0.4266 -0.1832
13573WAT     H256098   2.508   4.089   7.787 -0.8054  0.4833  1.4558
13573WAT    EPW56099   2.439   4.038   7.773 -0.3070  0.1507  0.0699
13574WAT      O56100   1.231   5.794   8.151 -0.1281 -0.2547  0.7798
13574WAT     H156101   1.186   5.723   8.104  0.8202 -0.9346  0.8850
13574WAT     H256102   1.165   5.829   8.210 -1.2248  0.3075 -0.6994
13574WAT    EPW56103   1.216   5.789   8.152 -0.1478 -0.2701  0.5984
13575WAT      O56104   7.672   8.032   1.162 -0.1505 -0.0510 -0.6611
13575WAT     H156105   7.609   8.077   1.106  1.1484 -0.0285 -2.1578
13575WAT     H256106   7.758   8.059   1.129  0.6670 -2.4741 -0.7176
13575WAT    EPW56107   7.675   8.041   1.150  0.1287 -0.3672 -0.8659
13576WAT      O56108   2.817   7.500   4.913 -0.1123  0.2087  0.4381
13576WAT     H156109   2.850   7.423   4.960  1.9362  1.9942  2.1093
13576WAT     H256110   2.896   7.545   4.884 -1.2883  1.4750 -0.9303
13576WAT    EPW56111   2.832   7.495   4.915  0.0026  0.6111  0.4780
13577WAT      O56112   6.848   2.391   6.795  0.7094  0.4138  0.1186
13577WAT     H156113   6.842   2.472   6.746  0.3134  0.2068 -0.1882
13577WAT     H256114   6.941   2.371   6.798  0.6912 -0.0023 -1.2877
13577WAT    EPW56115   6.859   2.399   6.789  0.6549  0.3316 -0.1075
13578WAT      O56116  10.864   8.973   4.784 -0.5257 -0.2023 -0.5182
13578WAT     H156117  10.923   8.899   4.769 -0.3826 -0.5761  1.5484
13578WAT     H256118  10.902   9.018   4.859 -1.6445  0.8900 -0.5878
13578WAT    EPW56119  10.877   8.969   4.792 -0.6542 -0.1082 -0.2546
13579WAT      O56120   4.362   5.711   1.776  0.5080 -0.4323 -0.4349
13579WAT     H156121   4.363   5.679   1.685 -1.6589 -1.3207 -0.2143
13579WAT     H256122   4.321   5.797   1.770 -1.9505 -1.4775 -0.1377
13579WAT    EPW56123   4.357   5.718   1.763 -0.1018 -0.6871 -0.3667
13580WAT      O56124  10.636   3.767   0.451  0.1658  0.1848  0.6268
13580WAT     H156125  10.651   3.834   0.385  0.2469  0.4193  0.8810
13580WAT     H256126  10.545   3.741   0.440  0.4619 -0.5078 -0.2510
13580WAT    EPW56127  10.626   3.772   0.441  0.2151  0.1242  0.5446
13581WAT      O56128  10.980   2.907   8.935  0.3696  0.6768 -0.0173
13581WAT     H156129  10.897   2.902   8.983  1.8410  1.2241  2.7888
13581WAT     H256130  11.047   2.895   9.002  2.6087  0.2185 -2.1848
13581WAT    EPW56131  10.978   2.905   8.950  0.8588  0.6886  0.0672
13582WAT      O56132   9.938   0.771   0.462  0.4174  0.2301 -0.0846
13582WAT     H156133   9.900   0.817   0.537 -2.2618  0.1916 -1.2949
13582WAT     H256134   9.937   0.835   0.391  0.1784 -0.5591 -0.8186
13582WAT    EPW56135   9.933   0.786   0.463  0.0319  0.1210 -0.3410
13583WAT      O56136   7.494   9.088   2.094  0.7227  0.2184  0.4100
13583WAT     H156137   7.452   9.002   2.098  0.7992  0.1695  0.1807
13583WAT     H256138   7.551   9.083   2.017  0.5512  0.5536  0.2630
13583WAT    EPW56139   7.496   9.076   2.085  0.7100  0.2561  0.3604
13584WAT      O56140   0.322   4.594   8.930  0.3944 -0.1114  0.3731
13584WAT     H156141   0.317   4.592   8.834 -0.4407 -1.5461  0.4281
13584WAT     H256142   0.320   4.688   8.952 -0.3952  0.2113 -0.9595
13584WAT    EPW56143   0.321   4.606   8.920  0.1802 -0.2580  0.2046
13585WAT      O56144   1.254   7.744   8.511 -0.7180 -0.2083  0.5742
13585WAT     H156145   1.317   7.764   8.442 -0.2590  0.5879  1.2047
13585WAT     H256146   1.283   7.797   8.586 -2.3590  0.4843  0.7620
13585WAT    EPW56147   1.266   7.753   8.512 -0.8739 -0.0119  0.6819
13586WAT      O56148   3.062   6.202   6.598  0.2018 -0.0724  0.3174
13586WAT     H156149   3.050   6.297   6.592  0.7322 -0.0996 -2.2482
13586WAT     H256150   3.106   6.179   6.517 -0.6434 -2.6422  0.5165
13586WAT    EPW56151   3.066   6.212   6.586  0.1603 -0.4151  0.0055
13587WAT      O56152   0.270   1.940   0.931  0.0419 -0.1813 -0.0703
13587WAT     H156153   0.228   1.986   1.003 -1.8658 -2.7695  0.6139
13587WAT     H256154   0.244   1.988   0.852 -3.1198 -0.8200  0.4617
13587WAT    EPW56155   0.261   1.952   0.930 -0.6267 -0.6069  0.0901
13588WAT      O56156   5.063   9.231   2.342 -0.6092 -0.0646  0.0016
13588WAT     H156157   5.029   9.144   2.321 -1.5456 -0.0827  1.4661
13588WAT     H256158   4.995   9.292   2.312 -0.0699  0.1774 -0.7845
13588WAT    EPW56159   5.050   9.228   2.335 -0.6616 -0.0348  0.0910
13589WAT      O56160   8.762   1.665   3.768 -0.2471 -0.0483 -0.3003
13589WAT     H156161   8.760   1.757   3.742 -1.0001 -0.2848 -1.1407
13589WAT     H256162   8.774   1.617   3.686 -1.8702 -0.7893 -0.1306
13589WAT    EPW56163   8.764   1.671   3.754 -0.5608 -0.1772 -0.3887
13590WAT      O56164   3.531   3.366   8.772  0.2787  0.4391 -0.2385
13590WAT     H156165   3.573   3.446   8.741 -0.6117  0.3707 -1.7171
13590WAT     H256166   3.491   3.390   8.856  0.6760  1.3181 -0.2953
13590WAT    EPW56167   3.531   3.380   8.779  0.2136  0.5461 -0.4411
13591WAT      O56168   0.462   5.243   8.347 -0.2641 -0.0916  0.0082
13591WAT     H156169   0.380   5.290   8.333  0.3556  0.6492 -1.4473
13591WAT     H256170   0.509   5.252   8.263  0.4164 -2.2496  0.1005
13591WAT    EPW56171   0.458   5.251   8.334 -0.0926 -0.2785 -0.1712
13592WAT      O56172   9.439   7.992   4.892 -0.1179 -0.2304  0.4024
13592WAT     H156173   9.486   7.927   4.841  2.2200  1.5064  0.1541
13592WAT     H256174   9.428   7.952   4.978  0.0703 -1.4458 -0.1249
13592WAT    EPW56175   9.444   7.978   4.897  0.2151 -0.1614  0.2999
13593WAT      O56176   1.552   1.257   8.216  0.4717  0.2534  0.3082
13593WAT     H156177   1.534   1.240   8.308  0.6408 -0.2484  0.2521
13593WAT     H256178   1.491   1.327   8.193 -0.0901 -0.1169  0.6143
13593WAT    EPW56179   1.541   1.264   8.225  0.4199  0.1384  0.3414
13594WAT      O56180   8.858   1.325   0.703  0.3664 -0.1006 -0.9521
13594WAT     H156181   8.774   1.359   0.733  1.7933  0.9384  2.2410
13594WAT     H256182   8.894   1.396   0.649  1.0997  1.5098  1.4818
13594WAT    EPW56183   8.851   1.339   0.700  0.6509  0.2488 -0.2099
13595WAT      O56184   2.365   5.996   6.637  0.1798 -0.0825 -0.5121
13595WAT     H156185   2.384   6.070   6.579  0.6022  1.0116  0.9497
13595WAT     H256186   2.321   6.036   6.712  3.4768 -0.6587  1.9859
13595WAT    EPW56187   2.362   6.011   6.639  0.6704 -0.0136  0.0100
13596WAT      O56188   5.346   9.992   0.264  0.5012 -1.0042 -0.5572
13596WAT     H156189   5.424   9.979   0.210  0.2536 -1.1101 -0.8947
13596WAT     H256190   5.352   9.924   0.331  1.2869 -0.2897  0.1151
13596WAT    EPW56191   5.357   9.981   0.266  0.5722 -0.9241 -0.5130
13597WAT      O56192   3.936   3.620   8.023  0.4871 -0.5112 -0.4363
13597WAT     H156193   3.911   3.532   8.053  1.6631 -1.0474 -0.9570
13597WAT     H256194   4.016   3.640   8.072 -0.5762  0.9422  0.8107
13597WAT    EPW56195   3.943   3.611   8.034  0.5020 -0.3903 -0.3405
13598WAT      O56196   1.554   5.571   7.906 -0.0880 -0.3564  0.7578
13598WAT     H156197   1.621   5.522   7.955 -1.9461 -2.0999  1.6910
13598WAT     H256198   1.527   5.640   7.966  1.4475  0.9419  0.0276
13598WAT    EPW56199   1.559   5.573   7.921 -0.1307 -0.4151  0.7846
13599WAT      O56200   2.843   4.481   8.249 -0.2289 -0.4680  1.2144
13599WAT     H156201   2.769   4.488   8.189  1.0407  1.9958 -0.2311
13599WAT     H256202   2.825   4.546   8.318  0.3784 -0.0981  1.0385
13599WAT    EPW56203   2.831   4.491   8.250  0.0186 -0.0942  1.0004
13600WAT      O56204   3.624   3.329   6.653  0.0537  0.4545 -0.2749
13600WAT     H156205   3.710   3.371   6.656 -0.6101  1.8124  0.8391
13600WAT     H256206   3.562   3.401   6.641 -1.0851 -0.2393  1.1288
13600WAT    EPW56207   3.627   3.344   6.652 -0.1839  0.5420  0.0572
13601WAT      O56208   7.355   9.693   1.332 -0.0888  0.2056  0.5255
13601WAT     H156209   7.394   9.747   1.401 -1.5528 -1.2687  2.6567
13601WAT     H256210   7.352   9.605   1.370 -0.9902 -0.6675 -1.4418
13601WAT    EPW56211   7.360   9.688   1.346 -0.4005 -0.1035  0.5471
13602WAT      O56212   4.820   7.836   4.244  0.5405  0.7411  0.2879
13602WAT     H156213   4.732   7.861   4.274  1.6971  2.3099  2.6290
13602WAT     H256214   4.870   7.822   4.324  2.5685  0.2695 -0.9822
13602WAT    EPW56215   4.815   7.838   4.259  0.9606  0.8860  0.4294
13603WAT      O56216   9.976   2.665   0.281  0.0517  0.0889 -0.6742
13603WAT     H156217  10.003   2.738   0.225  2.3647 -0.1530  0.0407
13603WAT     H256218   9.994   2.587   0.228  0.6723 -0.0768 -0.2199
13603WAT    EPW56219   9.982   2.665   0.266  0.4387  0.0350 -0.5200
13604WAT      O56220   0.159   5.437   6.452  0.1725 -0.0619 -0.7249
13604WAT     H156221   0.089   5.379   6.480 -0.0425  0.9721  1.0813
13604WAT     H256222   0.115   5.511   6.411  0.2472  0.1613 -0.4100
13604WAT    EPW56223   0.144   5.439   6.450  0.1540  0.1042 -0.4451
13605WAT      O56224   1.291   6.916   6.967 -0.2527 -0.4172  0.0620
13605WAT     H156225   1.203   6.898   6.933 -1.2820  3.2194  0.4136
13605WAT     H256226   1.277   6.946   7.056  1.5078 -0.8252  0.5173
13605WAT    EPW56227   1.278   6.917   6.974 -0.1562  0.0086  0.1683
13606WAT      O56228   1.757   7.428   6.980 -0.0819  0.0450  0.0412
13606WAT     H156229   1.834   7.392   7.024  0.4111  0.7382 -0.2290
13606WAT     H256230   1.720   7.355   6.931  0.5545 -0.2343 -0.0251
13606WAT    EPW56231   1.762   7.414   6.979  0.0671  0.0997 -0.0031
13607WAT      O56232   3.631   7.291   2.394 -0.0797 -0.5557  0.3021
13607WAT     H156233   3.596   7.213   2.437  1.1489 -2.3413 -1.7350
13607WAT     H256234   3.720   7.298   2.429 -0.7467  1.0926  1.8320
13607WAT    EPW56235   3.638   7.281   2.405 -0.0056 -0.5736  0.2352
13608WAT      O56236   3.951   4.646   8.391  0.4373 -0.1484  0.3571
13608WAT     H156237   3.864   4.654   8.353 -1.0898 -2.9394  2.7534
13608WAT     H256238   3.948   4.700   8.470  1.2887  0.6231 -0.1308
13608WAT    EPW56239   3.939   4.654   8.396  0.3482 -0.4148  0.6089
13609WAT      O56240   3.433   6.430   5.888  0.6098  0.6069  0.4741
13609WAT     H156241   3.438   6.392   5.975  0.7765 -0.0282  0.1918
13609WAT     H256242   3.480   6.369   5.832 -1.3786 -0.1497 -0.4565
13609WAT    EPW56243   3.440   6.417   5.892  0.3694  0.4234  0.3142
13610WAT      O56244   2.990   4.661   5.186 -0.2297  0.5286 -0.3415
13610WAT     H156245   2.966   4.716   5.112  2.4553  1.8079 -0.3764
13610WAT     H256246   2.981   4.718   5.262 -0.2948  0.0859 -0.0154
13610WAT    EPW56247   2.986   4.676   5.186  0.1160  0.6390 -0.3033
13611WAT      O56248   3.451   2.554   8.211 -0.0692  0.3802 -0.1373
13611WAT     H156249   3.489   2.547   8.124  0.5115 -0.0128  0.1416
13611WAT     H256250   3.497   2.628   8.251 -0.9272  1.1024 -0.4498
13611WAT    EPW56251   3.462   2.563   8.205 -0.1057  0.4237 -0.1416
13612WAT      O56252   2.129   9.240   6.441 -0.2740 -0.4816 -0.8916
13612WAT     H156253   2.040   9.233   6.476  1.1298 -2.6525  2.7919
13612WAT     H256254   2.171   9.157   6.464  3.6399  1.6159  0.5623
13612WAT    EPW56255   2.123   9.228   6.449  0.4274 -0.4916 -0.2139
13613WAT      O56256   3.099   3.788   8.056 -0.1781 -0.2141  0.9596
13613WAT     H156257   3.072   3.778   7.965 -1.3250 -0.8949  1.3406
13613WAT     H256258   3.146   3.707   8.076  0.4362  0.1160  0.8570
13613WAT    EPW56259   3.102   3.776   8.047 -0.2483 -0.2605  0.9966
13614WAT      O56260   0.639   8.695   4.610 -0.1565 -0.0083  0.3838
13614WAT     H156261   0.638   8.715   4.704 -0.1816  2.3525 -0.0579
13614WAT     H256262   0.576   8.757   4.572  1.9832  1.1450 -1.5227
13614WAT    EPW56263   0.630   8.706   4.618  0.1224  0.4549  0.0744
13615WAT      O56264   8.999   1.341   0.222  0.2376  0.0878 -0.8682
13615WAT     H156265   9.057   1.286   0.274 -0.0877  1.6072  1.1905
13615WAT     H256266   8.930   1.280   0.192 -0.4096 -0.6281  1.7718
13615WAT    EPW56267   8.997   1.325   0.225  0.1092  0.1938 -0.2485
13616WAT      O56268   1.865   7.902   5.226  0.7272 -0.9169 -0.5834
13616WAT     H156269   1.813   7.883   5.304 -2.7761 -1.9147 -2.9274
13616WAT     H256270   1.860   7.997   5.217  0.8330 -0.8337  0.1143
13616WAT    EPW56271   1.858   7.912   5.235  0.2791 -1.0374 -0.8004
13617WAT      O56272   3.291   7.184   4.449  0.1430  0.1672 -0.4115
13617WAT     H156273   3.305   7.094   4.478  0.8276 -0.0197 -1.2853
13617WAT     H256274   3.342   7.191   4.368 -1.9911  0.5673 -1.7865
13617WAT    EPW56275   3.300   7.173   4.442 -0.0483  0.1953 -0.7079
13618WAT      O56276  10.224   1.252   0.935 -1.1181 -0.7379 -0.1416
13618WAT     H156277  10.300   1.257   0.994 -1.3411  1.7597  0.0368
13618WAT     H256278  10.256   1.290   0.853 -1.4751 -2.0690 -0.9264
13618WAT    EPW56279  10.239   1.258   0.932 -1.1945 -0.5841 -0.2216
13619WAT      O56280  10.545   9.894   1.468  0.1489 -0.8206  0.3037
13619WAT     H156281  10.605   9.958   1.507  1.2345  0.4422 -3.0787
13619WAT     H256282  10.549   9.819   1.527  0.0386  1.5372  3.6334
13619WAT    EPW56283  10.553   9.893   1.481  0.2770 -0.3433  0.2968
13620WAT      O56284   1.984   2.715   7.258 -0.1538 -0.1153  0.5625
13620WAT     H156285   2.033   2.716   7.339  1.0505 -1.3914 -0.1189
13620WAT     H256286   1.936   2.632   7.258 -1.4024  0.5737  0.6651
13620WAT    EPW56287   1.984   2.705   7.268 -0.1596 -0.1926  0.4864
13621WAT      O56288   1.080   5.499   6.964 -0.1494 -1.0915 -0.1006
13621WAT     H156289   1.100   5.586   6.997  0.0164 -1.0114 -0.4099
13621WAT     H256290   0.996   5.477   7.005  0.2940 -1.2062  0.7666
13621WAT    EPW56291   1.071   5.508   6.973 -0.0691 -1.0962 -0.0269
13622WAT      O56292   8.675   0.364   0.605  0.4904  0.5061 -0.1732
13622WAT     H156293   8.686   0.301   0.676  0.8557  0.4262 -0.2958
13622WAT     H256294   8.581   0.370   0.592  0.4373  0.2580  0.0830
13622WAT    EPW56295   8.664   0.357   0.613  0.5312  0.4628 -0.1556
13623WAT      O56296   6.282   5.549   8.513  0.4070  0.1374  0.4444
13623WAT     H156297   6.187   5.552   8.527  0.3113  1.2197 -0.3445
13623WAT     H256298   6.295   5.476   8.452  0.1385 -0.3263  0.9372
13623WAT    EPW56299   6.271   5.540   8.507  0.3588  0.2189  0.4048
13624WAT      O56300   1.486   7.748   6.929  0.2666  1.0148  0.3035
13624WAT     H156301   1.415   7.697   6.889  2.8383 -2.9128  0.0987
13624WAT     H256302   1.462   7.752   7.022  0.2228 -1.3995  0.4804
13624WAT    EPW56303   1.473   7.742   6.936  0.6000  0.1786  0.2997
13625WAT      O56304   0.391   5.027   6.692 -0.3055  0.5887 -0.0028
13625WAT     H156305   0.484   5.011   6.681 -0.8514 -1.4873 -2.4734
13625WAT     H256306   0.371   4.992   6.779  0.8564 -0.9325 -0.3103
13625WAT    EPW56307   0.400   5.020   6.702 -0.2243  0.1142 -0.3691
13626WAT      O56308   7.196   2.033   0.262 -0.2079  0.0328  0.5932
13626WAT     H156309   7.153   2.083   0.193 -2.1325 -1.8744  0.3146
13626WAT     H256310   7.125   1.990   0.309  1.2674 -1.6088  1.4562
13626WAT    EPW56311   7.181   2.034   0.259 -0.2670 -0.4354  0.6703
13627WAT      O56312   1.102   4.636   1.194  0.4857 -0.9272  0.4570
13627WAT     H156313   1.071   4.663   1.107 -0.7317  1.0900  1.4482
13627WAT     H256314   1.033   4.579   1.227 -0.0398 -0.0664  0.8753
13627WAT    EPW56315   1.089   4.632   1.187  0.2558 -0.5476  0.6429
13628WAT      O56316   3.571   3.866   8.133  0.3595 -0.7249 -0.7543
13628WAT     H156317   3.575   3.851   8.039 -1.6238 -0.1739 -0.9690
13628WAT     H256318   3.503   3.933   8.144  1.6380  0.3855  0.9610
13628WAT    EPW56319   3.563   3.873   8.122  0.2667 -0.5057 -0.5560
13629WAT      O56320   7.666   0.363   2.425 -0.1288  0.5679 -0.1854
13629WAT     H156321   7.665   0.317   2.509  3.0070 -3.2374 -1.9340
13629WAT     H256322   7.601   0.317   2.372  0.7988  0.1896 -1.0204
13629WAT    EPW56323   7.657   0.351   2.429  0.4072  0.0161 -0.5261
13630WAT      O56324   2.001   4.109   8.510 -0.3304 -0.4281  0.4729
13630WAT     H156325   1.940   4.066   8.569  0.8673  0.3022  2.3369
13630WAT     H256326   2.087   4.093   8.549  0.3962  1.1181 -0.4007
13630WAT    EPW56327   2.004   4.101   8.523 -0.0765 -0.1278  0.6037
13631WAT      O56328   1.581   7.252   7.889  0.1403 -0.9456  0.2338
13631WAT     H156329   1.630   7.305   7.952 -1.4573  1.1310 -0.1372
13631WAT     H256330   1.551   7.315   7.824 -0.7275 -2.5735 -1.0059
13631WAT    EPW56331   1.583   7.267   7.889 -0.1849 -0.8864  0.0212
13632WAT      O56332   1.492   8.624   7.353  0.7102  0.5255 -0.0947
13632WAT     H156333   1.466   8.715   7.339 -1.2629 -0.2505 -2.1705
13632WAT     H256334   1.492   8.613   7.448 -0.4630  2.3232  0.1578
13632WAT    EPW56335   1.489   8.635   7.363  0.2952  0.6609 -0.3355
13633WAT      O56336   1.491   6.827   7.738 -0.8849 -0.2158 -0.1749
13633WAT     H156337   1.401   6.829   7.772  0.0040  1.6764  2.4588
13633WAT     H256338   1.513   6.919   7.723  1.3945 -0.3230  1.8127
13633WAT    EPW56339   1.482   6.840   7.741 -0.4670  0.0198  0.4346
13634WAT      O56340   0.609   4.042   8.369 -0.3177 -0.1406 -0.4695
13634WAT     H156341   0.703   4.024   8.380  0.0932  0.8623 -2.0438
13634WAT     H256342   0.605   4.105   8.297 -2.2711 -0.7509 -0.9416
13634WAT    EPW56343   0.621   4.048   8.361 -0.5212 -0.0887 -0.7391
13635WAT      O56344   2.727   4.449   6.577  0.5557  0.0067 -0.2930
13635WAT     H156345   2.701   4.380   6.516 -1.2157  1.2630 -1.0659
13635WAT     H256346   2.779   4.404   6.644 -0.8915 -2.1623 -0.5198
13635WAT    EPW56347   2.730   4.434   6.578  0.1312 -0.1137 -0.4249
13636WAT      O56348   2.173   6.940   7.330  0.8504  0.6247 -0.7452
13636WAT     H156349   2.167   6.986   7.414 -0.4870 -0.9551  0.0685
13636WAT     H256350   2.255   6.891   7.336  0.5855  0.2358 -0.1882
13636WAT    EPW56351   2.183   6.940   7.342  0.6390  0.3648 -0.5646
13637WAT      O56352   2.549   4.417   7.657 -0.1980 -0.1865 -0.5418
13637WAT     H156353   2.616   4.356   7.685 -0.3384  0.0162  0.2526
13637WAT     H256354   2.468   4.385   7.698 -0.7756 -0.9291 -2.1758
13637WAT    EPW56355   2.547   4.405   7.666 -0.2928 -0.2577 -0.6526
13638WAT      O56356   3.440   5.468   6.204  0.5261 -0.5122  0.0810
13638WAT     H156357   3.464   5.441   6.115 -0.7257 -2.6124  0.3306
13638WAT     H256358   3.467   5.395   6.259 -1.0163 -0.3458  1.1039
13638WAT    EPW56359   3.447   5.455   6.199  0.1576 -0.7675  0.2487
13639WAT      O56360   6.542   8.987   0.112 -0.1761 -0.4387  0.0764
13639WAT     H156361   6.532   9.079   0.091 -1.3044 -0.2383  1.3348
13639WAT     H256362   6.480   8.972   0.184  2.0515 -1.4809  1.9093
13639WAT    EPW56363   6.533   8.997   0.119 -0.0310 -0.5498  0.4841
13640WAT      O56364   2.253   4.236   7.439  0.6111  0.0615  0.4003
13640WAT     H156365   2.281   4.260   7.351  1.8051 -0.8318  0.5164
13640WAT     H256366   2.232   4.143   7.433 -0.9964  0.3603  0.6786
13640WAT    EPW56367   2.254   4.227   7.426  0.5566 -0.0167  0.4525
13641WAT      O56368   1.280   6.099   5.614  0.2767 -0.1152  1.0386
13641WAT     H156369   1.283   6.006   5.636 -3.0292 -0.1991  1.6225
13641WAT     H256370   1.259   6.101   5.521  0.6054  0.0503  0.9668
13641WAT    EPW56371   1.277   6.087   5.605 -0.1159 -0.1044  1.1063
13642WAT      O56372   1.156   8.255   7.962 -0.0387 -0.1472 -0.6211
13642WAT     H156373   1.207   8.216   8.033 -1.2726 -1.8977 -0.6544
13642WAT     H256374   1.218   8.261   7.889  0.9246  0.6002  0.2242
13642WAT    EPW56375   1.171   8.251   7.961 -0.0743 -0.2799 -0.5138
13643WAT      O56376   4.680   5.887   8.741  0.1457 -0.0543 -0.2146
13643WAT     H156377   4.755   5.829   8.725  0.1364 -0.3326  0.7021
13643WAT     H256378   4.610   5.851   8.687  0.8779  0.6909 -1.7293
13643WAT    EPW56379   4.681   5.875   8.732  0.2408  0.0074 -0.2933
13644WAT      O56380   2.180   6.999   6.937  0.1780  0.2129 -0.3568
13644WAT     H156381   2.265   6.969   6.966 -0.0991 -1.2624 -0.9730
13644WAT     H256382   2.118   6.958   6.997 -0.2698 -1.3511 -1.8153
13644WAT    EPW56383   2.183   6.990   6.948  0.0823 -0.1881 -0.6304
13645WAT      O56384   2.452   3.568   7.976  0.7999 -0.3702  0.6640
13645WAT     H156385   2.516   3.616   7.923 -2.6176  1.8549 -1.8641
13645WAT     H256386   2.435   3.488   7.927 -0.5921  0.5641 -0.4674
13645WAT    EPW56387   2.458   3.564   7.962  0.1656  0.0465  0.1812
13646WAT      O56388   3.228   4.135   8.764 -0.8210  0.1786 -0.0365
13646WAT     H156389   3.258   4.221   8.795 -0.2542 -0.1295  0.2964
13646WAT     H256390   3.221   4.083   8.844 -1.2602 -0.0569 -0.2278
13646WAT    EPW56391   3.231   4.140   8.779 -0.8042  0.1068 -0.0176
13647WAT      O56392   1.081   6.879   7.535 -0.0073  0.0155  0.5653
13647WAT     H156393   1.112   6.864   7.624 -0.4108  0.3607  0.7707
13647WAT     H256394   1.126   6.958   7.507  0.1196 -0.0931  0.4630
13647WAT    EPW56395   1.091   6.887   7.543 -0.0437  0.0467  0.5786
13648WAT      O56396   0.067   3.640   5.261  0.0890  0.8368 -0.0031
13648WAT     H156397   0.141   3.700   5.272 -1.2565  2.4504  0.7139
13648WAT     H256398  -0.004   3.696   5.229 -2.0883  0.3250  3.4267
13648WAT    EPW56399   0.067   3.656   5.258 -0.3757  0.9822  0.5438
13649WAT      O56400   2.205   4.800   8.628 -0.7530  0.8270 -0.0658
13649WAT     H156401   2.122   4.757   8.608 -0.7047  0.5789  0.2494
13649WAT     H256402   2.225   4.852   8.551 -0.1481 -0.7553 -1.0422
13649WAT    EPW56403   2.197   4.801   8.616 -0.6670  0.5856 -0.1526
13650WAT      O56404  10.044  10.283   0.072 -1.1668 -0.3297 -0.3693
13650WAT     H156405  10.103  10.306   0.144  1.5449 -0.5452 -2.3555
13650WAT     H256406   9.958  10.274   0.113 -0.1879  1.6728  2.4470
13650WAT    EPW56407  10.040  10.285   0.087 -0.6795 -0.0944 -0.2598
13651WAT      O56408   7.468   3.067   2.845  0.4108  0.0893  0.0964
13651WAT     H156409   7.451   3.065   2.939  3.2082  1.8395  0.7464
13651WAT     H256410   7.547   3.014   2.833  0.5305  0.5060 -1.1699
13651WAT    EPW56411   7.476   3.059   2.855  0.7958  0.3752  0.0150
13652WAT      O56412   4.051   6.201   4.307 -0.1177 -0.4209  0.2166
13652WAT     H156413   3.984   6.209   4.239  0.7190 -2.2652 -0.9311
13652WAT     H256414   4.050   6.285   4.352 -2.3083  0.0425 -0.5698
13652WAT    EPW56415   4.042   6.213   4.304 -0.2964 -0.6030 -0.0384
13653WAT      O56416   1.324   5.149   4.576 -0.6624  0.8126  0.5466
13653WAT     H156417   1.264   5.091   4.529  0.5415  0.5911 -0.7742
13653WAT     H256418   1.378   5.090   4.628  0.4259  0.7275 -0.6387
13653WAT    EPW56419   1.323   5.134   4.577 -0.3601  0.7720  0.2158
13654WAT      O56420   3.280   1.117   7.643 -0.5853 -0.5167  0.3614
13654WAT     H156421   3.370   1.083   7.637 -0.2645  0.1208  1.3944
13654WAT     H256422   3.287   1.195   7.697 -1.3718  1.0435 -1.6861
13654WAT    EPW56423   3.293   1.123   7.649 -0.6466 -0.2269  0.2272
13655WAT      O56424   1.339   5.418   7.207  0.1860  0.0529 -0.6112
13655WAT     H156425   1.386   5.429   7.124 -0.9364  2.3348 -1.0275
13655WAT     H256426   1.396   5.361   7.259  0.8411 -1.6209 -2.9723
13655WAT    EPW56427   1.353   5.412   7.203  0.1244  0.1333 -0.9773
13656WAT      O56428   4.546   5.554   8.353  0.5029  0.6046 -0.4769
13656WAT     H156429   4.482   5.483   8.350  0.8250  0.3020 -0.2750
13656WAT     H256430   4.548   5.589   8.263  2.4519 -1.5486 -1.3633
13656WAT    EPW56431   4.538   5.550   8.341  0.8025  0.2809 -0.5670
13657WAT      O56432   9.900   7.965   6.628 -0.1488  0.4291 -0.0007
13657WAT     H156433   9.924   7.975   6.720 -0.2861 -2.3517  0.4388
13657WAT     H256434   9.983   7.967   6.581 -0.1900  3.8591 -0.1835
13657WAT    EPW56435   9.914   7.966   6.634 -0.1726  0.5147  0.0331
13658WAT      O56436   5.203   2.107   8.870 -0.0728 -0.4554  0.5946
13658WAT     H156437   5.233   2.041   8.807 -1.4247  1.1128 -1.8587
13658WAT     H256438   5.273   2.172   8.872 -0.1686 -0.3494  0.4811
13658WAT    EPW56439   5.217   2.107   8.862 -0.2637 -0.2345  0.2565
13659WAT      O56440  10.927   6.796   8.473 -0.3049 -0.6242  0.3130
13659WAT     H156441  10.876   6.794   8.392  1.7180 -2.5407 -1.0244
13659WAT     H256442  10.865   6.770   8.541 -1.0450 -3.6275 -1.3397
13659WAT    EPW56443  10.912   6.793   8.471 -0.1359 -1.2732 -0.0815
13660WAT      O56444   1.294   7.973   7.042 -0.2830 -0.3703  0.0579
13660WAT     H156445   1.372   7.938   6.999  0.0433 -0.5714  0.8021
13660WAT     H256446   1.258   7.899   7.091 -2.3318 -0.9889 -2.1357
13660WAT    EPW56447   1.299   7.959   7.042 -0.5102 -0.4785 -0.1333
13661WAT      O56448   7.166   7.113   5.600  0.6160 -0.1032  0.1130
13661WAT     H156449   7.105   7.141   5.668  0.1531 -0.5612 -0.1074
13661WAT     H256450   7.181   7.021   5.617  0.4523 -0.2368 -0.4302
13661WAT    EPW56451   7.160   7.105   5.611  0.5336 -0.1814  0.0122
13662WAT      O56452   2.546   7.385   7.087  0.1834  0.4939  0.2176
13662WAT     H156453   2.571   7.376   7.179  2.1721  0.8011 -0.2351
13662WAT     H256454   2.521   7.477   7.078 -2.2758 -0.0448  0.9007
13662WAT    EPW56455   2.546   7.396   7.098  0.1215  0.4632  0.2480
13663WAT      O56456   7.495   1.558   0.908  0.1467  0.0597 -0.0367
13663WAT     H156457   7.510   1.652   0.909 -1.0424  0.3108  2.9221
13663WAT     H256458   7.428   1.545   0.841 -0.4214  1.4780  0.2209
13663WAT    EPW56459   7.488   1.569   0.899 -0.0849  0.2799  0.3875
13664WAT      O56460   3.389   4.012   7.786  0.1461  0.2803 -0.3343
13664WAT     H156461   3.484   4.020   7.792  0.0103  1.0955  1.9705
13664WAT     H256462   3.370   4.011   7.692  2.5536 -2.1103 -0.9137
13664WAT    EPW56463   3.399   4.013   7.775  0.4457  0.0725 -0.1068
13665WAT      O56464   6.820   6.606   2.108  0.3442  0.0859  0.4252
13665WAT     H156465   6.738   6.564   2.081  2.2762 -2.0214 -2.9635
13665WAT     H256466   6.834   6.575   2.197 -1.4887 -1.2627  0.3103
13665WAT    EPW56467   6.811   6.596   2.116  0.3572 -0.3700 -0.0370
13666WAT      O56468  10.244   5.966   4.424  0.3909 -0.0203  0.3459
13666WAT     H156469  10.169   5.969   4.484  1.2310  2.9611  1.4370
13666WAT     H256470  10.207   5.939   4.340 -1.5780 -0.2033  1.2239
13666WAT    EPW56471  10.229   5.963   4.421  0.2418  0.3488  0.6056
13667WAT      O56472   2.317   6.714   8.586 -0.5173  0.0928  0.2898
13667WAT     H156473   2.233   6.738   8.548 -0.3647  0.8100  0.3999
13667WAT     H256474   2.299   6.633   8.635 -0.6923 -0.9152 -1.3636
13667WAT    EPW56475   2.303   6.706   8.588 -0.5201  0.0546  0.0863
13668WAT      O56476   2.902   7.458   7.656 -0.3468  0.1321 -0.1412
13668WAT     H156477   2.841   7.520   7.617  1.7233  1.7981 -0.9269
13668WAT     H256478   2.951   7.423   7.581  0.4889 -0.2170  0.5555
13668WAT    EPW56479   2.901   7.461   7.641  0.0366  0.3059 -0.1531
13669WAT      O56480   0.517   6.019   7.899  0.1247 -0.4704  0.1487
13669WAT     H156481   0.551   6.074   7.828 -1.1837 -1.0063 -0.9293
13669WAT     H256482   0.457   5.958   7.856 -2.3992  0.5697  1.9747
13669WAT    EPW56483   0.514   6.018   7.884 -0.3808 -0.4039  0.2475
13670WAT      O56484   8.578   7.755   0.807  0.5670  0.1096 -0.8556
13670WAT     H156485   8.494   7.753   0.854  0.0702  0.7178 -1.6851
13670WAT     H256486   8.567   7.824   0.741  2.2337  1.2554 -0.0316
13670WAT    EPW56487   8.565   7.764   0.805  0.7215  0.3409 -0.8563
13671WAT      O56488   1.688   7.290   3.202 -0.4230 -0.3385 -0.9036
13671WAT     H156489   1.773   7.331   3.218 -0.9965  1.0028 -1.2237
13671WAT     H256490   1.688   7.270   3.109 -0.9166  0.7725 -1.1568
13671WAT    EPW56491   1.699   7.292   3.192 -0.5637 -0.0150 -0.9793
13672WAT      O56492   1.596   7.689   5.799 -0.7276  0.2174  0.2606
13672WAT     H156493   1.687   7.719   5.793 -0.1475 -1.3948  0.3113
13672WAT     H256494   1.563   7.727   5.880 -0.2324  1.1202  0.0519
13672WAT    EPW56495   1.604   7.698   5.809 -0.5857  0.1237  0.2394
13673WAT      O56496   1.078   1.041   6.414 -0.2277  0.6855 -0.8473
13673WAT     H156497   1.089   1.123   6.366 -0.8615  1.1247 -0.2743
13673WAT     H256498   1.041   1.068   6.498  0.1664 -0.1323 -0.3970
13673WAT    EPW56499   1.074   1.056   6.419 -0.2593  0.6355 -0.7124
13674WAT      O56500  10.648   7.653   8.076 -0.0371  0.4001 -0.5474
13674WAT     H156501  10.631   7.575   8.129  0.1601  1.3877  1.0265
13674WAT     H256502  10.694   7.619   7.999 -0.0211 -1.0425  0.0547
13674WAT    EPW56503  10.652   7.638   8.073 -0.0091  0.3402 -0.2604
13675WAT      O56504  10.374   9.652   8.124 -0.0685 -0.1108 -0.2334
13675WAT     H156505  10.427   9.573   8.116  1.6963  0.9020  0.7232
13675WAT     H256506  10.290   9.629   8.085  0.2232 -2.5920  0.4232
13675WAT    EPW56507  10.370   9.639   8.118  0.2031 -0.3052 -0.0205
13676WAT      O56508   8.419   2.041   0.229  0.3904  0.2981  0.2038
13676WAT     H156509   8.422   1.973   0.161 -1.0307 -0.8214  1.2100
13676WAT     H256510   8.510   2.068   0.239  1.4400 -3.2003  1.4379
13676WAT    EPW56511   8.431   2.036   0.221  0.3414 -0.3110  0.4993
13677WAT      O56512   3.368   6.041   5.421  0.6415  1.2022 -0.0606
13677WAT     H156513   3.454   6.081   5.416  0.1083  2.2341 -1.5119
13677WAT     H256514   3.373   5.965   5.363  1.0118  0.3361  1.0609
13677WAT    EPW56515   3.380   6.036   5.413  0.6201  1.2240 -0.1042
13678WAT      O56516   3.065   0.246   7.086 -0.0390  0.2051 -0.2301
13678WAT     H156517   3.137   0.275   7.143 -1.0761  1.2021  0.6187
13678WAT     H256518   3.094   0.269   6.997  1.1578 -0.4359 -0.0296
13678WAT    EPW56519   3.078   0.253   7.082 -0.0180  0.2521 -0.0916
13679WAT      O56520   7.409   0.550   1.070  0.1655 -0.9064  0.5854
13679WAT     H156521   7.317   0.531   1.051 -0.7921  2.9795  0.3606
13679WAT     H256522   7.428   0.626   1.015  3.4685 -1.4129  0.8614
13679WAT    EPW56523   7.399   0.558   1.060  0.4747 -0.4607  0.5922
13680WAT      O56524   9.281   0.080   0.582 -0.7963 -0.0715 -0.0631
13680WAT     H156525   9.334   0.152   0.619 -1.6447  0.4750  0.1235
13680WAT     H256526   9.328   0.001   0.608 -0.8259  0.3374  1.3724
13680WAT    EPW56527   9.295   0.079   0.590 -0.9127  0.0545  0.1509
13681WAT      O56528   0.613   1.917   1.155 -0.0508 -0.4867 -0.1294
13681WAT     H156529   0.549   1.937   1.223 -0.7859 -0.1809 -0.8880
13681WAT     H256530   0.691   1.966   1.180 -0.5374  0.1688  0.1353
13681WAT    EPW56531   0.615   1.926   1.167 -0.2120 -0.3599 -0.1946
13682WAT      O56532   9.457   6.967   5.600 -0.4942  0.0843 -0.2324
13682WAT     H156533   9.515   7.012   5.540  0.5620 -0.5051  0.3237
13682WAT     H256534   9.477   6.875   5.589 -1.1792 -0.1136  0.1144
13682WAT    EPW56535   9.467   6.961   5.591 -0.4458 -0.0198 -0.1132
13683WAT      O56536   0.427   2.678   6.924  0.3678 -0.0590  0.3312
13683WAT     H156537   0.405   2.751   6.982  2.0821 -0.5258  1.6629
13683WAT     H256538   0.373   2.605   6.954 -0.6074  0.3722 -0.3453
13683WAT    EPW56539   0.417   2.678   6.935  0.4653 -0.0638  0.4177
13684WAT      O56540   7.321   2.533   0.671  0.6146 -0.0904 -0.0982
13684WAT     H156541   7.303   2.588   0.595  0.2764  1.2921  0.9363
13684WAT     H256542   7.236   2.492   0.692  0.9228 -1.2735 -1.0251
13684WAT    EPW56543   7.307   2.535   0.664  0.6106 -0.0641 -0.0840
13685WAT      O56544  10.991   3.013   0.563 -0.1695  0.2947  0.3481
13685WAT     H156545  11.015   2.988   0.473 -0.2761  0.2425  0.3344
13685WAT     H256546  11.071   2.998   0.613  0.1859  1.2479  0.0886
13685WAT    EPW56547  11.005   3.008   0.558 -0.1367  0.4135  0.3120
13686WAT      O56548   2.228   6.588   8.258  0.3986  0.2138  0.6112
13686WAT     H156549   2.162   6.652   8.284  0.1339  0.1800  0.0310
13686WAT     H256550   2.216   6.516   8.320 -0.8023 -0.2409 -0.1260
13686WAT    EPW56551   2.218   6.587   8.270  0.2053  0.1495  0.4382
13687WAT      O56552   0.853   8.470   4.582 -0.0984 -0.0000 -0.2646
13687WAT     H156553   0.810   8.554   4.596 -1.3402 -0.1808 -2.5616
13687WAT     H256554   0.946   8.491   4.578 -0.4875  1.5587 -2.4045
13687WAT    EPW56555   0.860   8.484   4.584 -0.3135  0.1817 -0.8500
13688WAT      O56556   2.116   7.884   7.334 -0.3109 -0.1585 -0.1318
13688WAT     H156557   2.121   7.979   7.326  1.3491 -0.2421 -0.4593
13688WAT     H256558   2.064   7.869   7.413 -0.4438  1.0135  0.0212
13688WAT    EPW56559   2.110   7.895   7.343 -0.1096 -0.0148 -0.1547
13689WAT      O56560   5.393   8.411   0.822 -0.2731 -0.6065 -0.5549
13689WAT     H156561   5.420   8.441   0.735 -0.6455 -0.0767 -0.4916
13689WAT     H256562   5.422   8.480   0.881 -1.4968 -0.1662 -0.4508
13689WAT    EPW56563   5.400   8.424   0.818 -0.4835 -0.4783 -0.5329
13690WAT      O56564   0.777   6.309   6.576 -0.0909  0.4402 -0.2539
13690WAT     H156565   0.801   6.218   6.557 -0.9439  0.3445 -0.9266
13690WAT     H256566   0.767   6.312   6.671 -1.6164 -0.5806 -0.3553
13690WAT    EPW56567   0.779   6.298   6.586 -0.4047  0.2930 -0.3560
13691WAT      O56568   2.480   6.603   6.211  0.6371  0.0733 -0.2976
13691WAT     H156569   2.547   6.537   6.228 -0.5880 -1.1975 -0.1444
13691WAT     H256570   2.430   6.609   6.292  0.0946  0.4226 -0.6468
13691WAT    EPW56571   2.482   6.595   6.224  0.4040 -0.0482 -0.3235
13692WAT      O56572   0.565   2.481   1.782 -0.0015  0.3322 -0.4780
13692WAT     H156573   0.643   2.486   1.727  1.5352 -3.5888  1.0259
13692WAT     H256574   0.591   2.427   1.856 -4.0859 -0.9237  0.2707
13692WAT    EPW56575   0.579   2.475   1.785 -0.3375 -0.3506 -0.1808
13693WAT      O56576   9.140   2.718   0.033 -0.3169 -0.1346 -0.1132
13693WAT     H156577   9.101   2.648  -0.020  2.8516 -0.3674 -2.4248
13693WAT     H256578   9.224   2.683   0.061 -0.4893  1.2527  2.4564
13693WAT    EPW56579   9.146   2.704   0.029  0.0777  0.0178 -0.0791
13694WAT      O56580   2.532   6.199   5.674  0.6946  0.6824 -0.9646
13694WAT     H156581   2.478   6.132   5.716  0.9200  0.5071 -0.9463
13694WAT     H256582   2.504   6.281   5.713  0.0539  0.6615 -1.3617
13694WAT    EPW56583   2.521   6.201   5.684  0.6398  0.6564 -1.0147
13695WAT      O56584   4.219   5.897   8.719 -0.1901 -0.2452  0.0108
13695WAT     H156585   4.244   5.954   8.647 -1.8522  0.2959 -0.1761
13695WAT     H256586   4.208   5.811   8.679  0.4280 -0.2793 -0.0804
13695WAT    EPW56587   4.221   5.893   8.705 -0.3281 -0.1786 -0.0257
13696WAT      O56588   1.167   5.617   7.920  0.6899 -0.1141  0.5704
13696WAT     H156589   1.080   5.601   7.885  1.3160 -2.8794  0.0593
13696WAT     H256590   1.222   5.634   7.844  0.9364 -0.1672  0.7333
13696WAT    EPW56591   1.163   5.617   7.906  0.8049 -0.4859  0.5245
13697WAT      O56592  10.053   1.947   0.804  0.3046 -0.4572  0.3054
13697WAT     H156593  10.130   1.967   0.857  0.3035  0.5206 -0.0270
13697WAT     H256594   9.980   1.948   0.867  0.4534 -0.4754  0.4796
13697WAT    EPW56595  10.054   1.950   0.819  0.3242 -0.3306  0.2846
13698WAT      O56596   5.178   4.953   7.642 -0.2663  0.1255 -0.0772
13698WAT     H156597   5.245   4.934   7.576  0.3108 -0.3737  0.6399
13698WAT     H256598   5.126   4.873   7.647  1.3670 -0.8916  2.0107
13698WAT    EPW56599   5.180   4.940   7.634  0.0253 -0.0744  0.2928
13699WAT      O56600   0.804   7.996   6.756  0.0302 -0.3683  0.4243
13699WAT     H156601   0.733   7.942   6.721 -0.2878  0.3800 -0.1054
13699WAT     H256602   0.873   7.932   6.778  0.3927 -0.8917 -1.9079
13699WAT    EPW56603   0.804   7.980   6.754  0.0361 -0.3383  0.0470
13700WAT      O56604   0.939   7.911   8.243  0.8981 -0.1403 -0.4270
13700WAT     H156605   0.946   7.879   8.333 -1.1806 -0.9410 -0.4736
13700WAT     H256606   0.936   8.006   8.251  0.2458 -0.2159  0.4337
13700WAT    EPW56607   0.939   7.919   8.256  0.5378 -0.2558 -0.3195
13701WAT      O56608   6.175  10.293   1.245 -0.1967 -0.4153  0.3582
13701WAT     H156609   6.236  10.327   1.179 -0.4836 -1.7024 -0.6154
13701WAT     H256610   6.207  10.327   1.328  0.5914  0.6765 -0.3674
13701WAT    EPW56611   6.187  10.302   1.247 -0.1304 -0.4406  0.1342
13702WAT      O56612   4.239   3.466   7.877 -0.7323 -0.6897  0.0579
13702WAT     H156613   4.199   3.397   7.931 -1.8499 -0.1169 -0.0163
13702WAT     H256614   4.211   3.548   7.918  0.1999 -0.2616 -0.1314
13702WAT    EPW56615   4.230   3.468   7.890 -0.7567 -0.5577  0.0231
13703WAT      O56616   9.518   2.922   0.428  0.4369 -0.2194  0.0841
13703WAT     H156617   9.612   2.940   0.435  0.1481  1.0963  0.9480
13703WAT     H256618   9.494   2.958   0.343  0.3417  1.3817  0.7548
13703WAT    EPW56619   9.528   2.929   0.418  0.3867  0.1653  0.2865
13704WAT      O56620   4.019   3.338   8.569  0.2554 -0.0076 -0.5597
13704WAT     H156621   4.082   3.381   8.627 -1.8388  0.5488  1.4511
13704WAT     H256622   4.034   3.245   8.583  1.4218  0.0873 -1.0544
13704WAT    EPW56623   4.029   3.332   8.579  0.1328  0.0783 -0.3600
13705WAT      O56624   1.050   4.890   6.780 -0.2284 -0.5863 -0.1669
13705WAT     H156625   1.022   4.978   6.754  3.3036  0.6891 -0.2329
13705WAT     H256626   1.106   4.905   6.857 -0.2114 -2.8922  0.3349
13705WAT    EPW56627   1.054   4.904   6.787  0.2397 -0.7222 -0.1094
13706WAT      O56628   3.377   7.761   7.786 -0.2179 -0.2694 -0.0485
13706WAT     H156629   3.471   7.772   7.769 -0.2295 -1.0639 -0.7155
13706WAT     H256630   3.372   7.746   7.880  0.4714 -1.3937 -0.1605
13706WAT    EPW56631   3.389   7.760   7.796 -0.1285 -0.5226 -0.1512
13707WAT      O56632   8.893   4.025   8.211  0.1426 -0.4560  0.1628
13707WAT     H156633   8.917   3.933   8.224  0.1700 -1.0981 -3.4659
13707WAT     H256634   8.972   4.065   8.174 -0.0395  0.9697  1.2281
13707WAT    EPW56635   8.907   4.018   8.208  0.1221 -0.3524 -0.1760
13708WAT      O56636   3.013   8.180   8.722  0.6413  0.1211 -0.2782
13708WAT     H156637   3.016   8.110   8.657  2.6521  1.2341 -1.4941
13708WAT     H256638   3.053   8.142   8.800  3.3428  0.3154 -1.4598
13708WAT    EPW56639   3.019   8.166   8.724  1.2628  0.2933 -0.5941
13709WAT      O56640   8.383   4.375   2.363 -0.4071  0.2063 -0.5032
13709WAT     H156641   8.291   4.356   2.377 -0.3376 -1.4077 -2.0149
13709WAT     H256642   8.384   4.460   2.318 -1.1427  0.2040 -0.5262
13709WAT    EPW56643   8.371   4.384   2.359 -0.4950 -0.0067 -0.7056
13710WAT      O56644   0.405   1.715   3.454 -1.0016 -0.3177 -0.1959
13710WAT     H156645   0.475   1.649   3.454 -2.6704 -2.3668  3.1808
13710WAT     H256646   0.447   1.793   3.491 -0.0386 -0.9047  0.0067
13710WAT    EPW56647   0.420   1.716   3.459 -1.0947 -0.6654  0.2762
13711WAT      O56648   3.213   5.558   7.187  0.3431  0.5042 -0.3665
13711WAT     H156649   3.298   5.565   7.232  0.0038  1.0944  0.2052
13711WAT     H256650   3.191   5.648   7.165 -0.8951  0.5642  0.9555
13711WAT    EPW56651   3.222   5.571   7.190  0.1352  0.5898 -0.1171
13712WAT      O56652   2.295   8.436   7.062 -0.1446  0.5976 -0.1142
13712WAT     H156653   2.308   8.344   7.043  0.6296  1.1688 -2.7613
13712WAT     H256654   2.204   8.443   7.090  0.0271 -1.0358  0.9820
13712WAT    EPW56655   2.285   8.425   7.063 -0.0198  0.4578 -0.3190
13713WAT      O56656   9.545   5.987   7.117 -0.3820  0.3422  0.2236
13713WAT     H156657   9.456   5.956   7.130 -0.5292  0.5976 -0.1545
13713WAT     H256658   9.535   6.069   7.070  0.0354  0.6147  0.5984
13713WAT    EPW56659   9.532   5.994   7.113 -0.3462  0.4115  0.2234
13714WAT      O56660   1.299   6.351   6.628 -0.1919  0.3085 -1.0147
13714WAT     H156661   1.247   6.366   6.707  0.2403 -2.6582 -0.0434
13714WAT     H256662   1.260   6.273   6.588  1.9650 -0.5622 -1.5706
13714WAT    EPW56663   1.287   6.343   6.633  0.1496 -0.1979 -0.9599
13715WAT      O56664   0.911   1.432   7.995 -1.2258 -0.1088  0.7266
13715WAT     H156665   0.822   1.465   7.993 -0.7859  1.0956 -0.4689
13715WAT     H256666   0.966   1.510   7.989 -0.0946 -0.8502  1.0738
13715WAT    EPW56667   0.907   1.446   7.994 -1.0186 -0.0477  0.6149
13716WAT      O56668   7.136   2.140   0.804  0.5981 -0.4406 -0.1915
13716WAT     H156669   7.171   2.074   0.865  1.8224  0.6906  0.3954
13716WAT     H256670   7.199   2.142   0.733  1.2642  0.9423  0.4030
13716WAT    EPW56671   7.149   2.132   0.803  0.8476 -0.1091 -0.0357
13717WAT      O56672   8.430   0.163   0.508  0.5073 -0.0711  0.0191
13717WAT     H156673   8.454   0.248   0.470  0.1432 -0.3705 -0.9118
13717WAT     H256674   8.358   0.132   0.453 -0.4046 -0.2845  1.2985
13717WAT    EPW56675   8.423   0.170   0.495  0.3386 -0.1387  0.0650
13718WAT      O56676   2.894   4.455   4.113  0.7749  0.0045  0.0591
13718WAT     H156677   2.923   4.374   4.070  0.5417  0.5143 -1.1007
13718WAT     H256678   2.939   4.525   4.064 -1.9167  0.8066 -1.4824
13718WAT    EPW56679   2.904   4.454   4.101  0.3891  0.1774 -0.2971
13719WAT      O56680   9.562   2.881   1.027 -0.2830  0.1805 -0.5456
13719WAT     H156681   9.524   2.895   0.940 -1.1803  0.1005 -0.1668
13719WAT     H256682   9.568   2.786   1.037  0.8188  0.1868 -0.9358
13719WAT    EPW56683   9.558   2.871   1.017 -0.2561  0.1708 -0.5471
13720WAT      O56684   6.330   8.780   1.617 -0.0183  0.7532 -0.4981
13720WAT     H156685   6.290   8.693   1.620  0.6295  0.2679 -3.3265
13720WAT     H256686   6.256   8.840   1.611 -0.4363  0.1704 -1.3779
13720WAT    EPW56687   6.315   8.776   1.617  0.0122  0.6123 -0.9872
13721WAT      O56688   8.332   9.570   8.050  0.5419 -0.1758  0.3151
13721WAT     H156689   8.343   9.496   7.990  0.1794 -1.0432  1.2764
13721WAT     H256690   8.283   9.635   8.000 -1.0665 -1.4760  0.1147
13721WAT    EPW56691   8.327   9.569   8.036  0.2823 -0.4616  0.4148
13722WAT      O56692   6.309   0.802   0.359  0.8650  0.7573 -0.5729
13722WAT     H156693   6.290   0.786   0.451  0.0523 -1.0210 -1.0198
13722WAT     H256694   6.345   0.720   0.326  0.2222  1.0207 -2.0601
13722WAT    EPW56695   6.311   0.789   0.366  0.6731  0.5575 -0.8280
13723WAT      O56696   8.764   3.075   1.177  0.1541 -0.1620 -0.2186
13723WAT     H156697   8.793   3.145   1.119  4.1316 -0.4709  1.0631
13723WAT     H256698   8.716   3.015   1.120  0.5468  1.4149 -2.3248
13723WAT    EPW56699   8.762   3.076   1.162  0.7305  0.0051 -0.3273
13724WAT      O56700   4.614   9.871   0.334 -0.0696  0.0967  0.0028
13724WAT     H156701   4.638   9.791   0.288  2.5800  1.5724 -1.4153
13724WAT     H256702   4.531   9.849   0.377  1.2441 -3.8684  0.9843
13724WAT    EPW56703   4.606   9.857   0.334  0.4532 -0.2313 -0.0548
13725WAT      O56704   9.242   9.933   3.386 -0.1877  0.5127  0.3606
13725WAT     H156705   9.260  10.026   3.400  0.4473  0.4758 -0.1645
13725WAT     H256706   9.167   9.932   3.326  0.3987  0.7049 -0.3964
13725WAT    EPW56707   9.235   9.945   3.380 -0.0262  0.5331  0.1915
13726WAT      O56708   7.432   8.035   2.186 -0.2439  0.8576 -0.0042
13726WAT     H156709   7.411   8.037   2.092 -0.5467  0.7004  0.0583
13726WAT     H256710   7.347   8.035   2.229 -0.1065  1.8432  0.2950
13726WAT    EPW56711   7.418   8.035   2.179 -0.2658  0.9665  0.0435
13727WAT      O56712  10.997   0.385   0.984  0.0667  0.4339 -0.2025
13727WAT     H156713  10.930   0.369   1.051 -0.1989 -3.1636 -1.1047
13727WAT     H256714  11.075   0.341   1.018 -0.4606 -2.7935 -2.6743
13727WAT    EPW56715  10.998   0.377   0.998 -0.0377 -0.4663 -0.6475
13728WAT      O56716   3.000   1.509   7.202 -0.0931  0.0571 -0.0074
13728WAT     H156717   3.042   1.444   7.146 -1.1994 -1.0638  0.4106
13728WAT     H256718   2.910   1.513   7.170 -0.2339  0.8175  0.4720
13728WAT    EPW56719   2.994   1.501   7.191 -0.2575  0.0096  0.1111
13729WAT      O56720   4.286   0.799   0.150  0.7691 -0.2693 -0.0645
13729WAT     H156721   4.249   0.796   0.061  1.5057  2.4842 -0.5552
13729WAT     H256722   4.210   0.787   0.207  0.0926 -0.9022 -1.0691
13729WAT    EPW56723   4.271   0.797   0.146  0.7768  0.0104 -0.2617
13730WAT      O56724   7.623   0.663   2.160  0.1082 -0.8430  0.5546
13730WAT     H156725   7.714   0.691   2.151 -0.3147  0.0610 -1.6181
13730WAT     H256726   7.622   0.574   2.124 -0.2928  0.1742 -2.1898
13730WAT    EPW56727   7.635   0.655   2.154 -0.0005 -0.5896 -0.0939
13731WAT      O56728   2.460   2.768   5.561  0.0805 -0.6053  0.4833
13731WAT     H156729   2.443   2.863   5.562  0.3084 -0.5397 -0.3650
13731WAT     H256730   2.526   2.757   5.492  0.0792 -1.3785  0.5989
13731WAT    EPW56731   2.467   2.779   5.552  0.1104 -0.6987  0.3867
13732WAT      O56732   2.238   9.026   6.598  0.0206  0.4088  0.0125
13732WAT     H156733   2.295   9.091   6.639 -0.6239 -0.2599  2.0805
13732WAT     H256734   2.175   9.003   6.667 -2.3503  0.6120 -1.9321
13732WAT    EPW56735   2.237   9.032   6.613 -0.3769  0.3476  0.0291
13733WAT      O56736   8.055   9.848   0.354 -0.4585 -0.3643 -0.2779
13733WAT     H156737   8.006   9.773   0.320  0.3389 -1.3128  0.5924
13733WAT     H256738   8.033   9.920   0.295 -2.7254 -0.7871 -0.0308
13733WAT    EPW56739   8.046   9.847   0.342 -0.6528 -0.5455 -0.1305
13734WAT      O56740  10.523   1.109   1.396  0.7446  0.3847 -0.0002
13734WAT     H156741  10.611   1.147   1.400  0.1738  2.1560 -2.4958
13734WAT     H256742  10.530   1.039   1.331  0.7835 -1.1061  1.5245
13734WAT    EPW56743  10.536   1.105   1.388  0.6742  0.4216 -0.1283
13735WAT      O56744   3.171   4.023   6.623 -0.3849  0.7881  0.1995
13735WAT     H156745   3.118   4.027   6.544 -0.2850  1.8926  0.1732
13735WAT     H256746   3.246   4.079   6.605 -0.0433  0.5543  0.8465
13735WAT    EPW56747   3.174   4.031   6.610 -0.3268  0.9029  0.2813
13736WAT      O56748   0.626   8.227   7.595 -0.5308  0.8298  0.4631
13736WAT     H156749   0.547   8.246   7.646 -1.0570  2.5830 -0.8822
13736WAT     H256750   0.684   8.301   7.613  0.0388  0.4979  0.0089
13736WAT    EPW56751   0.623   8.239   7.604 -0.5251  1.0171  0.2258
13737WAT      O56752   3.749   4.459   8.896  0.2672  0.0725  0.2373
13737WAT     H156753   3.800   4.508   8.831 -1.9492  1.0573 -0.8730
13737WAT     H256754   3.672   4.514   8.912 -1.8649 -2.5573 -0.3207
13737WAT    EPW56755   3.746   4.473   8.890 -0.3064 -0.1442  0.0176
13738WAT      O56756   4.098   9.808   5.930  0.2181  0.5089  0.1158
13738WAT     H156757   4.162   9.864   5.886 -1.5936  2.3754 -0.3085
13738WAT     H256758   4.099   9.838   6.021  0.6373 -0.1438  0.3309
13738WAT    EPW56759   4.107   9.820   5.936  0.0346  0.6685  0.0885
13739WAT      O56760   5.497   1.011   7.818 -0.2388  0.0807  0.3134
13739WAT     H156761   5.430   0.971   7.873 -2.4957  4.5188  1.2326
13739WAT     H256762   5.461   1.006   7.729  0.9498 -2.4312 -0.0942
13739WAT    EPW56763   5.483   1.005   7.813 -0.3800  0.3347  0.3808
13740WAT      O56764   9.318   6.313   3.543  0.4615 -0.1382  0.7224
13740WAT     H156765   9.366   6.377   3.491  0.3894 -0.9796 -0.4328
13740WAT     H256766   9.283   6.362   3.617 -0.6367  1.4299 -0.7777
13740WAT    EPW56767   9.320   6.328   3.546  0.3076 -0.0424  0.3723
13741WAT      O56768   0.070   5.971   8.460  0.0597  0.0084  0.6674
13741WAT     H156769   0.144   6.001   8.513 -0.4520 -0.5785  1.7577
13741WAT     H256770   0.038   5.893   8.506 -2.9181  1.7535  1.8491
13741WAT    EPW56771   0.075   5.965   8.473 -0.4006  0.1612  0.9670
13742WAT      O56772   7.221   3.109   7.751 -0.2972  0.2218 -0.2561
13742WAT     H156773   7.215   3.167   7.827 -2.2889  0.9599 -0.8929
13742WAT     H256774   7.163   3.036   7.771  1.8910 -1.4398  0.3647
13742WAT    EPW56775   7.212   3.107   7.764 -0.2708  0.1000 -0.2582
13743WAT      O56776   3.047   2.767   8.184  0.2563 -0.0452  0.2360
13743WAT     H156777   2.989   2.692   8.175 -1.3374  1.3854 -2.4889
13743WAT     H256778   2.996   2.831   8.233  0.3135  0.4460 -0.3353
13743WAT    EPW56779   3.033   2.766   8.189  0.0536  0.2083 -0.1988
13744WAT      O56780   1.480   0.992   1.182  0.1929 -0.3206  0.8158
13744WAT     H156781   1.496   0.956   1.269 -0.7030  0.0503  1.1455
13744WAT     H256782   1.456   1.083   1.198 -2.5336 -0.8823  0.4397
13744WAT    EPW56783   1.479   0.999   1.196 -0.2849 -0.3458  0.8097
13745WAT      O56784   6.299   9.366   2.524  1.1305 -0.5114 -0.5900
13745WAT     H156785   6.372   9.350   2.465  0.7948 -1.7883 -0.7053
13745WAT     H256786   6.221   9.344   2.473  0.8763 -2.3619  0.4884
13745WAT    EPW56787   6.299   9.361   2.510  1.0531 -0.9241 -0.4629
13746WAT      O56788  10.933   2.479   1.595 -0.0125 -0.3921  0.2186
13746WAT     H156789  10.947   2.390   1.630 -0.6008 -0.1929  0.9875
13746WAT     H256790  11.020   2.506   1.565  0.3812 -0.8407  0.9146
13746WAT    EPW56791  10.946   2.471   1.596 -0.0381 -0.4251  0.4118
13747WAT      O56792  10.297   3.192   0.300  0.3365 -0.5155 -0.1402
13747WAT     H156793  10.272   3.152   0.217  1.5516 -0.2233 -0.6648
13747WAT     H256794  10.344   3.271   0.275 -0.6716  0.4442  0.8606
13747WAT    EPW56795  10.300   3.197   0.285  0.3633 -0.3505 -0.0774
13748WAT      O56796   0.132   8.836   0.759 -0.8453 -0.0584 -0.2868
13748WAT     H156797   0.196   8.767   0.741 -0.0344  1.4213 -4.1255
13748WAT     H256798   0.056   8.813   0.706 -0.7628  1.6179 -1.2027
13748WAT    EPW56799   0.130   8.824   0.750 -0.7274  0.3581 -0.9139
13749WAT      O56800   2.688   8.135   7.343  0.0811 -0.6547  0.5427
13749WAT     H156801   2.691   8.085   7.425 -0.1982  0.0903  1.0171
13749WAT     H256802   2.738   8.082   7.281 -1.3648 -2.2340  0.6304
13749WAT    EPW56803   2.695   8.122   7.346 -0.1464 -0.7648  0.6170
13750WAT      O56804   3.541   3.902   8.679  0.0628 -0.0027  0.2336
13750WAT     H156805   3.582   3.981   8.715  3.3290 -0.6284 -1.7006
13750WAT     H256806   3.537   3.918   8.585 -4.1940 -0.1498  0.1958
13750WAT    EPW56807   3.546   3.914   8.671 -0.0679 -0.1045 -0.0267
13751WAT      O56808  10.696   3.191   0.082 -0.9939  0.2746 -0.0826
13751WAT     H156809  10.609   3.226   0.066 -0.0731  2.2743 -1.0684
13751WAT     H256810  10.701   3.179   0.177 -1.7673  1.7664  0.1642
13751WAT    EPW56811  10.685   3.194   0.092 -0.9742  0.7350 -0.1801
13752WAT      O56812  10.189   1.885   0.262  0.1983 -0.0391 -0.3662
13752WAT     H156813  10.161   1.957   0.317 -0.1108 -0.4390  0.0069
13752WAT     H256814  10.283   1.897   0.252  0.6099 -0.9688  1.7966
13752WAT    EPW56815  10.198   1.896   0.268  0.2122 -0.2145 -0.0317
13753WAT      O56816   2.156   9.200   8.848  0.6545  0.2060  0.5389
13753WAT     H156817   2.149   9.118   8.799  2.8528 -0.5288  1.3486
13753WAT     H256818   2.065   9.229   8.857  0.0657  0.1964 -3.5290
13753WAT    EPW56819   2.143   9.193   8.843  0.8668  0.1082  0.1092
13754WAT      O56820   4.235   4.590   7.846 -0.4563  0.1783  0.5781
13754WAT     H156821   4.226   4.497   7.825 -2.4845 -0.5628  3.9139
13754WAT     H256822   4.146   4.619   7.864  0.4281  1.8272  2.7963
13754WAT    EPW56823   4.222   4.581   7.846 -0.6070  0.2980  1.3106
13755WAT      O56824   1.249   1.199   0.949  0.0921 -0.2280  1.1869
13755WAT     H156825   1.341   1.194   0.923 -0.0588 -2.3492  0.9443
13755WAT     H256826   1.219   1.108   0.950 -2.9404  0.5135 -2.0727
13755WAT    EPW56827   1.258   1.187   0.946 -0.3278 -0.4100  0.7249
13756WAT      O56828   0.307   9.194   2.400  0.2737  0.7695 -0.7211
13756WAT     H156829   0.320   9.107   2.436 -1.1142  0.4584 -0.9225
13756WAT     H256830   0.391   9.238   2.414  0.3650  0.0750  1.2083
13756WAT    EPW56831   0.320   9.188   2.407  0.1027  0.6366 -0.4933
13757WAT      O56832   2.669   8.914   4.610  0.4249 -0.6930  0.3671
13757WAT     H156833   2.743   8.897   4.669  1.0241  1.1478  0.1886
13757WAT     H256834   2.692   8.868   4.529  1.0303 -0.7109  0.5471
13757WAT    EPW56835   2.682   8.905   4.607  0.5838 -0.4520  0.3672
13758WAT      O56836   1.244   8.641   7.717  0.1707  0.4282 -0.1988
13758WAT     H156837   1.151   8.622   7.705 -0.0183  1.2518 -0.1426
13758WAT     H256838   1.248   8.736   7.727  0.8657  0.2854  1.1997
13758WAT    EPW56839   1.233   8.651   7.716  0.2375  0.5183 -0.0069
13759WAT      O56840   1.881   7.779   5.727  0.0284 -0.2865 -0.9316
13759WAT     H156841   1.944   7.707   5.718  1.4106  0.6283  0.8611
13759WAT     H256842   1.914   7.831   5.800 -1.2017  1.9048 -1.8319
13759WAT    EPW56843   1.894   7.777   5.735  0.0484  0.1233 -0.8142
13760WAT      O56844   9.226   3.565   0.614  0.0415  0.1020 -0.0402
13760WAT     H156845   9.180   3.645   0.589  1.0273  1.5171  2.3358
13760WAT     H256846   9.318   3.583   0.594  0.1195 -1.0173 -0.7751
13760WAT    EPW56847   9.232   3.578   0.608  0.1817  0.1409  0.1763
13761WAT      O56848   5.153   8.977   8.514 -0.1586  0.1156 -0.3809
13761WAT     H156849   5.242   8.945   8.501 -0.1546 -0.3556  0.6649
13761WAT     H256850   5.131   9.023   8.433  1.1558  0.5315 -0.5125
13761WAT    EPW56851   5.162   8.979   8.501  0.0153  0.1082 -0.2599
13762WAT      O56852   9.702   2.472   1.485  0.4617  0.0838  0.0334
13762WAT     H156853   9.637   2.531   1.448 -0.1339  0.3187  1.3945
13762WAT     H256854   9.675   2.461   1.576  0.3602 -2.5408 -0.2472
13762WAT    EPW56855   9.690   2.478   1.492  0.3700 -0.2315  0.1759
13763WAT      O56856   1.520   5.880   7.736  0.0707  0.4547  0.2661
13763WAT     H156857   1.464   5.841   7.803 -1.1471 -0.8949 -1.4363
13763WAT     H256858   1.575   5.807   7.707  0.0881  0.8296 -0.6583
13763WAT    EPW56859   1.520   5.865   7.741 -0.0876  0.3262 -0.0801
13764WAT      O56860   5.957   7.183   7.573  0.6131  0.1705 -0.3714
13764WAT     H156861   5.930   7.274   7.579  0.1622  0.1005 -1.1997
13764WAT     H256862   5.938   7.147   7.660 -1.2422  0.3291 -0.6635
13764WAT    EPW56863   5.951   7.190   7.586  0.3088  0.1824 -0.5193
13765WAT      O56864   2.034   1.547   0.681 -0.0205 -0.2279 -1.0492
13765WAT     H156865   2.062   1.480   0.744  0.7239 -0.1415 -1.2726
13765WAT     H256866   2.078   1.523   0.600 -1.0946 -0.4233 -1.5877
13765WAT    EPW56867   2.044   1.535   0.679 -0.0640 -0.2424 -1.1497
13766WAT      O56868   7.494   9.673   0.334  0.3717  0.5272 -0.0031
13766WAT     H156869   7.405   9.706   0.336 -0.7604 -2.2811  0.2955
13766WAT     H256870   7.517   9.671   0.241 -0.8507 -0.9493 -0.3215
13766WAT    EPW56871   7.486   9.677   0.322  0.0610 -0.0381 -0.0057
13767WAT      O56872   2.551   5.932   6.931  0.2422  0.5400 -0.3373
13767WAT     H156873   2.635   5.934   6.977  0.1619 -1.3863 -0.0082
13767WAT     H256874   2.554   5.851   6.880 -1.1915  0.7200 -0.7565
13767WAT    EPW56875   2.562   5.922   6.930  0.0426  0.3095 -0.3490
13768WAT      O56876   0.968   0.881   3.413  0.2148 -0.9013  0.9243
13768WAT     H156877   0.980   0.854   3.504 -4.6127  0.8688  2.4058
13768WAT     H256878   0.874   0.874   3.398  0.4034  1.6492 -3.0070
13768WAT    EPW56879   0.957   0.876   3.423 -0.3971 -0.3314  0.6013
13769WAT      O56880   8.040   0.612   3.583  0.5525  0.1499  0.8306
13769WAT     H156881   8.052   0.524   3.547  0.7947 -0.1727  1.6875
13769WAT     H256882   8.025   0.667   3.506 -3.1408 -1.1406  0.4192
13769WAT    EPW56883   8.040   0.608   3.568  0.0978 -0.0628  0.8893
13770WAT      O56884   8.374   2.857   4.251  0.1184 -0.1216 -0.8330
13770WAT     H156885   8.345   2.867   4.341  1.1342  0.3844 -0.5500
13770WAT     H256886   8.293   2.861   4.199 -0.3386  1.0315 -0.0678
13770WAT    EPW56887   8.359   2.859   4.256  0.1917  0.0973 -0.6945
13771WAT      O56888  10.118   3.945   3.273 -0.1219 -0.3578  0.4575
13771WAT     H156889  10.116   3.850   3.283 -0.3699 -0.4411 -0.3895
13771WAT     H256890  10.212   3.966   3.271  0.1304 -1.0891 -3.7340
13771WAT    EPW56891  10.130   3.935   3.274 -0.1216 -0.4653 -0.2071
13772WAT      O56892   0.951   2.316   0.235  0.2244  0.1996  0.1979
13772WAT     H156893   1.001   2.236   0.220  1.0519  0.8775 -0.8510
13772WAT     H256894   0.941   2.354   0.148 -0.6080  0.9747  0.6190
13772WAT    EPW56895   0.956   2.311   0.221  0.2238  0.3912  0.1151
13773WAT      O56896   0.938   1.610   0.676  0.6136 -0.3743  0.0148
13773WAT     H156897   1.006   1.553   0.712  0.6959 -0.6369 -0.5341
13773WAT     H256898   0.987   1.676   0.626  0.5386  0.4439  1.0064
13773WAT    EPW56899   0.954   1.611   0.674  0.6146 -0.3010  0.0732
13774WAT      O56900   1.861   9.274   5.981 -0.3073  0.5954 -0.1254
13774WAT     H156901   1.944   9.270   6.028  0.3685 -0.0038 -1.3300
13774WAT     H256902   1.881   9.324   5.901 -0.6668 -1.0020 -1.2601
13774WAT    EPW56903   1.874   9.280   5.976 -0.2656  0.3061 -0.4342
13775WAT      O56904   2.950   5.805   8.221 -0.5609 -0.5241 -0.2191
13775WAT     H156905   2.986   5.834   8.305  0.4455 -2.0076 -0.0891
13775WAT     H256906   2.856   5.793   8.238  0.1498 -5.1828  2.2073
13775WAT    EPW56907   2.942   5.807   8.234 -0.3344 -1.3342  0.1183
13776WAT      O56908   6.694   9.210   1.197  0.5553  0.0116 -0.5462
13776WAT     H156909   6.693   9.291   1.248  0.4337  1.1205 -2.2174
13776WAT     H256910   6.672   9.238   1.108 -2.3856 -2.2652 -0.6742
13776WAT    EPW56911   6.691   9.224   1.192  0.1514 -0.1426 -0.7836
13777WAT      O56912   3.033   5.617   8.706 -0.4200  0.0956 -0.3480
13777WAT     H156913   3.011   5.582   8.792 -1.8585  2.8714  0.5384
13777WAT     H256914   2.994   5.556   8.644 -0.5033 -1.2469  0.9819
13777WAT    EPW56915   3.025   5.605   8.709 -0.6208  0.2847 -0.0558
13778WAT      O56916   1.251   7.672   7.739  0.3447 -0.1473  0.1670
13778WAT     H156917   1.230   7.660   7.647  1.7689 -2.9867  0.0905
13778WAT     H256918   1.193   7.743   7.768 -5.3022 -3.4935 -1.2610
13778WAT    EPW56919   1.240   7.680   7.731 -0.2123 -0.9632 -0.0315
13779WAT      O56920   8.241   2.854   2.650  0.1944 -0.1023  0.0622
13779WAT     H156921   8.275   2.800   2.579  1.0753  1.5998 -0.8708
13779WAT     H256922   8.147   2.860   2.634  0.3271 -0.0754 -0.7307
13779WAT    EPW56923   8.233   2.847   2.638  0.3276  0.1259 -0.1656
13780WAT      O56924   6.332  10.024   0.417 -0.4410 -0.2363  0.2027
13780WAT     H156925   6.391  10.080   0.467  0.3180  0.7518 -1.6875
13780WAT     H256926   6.333  10.061   0.328 -1.0517 -2.3824 -0.7721
13780WAT    EPW56927   6.340  10.036   0.412 -0.4215 -0.3886 -0.1752
13781WAT      O56928   4.970   5.900   8.491  0.3436  0.2091 -0.7980
13781WAT     H156929   4.903   5.834   8.475  0.3336  0.0971 -0.3071
13781WAT     H256930   5.030   5.891   8.418  0.1571 -0.1081 -0.9164
13781WAT    EPW56931   4.969   5.890   8.479  0.3178  0.1523 -0.7486
13782WAT      O56932  10.782   3.273   0.872  0.2189 -0.1408  0.0535
13782WAT     H156933  10.867   3.314   0.859  1.1276 -2.1903 -0.6641
13782WAT     H256934  10.743   3.269   0.785  0.0829 -0.6960  0.1393
13782WAT    EPW56935  10.788   3.278   0.859  0.3209 -0.4842 -0.0298
13783WAT      O56936   3.148   4.847   8.185 -0.4677 -0.2825 -0.3671
13783WAT     H156937   3.099   4.929   8.183  2.8576  1.9569  1.1094
13783WAT     H256938   3.127   4.808   8.270 -1.4534 -0.6007 -0.7451
13783WAT    EPW56939   3.139   4.853   8.196 -0.1590 -0.0293 -0.2227
13784WAT      O56940   4.694   8.741   5.435  0.3282  0.0049  0.1557
13784WAT     H156941   4.609   8.699   5.451 -0.8658  1.3631 -2.0140
13784WAT     H256942   4.718   8.713   5.346  1.1926  1.1295  0.0056
13784WAT    EPW56943   4.686   8.732   5.425  0.2847  0.3324 -0.1502
13785WAT      O56944   1.715   3.810   1.633 -0.1279  0.0194  0.4262
13785WAT     H156945   1.736   3.903   1.642 -1.4442  0.2770  1.2570
13785WAT     H256946   1.721   3.775   1.722  0.8930 -0.8323  0.0387
13785WAT    EPW56947   1.718   3.818   1.646 -0.1668 -0.0589  0.4846
13786WAT      O56948   0.658   3.557   0.032  0.4309  0.2248 -0.7940
13786WAT     H156949   0.700   3.611   0.098 -1.1283  0.4468  0.0824
13786WAT     H256950   0.706   3.474   0.033  2.1308  1.1709 -1.3471
13786WAT    EPW56951   0.670   3.553   0.041  0.4495  0.3788 -0.7514
13787WAT      O56952   7.564   5.788   1.243 -0.2417 -0.5074 -0.0174
13787WAT     H156953   7.556   5.702   1.284 -1.2786  0.4593  1.9192
13787WAT     H256954   7.488   5.793   1.184  0.2598 -1.2090 -0.7371
13787WAT    EPW56955   7.553   5.777   1.240 -0.3121 -0.4725  0.1431
13788WAT      O56956   2.591   8.269   8.598  0.3225  0.2424 -0.4545
13788WAT     H156957   2.580   8.239   8.688 -1.4820  1.7576 -0.1138
13788WAT     H256958   2.588   8.188   8.545 -0.1918 -0.5290  0.7152
13788WAT    EPW56959   2.589   8.254   8.603  0.0167  0.3400 -0.2556
13789WAT      O56960   1.696   6.896   6.959  0.9177 -0.5866 -0.2733
13789WAT     H156961   1.632   6.899   6.888 -0.9879 -2.7911  1.1644
13789WAT     H256962   1.781   6.903   6.916 -0.1438 -1.7876 -2.7813
13789WAT    EPW56963   1.699   6.897   6.944  0.5263 -1.0357 -0.4146
13790WAT      O56964   2.002   7.582   8.595  0.5628  0.1166  0.2004
13790WAT     H156965   1.983   7.613   8.684  0.5883  1.7704 -0.3380
13790WAT     H256966   1.944   7.632   8.539  2.6148  1.3190 -0.9692
13790WAT    EPW56967   1.992   7.593   8.599  0.8368  0.4935 -0.0243
13791WAT      O56968   0.819   7.498   8.795  0.4524 -0.3015  0.4180
13791WAT     H156969   0.736   7.450   8.796  1.4244 -2.1961 -1.7655
13791WAT     H256970   0.886   7.431   8.808  1.7233  1.2277  2.4190
13791WAT    EPW56971   0.817   7.483   8.797  0.7482 -0.3498  0.3939
13792WAT      O56972   3.239   3.983   0.046  0.1744 -0.1010 -0.4137
13792WAT     H156973   3.258   4.076   0.055 -0.9451  0.0982  0.0363
13792WAT     H256974   3.238   3.967  -0.048 -1.7062  0.8194 -0.5956
13792WAT    EPW56975   3.242   3.993   0.035 -0.2213  0.0468 -0.3783
13793WAT      O56976   1.036   0.649   0.371 -0.2881  0.0683  0.7839
13793WAT     H156977   0.975   0.575   0.373 -0.8927  0.5298 -0.1036
13793WAT     H256978   1.122   0.608   0.374 -0.6092 -0.5876  2.3233
13793WAT    EPW56979   1.039   0.633   0.372 -0.4101  0.0427  0.8698
13794WAT      O56980   2.035   7.733   6.251  0.1332 -0.3374  0.3379
13794WAT     H156981   2.123   7.721   6.286  0.7155  1.9770 -0.2025
13794WAT     H256982   2.013   7.824   6.269 -1.7215 -0.5482 -0.5364
13794WAT    EPW56983   2.043   7.743   6.258 -0.0347 -0.0603  0.1512
13795WAT      O56984   1.013   1.774   0.888  0.6021 -0.3213  0.3909
13795WAT     H156985   0.952   1.753   0.958 -0.8528  1.1636 -0.3598
13795WAT     H256986   0.989   1.716   0.816 -0.7377  1.0112 -0.2906
13795WAT    EPW56987   1.002   1.764   0.888  0.2335  0.0504  0.2020
13796WAT      O56988   1.796   2.997   1.682 -0.2757 -0.3644 -0.8854
13796WAT     H156989   1.780   3.083   1.642  1.1140 -0.7630 -2.3989
13796WAT     H256990   1.890   2.994   1.695 -0.4526 -1.1867  0.3475
13796WAT    EPW56991   1.806   3.008   1.678 -0.1158 -0.5254 -0.9224
13797WAT      O56992   0.173   2.106   2.694  0.1306  1.0353  0.3411
13797WAT     H156993   0.185   2.037   2.628 -1.9308 -0.4176  1.3618
13797WAT     H256994   0.238   2.086   2.761  0.5319  0.9843 -0.0557
13797WAT    EPW56995   0.183   2.094   2.694 -0.0884  0.8368  0.4234
13798WAT      O56996   3.143   8.883   7.505 -0.1347  0.2065  0.1914
13798WAT     H156997   3.110   8.859   7.592  0.8632 -2.4710 -0.0584
13798WAT     H256998   3.071   8.861   7.446 -0.7334  1.8283  0.2726
13798WAT    EPW56999   3.129   8.877   7.509 -0.0820  0.0677  0.1690
13799WAT      O57000   1.973   6.107   8.790 -0.0484 -0.0592 -0.1919
13799WAT     H157001   2.061   6.101   8.829  0.8448  0.8856 -1.9321
13799WAT     H257002   1.917   6.056   8.849  1.3898  0.4444  1.7200
13799WAT    EPW57003   1.977   6.099   8.803  0.2590  0.1316 -0.1688
13800WAT      O57004   1.950   9.353   7.998 -0.1944 -0.0566 -0.2481
13800WAT     H157005   1.895   9.375   8.073 -1.7829  0.7039 -1.5895
13800WAT     H257006   1.950   9.432   7.945  0.3187 -0.8238 -1.4185
13800WAT    EPW57007   1.943   9.366   8.001 -0.3363 -0.0577 -0.5798
13801WAT      O57008   9.170   2.391   2.338 -0.7599  0.6447 -0.0502
13801WAT     H157009   9.238   2.454   2.314 -2.2951  1.9961 -1.0267
13801WAT     H257010   9.117   2.437   2.403 -0.7558 -0.4007  0.7142
13801WAT    EPW57011   9.172   2.405   2.344 -0.9618  0.6850 -0.0781
13802WAT      O57012   6.881  10.017   0.690 -0.4492  0.7308  0.2668
13802WAT     H157013   6.878  10.070   0.769 -0.5448 -0.4026  1.0563
13802WAT     H257014   6.839   9.934   0.715 -2.3043  1.0179 -1.5097
13802WAT    EPW57015   6.875  10.013   0.703 -0.7064  0.6194  0.1366
13803WAT      O57016  10.908   2.042   1.386  0.8477 -0.0563 -0.2688
13803WAT     H157017  10.815   2.020   1.379  0.9043 -1.1516  1.6292
13803WAT     H257018  10.953   1.960   1.364  1.5450  1.1224 -3.7954
13803WAT    EPW57019  10.902   2.028   1.382  0.9465 -0.0454 -0.4836
13804WAT      O57020   9.117   3.924   1.200  0.1468  0.7246  0.4777
13804WAT     H157021   9.072   3.840   1.189  0.8527  0.2698  0.9619
13804WAT     H257022   9.089   3.976   1.125  2.1077 -1.0372 -1.6376
13804WAT    EPW57023   9.107   3.920   1.189  0.4988  0.4324  0.2626
13805WAT      O57024   9.771   2.117   1.253  0.1799  0.2497 -0.2119
13805WAT     H157025   9.832   2.177   1.296 -1.9450  1.7812  0.7834
13805WAT     H257026   9.724   2.074   1.325 -1.1068  0.3689 -0.9554
13805WAT    EPW57027   9.773   2.119   1.268 -0.2699  0.4674 -0.1787
13806WAT      O57028   5.551   8.791   2.061 -0.9098 -0.1107 -0.5205
13806WAT     H157029   5.561   8.754   1.974 -0.5356  0.0146 -0.5307
13806WAT     H257030   5.633   8.836   2.078 -0.7943 -0.5425  0.0919
13806WAT    EPW57031   5.563   8.792   2.052 -0.8452 -0.1512 -0.4412
13807WAT      O57032   0.506   3.509   3.329 -0.4389 -0.3613  0.1125
13807WAT     H157033   0.544   3.431   3.289  1.0653  0.0862  0.5905
13807WAT     H257034   0.567   3.531   3.400 -2.8805 -1.0420  2.5945
13807WAT    EPW57035   0.519   3.502   3.333 -0.5625 -0.3921  0.5029
13808WAT      O57036   0.111   1.646   0.347 -0.1173  0.7164  0.0364
13808WAT     H157037   0.173   1.669   0.416 -0.3426  2.3744 -0.2600
13808WAT     H257038   0.030   1.624   0.393  0.6596 -1.5353  0.4297
13808WAT    EPW57039   0.109   1.646   0.362 -0.0445  0.6382  0.0492
13809WAT      O57040   2.929   5.741   7.307 -0.3624  0.2057  0.0554
13809WAT     H157041   3.007   5.763   7.356 -0.1146  1.3767 -0.8444
13809WAT     H257042   2.913   5.648   7.328  0.9188  0.1128  0.6856
13809WAT    EPW57043   2.937   5.731   7.316 -0.1607  0.3476  0.0198
13810WAT      O57044   3.252   7.569   7.646  0.1601  0.1047 -0.2609
13810WAT     H157045   3.297   7.632   7.702 -1.0624  0.1748  0.6757
13810WAT     H257046   3.261   7.605   7.557  3.6325 -0.8794 -0.4651
13810WAT    EPW57047   3.259   7.582   7.642  0.4569 -0.0157 -0.1643
13811WAT      O57048  10.595   3.122   1.229 -0.3883  0.4979  0.3955
13811WAT     H157049  10.669   3.101   1.171  0.8388 -1.0956  2.4002
13811WAT     H257050  10.600   3.217   1.239  0.0955  0.6718 -1.1309
13811WAT    EPW57051  10.606   3.132   1.222 -0.1631  0.3105  0.4586
13812WAT      O57052   4.577   8.791   8.642 -0.1415  0.2821 -0.1480
13812WAT     H157053   4.623   8.861   8.595 -0.6948  0.7363 -0.0223
13812WAT     H257054   4.636   8.769   8.714  0.6506 -0.3222 -0.9522
13812WAT    EPW57055   4.591   8.797   8.645 -0.1099  0.2623 -0.2375
13813WAT      O57056   3.850   9.823   6.352 -0.1606  0.0238 -0.2888
13813WAT     H157057   3.924   9.853   6.300 -2.5577  2.9100 -2.4522
13813WAT     H257058   3.787   9.791   6.287 -0.6513 -3.0779  1.5088
13813WAT    EPW57059   3.851   9.823   6.336 -0.5417 -0.0043 -0.3369
13814WAT      O57060   1.342   6.191   8.062  0.4550  0.2480 -0.1398
13814WAT     H157061   1.406   6.262   8.071 -0.7127  1.2234  0.7671
13814WAT     H257062   1.276   6.209   8.129  0.2535 -1.8597  0.2962
13814WAT    EPW57063   1.342   6.203   8.072  0.2744  0.0985  0.0367
13815WAT      O57064   2.043   3.453   0.273  0.0109 -0.6694 -0.3235
13815WAT     H157065   2.107   3.487   0.335 -0.8019 -0.3473  0.3515
13815WAT     H257066   2.094   3.394   0.217  0.4487 -2.4337  1.7946
13815WAT    EPW57067   2.058   3.450   0.273 -0.0386 -0.8596  0.0449
13816WAT      O57068   1.518   2.291   0.737  0.6168  0.6141 -0.3852
13816WAT     H157069   1.471   2.369   0.708  0.1070  0.1684 -0.7855
13816WAT     H257070   1.494   2.224   0.673  0.2009 -0.1466  0.5337
13816WAT    EPW57071   1.508   2.292   0.725  0.4947  0.4549 -0.3168
13817WAT      O57072   0.678   7.038   7.738  0.0073 -0.1688  0.1631
13817WAT     H157073   0.768   7.026   7.707 -0.3524  1.4554 -1.6802
13817WAT     H257074   0.652   6.951   7.769  1.0921 -1.4979 -2.3537
13817WAT    EPW57075   0.687   7.025   7.738  0.1029 -0.1297 -0.4117
13818WAT      O57076   2.521   5.476   7.774 -0.7695  0.8164 -0.3965
13818WAT     H157077   2.458   5.453   7.843  1.3488 -3.2298  0.5049
13818WAT     H257078   2.491   5.561   7.743 -4.2097  1.0521  2.7376
13818WAT    EPW57079   2.508   5.484   7.779 -0.9438  0.3135  0.1357
13819WAT      O57080  10.277   0.304   2.503  0.0190 -0.1004 -0.1615
13819WAT     H157081  10.251   0.391   2.534 -0.2363 -0.0317 -0.5651
13819WAT     H257082  10.292   0.254   2.583  1.8366  0.7883  0.1258
13819WAT    EPW57083  10.276   0.309   2.518  0.2251  0.0259 -0.1768
13820WAT      O57084   1.904   1.405   1.319 -0.5255 -0.8785 -0.3271
13820WAT     H157085   1.911   1.406   1.414  1.5242 -1.0460 -0.4112
13820WAT     H257086   1.868   1.318   1.299 -1.2745 -0.7209  0.2883
13820WAT    EPW57087   1.901   1.393   1.329 -0.3540 -0.8798 -0.2571
13821WAT      O57088   9.037   2.178   0.364 -0.0105 -0.2023 -0.4311
13821WAT     H157089   8.955   2.212   0.400  0.7050 -0.2137  1.3385
13821WAT     H257090   9.032   2.083   0.379 -0.2282 -0.3782 -1.5486
13821WAT    EPW57091   9.025   2.170   0.371  0.0548 -0.2270 -0.3451
13822WAT      O57092  10.040   3.085   3.507  0.6701  0.0004  0.4628
13822WAT     H157093   9.984   3.024   3.555 -2.6611  1.3306 -1.3643
13822WAT     H257094  10.014   3.171   3.540  2.1765  0.6611 -0.0027
13822WAT    EPW57095  10.029   3.088   3.517  0.4296  0.2630  0.1603
13823WAT      O57096   2.155   5.517   7.954 -0.2801 -0.1920  0.0541
13823WAT     H157097   2.107   5.493   8.033 -0.3618 -1.9232 -0.4832
13823WAT     H257098   2.242   5.541   7.985 -0.6270  0.1887  0.7632
13823WAT    EPW57099   2.160   5.517   7.969 -0.3365 -0.3703  0.0765
13824WAT      O57100   3.773   6.060   8.855 -0.1408  0.3597  0.2055
13824WAT     H157101   3.778   5.969   8.826 -0.7803  0.8956 -1.7870
13824WAT     H257102   3.808   6.059   8.944 -2.1083 -2.1756  1.0804
13824WAT    EPW57103   3.778   6.048   8.863 -0.4847  0.0963  0.0582
13825WAT      O57104   0.769   2.591   2.153 -0.1221  0.6231 -0.3899
13825WAT     H157105   0.724   2.555   2.229  0.6334 -0.3938 -0.4086
13825WAT     H257106   0.739   2.538   2.080 -1.0038  1.7274 -0.8543
13825WAT    EPW57107   0.759   2.579   2.153 -0.1387  0.6346 -0.4536
13826WAT      O57108   9.544   1.859   0.229 -0.0722  0.2428 -0.8140
13826WAT     H157109   9.613   1.924   0.226 -1.8068  2.1398 -2.8138
13826WAT     H257110   9.478   1.896   0.288 -0.5155 -0.2916 -0.9544
13826WAT    EPW57111   9.544   1.872   0.237 -0.3595  0.4225 -1.0963
13827WAT      O57112   9.026   4.884   1.441  0.0030  0.3139 -0.3339
13827WAT     H157113   9.048   4.934   1.362  2.0784 -1.7421 -1.1697
13827WAT     H257114   8.931   4.872   1.436 -0.1519  1.7265 -1.5581
13827WAT    EPW57115   9.016   4.889   1.429  0.2565  0.2289 -0.6056
13828WAT      O57116   7.294   4.026   1.419 -0.1625 -0.0537  0.7954
13828WAT     H157117   7.210   4.002   1.459 -0.2784 -5.3310 -1.7727
13828WAT     H257118   7.340   3.943   1.409  2.4809  1.6023 -4.0833
13828WAT    EPW57119   7.289   4.012   1.423  0.1707 -0.5314 -0.1868
13829WAT      O57120   2.541   7.579   8.672 -0.7830  0.1942 -0.2840
13829WAT     H157121   2.633   7.591   8.651 -0.3830 -1.5860  0.2677
13829WAT     H257122   2.498   7.570   8.587 -0.4673  1.0417 -0.5460
13829WAT    EPW57123   2.547   7.579   8.658 -0.6887  0.0710 -0.2456
13830WAT      O57124   1.033   6.252   8.490 -0.6674  0.3362  0.7560
13830WAT     H157125   1.121   6.270   8.458 -0.8929  0.1729  0.0055
13830WAT     H257126   1.046   6.217   8.578  0.2467 -2.1687 -0.2623
13830WAT    EPW57127   1.046   6.250   8.497 -0.5766 -0.0160  0.5221
13831WAT      O57128   1.428   8.607   5.419  0.5066  0.1552 -0.2028
13831WAT     H157129   1.522   8.622   5.428  0.4782  0.5590 -0.5430
13831WAT     H257130   1.415   8.517   5.449  0.9389  0.2368  0.2371
13831WAT    EPW57131   1.439   8.597   5.424  0.5598  0.2198 -0.1895
13832WAT      O57132   9.836   2.224   0.484  0.0284 -0.4789  0.3388
13832WAT     H157133   9.806   2.168   0.556  0.5603 -0.3886  0.6392
13832WAT     H257134   9.931   2.223   0.491  0.0494  0.7100  0.5410
13832WAT    EPW57135   9.845   2.217   0.495  0.1016 -0.3101  0.4051
13833WAT      O57136   3.416   4.407   4.994  0.0004  0.5384  0.7548
13833WAT     H157137   3.349   4.365   4.941  1.6942  0.2040 -1.2451
13833WAT     H257138   3.371   4.480   5.036 -1.3820  1.0195 -1.4244
13833WAT    EPW57139   3.401   4.411   4.993  0.0416  0.5579  0.2038
13834WAT      O57140   0.527   1.359   1.550  0.0144 -0.2990  0.3602
13834WAT     H157141   0.612   1.322   1.576  0.7605 -0.1844 -1.6776
13834WAT     H257142   0.544   1.453   1.543 -1.0810  0.1123  2.6708
13834WAT    EPW57143   0.541   1.366   1.552 -0.0316 -0.2296  0.3961
13835WAT      O57144   9.966   1.100   0.584  0.0594  0.9958  0.7901
13835WAT     H157145   9.970   1.071   0.493  2.4738  2.3611  0.3680
13835WAT     H257146   9.903   1.042   0.626 -1.5484  0.6765 -1.8610
13835WAT    EPW57147   9.958   1.089   0.578  0.1659  1.1337  0.3847
13836WAT      O57148   0.348  10.077   5.281  0.3217  0.3374  0.1608
13836WAT     H157149   0.369  10.165   5.250 -1.0100  0.9113  0.7919
13836WAT     H257150   0.405  10.063   5.356  2.0245 -0.2049 -1.1608
13836WAT    EPW57151   0.358  10.087   5.286  0.3707  0.3414  0.0694
13837WAT      O57152   9.683   0.721   0.229 -0.1177 -0.4566  0.6102
13837WAT     H157153   9.725   0.646   0.186 -1.5756 -0.9476 -0.0383
13837WAT     H257154   9.692   0.703   0.322  0.1997 -1.0694  0.4704
13837WAT    EPW57155   9.689   0.708   0.235 -0.2680 -0.6022  0.5062
13838WAT      O57156   2.555   7.951   8.544  0.2292  0.3649  0.0718
13838WAT     H157157   2.592   7.907   8.467  2.0882  0.6868  0.7361
13838WAT     H257158   2.529   7.879   8.601  0.8837  0.1134  0.0650
13838WAT    EPW57159   2.557   7.936   8.541  0.5608  0.3741  0.1588
13839WAT      O57160   3.361   8.876   8.891  0.5076  0.2845  0.2184
13839WAT     H157161   3.326   8.910   8.808 -0.1652 -0.0403  0.3651
13839WAT     H257162   3.435   8.821   8.865  0.2523  0.1232 -0.1764
13839WAT    EPW57163   3.366   8.874   8.876  0.3853  0.2203  0.1855
13840WAT      O57164   2.413   6.097   8.941 -0.5233  0.1103  0.6873
13840WAT     H157165   2.499   6.094   8.900 -1.4257  1.5696 -1.5076
13840WAT     H257166   2.384   6.006   8.944 -0.7573 -0.0767 -2.9123
13840WAT    EPW57167   2.421   6.085   8.936 -0.6733  0.2782 -0.0768
13841WAT      O57168   2.693   5.469   8.061  0.3150 -0.0804 -0.0131
13841WAT     H157169   2.765   5.407   8.064  0.7549  0.2616 -2.3012
13841WAT     H257170   2.726   5.544   8.012 -1.4959  0.1935 -0.9119
13841WAT    EPW57171   2.707   5.471   8.055  0.1341  0.0010 -0.4334
13842WAT      O57172   2.935   6.121   1.610  0.6854  0.1709  0.1550
13842WAT     H157173   2.887   6.174   1.547  0.2609  0.1970  0.4944
13842WAT     H257174   2.968   6.184   1.674  0.9079  0.1179  0.0942
13842WAT    EPW57175   2.933   6.136   1.611  0.6588  0.1674  0.1917
13843WAT      O57176   9.316   0.240   0.195 -0.9302  0.7015 -0.0339
13843WAT     H157177   9.320   0.289   0.113  2.7829  0.5523 -0.1038
13843WAT     H257178   9.290   0.152   0.169 -2.1856  1.2326 -0.6667
13843WAT    EPW57179   9.313   0.235   0.181 -0.6065  0.7519 -0.1265
13844WAT      O57180   5.911   9.935   0.706  0.3969 -0.4169  0.3538
13844WAT     H157181   6.005   9.947   0.693  0.3040  0.5447  0.4739
13844WAT     H257182   5.874  10.022   0.692 -0.4336 -0.7098  0.6801
13844WAT    EPW57183   5.919   9.948   0.702  0.2754 -0.3290  0.4127
13845WAT      O57184   9.111   1.039   5.514  0.5660 -0.5596  0.3867
13845WAT     H157185   9.196   1.068   5.549 -0.0672 -0.2745  1.7668
13845WAT     H257186   9.047   1.094   5.559 -0.2817  0.8738 -2.3242
13845WAT    EPW57187   9.114   1.050   5.525  0.3710 -0.3329  0.2115
13846WAT      O57188   0.004   1.871   0.679  0.3957 -0.3026  0.2637
13846WAT     H157189  -0.053   1.869   0.757  0.9167 -2.2029  0.6369
13846WAT     H257190  -0.049   1.915   0.613 -0.0208  1.4845  1.6933
13846WAT    EPW57191  -0.011   1.877   0.681  0.4096 -0.3176  0.5015
13847WAT      O57192   6.095   6.465   7.501 -0.1689 -0.7628 -0.5670
13847WAT     H157193   6.189   6.484   7.494 -0.1212 -1.0239 -0.6625
13847WAT     H257194   6.070   6.500   7.587 -0.2366  0.3121 -1.0087
13847WAT    EPW57195   6.104   6.472   7.511 -0.1719 -0.6554 -0.6378
13848WAT      O57196   5.020   0.868   6.433 -0.4730 -0.5514 -0.3305
13848WAT     H157197   4.968   0.912   6.500  0.4525 -0.8596  0.6111
13848WAT     H257198   5.101   0.842   6.478 -0.7787 -2.7888 -0.9567
13848WAT    EPW57199   5.024   0.871   6.448 -0.3912 -0.8872 -0.2887
13849WAT      O57200   3.320   9.211   6.961 -0.5927 -0.6458  0.0063
13849WAT     H157201   3.281   9.124   6.955 -0.8802 -0.4328 -2.9405
13849WAT     H257202   3.250   9.271   6.934 -0.5810  0.6178  2.5677
13849WAT    EPW57203   3.306   9.208   6.956 -0.6291 -0.4511 -0.0443
13850WAT      O57204   9.999   4.773   0.749 -0.3178 -0.0196 -0.3529
13850WAT     H157205  10.052   4.774   0.670 -0.8776 -3.6819 -0.9508
13850WAT     H257206   9.992   4.680   0.772 -2.8732  0.6467  2.1426
13850WAT    EPW57207  10.005   4.761   0.742 -0.7286 -0.4146 -0.1026
13851WAT      O57208  10.914   3.164   7.582  0.2276 -0.8365  0.6067
13851WAT     H157209  10.939   3.250   7.615 -0.4176 -1.0076  1.5688
13851WAT     H257210  10.977   3.146   7.512 -0.6236  1.1323 -0.7572
13851WAT    EPW57211  10.925   3.173   7.577  0.0305 -0.5994  0.5536
13852WAT      O57212   3.410   4.796   2.111  0.0452 -0.1272  0.2182
13852WAT     H157213   3.488   4.742   2.106  1.4740  1.9286 -1.0606
13852WAT     H257214   3.407   4.843   2.028 -2.5476 -0.0793  0.2504
13852WAT    EPW57215   3.420   4.795   2.100 -0.1081  0.1504  0.0539
13853WAT      O57216   9.129   0.481   7.065 -0.1660  0.5690 -0.0065
13853WAT     H157217   9.088   0.410   7.015  1.5173 -1.1957  0.9870
13853WAT     H257218   9.091   0.473   7.152 -0.5890  1.4633 -0.0992
13853WAT    EPW57219   9.118   0.470   7.070  0.0000  0.4542  0.1123
13854WAT      O57220   0.842   4.377   3.000 -0.2197 -0.4513  0.2989
13854WAT     H157221   0.909   4.444   3.006  0.8656 -1.4447 -0.3910
13854WAT     H257222   0.888   4.295   3.015 -0.9719 -1.2967 -1.7263
13854WAT    EPW57223   0.857   4.375   3.003 -0.1758 -0.6940 -0.0594
13855WAT      O57224   5.319   9.968   6.028 -0.7732  0.0468  0.0934
13855WAT     H157225   5.339   9.920   6.108 -2.5759  0.7644  1.0224
13855WAT     H257226   5.391   9.946   5.968  1.1150  0.2104  2.1751
13855WAT    EPW57227   5.331   9.959   6.030 -0.7617  0.1631  0.4907
13856WAT      O57228   7.090   2.584   7.089  0.0207 -0.1705  1.0040
13856WAT     H157229   7.162   2.642   7.112 -0.7629  1.4922 -0.4669
13856WAT     H257230   7.132   2.501   7.067  0.9983 -1.1174  5.4532
13856WAT    EPW57231   7.105   2.581   7.089  0.0463 -0.0761  1.3971
13857WAT      O57232   8.728   6.003   0.364 -0.2321 -0.1492  0.0637
13857WAT     H157233   8.639   5.984   0.335  0.1719 -1.0056 -0.6415
13857WAT     H257234   8.785   5.957   0.302  0.6882 -0.2158  0.9211
13857WAT    EPW57235   8.724   5.994   0.352 -0.0572 -0.2706  0.0838
13858WAT      O57236   7.858   2.310   5.875 -0.3349  0.3933 -0.0722
13858WAT     H157237   7.913   2.385   5.853 -0.6794  0.2866 -1.3724
13858WAT     H257238   7.794   2.306   5.804 -1.0204 -0.4568  0.5775
13858WAT    EPW57239   7.857   2.320   5.863 -0.4706  0.2670 -0.1581
13859WAT      O57240   2.866   9.092   6.683  0.0655  0.0296  0.7121
13859WAT     H157241   2.834   9.003   6.697 -0.2373  0.2834  1.7089
13859WAT     H257242   2.961   9.082   6.675 -0.0512 -0.4870 -0.1638
13859WAT    EPW57243   2.874   9.079   6.684  0.0100 -0.0052  0.7281
13860WAT      O57244   7.995   1.825   8.446 -0.3385 -0.1275  0.1343
13860WAT     H157245   8.015   1.733   8.463 -0.2114 -0.2586 -0.7250
13860WAT     H257246   8.079   1.864   8.423 -0.5867 -0.0477 -0.6362
13860WAT    EPW57247   8.009   1.818   8.445 -0.3543 -0.1343 -0.0806
13861WAT      O57248   2.734   5.432   0.281 -0.1777  0.0407  0.3920
13861WAT     H157249   2.672   5.374   0.237  0.9454  0.8284 -2.3874
13861WAT     H257250   2.816   5.419   0.235  0.8261  1.7031  1.6175
13861WAT    EPW57251   2.736   5.422   0.269  0.1029  0.3638  0.1871
13862WAT      O57252   1.237   3.641   2.277 -0.2823 -0.1420  0.1482
13862WAT     H157253   1.203   3.627   2.188 -0.0795  1.8939 -0.3029
13862WAT     H257254   1.320   3.687   2.264 -1.4633  2.5905  1.3551
13862WAT    EPW57255   1.243   3.645   2.263 -0.4113  0.4867  0.2478
13863WAT      O57256   2.619   9.055   7.363  0.3762  0.4339 -0.0841
13863WAT     H157257   2.563   9.117   7.318 -0.4634  0.8926  1.5061
13863WAT     H257258   2.620   9.085   7.454  1.5775 -0.7272  0.3253
13863WAT    EPW57259   2.612   9.067   7.369  0.4239  0.3409  0.1798
13864WAT      O57260   6.727   2.287   6.329 -0.1398  0.1772  0.5361
13864WAT     H157261   6.816   2.269   6.300 -0.9760 -1.3228 -1.3145
13864WAT     H257262   6.726   2.260   6.421  1.4980  1.0131  0.8421
13864WAT    EPW57263   6.739   2.281   6.338 -0.0343  0.0896  0.3326
13865WAT      O57264   8.451   7.597   4.494  0.1148  0.5438 -0.8393
13865WAT     H157265   8.446   7.627   4.403  0.6838  1.8797 -0.4536
13865WAT     H257266   8.506   7.662   4.538 -1.5185  0.8932  0.8490
13865WAT    EPW57267   8.458   7.609   4.488 -0.0257  0.7660 -0.5660
13866WAT      O57268   0.193   2.975   1.630  0.7546 -0.1229 -0.0476
13866WAT     H157269   0.174   2.895   1.582 -0.5928  0.2255 -0.1331
13866WAT     H257270   0.288   2.984   1.626  0.9428 -1.7804  0.0917
13866WAT    EPW57271   0.203   2.966   1.623  0.6017 -0.2955 -0.0405
13867WAT      O57272   3.983   8.257   7.662  0.8763 -0.0850 -0.4167
13867WAT     H157273   3.924   8.283   7.591  1.8741 -0.3331 -1.3658
13867WAT     H257274   4.061   8.311   7.650  1.2211 -0.4187  0.2422
13867WAT    EPW57275   3.985   8.267   7.651  1.0535 -0.1616 -0.4551
13868WAT      O57276   7.202   1.460   6.458  0.5175  0.1916  0.7627
13868WAT     H157277   7.196   1.465   6.363  2.6244  0.2544  0.5938
13868WAT     H257278   7.125   1.409   6.484  0.0814 -0.1008 -0.9888
13868WAT    EPW57279   7.191   1.454   6.449  0.7379  0.1612  0.5093
13869WAT      O57280   3.842  10.277   3.654  0.0258  0.0569  0.1427
13869WAT     H157281   3.924  10.269   3.605 -0.6828  1.4293 -1.3077
13869WAT     H257282   3.781  10.219   3.609 -0.1505 -0.0622  0.5243
13869WAT    EPW57283   3.845  10.268   3.642 -0.0910  0.2227  0.0018
13870WAT      O57284   4.731   9.065   8.075 -0.5281  0.0452  0.0335
13870WAT     H157285   4.648   9.055   8.121 -0.4856  0.3877  0.1917
13870WAT     H257286   4.711   9.044   7.984 -0.8085  0.2151  0.0550
13870WAT    EPW57287   4.718   9.061   8.069 -0.5593  0.1125  0.0567
13871WAT      O57288   6.750   0.223   7.523  0.5821 -0.5214 -0.3352
13871WAT     H157289   6.768   0.285   7.453  1.5091  0.7400  0.9653
13871WAT     H257290   6.657   0.234   7.542  0.7812  0.6899  0.0354
13871WAT    EPW57291   6.740   0.232   7.517  0.7310 -0.1953 -0.1149
13872WAT      O57292  10.969   3.358   0.546  0.2596  0.1790 -0.2191
13872WAT     H157293  10.996   3.269   0.522 -1.0090  0.2490 -2.0789
13872WAT     H257294  10.972   3.407   0.464 -2.2132  1.0083  0.1094
13872WAT    EPW57295  10.973   3.353   0.532 -0.2338  0.2977 -0.4211
13873WAT      O57296   3.995   6.742   5.476 -0.0798 -0.4073  0.5163
13873WAT     H157297   4.004   6.719   5.383  1.0638 -0.3661  0.6036
13873WAT     H257298   3.935   6.816   5.476 -0.2518 -0.5314 -0.1689
13873WAT    EPW57299   3.988   6.748   5.464  0.0484 -0.4184  0.4375
13874WAT      O57300   2.345   6.466   1.065 -0.5652  0.2529 -0.2952
13874WAT     H157301   2.276   6.468   1.132 -0.7623 -2.6983 -0.2923
13874WAT     H257302   2.412   6.409   1.102 -0.4677 -1.0874 -2.3797
13874WAT    EPW57303   2.345   6.459   1.079 -0.5784 -0.3133 -0.5696
13875WAT      O57304   3.431   6.453   8.671 -0.6491  0.7977  0.2073
13875WAT     H157305   3.406   6.539   8.639  1.6477  2.2222  1.9265
13875WAT     H257306   3.489   6.418   8.602  0.2255  1.6320  0.5093
13875WAT    EPW57307   3.436   6.459   8.657 -0.2308  1.0958  0.4730
13876WAT      O57308   6.665   6.540   7.605 -0.7438 -1.1448 -0.9036
13876WAT     H157309   6.753   6.541   7.641 -0.9248 -0.6454 -0.4664
13876WAT     H257310   6.668   6.604   7.533 -2.0499  3.0814  2.3599
13876WAT    EPW57311   6.677   6.549   7.600 -0.9401 -0.5217 -0.4153
13877WAT      O57312   0.933   0.567   1.887 -0.9290  0.2207  0.0654
13877WAT     H157313   0.945   0.658   1.912 -1.7309  0.2076  0.5321
13877WAT     H257314   0.844   0.563   1.853 -1.0970 -0.4980  0.5560
13877WAT    EPW57315   0.923   0.578   1.886 -1.0569  0.1242  0.1916
13878WAT      O57316   9.298   2.244   0.281 -0.2688 -0.0403  0.2095
13878WAT     H157317   9.206   2.221   0.294 -0.4513 -1.1520 -2.3566
13878WAT     H257318   9.315   2.221   0.190  2.4933  0.4161  0.5321
13878WAT    EPW57319   9.288   2.238   0.271  0.0715 -0.1267 -0.0864
13879WAT      O57320   3.118  10.186   8.346  0.4759  0.2321  0.7433
13879WAT     H157321   3.069  10.113   8.308  3.0754 -0.5455 -1.3665
13879WAT     H257322   3.091  10.262   8.296  0.3815  0.0749  0.5549
13879WAT    EPW57323   3.108  10.186   8.335  0.8063  0.1092  0.4401
13880WAT      O57324   5.881   7.513   7.567  0.2763 -0.5370  0.3415
13880WAT     H157325   5.858   7.580   7.632 -1.0857 -1.1298  0.5179
13880WAT     H257326   5.850   7.548   7.484  0.9257 -0.3041  0.1937
13880WAT    EPW57327   5.873   7.526   7.565  0.1819 -0.5844  0.3452
13881WAT      O57328   7.237   1.653   8.597  0.4514  0.7286 -0.3739
13881WAT     H157329   7.208   1.576   8.549  1.1642 -0.0576  0.4265
13881WAT     H257330   7.317   1.625   8.642 -0.6970  1.0953  2.0706
13881WAT    EPW57331   7.244   1.640   8.596  0.3941  0.6734  0.0539
13882WAT      O57332   2.532   4.968   8.609  0.3162  0.2566 -0.7692
13882WAT     H157333   2.576   4.894   8.652  0.7902  0.9818  0.0312
13882WAT     H257334   2.486   5.013   8.681 -0.3660  0.4608 -1.3275
13882WAT    EPW57335   2.532   4.964   8.624  0.2888  0.3791 -0.7377
13883WAT      O57336   2.517   9.129   6.944  0.2864  0.6623  0.3302
13883WAT     H157337   2.518   9.035   6.923 -0.0753  0.3203  1.7108
13883WAT     H257338   2.609   9.150   6.962  0.6621  1.0483 -1.7701
13883WAT    EPW57339   2.529   9.119   6.944  0.2881  0.6685  0.2353
13884WAT      O57340   4.400   8.910   5.714 -0.2331 -0.3926 -0.6449
13884WAT     H157341   4.313   8.910   5.753  0.1799 -0.6997  0.3028
13884WAT     H257342   4.388   8.950   5.628 -1.6323 -2.0009 -1.2540
13884WAT    EPW57343   4.387   8.915   5.708 -0.3631 -0.6456 -0.6003
13885WAT      O57344   4.841   6.513   6.981 -0.1940  0.2064  0.0950
13885WAT     H157345   4.798   6.570   7.044 -0.9616 -2.5087  2.2120
13885WAT     H257346   4.872   6.572   6.912 -1.9864  2.9641  1.4894
13885WAT    EPW57347   4.840   6.528   6.980 -0.5317  0.2120  0.5581
13886WAT      O57348   7.035   7.437   7.720 -0.6872  0.1277  0.6596
13886WAT     H157349   6.984   7.364   7.685  1.5587 -0.7369 -1.1553
13886WAT     H257350   6.991   7.515   7.687 -0.7166 -0.5961 -1.1611
13886WAT    EPW57351   7.023   7.438   7.711 -0.3948 -0.0818  0.1800
13887WAT      O57352   0.743   3.257   1.871  0.2199  0.1733  0.4193
13887WAT     H157353   0.716   3.345   1.895  0.7723  0.6751 -0.7019
13887WAT     H257354   0.717   3.249   1.779  4.6189  1.0911 -1.1402
13887WAT    EPW57355   0.736   3.267   1.862  0.8729  0.3605  0.0657
13888WAT      O57356   5.746   9.810   8.237  0.1212  0.7384 -0.0061
13888WAT     H157357   5.709   9.862   8.309  0.5261  0.9152  0.0748
13888WAT     H257358   5.753   9.722   8.272 -1.1136  0.4843 -0.3286
13888WAT    EPW57359   5.742   9.805   8.251  0.0114  0.7281 -0.0381
13889WAT      O57360   6.199   7.461   6.479  0.2447  0.1616 -1.0381
13889WAT     H157361   6.113   7.420   6.472 -0.6705  1.7012  0.3381
13889WAT     H257362   6.256   7.393   6.513 -1.2758  0.0022  1.4120
13889WAT    EPW57363   6.195   7.447   6.482 -0.0763  0.3436 -0.5336
13890WAT      O57364   1.921  10.315   5.300 -0.4516  0.5115 -0.2892
13890WAT     H157365   1.866  10.311   5.223  0.5333 -1.0561 -0.9520
13890WAT     H257366   2.003  10.354   5.269 -0.8782  2.1291  0.5200
13890WAT    EPW57367   1.925  10.320   5.286 -0.3780  0.5178 -0.2701
13891WAT      O57368   6.406   9.551   7.569 -0.1866  0.2619  0.6264
13891WAT     H157369   6.384   9.628   7.517  0.9698 -0.2242 -0.6181
13891WAT     H257370   6.485   9.515   7.528 -0.1913 -1.0867  1.7159
13891WAT    EPW57371   6.413   9.556   7.557 -0.0346  0.0205  0.6058
13892WAT      O57372   3.717   9.974   8.054 -0.6466  0.0344  0.0011
13892WAT     H157373   3.667   9.951   8.132  0.5668 -0.6080  0.6064
13892WAT     H257374   3.705   9.899   7.995  2.5843 -1.9965  1.6289
13892WAT    EPW57375   3.709   9.961   8.056 -0.0604 -0.3185  0.2956
13893WAT      O57376   5.133  10.127   7.231  0.2150 -0.7324  0.1357
13893WAT     H157377   5.171  10.147   7.316 -0.3941 -1.6473  0.6387
13893WAT     H257378   5.068  10.059   7.249 -1.0204  0.1537 -0.8292
13893WAT    EPW57379   5.130  10.120   7.245 -0.0281 -0.7358  0.0749
13894WAT      O57380   0.873   5.903   2.086 -0.8381  0.4116 -0.2264
13894WAT     H157381   0.808   5.972   2.071 -1.4718 -0.3642 -1.2190
13894WAT     H257382   0.821   5.827   2.114 -0.0670  0.5548  1.7227
13894WAT    EPW57383   0.857   5.902   2.088 -0.8200  0.3281 -0.1004
13895WAT      O57384   7.047   3.384   8.849  0.1969 -0.4061 -0.1401
13895WAT     H157385   7.098   3.388   8.768 -0.4575 -0.9535 -0.5918
13895WAT     H257386   7.024   3.291   8.859 -2.7507  0.0814 -1.2747
13895WAT    EPW57387   7.050   3.372   8.840 -0.2778 -0.4141 -0.3495
13896WAT      O57388   7.020   2.376   8.165 -0.0048  0.3852  0.1397
13896WAT     H157389   7.102   2.328   8.170 -1.0862 -1.5744  0.0239
13896WAT     H257390   6.995   2.389   8.257  1.0182  2.1489  0.2184
13896WAT    EPW57391   7.027   2.372   8.178 -0.0124  0.3594  0.1349
13897WAT      O57392   3.331   3.814   2.761 -0.4473  0.5709  0.4479
13897WAT     H157393   3.324   3.751   2.832  0.0896  0.7571  0.6682
13897WAT     H257394   3.332   3.760   2.681 -0.3267  0.3242  0.6156
13897WAT    EPW57395   3.330   3.798   2.760 -0.3606  0.5628  0.4991
13898WAT      O57396   3.984   4.634   7.895 -0.0439  0.3250 -0.5595
13898WAT     H157397   4.007   4.666   7.982  2.3841  1.8570 -1.6788
13898WAT     H257398   3.938   4.551   7.911  1.3431 -0.0188  2.1179
13898WAT    EPW57399   3.981   4.627   7.908  0.4592  0.4814 -0.3543
13899WAT      O57400   8.779   3.801   1.013  0.1768 -0.8324  0.5949
13899WAT     H157401   8.796   3.878   1.068  0.3921 -0.9110  0.6409
13899WAT     H257402   8.685   3.788   1.018 -0.1577  0.6345 -1.0068
13899WAT    EPW57403   8.769   3.810   1.021  0.1616 -0.6493  0.3898
13900WAT      O57404   0.327   5.574   1.096  0.0995  0.3150 -0.3819
13900WAT     H157405   0.372   5.658   1.102  2.7788 -0.8798 -1.7632
13900WAT     H257406   0.351   5.528   1.176  0.5021  0.0676 -0.6398
13900WAT    EPW57407   0.336   5.579   1.107  0.5060  0.1247 -0.5981
13901WAT      O57408   2.695   0.767   3.417  0.7676  0.0842 -0.0866
13901WAT     H157409   2.764   0.833   3.428  1.2421 -0.6211  1.3677
13901WAT     H257410   2.634   0.807   3.355  0.7918  2.1123  1.0959
13901WAT    EPW57411   2.696   0.781   3.410  0.8334  0.2587  0.2612
13902WAT      O57412   4.458   6.574   8.767  0.3741 -0.9037 -0.2202
13902WAT     H157413   4.456   6.492   8.720 -2.5170 -2.0344  1.5917
13902WAT     H257414   4.477   6.550   8.858  0.7475  0.5815  0.1372
13902WAT    EPW57415   4.460   6.560   8.773  0.0417 -0.8569  0.0663
13903WAT      O57416   6.086   0.414   6.503  0.1228  0.7726 -0.1669
13903WAT     H157417   6.118   0.358   6.574 -1.0163  0.8374  0.4241
13903WAT     H257418   6.136   0.386   6.426 -1.0713 -1.7520 -0.1240
13903WAT    EPW57419   6.097   0.403   6.502 -0.1850  0.4482 -0.0832
13904WAT      O57420   3.982   8.923   8.627 -0.4822 -0.3791  0.3408
13904WAT     H157421   4.045   8.891   8.693 -1.0454 -1.7311  0.2483
13904WAT     H257422   4.011   8.883   8.545 -2.3068 -2.3047  0.5524
13904WAT    EPW57423   3.994   8.914   8.625 -0.7972 -0.8111  0.3567
13905WAT      O57424   3.336   1.032   6.440 -0.1714 -0.1453  0.8210
13905WAT     H157425   3.431   1.027   6.426 -0.4397  1.3572 -2.3751
13905WAT     H257426   3.327   1.071   6.527  2.0975 -0.6196  1.3407
13905WAT    EPW57427   3.347   1.036   6.450  0.0924 -0.0097  0.4683
13906WAT      O57428   5.936   8.277   7.990 -0.3705  0.1390 -0.0180
13906WAT     H157429   5.994   8.282   7.915  0.3384 -0.4878  0.4814
13906WAT     H257430   5.919   8.184   8.003 -0.2603  0.2141  0.7594
13906WAT    EPW57431   5.941   8.266   7.982 -0.2625  0.0663  0.1502
13907WAT      O57432   1.160   6.010   2.691  0.6520  0.3710  0.0531
13907WAT     H157433   1.253   5.987   2.684  0.1860 -0.9530 -3.1738
13907WAT     H257434   1.121   5.981   2.609 -2.6272  1.1011  1.1903
13907WAT    EPW57435   1.167   6.003   2.679  0.1580  0.2928 -0.2224
13908WAT      O57436   3.519   9.885   8.233 -0.6335 -0.6880  1.0964
13908WAT     H157437   3.428   9.905   8.212 -0.2796 -0.0669  0.1107
13908WAT     H257438   3.522   9.789   8.237 -0.7686 -0.8810 -1.6188
13908WAT    EPW57439   3.507   9.875   8.231 -0.6047 -0.6318  0.6084
13909WAT      O57440   6.670   8.227   3.930  0.1655  0.2742  0.0753
13909WAT     H157441   6.691   8.164   3.861  0.4093  0.3599  0.0665
13909WAT     H257442   6.576   8.218   3.944  0.4860 -1.4536  1.4174
13909WAT    EPW57443   6.661   8.217   3.922  0.2398  0.0577  0.2512
13910WAT      O57444   1.625   2.049   3.615 -0.3004 -0.1795 -0.1049
13910WAT     H157445   1.618   2.126   3.559  1.1787 -0.5374 -0.8358
13910WAT     H257446   1.638   1.976   3.554  0.1760 -0.7413  0.6469
13910WAT    EPW57447   1.626   2.050   3.599 -0.0425 -0.3009 -0.1020
13911WAT      O57448   5.186   8.969   7.141  0.7150 -0.4262 -0.2981
13911WAT     H157449   5.198   8.874   7.137  1.9374 -0.2630 -1.7651
13911WAT     H257450   5.253   8.999   7.203 -0.3795 -0.5855  1.0043
13911WAT    EPW57451   5.197   8.961   7.148  0.7319 -0.4253 -0.3197
13912WAT      O57452   9.462   0.033   5.656 -0.0033  0.3404  0.2849
13912WAT     H157453   9.413   0.058   5.578 -0.1546  0.2175  0.3409
13912WAT     H257454   9.474   0.115   5.705 -3.1413 -0.0698  2.0145
13912WAT    EPW57455   9.457   0.047   5.652 -0.4373  0.2701  0.5202
13913WAT      O57456  10.064   4.394   1.304 -0.1053 -0.1986  0.3652
13913WAT     H157457  10.122   4.380   1.379  1.9304 -2.2151 -1.4443
13913WAT     H257458  10.122   4.419   1.232 -1.7440 -0.0702 -0.9871
13913WAT    EPW57459  10.079   4.395   1.304 -0.0529 -0.4478 -0.0519
13914WAT      O57460   4.405   7.950   7.832  0.3936  0.6404  0.5133
13914WAT     H157461   4.373   7.863   7.807  2.1959 -0.0415  0.3734
13914WAT     H257462   4.483   7.932   7.885  2.1994  2.1430 -1.4660
13914WAT    EPW57463   4.411   7.936   7.836  0.8695  0.7486  0.2341
13915WAT      O57464   6.743  10.353   8.274 -0.1408  0.2313  0.6483
13915WAT     H157465   6.663  10.387   8.234 -1.4549  3.0995  4.9609
13915WAT     H257466   6.712  10.296   8.345  1.4711  1.6388  2.6163
13915WAT    EPW57467   6.729  10.350   8.278 -0.1013  0.7949  1.4772
13916WAT      O57468   3.650   6.697   7.779  0.5932 -0.6528 -0.1580
13916WAT     H157469   3.692   6.655   7.703  0.6922  0.5757 -0.8170
13916WAT     H257470   3.558   6.705   7.754  0.5652 -0.5343 -0.0169
13916WAT    EPW57471   3.643   6.692   7.765  0.6025 -0.4752 -0.2263
13917WAT      O57472   3.109   9.883   6.564 -0.2250  0.0181 -0.0321
13917WAT     H157473   3.202   9.893   6.584 -0.4467  1.3258  0.4181
13917WAT     H257474   3.089   9.956   6.505 -0.5035 -1.4787 -1.9032
13917WAT    EPW57475   3.119   9.894   6.559 -0.2909 -0.0067 -0.2193
13918WAT      O57476   6.712   9.775   0.404  0.1109  0.0068 -0.8991
13918WAT     H157477   6.700   9.786   0.498  1.7282 -1.2896 -0.4998
13918WAT     H257478   6.753   9.689   0.395  2.6330  1.2559 -2.5226
13918WAT    EPW57479   6.716   9.765   0.415  0.6566  0.0000 -1.0606
13919WAT      O57480   7.469   2.973   7.673  0.4295 -0.8285  0.0874
13919WAT     H157481   7.389   3.024   7.687  0.4397 -0.0597 -2.2013
13919WAT     H257482   7.452   2.923   7.593  2.0173 -1.1078 -0.1069
13919WAT    EPW57483   7.457   2.973   7.665  0.6406 -0.7639 -0.2401
13920WAT      O57484   5.406   8.166   8.650 -0.4140 -0.0788  0.1027
13920WAT     H157485   5.377   8.140   8.738 -1.5860 -0.8863 -0.4954
13920WAT     H257486   5.441   8.086   8.612  0.3382  0.3295 -0.0873
13920WAT    EPW57487   5.406   8.152   8.657 -0.4694 -0.1311 -0.0014
13921WAT      O57488   9.434   0.794   1.767 -0.1064 -0.3682 -0.5282
13921WAT     H157489   9.521   0.780   1.730  0.2937 -1.0596  0.6311
13921WAT     H257490   9.445   0.783   1.861 -0.7887  2.8929  0.0529
13921WAT    EPW57491   9.447   0.791   1.774 -0.1445 -0.0293 -0.2986
13922WAT      O57492   2.636   7.762   1.871  0.9623 -0.1079  0.1236
13922WAT     H157493   2.610   7.676   1.905  0.7474 -0.6180 -1.2767
13922WAT     H257494   2.574   7.779   1.800  3.7704 -0.9309 -2.7342
13922WAT    EPW57495   2.624   7.752   1.866  1.3044 -0.2840 -0.4380
13923WAT      O57496   2.392   3.510   0.086  0.4444 -0.4201  0.5020
13923WAT     H157497   2.317   3.563   0.059  0.8885 -0.2217 -0.4122
13923WAT     H257498   2.372   3.422   0.057  0.2485 -0.5086  0.9064
13923WAT    EPW57499   2.380   3.506   0.078  0.4773 -0.4063  0.4349
13924WAT      O57500  10.756   2.904   0.674  0.2067 -0.6547  0.2232
13924WAT     H157501  10.783   2.876   0.762  0.3773  0.0315  0.3977
13924WAT     H257502  10.836   2.942   0.636 -0.0113 -0.4264 -0.0073
13924WAT    EPW57503  10.770   2.905   0.681  0.2003 -0.5342  0.2158
13925WAT      O57504   2.130   9.311   5.415  0.0373  0.4222 -0.2253
13925WAT     H157505   2.191   9.264   5.358 -1.3925 -1.2962 -0.4354
13925WAT     H257506   2.082   9.369   5.356 -1.7176 -1.6391 -0.9865
13925WAT    EPW57507   2.131   9.312   5.400 -0.3827 -0.0763 -0.3533
13926WAT      O57508   4.064   7.861   6.497  0.2984 -0.4024 -0.7375
13926WAT     H157509   3.990   7.896   6.547  0.8451 -0.4229  0.1068
13926WAT     H257510   4.108   7.939   6.462 -0.7302 -0.4291 -2.1674
13926WAT    EPW57511   4.060   7.876   6.499  0.2348 -0.4086 -0.8147
13927WAT      O57512   3.450   7.156   7.047 -0.3522 -0.1730  0.4646
13927WAT     H157513   3.428   7.149   6.954  0.4553  0.4262  0.2127
13927WAT     H257514   3.520   7.222   7.050 -0.1837 -0.3783  1.4661
13927WAT    EPW57515   3.457   7.164   7.035 -0.2235 -0.1209  0.5636
13928WAT      O57516   6.912   1.680   5.169  0.6247  0.2067 -0.2765
13928WAT     H157517   6.886   1.756   5.221 -1.1208  0.9424 -2.1155
13928WAT     H257518   6.991   1.647   5.213 -0.7563  0.6953  2.8796
13928WAT    EPW57519   6.919   1.686   5.182  0.2122  0.3681 -0.1028
13929WAT      O57520   3.394   9.915   6.566 -0.4293 -0.2016  0.5701
13929WAT     H157521   3.467   9.855   6.581  0.6781  0.3260 -2.1191
13929WAT     H257522   3.410   9.988   6.626  1.6840  0.2029 -0.3867
13929WAT    EPW57523   3.406   9.917   6.576 -0.0046 -0.0787  0.0889
13930WAT      O57524   3.355   0.440   3.055 -0.4721  0.4144 -0.7571
13930WAT     H157525   3.431   0.484   3.017 -0.5644 -0.1496 -1.6383
13930WAT     H257526   3.390   0.360   3.093 -0.5158  0.5197 -0.4979
13930WAT    EPW57527   3.370   0.435   3.055 -0.4901  0.3539 -0.8390
13931WAT      O57528   3.628   8.933   8.625  0.5282  0.7890 -0.9584
13931WAT     H157529   3.668   8.998   8.683  1.5770  0.7077 -1.5608
13931WAT     H257530   3.692   8.921   8.555 -0.8657  1.1410 -2.3424
13931WAT    EPW57531   3.642   8.940   8.624  0.4826  0.8249 -1.2207
13932WAT      O57532   5.018   9.667   6.125  0.6405 -0.5352  0.2836
13932WAT     H157533   4.940   9.615   6.147  1.3746 -0.8763  2.3016
13932WAT     H257534   5.049   9.700   6.210  2.3436  0.0966 -0.5451
13932WAT    EPW57535   5.012   9.665   6.139  0.9623 -0.4969  0.4406
13933WAT      O57536   4.981   8.495   6.955 -0.5821  0.3636 -0.2426
13933WAT     H157537   5.003   8.442   7.032 -2.0398 -0.5863 -0.4531
13933WAT     H257538   5.023   8.450   6.882 -2.5863 -1.1024 -0.5567
13933WAT    EPW57539   4.990   8.482   6.956 -1.0386  0.0453 -0.3119
13934WAT      O57540   6.889   9.491   1.156  0.0927 -0.5685  0.1516
13934WAT     H157541   6.876   9.562   1.219  1.2193 -0.3569  0.1662
13934WAT     H257542   6.801   9.454   1.143 -0.9506  2.2049 -1.5228
13934WAT    EPW57543   6.875   9.495   1.163  0.1037 -0.1745 -0.0674
13935WAT      O57544   0.851   1.670   3.832 -0.0467  0.3190  0.2891
13935WAT     H157545   0.831   1.625   3.913 -1.0820  2.4423  1.3014
13935WAT     H257546   0.787   1.637   3.769  0.2055 -0.7102  0.5624
13935WAT    EPW57547   0.840   1.660   3.834 -0.1500  0.4633  0.4587
13936WAT      O57548   4.597   9.729   8.942  0.2556 -0.2195  0.5968
13936WAT     H157549   4.639   9.662   8.995 -0.1344  0.4307  1.7645
13936WAT     H257550   4.504   9.720   8.961 -0.1451 -1.2983 -1.5655
13936WAT    EPW57551   4.590   9.719   8.952  0.1514 -0.2761  0.4659
13937WAT      O57552   4.684   1.419   6.375  0.4573  0.3323 -0.2429
13937WAT     H157553   4.750   1.395   6.439  1.2106  0.1713 -1.0630
13937WAT     H257554   4.602   1.383   6.410  0.8741  0.1467  0.5563
13937WAT    EPW57555   4.682   1.411   6.388  0.6118  0.2866 -0.2453
13938WAT      O57556   2.457   8.304   5.863  0.2410 -0.2837  0.1435
13938WAT     H157557   2.526   8.369   5.851 -0.2729  0.1146 -0.8376
13938WAT     H257558   2.452   8.291   5.958  0.0937  1.4167  0.4013
13938WAT    EPW57559   2.465   8.311   5.874  0.1538 -0.0072  0.0482
13939WAT      O57560   1.605   7.828   8.767 -0.3420  0.4008 -0.0142
13939WAT     H157561   1.521   7.813   8.724 -0.7224  3.0637 -0.3687
13939WAT     H257562   1.588   7.898   8.830  1.4065  0.3446  0.5730
13939WAT    EPW57563   1.592   7.835   8.770 -0.1616  0.7446  0.0167
13940WAT      O57564   4.889   8.803   5.736  0.1775 -0.2526  0.7890
13940WAT     H157565   4.813   8.859   5.720  0.0903 -1.1616 -2.7064
13940WAT     H257566   4.859   8.715   5.715  1.6193 -0.9409  1.4858
13940WAT    EPW57567   4.875   8.799   5.731  0.3560 -0.4630  0.4196
13941WAT      O57568   9.589   4.165   2.124  0.3091 -0.1143  0.1128
13941WAT     H157569   9.653   4.097   2.145 -0.4267 -0.3969  1.5673
13941WAT     H257570   9.629   4.246   2.155  0.8717  0.0300 -0.9551
13941WAT    EPW57571   9.603   4.167   2.131  0.2866 -0.1323  0.1638
13942WAT      O57572   3.074   7.629   7.868  0.1577  0.0125 -0.2666
13942WAT     H157573   3.006   7.572   7.905  0.4489 -0.2194 -0.0860
13942WAT     H257574   3.100   7.585   7.787  1.9442 -1.3098  0.9400
13942WAT    EPW57575   3.068   7.615   7.862  0.4318 -0.1924 -0.0837
13943WAT      O57576   8.321   0.847   6.759  0.0031 -0.0490 -0.0022
13943WAT     H157577   8.396   0.792   6.735 -0.7105 -0.4865 -1.3563
13943WAT     H257578   8.252   0.784   6.782 -0.8731  0.2050 -1.7118
13943WAT    EPW57579   8.322   0.831   6.759 -0.2065 -0.0732 -0.4063
13944WAT      O57580   0.791   2.649   1.191  0.1344  0.0685 -0.0405
13944WAT     H157581   0.735   2.721   1.162  1.1179  0.8986  0.0602
13944WAT     H257582   0.861   2.645   1.126 -0.0054 -0.9325 -0.1456
13944WAT    EPW57583   0.793   2.658   1.179  0.2457  0.0460 -0.0411
13945WAT      O57584   5.011   9.570   7.176  0.5802  0.3748  0.2137
13945WAT     H157585   4.994   9.503   7.110 -1.4017  2.2328 -1.3017
13945WAT     H257586   5.043   9.645   7.127  0.8858  1.1986  1.6080
13945WAT    EPW57587   5.013   9.571   7.161  0.3593  0.7286  0.1979
13946WAT      O57588   7.347  10.220   8.055 -1.1054  0.0433 -0.5287
13946WAT     H157589   7.253  10.236   8.065 -1.2254 -1.6148  1.8136
13946WAT     H257590   7.388  10.273   8.124 -0.5246 -0.7719 -0.2293
13946WAT    EPW57591   7.340  10.229   8.066 -1.0448 -0.2832 -0.1802
13947WAT      O57592   6.186   9.622   8.196 -0.3600  0.2957 -0.1880
13947WAT     H157593   6.267   9.582   8.164 -0.6773  0.5922 -1.3937
13947WAT     H257594   6.214   9.673   8.272  0.9961  2.1792 -1.8547
13947WAT    EPW57595   6.201   9.623   8.202 -0.2229  0.5832 -0.5665
13948WAT      O57596   9.915   7.303   2.269 -0.3639 -0.6456 -1.0940
13948WAT     H157597   9.890   7.242   2.200  0.6815  0.2022 -2.2729
13948WAT     H257598   9.943   7.382   2.222  0.6067 -0.1274  0.2774
13948WAT    EPW57599   9.916   7.305   2.254 -0.0987 -0.4656 -1.0686
13949WAT      O57600   0.715   0.716   0.541 -0.7434  0.6130  0.6962
13949WAT     H157601   0.689   0.751   0.456  2.5612 -3.6995 -2.5912
13949WAT     H257602   0.653   0.646   0.559  0.3346 -0.5475  0.0722
13949WAT    EPW57603   0.703   0.711   0.532 -0.1654 -0.1088  0.1803
13950WAT      O57604   2.521   8.124   3.600  0.1123 -0.1614  0.2439
13950WAT     H157605   2.465   8.168   3.536 -0.9072 -0.4006  0.9528
13950WAT     H257606   2.573   8.062   3.548  1.0695  1.3393 -0.6727
13950WAT    EPW57607   2.521   8.122   3.584  0.1042  0.0052  0.2165
13951WAT      O57608   6.100   2.141   6.715 -0.1994 -0.5438  0.2798
13951WAT     H157609   6.092   2.053   6.752  0.7039 -0.5734  0.4238
13951WAT     H257610   6.175   2.136   6.656 -3.2867 -1.3304 -4.0707
13951WAT    EPW57611   6.109   2.128   6.712 -0.4878 -0.6514 -0.2751
13952WAT      O57612  10.456   1.462   7.375  0.1471 -0.4470 -0.1895
13952WAT     H157613  10.452   1.391   7.312 -0.3451 -2.3747  1.8598
13952WAT     H257614  10.376   1.513   7.358 -1.5513 -2.6441  0.6647
13952WAT    EPW57615  10.445   1.459   7.365 -0.1421 -0.9910  0.1934
13953WAT      O57616   0.965   4.469   1.667  0.0438  0.5159  0.2589
13953WAT     H157617   0.964   4.564   1.655  0.5810  0.7062  1.5613
13953WAT     H257618   1.021   4.437   1.596 -3.0139  0.7329 -2.5041
13953WAT    EPW57619   0.972   4.477   1.656 -0.2887  0.5698  0.0662
13954WAT      O57620   1.103   3.000   0.716 -0.1063 -0.0423  0.6210
13954WAT     H157621   1.075   2.915   0.682  0.2594  0.5454 -1.2390
13954WAT     H257622   1.131   3.049   0.639  0.3754  1.5229  1.7404
13954WAT    EPW57623   1.103   2.995   0.702  0.0055  0.2416  0.5233
13955WAT      O57624   9.406   4.547   0.933  0.1266 -0.6815 -0.4288
13955WAT     H157625   9.324   4.573   0.974  0.5718  0.4722 -0.2234
13955WAT     H257626   9.472   4.603   0.974  1.2460 -2.4887  0.4110
13955WAT    EPW57627   9.404   4.558   0.944  0.3328 -0.7675 -0.2910
13956WAT      O57628   4.233   9.258   8.968 -0.3072  1.2575  0.7296
13956WAT     H157629   4.179   9.226   9.040 -0.2383 -0.3173  0.1372
13956WAT     H257630   4.322   9.261   9.004 -0.4964  2.0686  1.1638
13956WAT    EPW57631   4.238   9.254   8.982 -0.3233  1.1568  0.7086
13957WAT      O57632   5.904   7.712   8.208  0.0322 -0.1229  0.0731
13957WAT     H157633   5.998   7.694   8.199 -0.2124 -0.5259 -2.9193
13957WAT     H257634   5.864   7.625   8.216 -0.1368  0.0073  0.6561
13957WAT    EPW57635   5.911   7.698   8.208 -0.0226 -0.1588 -0.2451
13958WAT      O57636   4.896   8.909   8.348 -0.3262  0.2348  0.6437
13958WAT     H157637   4.902   8.912   8.443  0.0973  0.2953  0.6190
13958WAT     H257638   4.933   8.993   8.319  0.5561 -0.2238  0.3923
13958WAT    EPW57639   4.902   8.921   8.356 -0.1538  0.1822  0.6075
13959WAT      O57640   0.096   1.979   0.212  0.3334  0.1492 -1.2979
13959WAT     H157641   0.066   2.066   0.186 -2.1813 -0.0744  0.4474
13959WAT     H257642   0.026   1.920   0.181 -0.2178 -0.6741  1.2881
13959WAT    EPW57643   0.083   1.983   0.204 -0.0710  0.0112 -0.7266
13960WAT      O57644   3.047   5.740   7.855 -0.0881 -0.6238  0.6476
13960WAT     H157645   3.109   5.813   7.858  0.4789 -1.1337  1.7204
13960WAT     H257646   3.085   5.674   7.913 -2.3214 -0.3875  2.5166
13960WAT    EPW57647   3.060   5.741   7.863 -0.3078 -0.6599  1.0357
13961WAT      O57648   9.228   3.377   5.230  0.1078  0.3469  0.4026
13961WAT     H157649   9.228   3.347   5.321 -0.4955 -1.2047 -0.0708
13961WAT     H257650   9.135   3.390   5.209  0.2554  0.8728  0.0638
13961WAT    EPW57651   9.216   3.375   5.239  0.0477  0.2117  0.2954
13962WAT      O57652   1.653   5.549   2.645  0.9302  0.5535 -0.6554
13962WAT     H157653   1.668   5.504   2.562 -1.1088  0.1397 -0.8578
13962WAT     H257654   1.740   5.563   2.681  1.8687  0.5814 -2.7740
13962WAT    EPW57655   1.666   5.545   2.639  0.7850  0.5023 -0.9615
13963WAT      O57656   6.356   6.575   7.523 -0.8105  0.0823  0.1220
13963WAT     H157657   6.359   6.636   7.597 -1.0802 -0.1641  0.3384
13963WAT     H257658   6.392   6.494   7.557  2.3611  0.8964 -0.9639
13963WAT    EPW57659   6.361   6.572   7.537 -0.4277  0.1574  0.0074
13964WAT      O57660   4.651   7.472   8.203  0.1369  0.1909 -0.0909
13964WAT     H157661   4.576   7.530   8.217  0.8556  1.4481 -1.1842
13964WAT     H257662   4.613   7.391   8.170 -0.8105  0.4472  0.3451
13964WAT    EPW57663   4.636   7.469   8.201  0.1070  0.3905 -0.1779
13965WAT      O57664   3.940   9.192   7.874 -0.3129  0.3279  0.2784
13965WAT     H157665   3.915   9.279   7.843  0.4606 -0.6222 -3.6013
13965WAT     H257666   3.864   9.137   7.851  0.1763 -0.3969  0.3757
13965WAT    EPW57667   3.927   9.196   7.867 -0.1464  0.1068 -0.2203
13966WAT      O57668   2.501   8.744   8.822 -0.2413  0.6210  0.2203
13966WAT     H157669   2.495   8.742   8.726  0.7867 -1.4161  0.1305
13966WAT     H257670   2.576   8.799   8.840 -0.5063  1.1075 -0.1323
13966WAT    EPW57671   2.510   8.751   8.812 -0.1404  0.4168  0.1616
13967WAT      O57672   2.699   6.048   8.930 -0.2647  0.3063  0.4410
13967WAT     H157673   2.711   6.098   8.850 -0.4258 -0.1267  0.1454
13967WAT     H257674   2.788   6.028   8.960 -0.1996  0.7511  0.5562
13967WAT    EPW57675   2.712   6.052   8.924 -0.2774  0.3076  0.4172
13968WAT      O57676   1.854   6.916   0.840  0.7622 -0.6865 -0.0315
13968WAT     H157677   1.763   6.945   0.851  1.2417  0.2712  1.8824
13968WAT     H257678   1.898   6.991   0.800  0.5639 -1.4846 -1.8363
13968WAT    EPW57679   1.848   6.930   0.836  0.7993 -0.6652 -0.0171
13969WAT      O57680   3.192   9.333   8.405  0.3741  0.3695 -0.3704
13969WAT     H157681   3.192   9.249   8.452 -2.6034  1.0682  1.1170
13969WAT     H257682   3.211   9.398   8.472 -1.8248  1.2150 -0.5035
13969WAT    EPW57683   3.195   9.330   8.420 -0.3086  0.5736 -0.1922
13970WAT      O57684   3.604   8.486   4.740  0.0863  0.2118  0.5392
13970WAT     H157685   3.583   8.555   4.677  0.1361 -0.9058 -0.7448
13970WAT     H257686   3.536   8.495   4.807 -2.5549 -1.1070 -1.7573
13970WAT    EPW57687   3.592   8.496   4.740 -0.2555 -0.1097  0.0668
13971WAT      O57688  10.880   6.598   0.112  0.0983 -0.7361 -0.5966
13971WAT     H157689  10.888   6.630   0.202 -0.4442  1.3745 -1.2395
13971WAT     H257690  10.903   6.505   0.117 -1.1836 -0.9978  1.9331
13971WAT    EPW57691  10.884   6.590   0.124 -0.1421 -0.4923 -0.3478
13972WAT      O57692   1.930   3.062   2.276 -0.3385 -0.1082  0.0116
13972WAT     H157693   1.962   3.007   2.205  0.9123 -0.6688  0.9609
13972WAT     H257694   1.906   3.000   2.345  0.7278  0.4745  0.9574
13972WAT    EPW57695   1.931   3.046   2.276 -0.0329 -0.1054  0.2615
13973WAT      O57696   4.106  10.086   8.863  0.1594  0.2301  0.3565
13973WAT     H157697   4.114  10.011   8.805 -1.7986 -0.7907  1.3294
13973WAT     H257698   4.196  10.102   8.894  0.4016 -3.0707  1.7823
13973WAT    EPW57699   4.119  10.078   8.859 -0.0670 -0.3400  0.6723
13974WAT      O57700   1.190   9.205   0.961 -0.6684 -0.0396  0.6389
13974WAT     H157701   1.205   9.117   0.928 -2.0940  0.5738 -1.8436
13974WAT     H257702   1.147   9.192   1.046 -2.7858 -1.8129 -0.6051
13974WAT    EPW57703   1.186   9.192   0.968 -1.1356 -0.1922  0.1474
13975WAT      O57704   2.191   7.345   8.669 -0.2957 -0.0558  0.4265
13975WAT     H157705   2.248   7.302   8.606  0.6956  2.1535 -0.2896
13975WAT     H257706   2.122   7.385   8.615  0.7095  2.0861  0.6336
13975WAT    EPW57707   2.189   7.345   8.654 -0.0324  0.5181  0.3600
13976WAT      O57708   1.833   8.255   8.612  1.2152 -0.6742 -0.3040
13976WAT     H157709   1.781   8.331   8.585  2.0187  0.0610  0.1448
13976WAT     H257710   1.904   8.293   8.664  0.9849 -1.8273  0.9206
13976WAT    EPW57711   1.835   8.270   8.616  1.2908 -0.7286 -0.0834
13977WAT      O57712   8.767   0.698   8.039 -0.4419  0.3149  0.2608
13977WAT     H157713   8.820   0.619   8.042  0.3058  0.6861 -1.7864
13977WAT     H257714   8.777   0.737   8.127 -1.5957 -2.2586  1.6428
13977WAT    EPW57715   8.775   0.693   8.051 -0.4954  0.0244  0.1731
13978WAT      O57716   0.619   1.124   0.357  0.2784  0.4483 -0.6629
13978WAT     H157717   0.680   1.179   0.408 -0.3714  1.2510 -0.7257
13978WAT     H257718   0.620   1.163   0.269  2.4489 -1.7566 -1.7198
13978WAT    EPW57719   0.627   1.137   0.352  0.4790  0.2633 -0.8105
13979WAT      O57720   1.223   4.362   2.232  0.6692 -0.6158  0.8870
13979WAT     H157721   1.271   4.443   2.217 -0.0516  0.2455  2.9322
13979WAT     H257722   1.216   4.355   2.327 -1.1503 -1.9651  0.7077
13979WAT    EPW57723   1.228   4.372   2.242  0.3341 -0.6802  1.1331
13980WAT      O57724   3.368   8.462   8.123  0.0643 -0.3696  0.1393
13980WAT     H157725   3.383   8.367   8.128  1.0690 -0.1942  0.8091
13980WAT     H257726   3.275   8.470   8.102 -0.2061 -1.5038  0.7677
13980WAT    EPW57727   3.357   8.450   8.121  0.1613 -0.4954  0.3104
13981WAT      O57728   3.336   8.182   6.289 -0.0989  0.0156 -0.0416
13981WAT     H157729   3.289   8.181   6.206 -0.4210 -0.7232  0.1439
13981WAT     H257730   3.332   8.092   6.320  2.6098 -0.4381 -0.6870
13981WAT    EPW57731   3.330   8.170   6.282  0.2156 -0.1411 -0.1023
13982WAT      O57732   1.388   4.312   1.216 -0.5953  0.9229  0.1349
13982WAT     H157733   1.370   4.245   1.282  0.4687 -0.0395 -0.5187
13982WAT     H257734   1.462   4.361   1.251  2.3761 -1.8057 -1.7551
13982WAT    EPW57735   1.395   4.310   1.229 -0.0631  0.4361 -0.2006
13983WAT      O57736   6.934   1.442   6.527  0.4273  0.0083  0.1970
13983WAT     H157737   6.882   1.400   6.458 -2.0216  2.1699  0.5303
13983WAT     H257738   6.899   1.406   6.608  2.6866 -1.8591  0.4386
13983WAT    EPW57739   6.922   1.432   6.528  0.4022  0.0471  0.2728
13984WAT      O57740   2.028   3.275   1.122  0.8986 -0.0638 -0.0757
13984WAT     H157741   2.070   3.305   1.042 -1.0267 -0.5420 -1.3279
13984WAT     H257742   2.026   3.180   1.114 -0.5627 -0.0584 -0.1821
13984WAT    EPW57743   2.033   3.266   1.110  0.4518 -0.1261 -0.2549
13985WAT      O57744   0.845   9.894   6.951 -0.8054 -0.2318 -0.8093
13985WAT     H157745   0.855   9.807   6.991  1.4427  0.1280 -0.4347
13985WAT     H257746   0.796   9.878   6.871  0.2670 -2.0196 -1.1747
13985WAT    EPW57747   0.840   9.880   6.946 -0.3674 -0.4201 -0.8080
13986WAT      O57748   9.621   2.956   8.897 -0.0137 -0.1851 -0.2109
13986WAT     H157749   9.636   2.927   8.807 -0.1366 -1.9692  0.3082
13986WAT     H257750   9.678   3.033   8.907  0.8072 -0.5998 -1.4740
13986WAT    EPW57751   9.630   2.963   8.886  0.0782 -0.4750 -0.3085
13987WAT      O57752   0.440   1.574   8.589 -0.1074  0.2368 -0.5541
13987WAT     H157753   0.484   1.577   8.504  1.7847 -0.3744  0.3334
13987WAT     H257754   0.484   1.643   8.640 -0.3541 -0.2239  0.2905
13987WAT    EPW57755   0.452   1.584   8.585  0.1096  0.0955 -0.3257
13988WAT      O57756   6.213   7.760   8.438  1.0417  0.7018 -0.0541
13988WAT     H157757   6.242   7.676   8.473 -4.3583 -1.4980  0.2291
13988WAT     H257758   6.232   7.756   8.345  0.5998 -1.0856 -0.1085
13988WAT    EPW57759   6.219   7.748   8.431  0.2713  0.1760 -0.0238
13989WAT      O57760   3.102   6.341   8.912 -0.2239  0.2624 -0.0947
13989WAT     H157761   3.051   6.310   8.837  2.8127  0.0292 -2.2321
13989WAT     H257762   3.185   6.294   8.906  0.9891  1.9260  2.1259
13989WAT    EPW57763   3.106   6.331   8.901  0.3365  0.4511 -0.0839
13990WAT      O57764   0.346   9.179   4.289 -0.0425 -0.8371  0.8395
13990WAT     H157765   0.412   9.221   4.234 -0.4565  0.8931  1.5817
13990WAT     H257766   0.337   9.238   4.364 -3.2045 -0.4056  0.2520
13990WAT    EPW57767   0.353   9.192   4.292 -0.5142 -0.5527  0.8600
13991WAT      O57768   1.166   9.712   5.259  0.9529  0.1908 -0.3214
13991WAT     H157769   1.246   9.677   5.298  0.8011 -0.6923 -0.7870
13991WAT     H257770   1.139   9.782   5.319  0.7717 -1.0641  1.1267
13991WAT    EPW57771   1.173   9.717   5.272  0.9090 -0.0911 -0.1919
13992WAT      O57772   1.619   4.822   2.706 -0.0646 -0.4620 -0.0827
13992WAT     H157773   1.610   4.756   2.775  0.2826  0.9062  1.3274
13992WAT     H257774   1.529   4.844   2.683 -0.2273  0.3700  1.2587
13992WAT    EPW57775   1.606   4.816   2.712 -0.0403 -0.1717  0.2803
13993WAT      O57776  10.810   3.243   4.886 -0.1697 -0.7108 -0.0161
13993WAT     H157777  10.904   3.227   4.897 -0.3661 -1.3998  0.7706
13993WAT     H257778  10.768   3.173   4.935 -1.1008  0.3199  0.7175
13993WAT    EPW57779  10.817   3.232   4.894 -0.3181 -0.6657  0.1845
13994WAT      O57780   4.150   8.705   6.870  0.6334  0.4147 -0.1947
13994WAT     H157781   4.149   8.779   6.810  2.7383  0.6961  0.0459
13994WAT     H257782   4.216   8.645   6.834 -1.2743 -1.5732 -0.5984
13994WAT    EPW57783   4.159   8.707   6.858  0.6595  0.1898 -0.2162
13995WAT      O57784   1.115   0.915   0.336  0.5223 -0.0146 -0.0525
13995WAT     H157785   1.126   0.957   0.251 -0.8410 -0.4164 -0.4415
13995WAT     H257786   1.099   0.823   0.316 -1.1642  0.1148  0.5466
13995WAT    EPW57787   1.115   0.908   0.322  0.1200 -0.0505 -0.0248
13996WAT      O57788   4.835   6.712   6.768 -0.0413 -0.5112 -0.4070
13996WAT     H157789   4.746   6.716   6.733  0.0873  1.6829 -0.6190
13996WAT     H257790   4.891   6.738   6.694  0.5005  0.9419  0.4736
13996WAT    EPW57791   4.831   6.716   6.753  0.0470 -0.0300 -0.3188
13997WAT      O57792   3.417   7.524   4.366 -0.0445 -0.9500  0.1341
13997WAT     H157793   3.406   7.469   4.444  0.4266 -0.5211  0.5077
13997WAT     H257794   3.336   7.573   4.360 -0.3143 -1.4031  0.0210
13997WAT    EPW57795   3.405   7.523   4.375 -0.0180 -0.9530  0.1686
13998WAT      O57796  10.684   3.188   0.633 -0.1996  0.0052 -0.3586
13998WAT     H157797  10.713   3.218   0.546 -0.4825  0.5030 -0.2825
13998WAT     H257798  10.690   3.092   0.628  1.8111  0.0793 -0.2339
13998WAT    EPW57799  10.689   3.179   0.621  0.0281  0.0806 -0.3321
13999WAT      O57800   5.350   0.009   6.777  0.4658 -0.0226 -0.4223
13999WAT     H157801   5.371  -0.000   6.684  1.1698  0.3418 -0.3048
13999WAT     H257802   5.256  -0.007   6.781 -0.2941  3.1623 -1.7153
13999WAT    EPW57803   5.340   0.006   6.765  0.4582  0.4455 -0.5774
14000WAT      O57804   5.940   0.569   5.374  0.3935 -0.5243 -0.0420
14000WAT     H157805   5.955   0.569   5.279  2.4147 -2.3892  0.1978
14000WAT     H257806   6.024   0.546   5.412 -0.4991 -0.3599  2.2171
14000WAT    EPW57807   5.953   0.566   5.366  0.5424 -0.7486  0.2878
14001WAT      O57808   5.513   8.801   6.104 -0.2858 -0.4898 -0.2869
14001WAT     H157809   5.606   8.791   6.125 -0.2348 -0.6453 -0.5883
14001WAT     H257810   5.470   8.805   6.190  0.1591  1.2827 -0.0969
14001WAT    EPW57811   5.519   8.800   6.118 -0.2203 -0.2766 -0.3014
14002WAT      O57812   5.384   8.271   8.039 -0.0049 -0.4466 -0.3737
14002WAT     H157813   5.449   8.223   8.091 -1.3979  0.4703  2.4423
14002WAT     H257814   5.384   8.359   8.076 -2.6155 -0.3361 -0.4467
14002WAT    EPW57815   5.393   8.276   8.051 -0.5331 -0.3114 -0.0119
14003WAT      O57816   1.304   5.767   2.371 -0.3539  0.3148 -0.2096
14003WAT     H157817   1.368   5.739   2.437 -0.5553  1.2842  0.4232
14003WAT     H257818   1.220   5.763   2.416 -0.6808 -0.4374 -0.8754
14003WAT    EPW57819   1.302   5.763   2.386 -0.4236  0.3436 -0.2136
14004WAT      O57820   1.830   2.898   0.728 -0.7028 -1.0234 -0.0871
14004WAT     H157821   1.793   2.861   0.647 -1.2374 -1.3526  0.3001
14004WAT     H257822   1.753   2.923   0.780 -0.3626  0.2033 -0.1294
14004WAT    EPW57823   1.815   2.897   0.724 -0.7284 -0.9050 -0.0416
14005WAT      O57824   2.006   4.260   0.727  0.7678 -0.0088 -0.3402
14005WAT     H157825   1.991   4.242   0.634 -0.1477 -1.1271  0.0088
14005WAT     H257826   1.960   4.342   0.743  2.9368  1.5128 -1.3881
14005WAT    EPW57827   1.998   4.269   0.717  0.9332  0.0443 -0.4323
14006WAT      O57828   4.403   8.334   7.482  0.4801 -0.6302 -0.3645
14006WAT     H157829   4.382   8.253   7.434 -2.1032  0.1181 -0.6899
14006WAT     H257830   4.452   8.305   7.558  1.3619 -2.2715 -1.4947
14006WAT    EPW57831   4.406   8.319   7.486  0.2556 -0.7482 -0.5567
14007WAT      O57832   3.908  10.232   8.218  1.0274  0.5663  0.7118
14007WAT     H157833   3.853  10.282   8.279 -3.0021 -2.3949 -0.0833
14007WAT     H257834   3.950  10.166   8.272  0.2384  0.1058  0.7751
14007WAT    EPW57835   3.906  10.230   8.233  0.3918  0.1144  0.6156
14008WAT      O57836  10.982   8.180   1.062 -0.6654  0.1909  0.3006
14008WAT     H157837  11.072   8.149   1.070 -0.3380  1.3011  1.2419
14008WAT     H257838  10.949   8.181   1.152 -1.3070  0.6604  0.0719
14008WAT    EPW57839  10.990   8.176   1.075 -0.7067  0.3991  0.3945
14009WAT      O57840   6.332   0.065   6.570  0.1541  0.2431  0.0158
14009WAT     H157841   6.395   0.127   6.533  0.6165 -0.5970 -0.6521
14009WAT     H257842   6.306   0.011   6.496 -0.7669  0.0804  0.4508
14009WAT    EPW57843   6.337   0.066   6.555  0.0935  0.1108 -0.0148
14010WAT      O57844   4.846   7.393   6.989  0.6238  0.2571  0.0346
14010WAT     H157845   4.871   7.478   7.026 -0.0230  0.0677  0.9425
14010WAT     H257846   4.928   7.344   6.984  1.1845  1.2676 -1.4586
14010WAT    EPW57847   4.860   7.398   6.994  0.6127  0.3655 -0.0427
14011WAT      O57848  10.330   1.669   1.069  0.1346  0.3010  0.8082
14011WAT     H157849  10.339   1.639   1.159 -2.2815 -1.7192  0.4789
14011WAT     H257850  10.301   1.759   1.077 -0.3071  0.0719  2.0624
14011WAT    EPW57851  10.328   1.677   1.082 -0.2422  0.0043  0.9302
14012WAT      O57852   6.165   8.479   7.481  0.4671  0.0352 -0.4754
14012WAT     H157853   6.147   8.571   7.503 -0.9651 -0.4880  0.6384
14012WAT     H257854   6.233   8.484   7.414  1.3920  1.8780  0.5100
14012WAT    EPW57855   6.172   8.492   7.475  0.4003  0.2093 -0.1986
14013WAT      O57856   2.769   5.517   0.573  1.0974  0.0760 -0.1725
14013WAT     H157857   2.746   5.610   0.583 -0.1470 -0.3537  1.3662
14013WAT     H257858   2.746   5.497   0.482 -0.1241  0.9000 -0.0756
14013WAT    EPW57859   2.763   5.527   0.562  0.7722  0.1283  0.0432
14014WAT      O57860   0.737   7.931   7.648 -0.0478 -0.3900  0.2311
14014WAT     H157861   0.820   7.910   7.605  0.1646 -0.6359  0.7648
14014WAT     H257862   0.734   8.027   7.649  0.9669 -0.3505  1.6063
14014WAT    EPW57863   0.747   7.941   7.642  0.1141 -0.4170  0.4828
14015WAT      O57864  10.454   4.016   1.250 -0.3254  0.4886  0.0150
14015WAT     H157865  10.549   4.006   1.246 -0.3446  0.6315 -1.0500
14015WAT     H257866  10.440   4.071   1.327  0.5777  1.6676 -0.6062
14015WAT    EPW57867  10.465   4.022   1.260 -0.2093  0.6628 -0.2074
14016WAT      O57868   9.943   1.960   1.123  0.2880  0.1140 -0.8010
14016WAT     H157869   9.869   2.003   1.166  0.9617  0.3522  0.1714
14016WAT     H257870   9.919   1.868   1.120 -0.4899  0.3244 -1.4616
14016WAT    EPW57871   9.930   1.954   1.128  0.2742  0.1732 -0.7598
14017WAT      O57872   6.006   8.203   8.356  0.0545 -0.0487 -0.0390
14017WAT     H157873   6.100   8.221   8.343  0.0402 -0.0422 -0.1368
14017WAT     H257874   5.962   8.275   8.311  0.0032 -0.0387  0.0284
14017WAT    EPW57875   6.013   8.215   8.348  0.0460 -0.0463 -0.0429
14018WAT      O57876   3.228   9.782   8.668 -0.6942 -0.1893 -0.1498
14018WAT     H157877   3.226   9.795   8.574  1.2740  2.0989  0.0290
14018WAT     H257878   3.251   9.689   8.679  0.1842 -0.2262 -1.9553
14018WAT    EPW57879   3.231   9.771   8.657 -0.3186  0.1078 -0.3648
14019WAT      O57880   4.898   9.934   7.334 -0.5011 -0.2619  0.2946
14019WAT     H157881   4.818   9.961   7.379 -0.9342  0.7417 -1.0052
14019WAT     H257882   4.881   9.844   7.306 -0.3269 -0.8062  1.8383
14019WAT    EPW57883   4.885   9.926   7.337 -0.5352 -0.2012  0.3269
14020WAT      O57884   9.091   2.506   7.434 -0.0558 -0.8770 -0.5601
14020WAT     H157885   9.127   2.554   7.359  1.6055  0.4990  1.0261
14020WAT     H257886   9.166   2.457   7.470 -0.2611  0.1443  1.4070
14020WAT    EPW57887   9.106   2.506   7.429  0.1369 -0.5609 -0.0916
14021WAT      O57888   9.466   2.609   7.276 -0.3723  0.0095 -0.0954
14021WAT     H157889   9.467   2.644   7.365  0.5391 -1.0717  0.3399
14021WAT     H257890   9.501   2.680   7.222  0.2357  0.2389  0.5883
14021WAT    EPW57891   9.471   2.623   7.281 -0.1717 -0.1029  0.0520
14022WAT      O57892   6.431   9.402   8.350 -0.9384  0.8172  0.0281
14022WAT     H157893   6.340   9.377   8.360 -0.9582  1.2903  1.3407
14022WAT     H257894   6.443   9.415   8.256 -1.4609 -1.9563 -0.4981
14022WAT    EPW57895   6.421   9.401   8.339 -1.0099  0.5140  0.1321
14023WAT      O57896   4.834   7.850   5.845  0.4688  0.5622 -0.2592
14023WAT     H157897   4.769   7.913   5.877  0.6882 -0.0415  1.4598
14023WAT     H257898   4.783   7.771   5.825  0.4683  0.6035 -0.4222
14023WAT    EPW57899   4.819   7.848   5.847  0.4981  0.4880 -0.0541
14024WAT      O57900   5.995   2.779   8.538 -0.0307  0.0220 -0.4622
14024WAT     H157901   6.083   2.741   8.536  0.8803  2.0453 -0.8005
14024WAT     H257902   5.995   2.844   8.468 -2.9354 -2.1701 -2.7307
14024WAT    EPW57903   6.006   2.782   8.529 -0.2935 -0.0002 -0.8063
14025WAT      O57904   0.015   0.469   1.958 -0.9562 -0.1325 -0.3259
14025WAT     H157905  -0.054   0.448   2.021 -2.3083 -2.8881 -2.4890
14025WAT     H257906  -0.030   0.516   1.888 -0.6239 -1.4474 -1.4839
14025WAT    EPW57907  -0.000   0.472   1.957 -1.0907 -0.6693 -0.7639
14026WAT      O57908   9.472   4.104   0.756 -0.3381 -0.3667  0.6387
14026WAT     H157909   9.398   4.043   0.763  0.2581 -1.1347  0.4339
14026WAT     H257910   9.434   4.190   0.773 -1.1774 -0.8089  1.0645
14026WAT    EPW57911   9.457   4.107   0.759 -0.3710 -0.5267  0.6678
14027WAT      O57912   6.545   0.397   6.127 -1.0102 -1.2182  0.5140
14027WAT     H157913   6.594   0.412   6.208 -0.3788  2.0440 -0.3136
14027WAT     H257914   6.574   0.311   6.098  0.6606 -1.4107  2.4857
14027WAT    EPW57915   6.556   0.388   6.134 -0.7064 -0.8133  0.6649
14028WAT      O57916   1.249   4.072   7.913 -0.2870 -0.3474 -0.7894
14028WAT     H157917   1.255   3.998   7.853  1.2224 -0.0187 -1.0991
14028WAT     H257918   1.234   4.148   7.856  2.2287  0.1247 -0.9539
14028WAT    EPW57919   1.248   4.072   7.898  0.2438 -0.2415 -0.8521
14029WAT      O57920   6.036   7.516   7.834  0.1089 -0.0510  0.6496
14029WAT     H157921   6.051   7.600   7.878  1.3872 -1.2694  2.7295
14029WAT     H257922   6.110   7.506   7.774  0.0098  0.2520  0.4759
14029WAT    EPW57923   6.048   7.526   7.832  0.2644 -0.1717  0.9012
14030WAT      O57924   6.827   0.199   8.906 -0.0117  0.4892  0.2214
14030WAT     H157925   6.759   0.189   8.973  0.5229  1.5230  0.9399
14030WAT     H257926   6.782   0.239   8.832 -0.5260 -0.3266  0.0793
14030WAT    EPW57927   6.812   0.203   8.905 -0.0088  0.5179  0.2980
14031WAT      O57928   2.449   9.263   8.382 -0.1886 -0.1581 -0.3943
14031WAT     H157929   2.508   9.278   8.308  0.6302 -2.2303 -0.2254
14031WAT     H257930   2.508   9.242   8.455 -1.0616 -1.8237 -0.1157
14031WAT    EPW57931   2.465   9.262   8.381 -0.1957 -0.6509 -0.3357
14032WAT      O57932   1.793   3.500   0.137 -0.1333  0.0885 -0.4783
14032WAT     H157933   1.880   3.497   0.175 -0.5694 -1.1378  0.4886
14032WAT     H257934   1.765   3.409   0.132 -0.5168  0.2595 -2.8414
14032WAT    EPW57935   1.800   3.488   0.141 -0.2414 -0.0508 -0.6624
14033WAT      O57936   4.283   8.052   7.107  0.3173 -0.4964 -0.1407
14033WAT     H157937   4.219   8.021   7.044  1.3928  0.2014 -1.6430
14033WAT     H257938   4.231   8.078   7.183 -1.6607  2.9406 -2.3590
14033WAT    EPW57939   4.268   8.051   7.109  0.1984  0.0491 -0.6313
14034WAT      O57940   6.129   1.312   8.512 -0.2460  0.4723 -0.1299
14034WAT     H157941   6.155   1.220   8.511  0.2599  0.5926 -2.1573
14034WAT     H257942   6.078   1.322   8.593  0.3756 -1.3726  0.5338
14034WAT    EPW57943   6.125   1.302   8.523 -0.0973  0.2448 -0.3095
14035WAT      O57944   4.465   9.650   5.948  0.1378 -0.1832 -0.4670
14035WAT     H157945   4.408   9.574   5.962  0.9655 -0.5127  1.5544
14035WAT     H257946   4.508   9.663   6.033  4.1405 -0.8264 -2.1844
14035WAT    EPW57947   4.463   9.642   5.961  0.7751 -0.3114 -0.4268
14036WAT      O57948   0.982   7.961   0.622  1.2579 -0.2044 -0.3734
14036WAT     H157949   0.896   7.943   0.660  2.0504 -1.6849  0.8393
14036WAT     H257950   0.973   8.048   0.582 -0.5715  0.0008  0.3865
14036WAT    EPW57951   0.969   7.970   0.622  1.1212 -0.3726 -0.1132
14037WAT      O57952   4.617   9.167   2.782  0.9416  0.8733  0.4049
14037WAT     H157953   4.544   9.111   2.756  3.8272 -4.0120  1.4751
14037WAT     H257954   4.608   9.174   2.877  2.0854 -0.3267  0.6282
14037WAT    EPW57955   4.606   9.161   2.791  1.4729  0.0701  0.5755
14038WAT      O57956   2.610   7.975   2.041  0.0674  0.6376 -0.0690
14038WAT     H157957   2.661   8.044   2.000 -2.2863  1.2625 -2.2341
14038WAT     H257958   2.607   7.905   1.976  1.1145 -0.9170  1.4682
14038WAT    EPW57959   2.616   7.975   2.027 -0.1049  0.5152 -0.1518
14039WAT      O57960   3.242   4.278   0.063 -0.0981  0.1006  0.3890
14039WAT     H157961   3.325   4.325   0.061 -1.1213  1.9667 -0.2852
14039WAT     H257962   3.176   4.344   0.041 -1.4372 -1.9894 -2.5617
14039WAT    EPW57963   3.244   4.293   0.060 -0.4096  0.0710 -0.0891
14040WAT      O57964   4.038   7.022   0.226 -0.5439 -0.1841 -0.5978
14040WAT     H157965   3.999   6.960   0.288 -2.0232  2.3807  1.2316
14040WAT     H257966   3.964   7.067   0.186  0.4577  0.6763 -1.5646
14040WAT    EPW57967   4.023   7.020   0.229 -0.6068  0.2675 -0.4840
14041WAT      O57968   8.229   1.500   8.004  0.1114  0.1444 -0.0256
14041WAT     H157969   8.181   1.460   8.076  0.5617 -1.7970 -0.7458
14041WAT     H257970   8.309   1.534   8.045 -0.3866  0.5274  0.6429
14041WAT    EPW57971   8.233   1.499   8.019  0.1054 -0.0612 -0.0329
14042WAT      O57972  10.707   1.392   8.623 -0.4062  0.1654  0.2864
14042WAT     H157973  10.647   1.457   8.586 -1.0937  0.5066  1.9340
14042WAT     H257974  10.770   1.375   8.553 -0.2161  2.5820 -0.2131
14042WAT    EPW57975  10.707   1.398   8.609 -0.4721  0.5291  0.4382
14043WAT      O57976   1.823   9.892   6.494 -0.5650  0.6996 -0.0496
14043WAT     H157977   1.757   9.897   6.425 -0.1985  4.5207 -0.3701
14043WAT     H257978   1.906   9.905   6.449  0.0964 -0.5953  0.7420
14043WAT    EPW57979   1.825   9.894   6.479 -0.4295  1.0324  0.0124
14044WAT      O57980   4.632   8.052   7.183  0.7600  0.6791 -0.1527
14044WAT     H157981   4.668   7.973   7.142  0.5889  0.5479 -0.0498
14044WAT     H257982   4.689   8.122   7.153 -0.5802  0.9300 -2.3882
14044WAT    EPW57983   4.644   8.051   7.174  0.5605  0.6957 -0.4339
14045WAT      O57984   2.422   9.168   8.085  0.4904  0.7868  0.2465
14045WAT     H157985   2.352   9.202   8.141 -0.2676  0.8403 -0.6902
14045WAT     H257986   2.377   9.104   8.029  1.7116 -1.1901  1.4050
14045WAT    EPW57987   2.407   9.164   8.085  0.5515  0.5331  0.2761
14046WAT      O57988   4.827   9.657   8.790 -0.4844 -0.6358 -0.2018
14046WAT     H157989   4.752   9.668   8.849 -0.2124  1.7846 -0.1816
14046WAT     H257990   4.862   9.746   8.781  2.6590 -1.7224  0.1447
14046WAT    EPW57991   4.822   9.671   8.797 -0.0341 -0.4601 -0.1535
14047WAT      O57992   3.642   6.330   4.338 -0.4807 -0.3019  0.5202
14047WAT     H157993   3.686   6.339   4.422  1.9291  0.4455 -0.7127
14047WAT     H257994   3.589   6.409   4.329  1.8215  1.3014  0.0270
14047WAT    EPW57995   3.641   6.342   4.348  0.1407  0.0083  0.2923
14048WAT      O57996   0.432   4.798   1.391 -0.6395  0.1969  0.2074
14048WAT     H157997   0.425   4.885   1.351 -2.5427 -0.2103 -0.4679
14048WAT     H257998   0.513   4.801   1.442 -0.3273  2.1381 -0.3269
14048WAT    EPW57999   0.442   4.810   1.392 -0.8493  0.3996  0.0479
14049WAT      O58000   5.523   0.650   8.813  0.0388 -0.0010  0.7517
14049WAT     H158001   5.508   0.556   8.810 -0.3043  0.0710 -0.1851
14049WAT     H258002   5.613   0.659   8.844 -0.7844 -0.5392  3.5592
14049WAT    EPW58003   5.533   0.639   8.816 -0.1152 -0.0625  0.9980
14050WAT      O58004   6.319   0.127   3.998 -0.1133  0.2145 -0.9945
14050WAT     H158005   6.389   0.191   3.984  0.4377  0.2701  1.4806
14050WAT     H258006   6.356   0.064   4.059 -1.5178 -1.0129 -1.3470
14050WAT    EPW58007   6.333   0.128   4.004 -0.2258  0.0600 -0.7145
14051WAT      O58008   5.278   8.556   7.300 -0.8876  0.4452  0.6657
14051WAT     H158009   5.324   8.482   7.340 -0.4011  0.4526  0.1324
14051WAT     H258010   5.325   8.572   7.218 -0.8456  1.4966  0.8837
14051WAT    EPW58011   5.290   8.548   7.294 -0.8180  0.5851  0.6239
14052WAT      O58012   6.237   9.157   7.582  0.0904  0.6149  0.3542
14052WAT     H158013   6.209   9.066   7.595  2.0952 -0.0359  0.4330
14052WAT     H258014   6.170   9.209   7.627 -2.6191 -0.5845 -1.9344
14052WAT    EPW58015   6.224   9.151   7.590 -0.0024  0.3705  0.0627
14053WAT      O58016   1.566   6.689   7.988 -0.4330  0.3538 -0.8034
14053WAT     H158017   1.565   6.708   7.894 -2.4857 -3.2954 -1.7382
14053WAT     H258018   1.641   6.630   7.999  1.7002  3.1296  0.6017
14053WAT    EPW58019   1.575   6.684   7.977 -0.4224  0.2384 -0.7420
14054WAT      O58020   4.607  10.297   7.143 -0.1925  0.2360  0.3582
14054WAT     H158021   4.646  10.247   7.071 -0.2934 -2.1679  1.8745
14054WAT     H258022   4.536  10.346   7.102  0.4750 -0.1550 -1.3716
14054WAT    EPW58023   4.603  10.297   7.128 -0.1180 -0.1326  0.3300
14055WAT      O58024   1.636   9.562   7.994 -0.0506  0.7142 -0.0890
14055WAT     H158025   1.694   9.614   8.049  0.8954  2.4742 -2.5667
14055WAT     H258026   1.549   9.576   8.031  0.4261  2.5952  0.4363
14055WAT    EPW58027   1.632   9.571   8.006  0.1371  1.1940 -0.3467
14056WAT      O58028   9.654   3.952   0.299  0.1283  0.3962 -0.2350
14056WAT     H158029   9.685   4.041   0.282  1.0823  0.2124  0.4520
14056WAT     H258030   9.605   3.928   0.220  0.9843  1.0427 -0.9865
14056WAT    EPW58031   9.652   3.961   0.286  0.3667  0.4573 -0.2435
14057WAT      O58032   5.895  10.046   6.647  0.4898 -0.6225  0.1163
14057WAT     H158033   5.869  10.036   6.555  2.1702 -2.2013 -0.2315
14057WAT     H258034   5.953  10.123   6.646 -1.0394  0.5666  0.2335
14057WAT    EPW58035   5.899  10.055   6.635  0.5097 -0.6742  0.0861
14058WAT      O58036   3.734   5.508   1.723  0.8135  0.0714  0.5755
14058WAT     H158037   3.640   5.494   1.719  0.6864  1.0526 -1.0293
14058WAT     H258038   3.743   5.598   1.755  1.1300  0.4715 -0.5938
14058WAT    EPW58039   3.723   5.518   1.727  0.8384  0.2537  0.2096
14059WAT      O58040   8.819   1.519   8.557  0.3921  0.4523  0.0208
14059WAT     H158041   8.851   1.592   8.610  1.0387  1.4022 -1.5968
14059WAT     H258042   8.891   1.501   8.496 -0.1204 -0.9506 -0.2076
14059WAT    EPW58043   8.833   1.526   8.556  0.4101  0.3926 -0.2227
14060WAT      O58044  10.695   0.485   5.127 -0.5088  0.1128  0.8546
14060WAT     H158045  10.762   0.507   5.192 -0.1872  0.5662  0.3719
14060WAT     H258046  10.684   0.565   5.075  1.3523 -1.0753 -1.5275
14060WAT    EPW58047  10.702   0.499   5.129 -0.2208  0.0159  0.4766
14061WAT      O58048   2.295   5.986   1.011  0.3076  0.1403  0.1607
14061WAT     H158049   2.294   5.897   0.975 -2.3165  0.3307 -0.4557
14061WAT     H258050   2.289   6.043   0.934 -2.1060  0.6546  0.6422
14061WAT    EPW58051   2.294   5.982   0.996 -0.3568  0.2332  0.1428
14062WAT      O58052   5.988   8.491   8.742 -0.1005 -0.4437 -0.3138
14062WAT     H158053   5.995   8.489   8.837 -2.5169 -1.5351 -0.0802
14062WAT     H258054   6.059   8.436   8.711  0.4663 -0.4098  0.8741
14062WAT    EPW58055   5.998   8.484   8.750 -0.3443 -0.5832 -0.1264
14063WAT      O58056   3.818   9.492   6.494  0.1553 -0.7436  0.4810
14063WAT     H158057   3.914   9.500   6.490  0.1412 -0.9484 -0.7760
14063WAT     H258058   3.803   9.420   6.554  0.7596 -0.2063  1.3023
14063WAT    EPW58059   3.829   9.484   6.501  0.2332 -0.6995  0.4234
14064WAT      O58060   8.562   3.078   6.432  0.6534  0.0539 -0.0267
14064WAT     H158061   8.488   3.083   6.371 -0.1146 -1.7460  0.6986
14064WAT     H258062   8.555   2.991   6.471  2.6516  0.1900  0.7264
14064WAT    EPW58063   8.551   3.068   6.429  0.8154 -0.1656  0.1681
14065WAT      O58064   3.322   6.691   0.398 -0.3264  0.2640 -0.2383
14065WAT     H158065   3.362   6.735   0.323  0.2958  0.0114 -0.0619
14065WAT     H258066   3.309   6.761   0.463  0.7697  0.1837  0.0866
14065WAT    EPW58067   3.325   6.706   0.397 -0.0999  0.2201 -0.1722
14066WAT      O58068  10.824   1.211   7.065  0.3578 -0.5455 -0.5017
14066WAT     H158069  10.858   1.168   7.142  0.4445 -0.9702 -0.7756
14066WAT     H258070  10.737   1.173   7.052  0.3908 -0.5637 -0.6817
14066WAT    EPW58071  10.817   1.201   7.073  0.3738 -0.6039 -0.5617
14067WAT      O58072   9.383   3.706   1.766  0.2900  0.7571 -0.3962
14067WAT     H158073   9.385   3.754   1.684 -1.7558  0.4177 -0.6913
14067WAT     H258074   9.394   3.772   1.834 -0.1837  1.3146 -0.8644
14067WAT    EPW58075   9.385   3.721   1.764 -0.0424  0.7858 -0.4968
14068WAT      O58076   8.744   0.229   8.821 -0.1950  0.2488 -0.2555
14068WAT     H158077   8.665   0.207   8.771  0.0443  0.7252 -0.8609
14068WAT     H258078   8.816   0.195   8.768  0.1187  1.5247 -0.7084
14068WAT    EPW58079   8.743   0.222   8.808 -0.1216  0.4799 -0.3953
14069WAT      O58080   9.894   9.185   7.572  0.2181 -0.0459 -0.5209
14069WAT     H158081   9.875   9.131   7.496  1.0586 -0.4541 -0.4515
14069WAT     H258082   9.931   9.125   7.637  2.5771  0.7843 -0.9734
14069WAT    EPW58083   9.896   9.170   7.571  0.6404  0.0100 -0.5715
14070WAT      O58084   5.516   7.794   5.280  0.2946  0.1985  0.8104
14070WAT     H158085   5.611   7.783   5.266  0.3322  1.2937  0.0598
14070WAT     H258086   5.477   7.750   5.204  0.3207  1.9828 -0.2879
14070WAT    EPW58087   5.524   7.786   5.268  0.3030  0.5782  0.5662
14071WAT      O58088   9.842   1.287   8.217 -0.0511  0.3950  0.1607
14071WAT     H158089   9.913   1.234   8.181 -0.7456 -0.4811  0.0499
14071WAT     H258090   9.878   1.376   8.222  1.5859 -0.2742  1.5121
14071WAT    EPW58091   9.856   1.292   8.213  0.0734  0.1912  0.3242
14072WAT      O58092   3.963   9.453   8.185  0.5404 -0.6815 -0.0621
14072WAT     H158093   4.026   9.504   8.237 -0.5361 -0.7394  1.3645
14072WAT     H258094   3.890   9.513   8.171 -1.2811 -2.0731  2.6600
14072WAT    EPW58095   3.962   9.468   8.190  0.1582 -0.8726  0.4849
14073WAT      O58096   1.068   4.333   1.397 -0.1775  0.3953 -1.3603
14073WAT     H158097   1.145   4.277   1.394 -0.7934 -0.7563  1.1876
14073WAT     H258098   0.997   4.277   1.365 -0.5556  0.1461 -0.1357
14073WAT    EPW58099   1.069   4.318   1.392 -0.3086  0.2105 -0.8628
14074WAT      O58100   5.297  10.090   5.553 -0.5412 -0.0055  0.2603
14074WAT     H158101   5.340  10.100   5.468 -0.2346 -1.1162  0.2606
14074WAT     H258102   5.304   9.996   5.571 -1.3789  0.0869  1.1072
14074WAT    EPW58103   5.303  10.079   5.544 -0.6115 -0.1402  0.3722
14075WAT      O58104   6.758   0.885   8.627  0.2660  0.1808 -0.1555
14075WAT     H158105   6.843   0.842   8.630 -0.5475 -1.5234 -0.1521
14075WAT     H258106   6.771   0.963   8.573  1.4956 -0.8212 -1.3437
14075WAT    EPW58107   6.771   0.890   8.620  0.3209 -0.1761 -0.3114
14076WAT      O58108   4.008   8.009   8.079 -0.0219  0.3313 -0.4090
14076WAT     H158109   4.038   7.918   8.080  0.3577  0.4608  0.5866
14076WAT     H258110   4.049   8.045   8.000  1.2728  0.0996  0.1244
14076WAT    EPW58111   4.018   8.001   8.068  0.1991  0.3181 -0.2074
14077WAT      O58112   3.761   9.498   5.942  0.1080  1.0950  0.4657
14077WAT     H158113   3.755   9.451   5.859  0.5422 -0.5145  1.2938
14077WAT     H258114   3.693   9.565   5.937  0.8213  1.7210 -1.5928
14077WAT    EPW58115   3.751   9.500   5.930  0.2593  0.9656  0.3037
14078WAT      O58116   5.013   9.457   6.682 -0.3891 -0.6377  0.3824
14078WAT     H158117   5.034   9.529   6.621 -0.4057 -1.0967 -0.1711
14078WAT     H258118   4.939   9.413   6.642  2.5503 -4.0102 -1.9661
14078WAT    EPW58119   5.006   9.461   6.668 -0.0036 -1.1430 -0.0002
14079WAT      O58120   6.955   0.125   7.889  0.2680  0.1760  0.4742
14079WAT     H158121   6.885   0.129   7.954  1.0141 -0.3551  1.3340
14079WAT     H258122   6.960   0.213   7.853 -1.5716 -0.0170 -0.4169
14079WAT    EPW58123   6.946   0.137   7.893  0.1235  0.0805  0.4699
14080WAT      O58124   3.970   9.184   8.786  0.0565 -0.1595  0.1079
14080WAT     H158125   4.006   9.100   8.760  2.0869  1.1706 -1.7885
14080WAT     H258126   4.041   9.229   8.831 -1.7278 -0.2553  3.2882
14080WAT    EPW58127   3.984   9.179   8.788  0.0889  0.0033  0.2770
14081WAT      O58128   2.052   1.967   0.410  0.6232 -0.6693 -0.0321
14081WAT     H158129   2.049   2.055   0.447 -0.0143 -0.0639 -1.4547
14081WAT     H258130   1.986   1.967   0.340 -1.3943 -3.1183  1.6522
14081WAT    EPW58131   2.043   1.978   0.405  0.2730 -0.9124  0.0024
14082WAT      O58132  10.232   8.081   5.575 -0.5434 -0.2220  0.0949
14082WAT     H158133  10.220   8.156   5.516 -1.2692 -1.0507 -0.8450
14082WAT     H258134  10.185   8.106   5.655  0.1065  0.7481  0.1813
14082WAT    EPW58135  10.224   8.094   5.577 -0.5536 -0.2031 -0.0179
14083WAT      O58136   2.175   4.836   2.673  0.4610 -0.8712 -0.1297
14083WAT     H158137   2.146   4.751   2.641 -0.2612 -0.6775  0.0077
14083WAT     H258138   2.133   4.899   2.615 -0.9021 -0.5109  1.2041
14083WAT    EPW58139   2.166   4.833   2.661  0.1858 -0.7980  0.0644
14084WAT      O58140   2.852   6.067   8.389  0.2147 -0.2153  0.0546
14084WAT     H158141   2.872   6.018   8.469 -0.8671 -0.7479  0.0202
14084WAT     H258142   2.796   6.008   8.339  0.8275  0.1424 -1.0774
14084WAT    EPW58143   2.848   6.053   8.393  0.1529 -0.2384 -0.1001
14085WAT      O58144   0.228   6.321   4.722 -0.1550 -0.1064  0.2774
14085WAT     H158145   0.136   6.298   4.734 -0.0140 -0.7527  0.1441
14085WAT     H258146   0.271   6.238   4.699  0.3866  0.2663 -0.0774
14085WAT    EPW58147   0.222   6.307   4.720 -0.0650 -0.1426  0.2129
14086WAT      O58148  10.194   4.729   0.548 -0.9500  0.0419 -0.6672
14086WAT     H158149  10.276   4.690   0.579 -0.7716  0.3808 -0.7075
14086WAT     H258150  10.145   4.655   0.511  0.2234  0.1638 -2.5718
14086WAT    EPW58151  10.198   4.714   0.547 -0.7715  0.1025 -0.9237
14087WAT      O58152   7.573   1.619   8.756  0.0290  0.4194 -0.4061
14087WAT     H158153   7.528   1.679   8.815 -1.0677  0.6360 -1.4510
14087WAT     H258154   7.529   1.535   8.770  0.8258  0.0917  0.2331
14087WAT    EPW58155   7.562   1.616   8.766 -0.0105  0.4048 -0.4592
14088WAT      O58156   2.148   1.414   4.384 -0.2108  0.0187  0.2225
14088WAT     H158157   2.132   1.459   4.467  0.0347 -0.8171  0.7361
14088WAT     H258158   2.099   1.466   4.320 -2.2056 -0.5029  1.2146
14088WAT    EPW58159   2.139   1.427   4.387 -0.4416 -0.1603  0.4210
14089WAT      O58160   1.144   6.602   1.149  0.2467 -0.0616  0.3697
14089WAT     H158161   1.080   6.532   1.159 -0.8277  0.8578  0.2252
14089WAT     H258162   1.229   6.558   1.147 -0.5187 -1.6565 -2.4026
14089WAT    EPW58163   1.147   6.587   1.150  0.0041 -0.1509 -0.0150
14090WAT      O58164   6.253  10.311   3.660  0.0520  0.3295 -0.2044
14090WAT     H158165   6.274  10.387   3.605 -3.6450  1.6634 -0.0336
14090WAT     H258166   6.162  10.324   3.685 -0.2363 -3.3752  1.2666
14090WAT    EPW58167   6.244  10.323   3.656 -0.4737  0.0172  0.0120
14091WAT      O58168   9.000   2.292   7.255  0.2475 -0.4029 -0.2707
14091WAT     H158169   9.043   2.349   7.318 -1.9789 -0.1341  1.1187
14091WAT     H258170   8.959   2.223   7.308  0.6443 -1.7814 -1.6848
14091WAT    EPW58171   9.000   2.291   7.270  0.0067 -0.5492 -0.2742
14092WAT      O58172   6.152   7.447   7.566 -0.6451  0.2538  0.1853
14092WAT     H158173   6.062   7.464   7.538 -0.6229 -1.5280 -1.1697
14092WAT     H258174   6.154   7.353   7.585  1.0978  0.1038 -0.5480
14092WAT    EPW58175   6.140   7.437   7.565 -0.4122 -0.0012 -0.0901
14093WAT      O58176   0.992   4.790   0.304  0.0583 -0.4131  0.5619
14093WAT     H158177   0.944   4.849   0.246  1.0365 -0.8370 -0.7374
14093WAT     H258178   1.049   4.847   0.355 -1.8691  0.1121  2.2466
14093WAT    EPW58179   0.993   4.805   0.303 -0.0669 -0.3998  0.6127
14094WAT      O58180   0.092   1.665   5.199 -0.1960  0.5608  0.2965
14094WAT     H158181   0.018   1.652   5.259  0.1164  0.1132  0.5863
14094WAT     H258182   0.081   1.597   5.132  0.5788 -0.2430  0.9648
14094WAT    EPW58183   0.081   1.654   5.198 -0.0526  0.3958  0.4232
14095WAT      O58184   1.925   6.975   3.003  0.0944  0.1734  0.0019
14095WAT     H158185   1.830   6.978   3.010  0.0749  0.6690 -0.3761
14095WAT     H258186   1.948   6.883   3.015 -0.2583  0.3346  2.1999
14095WAT    EPW58187   1.916   6.963   3.005  0.0453  0.2601  0.2419
14096WAT      O58188   0.212   4.531   1.941  0.7848 -0.6495  0.4320
14096WAT     H158189   0.138   4.507   1.997  0.2278  0.8999  0.3921
14096WAT     H258190   0.273   4.577   1.999 -0.9680  3.3774 -0.5645
14096WAT    EPW58191   0.210   4.534   1.956  0.4801  0.0861  0.2953
14097WAT      O58192   5.958   0.499   8.263  0.6791  0.4052 -0.3388
14097WAT     H158193   6.020   0.425   8.258  1.7762  1.0517  2.2698
14097WAT     H258194   6.007   0.573   8.227  0.8627  0.5714  0.2392
14097WAT    EPW58195   5.973   0.499   8.258  0.8481  0.5124  0.0806
14098WAT      O58196   8.365   2.152   8.119 -0.2623  0.5132  0.7605
14098WAT     H158197   8.414   2.234   8.122  0.0634  0.2762  2.9979
14098WAT     H258198   8.283   2.171   8.165 -0.6469 -0.1435  0.3747
14098WAT    EPW58199   8.360   2.165   8.125 -0.2694  0.3954  1.0052
14099WAT      O58200   4.917   8.819   6.876 -0.0803  0.2225 -0.1573
14099WAT     H158201   4.984   8.788   6.937  0.6375  1.2283 -0.4113
14099WAT     H258202   4.838   8.828   6.929 -0.2403 -1.6803 -0.0035
14099WAT    EPW58203   4.916   8.816   6.891 -0.0069  0.1035 -0.1707
14100WAT      O58204   8.878   1.671   6.363 -0.0638 -1.0885 -0.3561
14100WAT     H158205   8.935   1.732   6.316 -2.2074  1.3998  0.0253
14100WAT     H258206   8.812   1.727   6.404 -0.2865 -3.4250  2.8380
14100WAT    EPW58207   8.876   1.686   6.362 -0.3762 -1.0685  0.1154
14101WAT      O58208   8.120   6.380   2.681 -0.5701  0.1134  0.5041
14101WAT     H158209   8.107   6.434   2.603  0.2802 -0.0697  0.2192
14101WAT     H258210   8.032   6.361   2.713 -0.8893  1.2565  0.3300
14101WAT    EPW58211   8.107   6.384   2.675 -0.4997  0.2401  0.4436
14102WAT      O58212   9.284   0.665   6.244  0.6193 -0.4946 -0.2833
14102WAT     H158213   9.207   0.658   6.188  0.8435  0.9627 -0.8138
14102WAT     H258214   9.358   0.660   6.184  0.8844 -0.0753 -0.0022
14102WAT    EPW58215   9.283   0.664   6.229  0.6843 -0.2471 -0.3164
14103WAT      O58216   0.838   5.471   1.817 -0.3318  0.3461 -0.9019
14103WAT     H158217   0.877   5.416   1.749  0.4280  2.2435 -2.1078
14103WAT     H258218   0.810   5.550   1.770 -5.2471 -0.5429 -0.0812
14103WAT    EPW58219   0.839   5.474   1.802 -0.8799  0.4792 -0.9526
14104WAT      O58220   0.634   3.539   2.995 -1.0991  0.5117  0.0618
14104WAT     H158221   0.599   3.601   3.059  0.7758  0.0312  1.6167
14104WAT     H258222   0.714   3.580   2.963 -1.8135  0.5717 -1.7552
14104WAT    EPW58223   0.640   3.552   2.999 -0.9460  0.4562  0.0272
14105WAT      O58224   6.087   7.120   0.444 -0.3916  0.4232  0.2108
14105WAT     H158225   6.032   7.133   0.521  0.0290  1.3268  0.3743
14105WAT     H258226   6.173   7.097   0.479 -0.7042 -1.2538 -0.0489
14105WAT    EPW58227   6.091   7.119   0.459 -0.3774  0.3211  0.1981
14106WAT      O58228   0.830   5.146   1.174 -0.4277  1.2408  0.7222
14106WAT     H158229   0.916   5.133   1.214 -0.3386 -0.3877  0.0467
14106WAT     H258230   0.842   5.223   1.118  0.3856  1.4485  1.1499
14106WAT    EPW58231   0.843   5.155   1.172 -0.3088  1.0533  0.6894
14107WAT      O58232   2.822   5.085   4.664  0.1722 -0.7323  0.0200
14107WAT     H158233   2.912   5.065   4.689  0.5356  1.2068  0.4685
14107WAT     H258234   2.782   5.118   4.744 -0.6345 -0.6503 -0.4091
14107WAT    EPW58235   2.829   5.087   4.678  0.1137 -0.4659  0.0226
14108WAT      O58236   1.263   0.225   7.313  0.0446 -0.4034 -0.4701
14108WAT     H158237   1.184   0.188   7.353  1.1358 -2.5545 -0.1515
14108WAT     H258238   1.334   0.194   7.368  1.2779 -0.0335 -1.7904
14108WAT    EPW58239   1.262   0.216   7.326  0.3512 -0.6383 -0.6022
14109WAT      O58240   6.578   0.516   8.470  1.0758  0.4424  0.1810
14109WAT     H158241   6.563   0.600   8.512  1.1546  0.8525 -0.6012
14109WAT     H258242   6.510   0.459   8.506 -0.0986  1.3078 -0.5652
14109WAT    EPW58243   6.567   0.519   8.480  0.9315  0.6106 -0.0210
14110WAT      O58244   3.488   9.904   7.182 -0.0011 -0.1296  0.5889
14110WAT     H158245   3.497   9.964   7.257 -2.7854  0.4983  0.5067
14110WAT     H258246   3.417   9.940   7.131  1.3914 -0.9342 -2.0879
14110WAT    EPW58247   3.480   9.917   7.185 -0.1848 -0.1526  0.2248
14111WAT      O58248   5.377   8.340   7.665 -0.3328  0.0591 -0.4369
14111WAT     H158249   5.468   8.328   7.692 -0.7243  0.4313  1.1731
14111WAT     H258250   5.344   8.251   7.652 -0.3887 -0.2133  1.3592
14111WAT    EPW58251   5.385   8.327   7.667 -0.3920  0.0725  0.0124
14112WAT      O58252   9.976   1.922   0.067  0.6504 -0.8429 -0.3406
14112WAT     H158253   9.984   1.854   0.000  2.0277 -0.4299 -0.6282
14112WAT     H258254  10.062   1.923   0.110  0.9282  1.1813 -0.8328
14112WAT    EPW58255   9.989   1.913   0.064  0.8688 -0.5214 -0.4434
14113WAT      O58256   3.980  10.313   6.217 -0.6870  0.3177 -0.3874
14113WAT     H158257   3.931  10.234   6.240  0.0832 -0.3523 -0.9776
14113WAT     H258258   3.928  10.354   6.148 -1.7852  1.0777  0.8362
14113WAT    EPW58259   3.966  10.308   6.211 -0.7305  0.3295 -0.3040
14114WAT      O58260   8.227   3.333   7.591  0.1425  0.1820 -0.1839
14114WAT     H158261   8.171   3.399   7.631  0.8654  0.3280  0.6187
14114WAT     H258262   8.166   3.273   7.548 -0.5749  0.8027 -0.0580
14114WAT    EPW58263   8.212   3.334   7.591  0.1431  0.2831 -0.0618
14115WAT      O58264   7.368   0.068   5.726  0.7552  0.5374 -0.3811
14115WAT     H158265   7.376   0.153   5.770 -0.8365  1.2846 -1.4181
14115WAT     H258266   7.308   0.085   5.653 -0.4256 -1.7153 -0.0216
14115WAT    EPW58267   7.361   0.082   5.722  0.3896  0.3388 -0.4706
14116WAT      O58268   6.767   7.392   7.898 -0.0461 -0.4101  0.3137
14116WAT     H158269   6.802   7.315   7.854 -0.7795 -1.2171  1.0940
14116WAT     H258270   6.707   7.431   7.835  1.2240  0.2293 -0.5345
14116WAT    EPW58271   6.764   7.387   7.884  0.0246 -0.4325  0.3049
14117WAT      O58272   5.479   7.607   7.752 -0.4428 -0.0691  0.0114
14117WAT     H158273   5.572   7.584   7.762 -0.5445 -0.0652  1.1212
14117WAT     H258274   5.477   7.702   7.754 -0.6407 -0.0663  2.1291
14117WAT    EPW58275   5.491   7.616   7.754 -0.4823 -0.0682  0.4368
14118WAT      O58276   8.663   1.502   7.419 -0.2414  0.8611  0.2049
14118WAT     H158277   8.730   1.546   7.471 -0.4290 -0.6568  1.8231
14118WAT     H258278   8.587   1.497   7.477 -1.0920  0.7308 -0.8795
14118WAT    EPW58279   8.662   1.507   7.433 -0.3786  0.6437  0.2754
14119WAT      O58280  10.626   6.027   0.540 -0.2711  0.2547 -0.0549
14119WAT     H158281  10.593   5.943   0.570  0.2890 -0.2657 -0.8621
14119WAT     H258282  10.566   6.052   0.469  1.0871 -0.7715 -1.6371
14119WAT    EPW58283  10.614   6.020   0.535 -0.0186  0.0505 -0.3700
14120WAT      O58284   7.729   1.370   7.558  0.4024  0.0652 -0.1267
14120WAT     H158285   7.647   1.401   7.597 -0.1960  0.2772 -1.5152
14120WAT     H258286   7.775   1.449   7.533 -0.0291 -0.0833 -1.4564
14120WAT    EPW58287   7.724   1.384   7.560  0.2663  0.0736 -0.4854
14121WAT      O58288   9.116   2.223   8.423 -0.7894  0.1913 -0.5454
14121WAT     H158289   9.132   2.215   8.329  0.9305 -0.4325 -0.2433
14121WAT     H258290   9.103   2.133   8.453  1.0118  0.1110  0.1370
14121WAT    EPW58291   9.116   2.210   8.415 -0.3252  0.0986 -0.4158
14122WAT      O58292   1.816   2.915   0.309  1.0207 -0.1517 -0.0670
14122WAT     H158293   1.874   2.855   0.356  0.6812 -0.1424  0.3690
14122WAT     H258294   1.858   3.000   0.318  0.5432 -0.0064  0.9337
14122WAT    EPW58295   1.829   2.918   0.316  0.9130 -0.1312  0.1225
14123WAT      O58296   2.443   1.125   6.292  0.3792  0.7311  0.1250
14123WAT     H158297   2.360   1.076   6.295  0.4337  0.3935 -1.9336
14123WAT     H258298   2.496   1.088   6.362 -0.6666 -0.1084  0.5040
14123WAT    EPW58299   2.439   1.114   6.301  0.2486  0.5758 -0.0966
14124WAT      O58300   8.752   0.446   6.822  0.0724 -0.3851  0.2986
14124WAT     H158301   8.718   0.401   6.900  1.8591 -1.5511  0.4708
14124WAT     H258302   8.824   0.500   6.856 -0.3344  0.5569 -0.3027
14124WAT    EPW58303   8.757   0.447   6.837  0.2542 -0.4147  0.2422
14125WAT      O58304   4.587   7.807   5.711 -0.5218 -0.3022  0.3722
14125WAT     H158305   4.547   7.893   5.723 -0.6215 -0.1154 -1.1465
14125WAT     H258306   4.540   7.768   5.637  2.6985  0.3805 -2.2981
14125WAT    EPW58307   4.576   7.813   5.703 -0.1101 -0.1874 -0.1800
14126WAT      O58308   5.313   9.224   8.186  0.0084 -0.4736 -0.6389
14126WAT     H158309   5.324   9.316   8.209 -1.8374 -0.3804  0.1263
14126WAT     H258310   5.391   9.181   8.221 -0.3203  0.4492  1.4099
14126WAT    EPW58311   5.324   9.231   8.194 -0.2785 -0.3395 -0.2685
14127WAT      O58312   4.631   9.619   8.595  0.3961  0.3685  0.1138
14127WAT     H158313   4.601   9.707   8.574  2.2239  0.8657 -0.5778
14127WAT     H258314   4.706   9.631   8.652  2.0674 -0.5837 -1.7319
14127WAT    EPW58315   4.637   9.632   8.600  0.8578  0.3085 -0.2203
14128WAT      O58316   4.894   8.107   4.424  0.4732 -0.1341 -0.0878
14128WAT     H158317   4.926   8.153   4.501 -1.1526 -0.4198  0.8056
14128WAT     H258318   4.861   8.023   4.458  0.3832 -0.5650 -1.2013
14128WAT    EPW58319   4.894   8.102   4.439  0.2472 -0.2284 -0.1166
14129WAT      O58320   4.788   0.706   8.210 -0.0089  0.0791  1.1281
14129WAT     H158321   4.781   0.711   8.115  2.0409  0.9040  0.9621
14129WAT     H258322   4.739   0.628   8.234  1.3187 -1.4459 -0.8584
14129WAT    EPW58323   4.781   0.697   8.201  0.4365 -0.0132  0.8440
14130WAT      O58324  10.276   0.739   4.117 -0.0829 -0.4156 -0.3183
14130WAT     H158325  10.219   0.684   4.171 -0.9852  1.8560  1.1484
14130WAT     H258326  10.230   0.744   4.033 -0.7491 -0.6702  0.0205
14130WAT    EPW58327  10.262   0.732   4.113 -0.2894 -0.1496 -0.0801
14131WAT      O58328  10.538   2.136   0.022  0.3249 -0.0174 -0.6413
14131WAT     H158329  10.469   2.072   0.001  2.4708 -2.0870 -1.9546
14131WAT     H258330  10.535   2.199  -0.050 -0.0257 -0.2277 -0.8145
14131WAT    EPW58331  10.528   2.136   0.010  0.5617 -0.3182 -0.8373
14132WAT      O58332   2.168   4.985   1.049 -0.5873  0.0578 -0.9931
14132WAT     H158333   2.182   4.911   1.108  1.5647  1.2056  0.0507
14132WAT     H258334   2.087   5.025   1.079 -1.3689 -1.3702 -1.0809
14132WAT    EPW58335   2.159   4.980   1.060 -0.4066  0.0207 -0.8671
14133WAT      O58336   1.397   0.201   8.460 -0.6224  0.8235  0.1928
14133WAT     H158337   1.436   0.287   8.444  1.5604  0.1776  1.6084
14133WAT     H258338   1.457   0.139   8.419 -0.9950 -0.1255  1.0286
14133WAT    EPW58339   1.410   0.204   8.453 -0.3835  0.6131  0.4897
14134WAT      O58340   7.640   0.092   8.972  0.4080  0.4508 -0.0294
14134WAT     H158341   7.641   0.058   9.061 -1.9621  0.7983  0.1856
14134WAT     H258342   7.560   0.056   8.934  1.2392  0.5205 -1.9510
14134WAT    EPW58343   7.630   0.083   8.979  0.2049  0.5057 -0.2545
14135WAT      O58344   5.906   7.496   6.308 -0.5039  0.4038  0.2265
14135WAT     H158345   5.872   7.436   6.242  2.3827 -1.8921  0.6522
14135WAT     H258346   5.864   7.468   6.390  0.4324 -0.7334  0.3336
14135WAT    EPW58347   5.896   7.485   6.310  0.0002 -0.0491  0.2966
14136WAT      O58348   7.459   2.637   6.439  0.0464  0.2464  0.3102
14136WAT     H158349   7.520   2.657   6.368  0.7337  1.0055  1.0930
14136WAT     H258350   7.513   2.595   6.506 -0.3220  0.7737  0.9436
14136WAT    EPW58351   7.474   2.634   6.438  0.0885  0.4159  0.4969
14137WAT      O58352   3.450   6.490   1.637  0.7492 -0.8495 -0.3063
14137WAT     H158353   3.524   6.431   1.629  0.4513 -1.2350 -0.2518
14137WAT     H258354   3.421   6.480   1.728  0.6303 -0.6987 -0.3262
14137WAT    EPW58355   3.456   6.481   1.648  0.6942 -0.8802 -0.3018
14138WAT      O58356  10.110   1.080   8.248 -0.1652 -0.2848  0.7006
14138WAT     H158357  10.125   1.015   8.180  0.1918 -1.0863  1.5205
14138WAT     H258358  10.162   1.156   8.221 -3.4794  1.1913 -2.2418
14138WAT    EPW58359  10.119   1.081   8.235 -0.5555 -0.1957  0.4215
14139WAT      O58360   1.589   5.919   0.547  0.1196  0.2846 -0.6911
14139WAT     H158361   1.561   5.879   0.629 -1.7750 -0.1022 -1.4794
14139WAT     H258362   1.641   5.995   0.575  2.0784 -1.4926  0.8231
14139WAT    EPW58363   1.592   5.924   0.562  0.1280 -0.0007 -0.5954
14140WAT      O58364   6.065   1.307   6.417 -0.1671  0.2595  0.6380
14140WAT     H158365   6.116   1.259   6.352 -4.5967 -2.0594 -1.6016
14140WAT     H258366   6.000   1.243   6.448 -2.7166  3.2347  2.0144
14140WAT    EPW58367   6.063   1.292   6.412 -1.0877  0.3461  0.5245
14141WAT      O58368   0.242   1.967   5.491 -0.3512  0.3716 -0.3248
14141WAT     H158369   0.152   1.937   5.502 -0.0043 -0.2437  1.0528
14141WAT     H258370   0.250   1.985   5.397 -1.4255 -1.1783 -0.7515
14141WAT    EPW58371   0.231   1.965   5.480 -0.4471  0.0860 -0.1993
14142WAT      O58372   7.073   8.069   7.775  0.1155  0.1461  0.0661
14142WAT     H158373   6.992   8.063   7.826 -0.9540 -1.9410 -1.6651
14142WAT     H258374   7.045   8.108   7.692  1.0014 -0.0533 -0.3372
14142WAT    EPW58375   7.058   8.074   7.770  0.0916 -0.1550 -0.2153
14143WAT      O58376   6.962   7.257   7.060 -0.1461 -0.1608  0.8271
14143WAT     H158377   6.867   7.267   7.059 -0.0315  0.9307  0.0765
14143WAT     H258378   6.989   7.265   6.969  0.8552  1.6573  1.2303
14143WAT    EPW58379   6.953   7.259   7.048  0.0012  0.2227  0.7813
14144WAT      O58380   8.728   2.564   8.822 -0.2666  0.1556  0.1323
14144WAT     H158381   8.678   2.615   8.759 -1.5188  0.2590  1.1776
14144WAT     H258382   8.749   2.482   8.776  0.6403  1.0365 -1.1038
14144WAT    EPW58383   8.724   2.560   8.808 -0.3119  0.2854  0.1068
14145WAT      O58384   1.011   5.641   4.152  0.0205 -0.2744 -0.7624
14145WAT     H158385   1.004   5.552   4.186  2.2849  0.1901  1.1757
14145WAT     H258386   1.084   5.680   4.201 -2.1372  3.3160 -0.0242
14145WAT    EPW58387   1.020   5.635   4.163  0.0345  0.2604 -0.4089
14146WAT      O58388   3.586   9.989   8.712 -0.0782 -0.4035 -1.0390
14146WAT     H158389   3.523  10.061   8.715  0.6754  0.2589 -1.1928
14146WAT     H258390   3.665  10.024   8.752  0.2595 -1.1916 -0.9937
14146WAT    EPW58391   3.588  10.003   8.718  0.0657 -0.4206 -1.0538
14147WAT      O58392   1.487   2.279   4.029 -0.0851 -0.2185 -0.0551
14147WAT     H158393   1.434   2.200   4.038  0.4166 -0.6150 -0.6091
14147WAT     H258394   1.440   2.332   3.965  0.9627 -1.2307 -1.7094
14147WAT    EPW58395   1.474   2.276   4.022  0.1193 -0.4042 -0.3462
14148WAT      O58396   5.494   8.357   6.503 -0.6980  0.0518 -0.7147
14148WAT     H158397   5.578   8.329   6.468 -1.0088 -0.9900 -0.6396
14148WAT     H258398   5.474   8.295   6.572 -0.9337  1.0548  0.1521
14148WAT    EPW58399   5.502   8.345   6.507 -0.7701  0.0467 -0.5906
14149WAT      O58400   0.819   6.521   5.254  0.0032 -0.1424 -0.0765
14149WAT     H158401   0.769   6.481   5.325 -1.4493  0.6851 -0.6023
14149WAT     H258402   0.909   6.520   5.286 -0.1779 -2.3588  0.5785
14149WAT    EPW58403   0.824   6.515   5.268 -0.2122 -0.3254 -0.0594
14150WAT      O58404   9.273   1.343   4.106 -0.5708  0.3705 -0.3244
14150WAT     H158405   9.322   1.422   4.081 -1.6417  1.3063  0.3899
14150WAT     H258406   9.197   1.377   4.154  0.3899 -1.1706  2.5660
14150WAT    EPW58407   9.270   1.358   4.109 -0.5851  0.2908  0.1509
14151WAT      O58408   8.100   8.847   4.811  0.3851  0.0886 -0.2167
14151WAT     H158409   8.021   8.902   4.809  1.2601  1.5166  1.7104
14151WAT     H258410   8.073   8.765   4.769 -2.1591  0.4870  0.4802
14151WAT    EPW58411   8.086   8.844   4.805  0.1645  0.3295  0.1292
14152WAT      O58412   4.501   9.329   7.724 -0.2486 -0.2846 -0.5452
14152WAT     H158413   4.460   9.398   7.672 -1.6700 -0.7006 -0.0229
14152WAT     H258414   4.595   9.346   7.717 -0.5700  2.4643  0.6010
14152WAT    EPW58415   4.508   9.340   7.716 -0.4787  0.0229 -0.3252
14153WAT      O58416   4.522   9.280   7.166  0.0306  0.0003 -0.0482
14153WAT     H158417   4.455   9.346   7.182 -1.1096 -1.0410 -0.4024
14153WAT     H258418   4.554   9.300   7.078  1.7889  1.8273  0.9144
14153WAT    EPW58419   4.518   9.292   7.157  0.1121  0.1044  0.0322
14154WAT      O58420   5.289  10.005   3.519 -0.4600  0.5589 -0.6799
14154WAT     H158421   5.318   9.916   3.500 -0.4463 -0.3916  3.0613
14154WAT     H258422   5.239   9.998   3.600 -1.4592  3.8402 -0.8438
14154WAT    EPW58423   5.286   9.992   3.527 -0.5898  0.8664 -0.2079
14155WAT      O58424   1.656   9.407   7.767  0.2753 -0.3317 -0.5639
14155WAT     H158425   1.655   9.449   7.853 -0.8108 -0.0630 -0.6958
14155WAT     H258426   1.704   9.326   7.781  0.5213 -0.0692  0.1863
14155WAT    EPW58427   1.662   9.402   7.780  0.1646 -0.2623 -0.4821
14156WAT      O58428   6.078   9.991   8.449 -0.0947  0.0411  0.9357
14156WAT     H158429   6.123  10.000   8.365 -0.2384 -0.4777  0.8004
14156WAT     H258430   6.135   9.933   8.500 -0.0789  0.2422  1.1459
14156WAT    EPW58431   6.092   9.984   8.445 -0.1118 -0.0005  0.9456
14157WAT      O58432   2.829   9.269   6.317  0.0358 -0.3400 -0.4388
14157WAT     H158433   2.757   9.323   6.349  2.2800  3.8997 -1.6764
14157WAT     H258434   2.865   9.228   6.396 -0.9394  1.2473  0.9079
14157WAT    EPW58435   2.824   9.271   6.332  0.2031  0.4287 -0.4241
14158WAT      O58436   9.611   7.372   1.335 -0.3003  0.1449  0.0651
14158WAT     H158437   9.554   7.420   1.395 -1.1588 -1.1126  0.3183
14158WAT     H258438   9.656   7.439   1.284 -2.7198  1.2162 -0.7946
14158WAT    EPW58439   9.609   7.387   1.336 -0.7334  0.1204 -0.0148
14159WAT      O58440   7.566   1.289   8.141 -0.4614  0.2297  0.3866
14159WAT     H158441   7.611   1.310   8.059  2.6674  0.0615  1.9017
14159WAT     H258442   7.606   1.347   8.206 -2.8781  0.3959  1.8399
14159WAT    EPW58443   7.577   1.299   8.139 -0.3676  0.2295  0.7782
14160WAT      O58444  10.238   8.926   7.673  1.1482  0.3597  0.5577
14160WAT     H158445  10.287   8.970   7.603  1.2187 -0.8317 -0.1736
14160WAT     H258446  10.305   8.900   7.736  1.6368 -1.8941 -0.7792
14160WAT    EPW58447  10.253   8.929   7.672  1.2221 -0.0944  0.2851
14161WAT      O58448   3.606   6.360   0.154 -0.5392 -0.1756 -0.0076
14161WAT     H158449   3.639   6.417   0.223  1.6263  0.7469 -1.6745
14161WAT     H258450   3.675   6.296   0.141 -0.0548  0.7366 -2.4514
14161WAT    EPW58451   3.619   6.359   0.161 -0.1897  0.0665 -0.5498
14162WAT      O58452   0.569   1.336   6.711  0.4851 -0.1024  0.0738
14162WAT     H158453   0.499   1.381   6.757  0.6203 -1.4811  1.7007
14162WAT     H258454   0.642   1.333   6.774  3.0196  3.4047 -2.3027
14162WAT    EPW58455   0.570   1.341   6.725  0.8372  0.1783 -0.0250
14163WAT      O58456   4.695  10.369   6.579 -0.4119 -0.2432 -1.0030
14163WAT     H158457   4.748  10.291   6.597 -0.7180 -0.3186 -0.3603
14163WAT     H258458   4.668  10.360   6.488 -1.6798 -1.6749 -0.5301
14163WAT    EPW58459   4.698  10.357   6.570 -0.6189 -0.4419 -0.8559
14164WAT      O58460   9.249   0.091   7.202  0.0735  0.2349  0.1097
14164WAT     H158461   9.202   0.164   7.243  1.1609  1.4169 -0.6821
14164WAT     H258462   9.185   0.053   7.141  0.1421  1.9373 -1.0936
14164WAT    EPW58463   9.234   0.096   7.199  0.2260  0.6153 -0.1535
14165WAT      O58464   0.580   5.268   0.044  0.1761  0.7865 -0.4245
14165WAT     H158465   0.488   5.276   0.016  0.6653  1.3762 -1.9352
14165WAT     H258466   0.615   5.196  -0.009  1.7050  3.3330 -3.1293
14165WAT    EPW58467   0.572   5.259   0.034  0.4423  1.2000 -0.9805
14166WAT      O58468   1.256   5.748   1.218 -0.6556 -0.1217  0.1902
14166WAT     H158469   1.266   5.672   1.161  1.7889  0.4859 -0.3219
14166WAT     H258470   1.239   5.821   1.159  0.4781  0.2752  0.3328
14166WAT    EPW58471   1.255   5.747   1.203 -0.1836  0.0107  0.1414
14167WAT      O58472   8.993   0.221   6.118 -0.2057  0.5893  0.2218
14167WAT     H158473   8.989   0.313   6.094 -0.6651  0.6471  0.5030
14167WAT     H258474   8.933   0.212   6.192 -0.2641  0.0445  0.1183
14167WAT    EPW58475   8.984   0.232   6.124 -0.2742  0.5250  0.2453
14168WAT      O58476   8.282   2.840   6.781  0.4370 -0.1622  0.6152
14168WAT     H158477   8.187   2.834   6.785  0.4077 -1.3741 -1.1700
14168WAT     H258478   8.313   2.759   6.822  0.5940 -1.2303 -1.5125
14168WAT    EPW58479   8.274   2.828   6.787  0.4535 -0.4630  0.0987
14169WAT      O58480   6.268   0.403   6.260  0.6525  0.0278 -0.2322
14169WAT     H158481   6.266   0.489   6.303  1.2859 -0.4790  0.8512
14169WAT     H258482   6.362   0.383   6.253  0.5077 -1.2971  1.0583
14169WAT    EPW58483   6.280   0.412   6.265  0.7169 -0.2138  0.0813
14170WAT      O58484   9.215   3.510   4.793 -0.5302  0.3681 -0.1274
14170WAT     H158485   9.277   3.545   4.729  0.6514 -0.6339  0.4137
14170WAT     H258486   9.157   3.454   4.741  0.1547 -0.1026 -0.4110
14170WAT    EPW58487   9.216   3.507   4.778 -0.2842  0.1738 -0.0935
14171WAT      O58488   5.802   6.362   6.541 -0.1067 -0.3885 -0.5505
14171WAT     H158489   5.729   6.377   6.482 -0.1855 -2.0883 -0.9468
14171WAT     H258490   5.780   6.412   6.620 -1.1070  0.0615 -1.1021
14171WAT    EPW58491   5.790   6.370   6.544 -0.2489 -0.5534 -0.6754
14172WAT      O58492   4.152   6.177   7.929  0.3653 -0.1798  0.0107
14172WAT     H158493   4.182   6.237   7.997 -0.2418  2.0906 -1.6024
14172WAT     H258494   4.057   6.184   7.932  0.3259 -0.2898 -0.8556
14172WAT    EPW58495   4.143   6.186   7.938  0.2799  0.1051 -0.3164
14173WAT      O58496   4.351   7.888   8.698  0.1370  0.2837  0.3652
14173WAT     H158497   4.428   7.928   8.658  1.0353  3.4604  4.5823
14173WAT     H258498   4.287   7.958   8.703 -2.4733 -1.7962 -1.2919
14173WAT    EPW58499   4.353   7.902   8.693 -0.0889  0.4282  0.7033
14174WAT      O58500   8.136   1.163   6.072 -0.5368 -0.4435  0.3439
14174WAT     H158501   8.095   1.101   6.133  0.3573  0.3678  1.8282
14174WAT     H258502   8.225   1.131   6.061 -0.7049 -0.6248 -0.6430
14174WAT    EPW58503   8.142   1.151   6.079 -0.4406 -0.3604  0.4094
14175WAT      O58504   5.081   8.937   6.201 -0.7549 -0.3897 -0.3295
14175WAT     H158505   5.043   8.864   6.250  0.3977 -0.8651 -0.0968
14175WAT     H258506   5.174   8.936   6.225 -0.7808  1.4192  0.0002
14175WAT    EPW58507   5.088   8.927   6.210 -0.6061 -0.2136 -0.2553
14176WAT      O58508   1.938   5.617   1.217  0.2689  0.4415  0.7335
14176WAT     H158509   2.032   5.631   1.221  0.4618  0.3436 -2.0437
14176WAT     H258510   1.928   5.523   1.206  0.0258  0.6687 -1.3740
14176WAT    EPW58511   1.949   5.606   1.216  0.2623  0.4582  0.0892
14177WAT      O58512   7.994   0.966   5.832 -0.4673 -0.0480  0.1316
14177WAT     H158513   8.066   1.018   5.867 -2.9190  2.8361  1.3133
14177WAT     H258514   7.975   0.902   5.901 -1.2087  1.4977  1.4388
14177WAT    EPW58515   8.001   0.964   5.846 -0.8883  0.5363  0.4601
14178WAT      O58516   6.658   1.777   7.398  0.1411  0.2512  0.9242
14178WAT     H158517   6.724   1.814   7.339  0.5446  0.9734  1.8024
14178WAT     H258518   6.584   1.757   7.341  1.4944 -1.6166 -0.2740
14178WAT    EPW58519   6.657   1.779   7.382  0.3729  0.1003  0.8819
14179WAT      O58520   6.276   8.284   7.265  0.3965 -0.7706  1.0205
14179WAT     H158521   6.225   8.203   7.269  1.9485 -1.9362 -0.9976
14179WAT     H258522   6.340   8.269   7.195  1.4247  1.8213  1.2919
14179WAT    EPW58523   6.278   8.271   7.257  0.7367 -0.5827  0.7901
14180WAT      O58524   3.366   8.398   7.599 -0.3100 -0.4820 -0.1939
14180WAT     H158525   3.436   8.333   7.602  0.2890  0.1567  2.2258
14180WAT     H258526   3.297   8.358   7.547  0.8174 -2.2280 -0.4037
14180WAT    EPW58527   3.366   8.384   7.592 -0.0823 -0.6280  0.0975
14181WAT      O58528   4.723   9.969   5.675  0.3389  0.0750  0.3790
14181WAT     H158529   4.752   9.961   5.585  1.6835  4.5734  0.1524
14181WAT     H258530   4.629   9.951   5.672  0.8061 -2.6644 -1.2259
14181WAT    EPW58531   4.714   9.966   5.663  0.5777  0.3066  0.1373
14182WAT      O58532   2.344   4.568   0.693  0.5190 -0.3999  0.0416
14182WAT     H158533   2.431   4.608   0.692  0.5645 -0.4605 -1.7682
14182WAT     H258534   2.348   4.504   0.763  2.0929 -0.7072 -0.2901
14182WAT    EPW58535   2.356   4.565   0.702  0.7325 -0.4482 -0.2408
14183WAT      O58536   0.814   4.561   0.984  0.4247 -0.0795 -0.1768
14183WAT     H158537   0.821   4.569   1.079 -0.7858  0.1009 -0.0890
14183WAT     H258538   0.814   4.651   0.952  3.3999 -0.1452 -0.5973
14183WAT    EPW58539   0.815   4.574   0.992  0.6575 -0.0646 -0.2207
14184WAT      O58540   4.762   9.029   7.226 -0.6186 -0.6264  0.6477
14184WAT     H158541   4.815   9.003   7.301  0.6968 -1.1070 -0.3948
14184WAT     H258542   4.790   9.119   7.207  1.7866 -1.6882 -1.4188
14184WAT    EPW58543   4.773   9.038   7.233 -0.1278 -0.8302  0.2375
14185WAT      O58544   8.976   1.468   7.741 -0.0082  0.3280 -0.6953
14185WAT     H158545   8.976   1.463   7.645 -1.8012  1.7760 -0.8189
14185WAT     H258546   9.060   1.509   7.763 -0.3227  1.6297 -1.7892
14185WAT    EPW58547   8.987   1.472   7.731 -0.2861  0.6907 -0.8559
14186WAT      O58548   3.003   3.941   0.223 -0.2546 -0.3292 -0.7612
14186WAT     H158549   3.072   3.919   0.162  0.3355  1.3976 -0.7734
14186WAT     H258550   2.929   3.965   0.168 -0.4215 -0.8244 -0.7595
14186WAT    EPW58551   3.002   3.941   0.208 -0.1987 -0.1668 -0.7626
14187WAT      O58552   8.175   2.491   7.755 -0.7189  0.5638  0.5782
14187WAT     H158553   8.185   2.542   7.835  2.6957  1.8548 -0.4717
14187WAT     H258554   8.233   2.415   7.767 -1.8813 -0.4123  0.1625
14187WAT    EPW58555   8.184   2.488   7.767 -0.4215  0.6053  0.3850
14188WAT      O58556   5.610   9.962   5.908 -0.3229  0.8786 -0.8589
14188WAT     H158557   5.607  10.055   5.885  1.2166  0.7403 -1.8232
14188WAT     H258558   5.620   9.917   5.823 -1.7777 -0.2317 -0.4778
14188WAT    EPW58559   5.611   9.968   5.893 -0.3116  0.7138 -0.9360
14189WAT      O58560   5.458   2.133   4.220 -0.9268 -0.2295 -0.6779
14189WAT     H158561   5.454   2.224   4.189 -0.9114 -0.1333 -0.4066
14189WAT     H258562   5.474   2.081   4.142 -3.6844 -0.2860 -1.3111
14189WAT    EPW58563   5.460   2.138   4.206 -1.2884 -0.2244 -0.7255
14190WAT      O58564   5.208  10.109   7.491 -0.4251 -0.8501 -0.1261
14190WAT     H158565   5.280  10.140   7.545  0.9576 -1.3441 -1.6260
14190WAT     H258566   5.153  10.058   7.552  0.3292 -0.2597  1.0892
14190WAT    EPW58567   5.210  10.106   7.506 -0.1433 -0.8373 -0.1636
14191WAT      O58568   9.852   4.421   1.079 -0.8424 -0.1980 -0.0778
14191WAT     H158569   9.763   4.411   1.114 -1.0647  2.6895  0.4633
14191WAT     H258570   9.905   4.443   1.156  0.0602 -0.5498 -0.5947
14191WAT    EPW58571   9.847   4.423   1.094 -0.7534  0.1364 -0.0747
14192WAT      O58572   8.811   4.412   0.930  0.4007  0.1292  0.5643
14192WAT     H158573   8.905   4.394   0.934  0.5600  1.1778  2.5670
14192WAT     H258574   8.805   4.508   0.936 -0.7972  0.0836  0.2463
14192WAT    EPW58575   8.823   4.423   0.931  0.2642  0.2615  0.7865
14193WAT      O58576   1.764   2.385   1.357 -0.1236  0.0466  0.2548
14193WAT     H158577   1.725   2.385   1.444 -2.9234  0.7142 -0.8912
14193WAT     H258578   1.731   2.305   1.316  4.4801 -2.6070  0.9736
14193WAT    EPW58579   1.755   2.374   1.363  0.1143 -0.2154  0.1985
14194WAT      O58580   0.132   4.546   0.546 -0.2612  0.0548  0.4928
14194WAT     H158581   0.070   4.486   0.588 -0.4164 -1.1041 -1.2846
14194WAT     H258582   0.154   4.609   0.615 -2.1588 -0.4483  1.6534
14194WAT    EPW58583   0.126   4.547   0.561 -0.5320 -0.1643  0.4114
14195WAT      O58584   4.026   1.948   3.189  0.3926  0.0139 -0.7333
14195WAT     H158585   3.958   1.918   3.128 -0.7036  0.6326  0.1354
14195WAT     H258586   4.049   2.036   3.157 -0.2971  0.4037 -0.1944
14195WAT    EPW58587   4.020   1.956   3.177  0.1569  0.1470 -0.5478
14196WAT      O58588   6.765  10.282   6.997 -0.4848 -0.2026 -0.4138
14196WAT     H158589   6.803  10.219   6.936  2.2147 -0.0402  0.9408
14196WAT     H258590   6.675  10.293   6.967 -0.7023 -3.6787 -1.5099
14196WAT    EPW58591   6.758  10.275   6.985 -0.1574 -0.6394 -0.3798
14197WAT      O58592   0.382   3.170   1.377 -0.3565  0.0170  0.2806
14197WAT     H158593   0.437   3.244   1.354  0.6903 -0.6281  0.6680
14197WAT     H258594   0.386   3.166   1.473  0.1004 -0.9174  0.2287
14197WAT    EPW58595   0.390   3.179   1.387 -0.1582 -0.1913  0.3248
14198WAT      O58596   1.840   5.731   0.229  0.8334 -0.2474 -0.7288
14198WAT     H158597   1.749   5.757   0.246  1.3987  0.7570  0.9601
14198WAT     H258598   1.836   5.687   0.144 -1.3263 -0.7671 -0.4215
14198WAT    EPW58599   1.827   5.729   0.220  0.6232 -0.1833 -0.4655
14199WAT      O58600   9.490   4.210   5.399  0.2205  0.0441 -0.0992
14199WAT     H158601   9.522   4.216   5.489 -2.1974  1.0450  0.7871
14199WAT     H258602   9.536   4.280   5.352  2.2276 -1.1056  0.0465
14199WAT    EPW58603   9.500   4.220   5.404  0.1664  0.0243  0.0370
14200WAT      O58604   2.093   8.970   6.840  0.7115 -0.3561  0.0195
14200WAT     H158605   2.124   8.891   6.886  0.7003 -1.7092 -2.1778
14200WAT     H258606   2.110   9.041   6.902  4.0696 -1.5688  0.7187
14200WAT    EPW58607   2.099   8.969   6.854  1.1529 -0.6943 -0.1776
14201WAT      O58608   8.003   1.021   6.275 -0.0144  0.2965 -0.5297
14201WAT     H158609   7.919   0.974   6.281  0.3134 -0.3097 -0.5592
14201WAT     H258610   8.065   0.965   6.322 -0.1937  2.2065  2.2191
14201WAT    EPW58611   8.000   1.007   6.282  0.0048  0.4684 -0.1712
14202WAT      O58612   3.234   6.730   0.989  1.1091  0.1554  0.3276
14202WAT     H158613   3.211   6.792   1.058  0.5166  1.2505 -0.8173
14202WAT     H258614   3.150   6.697   0.958  1.2882  0.7263 -0.7973
14202WAT    EPW58615   3.220   6.734   0.994  1.0546  0.3750  0.0282
14203WAT      O58616   0.021   3.879   1.628 -0.1544 -0.7554  0.2891
14203WAT     H158617   0.051   3.816   1.694 -0.2206  0.0454  1.1085
14203WAT     H258618  -0.045   3.932   1.674 -0.4595 -0.4120 -0.5274
14203WAT    EPW58619   0.017   3.878   1.643 -0.2033 -0.6044  0.2895
14204WAT      O58620   4.383   9.103   6.829  0.0442 -0.1058  0.5856
14204WAT     H158621   4.348   9.095   6.918  0.8605 -1.0712  0.8243
14204WAT     H258622   4.328   9.045   6.777  0.4855 -0.6623  0.7331
14204WAT    EPW58623   4.371   9.094   6.834  0.2103 -0.3066  0.6366
14205WAT      O58624   0.024   0.988   4.828 -0.1813 -0.3369 -0.1341
14205WAT     H158625   0.091   1.057   4.824 -0.4769  0.3132  3.1407
14205WAT     H258626  -0.044   1.024   4.884 -1.7840 -2.2084 -0.7808
14205WAT    EPW58627   0.024   1.002   4.835 -0.4317 -0.4980  0.2127
14206WAT      O58628   6.343   0.830   5.481  0.5259 -0.1713 -0.1164
14206WAT     H158629   6.428   0.844   5.439  1.1524  1.7314  1.6465
14206WAT     H258630   6.300   0.916   5.476 -1.3997 -1.1306 -1.0984
14206WAT    EPW58631   6.349   0.844   5.475  0.3543 -0.0470 -0.0136
14207WAT      O58632  10.273   4.255   0.293 -0.1442 -0.4048  0.6376
14207WAT     H158633  10.291   4.171   0.251  0.0043  0.3774 -0.9608
14207WAT     H258634  10.177   4.261   0.295 -0.1864  0.2145 -1.1184
14207WAT    EPW58635  10.263   4.245   0.288 -0.1302 -0.2201  0.1952
14208WAT      O58636  10.090   4.239   4.374 -0.3204 -0.2315  0.2413
14208WAT     H158637  10.036   4.160   4.372  0.8161 -1.0346 -2.0467
14208WAT     H258638  10.180   4.205   4.380  0.0817  1.0594  4.0128
14208WAT    EPW58639  10.095   4.224   4.375 -0.1178 -0.1674  0.4370
14209WAT      O58640   4.145   9.998   7.550 -0.0136 -0.0138 -1.2431
14209WAT     H158641   4.197  10.068   7.591 -1.9441  0.3759  0.7053
14209WAT     H258642   4.095  10.042   7.482  2.0660 -0.3977 -3.1659
14209WAT    EPW58643   4.145  10.013   7.547  0.0060 -0.0129 -1.2398
14210WAT      O58644   7.806   9.857   5.047 -0.3355  0.2958  0.2926
14210WAT     H158645   7.727   9.905   5.020 -1.2414  0.0852  2.3864
14210WAT     H258646   7.836   9.902   5.126  0.4474 -0.8847  0.6953
14210WAT    EPW58647   7.799   9.869   5.054 -0.3517  0.1121  0.6216
14211WAT      O58648   4.233   7.781   5.692  0.4959  0.1289  0.1583
14211WAT     H158649   4.302   7.792   5.627  0.1194  0.7902 -0.1450
14211WAT     H258650   4.152   7.784   5.642  0.0679  2.9975  0.8470
14211WAT    EPW58651   4.231   7.783   5.677  0.3896  0.5944  0.2093
14212WAT      O58652   0.456   2.897   5.644  0.3049 -0.1899  0.2426
14212WAT     H158653   0.493   2.817   5.681  0.7962 -0.2353 -0.3358
14212WAT     H258654   0.485   2.966   5.704 -4.1509 -0.8620  3.6857
14212WAT    EPW58655   0.465   2.895   5.657 -0.2180 -0.2846  0.6204
14213WAT      O58656   1.753   5.630   1.421 -0.3150 -0.0398 -0.1852
14213WAT     H158657   1.820   5.618   1.354  0.4570  0.7798  0.4094
14213WAT     H258658   1.748   5.725   1.434 -0.8085 -0.1540  0.5451
14213WAT    EPW58659   1.761   5.641   1.414 -0.2783  0.0534 -0.0105
14214WAT      O58660   6.531   7.123   8.664 -0.5730 -0.0004  0.5107
14214WAT     H158661   6.598   7.178   8.622 -3.9515  3.0985 -1.4676
14214WAT     H258662   6.535   7.040   8.615  0.8519  0.6181 -0.5161
14214WAT    EPW58663   6.541   7.119   8.652 -0.8307  0.4897  0.1144
14215WAT      O58664  10.763   5.875   4.299 -0.7930  0.1813  0.1811
14215WAT     H158665  10.675   5.911   4.286 -0.3727  1.4802  0.8002
14215WAT     H258666  10.757   5.786   4.266 -2.2613  0.3531 -0.0834
14215WAT    EPW58667  10.750   5.868   4.293 -0.9313  0.3753  0.2279
14216WAT      O58668   4.096   9.527   6.505 -0.2646  0.2320  0.2781
14216WAT     H158669   4.084   9.598   6.567 -0.1407  1.2320 -0.8218
14216WAT     H258670   4.113   9.570   6.421 -2.2675 -1.0340 -0.8710
14216WAT    EPW58671   4.096   9.542   6.502 -0.5121  0.1969 -0.0186
14217WAT      O58672   1.262   3.564   1.146  0.2336 -0.3725  0.2235
14217WAT     H158673   1.198   3.604   1.087 -0.8526  0.6683  2.0134
14217WAT     H258674   1.347   3.596   1.114 -0.4035  1.0621 -0.1049
14217WAT    EPW58675   1.265   3.574   1.134  0.0063 -0.0461  0.4162
14218WAT      O58676   8.728   0.521   5.358 -0.6076  0.3113 -0.0664
14218WAT     H158677   8.721   0.428   5.338  1.5146 -0.2721  1.5023
14218WAT     H258678   8.814   0.530   5.399 -3.1327  1.7060  6.0389
14218WAT    EPW58679   8.739   0.510   5.361 -0.6609  0.4183  0.9456
14219WAT      O58680   4.579  10.000   8.953 -0.0641 -0.2642 -0.3534
14219WAT     H158681   4.595   9.905   8.951  1.2184 -0.0651 -1.0734
14219WAT     H258682   4.662  10.037   8.983  0.3570  0.7739 -2.6124
14219WAT    EPW58683   4.592   9.992   8.957  0.1602 -0.1011 -0.7458
14220WAT      O58684   9.467   0.062   3.860 -0.5754 -0.0930 -0.5902
14220WAT     H158685   9.494   0.108   3.939  0.0717 -0.4356 -0.6124
14220WAT     H258686   9.472   0.128   3.791  1.4640 -0.4382 -0.8407
14220WAT    EPW58687   9.471   0.077   3.861 -0.2208 -0.1837 -0.6262
14221WAT      O58688   1.325   6.643   0.295  0.2120 -0.3247 -0.1347
14221WAT     H158689   1.290   6.731   0.308  1.7730  0.4313 -0.7604
14221WAT     H258690   1.306   6.622   0.203  0.3792 -0.3785 -0.1587
14221WAT    EPW58691   1.318   6.652   0.284  0.4399 -0.2320 -0.2204
14222WAT      O58692   0.444   1.777   0.296  0.1930 -0.5464 -0.3716
14222WAT     H158693   0.386   1.831   0.349  3.0989  0.3274  2.2633
14222WAT     H258694   0.453   1.825   0.214  0.0576  1.2459  0.6044
14222WAT    EPW58695   0.438   1.791   0.292  0.5584 -0.1948  0.1046
14223WAT      O58696  10.593   6.603   4.504 -0.4787  0.3303  0.0031
14223WAT     H158697  10.559   6.527   4.457  0.5988 -0.1835  0.0024
14223WAT     H258698  10.519   6.663   4.511 -0.7775  0.2444 -1.9948
14223WAT    EPW58699  10.579   6.601   4.499 -0.3762  0.2508 -0.2604
14224WAT      O58700   5.111   8.179   6.897 -0.2983  0.2127 -0.0138
14224WAT     H158701   5.133   8.116   6.828  0.4390 -1.5638  1.7180
14224WAT     H258702   5.196   8.210   6.928 -0.5717  0.2414  0.7267
14224WAT    EPW58703   5.125   8.175   6.892 -0.2370 -0.0176  0.3126
14225WAT      O58704   0.144   0.920   8.279 -0.2579 -0.2792  0.5175
14225WAT     H158705   0.126   0.950   8.189  1.1085 -0.3438  0.2084
14225WAT     H258706   0.119   0.994   8.334  1.5524  0.8871 -0.1340
14225WAT    EPW58707   0.138   0.934   8.274  0.1611 -0.1339  0.3910
14226WAT      O58708   4.707   5.725   0.105  0.8365 -0.4687  0.0108
14226WAT     H158709   4.685   5.673   0.182  2.6345  0.4160  1.1980
14226WAT     H258710   4.631   5.779   0.089  0.4608 -0.6266  1.2123
14226WAT    EPW58711   4.694   5.725   0.113  1.0242 -0.3726  0.3258
14227WAT      O58712   7.501   1.036   7.578  0.0756 -0.2953 -0.0694
14227WAT     H158713   7.593   1.032   7.604  0.0540 -1.4598 -0.0975
14227WAT     H258714   7.459   1.089   7.645  0.6625 -0.2404  0.2654
14227WAT    EPW58715   7.508   1.042   7.590  0.1502 -0.4417 -0.0288
14228WAT      O58716  10.392   1.349   7.131  0.3229 -0.2896  0.3292
14228WAT     H158717  10.456   1.285   7.099 -0.5646  0.0939 -2.4451
14228WAT     H258718  10.380   1.409   7.058 -1.0976  1.3148  1.8161
14228WAT    EPW58719  10.399   1.348   7.117  0.0186 -0.0274  0.1595
14229WAT      O58720   6.666   3.625   8.375 -0.1691 -0.1633 -0.3854
14229WAT     H158721   6.600   3.686   8.407  0.7335  0.8198 -0.3455
14229WAT     H258722   6.617   3.562   8.321 -1.1982  0.2195  0.0931
14229WAT    EPW58723   6.651   3.624   8.372 -0.1860  0.0169 -0.3171
14230WAT      O58724   2.218   6.409   2.551 -0.4442  0.2723 -0.0139
14230WAT     H158725   2.189   6.343   2.489 -1.2307  0.1977  0.4288
14230WAT     H258726   2.204   6.492   2.506  0.2362  0.1605 -0.4427
14230WAT    EPW58727   2.213   6.412   2.537 -0.4582  0.2477 -0.0120
14231WAT      O58728   5.727  10.118   7.335  0.4085  0.6732 -0.2802
14231WAT     H158729   5.791  10.169   7.386  0.6694 -0.8038  0.9539
14231WAT     H258730   5.643  10.162   7.351  0.8491  1.6113 -0.4958
14231WAT    EPW58731   5.724  10.131   7.344  0.5012  0.6018 -0.1459
14232WAT      O58732   1.272   2.218   5.501  0.0568 -0.3223 -0.4705
14232WAT     H158733   1.347   2.194   5.556 -0.2650  2.9061  1.6488
14232WAT     H258734   1.204   2.155   5.525  1.4501 -2.2062 -1.1373
14232WAT    EPW58735   1.273   2.206   5.511  0.1981 -0.1450 -0.2792
14233WAT      O58736   6.252  10.273   4.390  0.0156 -0.4249  0.1360
14233WAT     H158737   6.182  10.259   4.453  0.0962 -0.2431  0.2650
14233WAT     H258738   6.212  10.255   4.305 -0.1425 -0.4839  0.2233
14233WAT    EPW58739   6.238  10.269   4.387  0.0052 -0.4086  0.1643
14234WAT      O58740   6.889   7.755   6.641  0.0459 -0.6276  0.1918
14234WAT     H158741   6.796   7.769   6.662  0.1269  0.1971  0.0495
14234WAT     H258742   6.890   7.744   6.546  0.2429  0.8897 -0.0089
14234WAT    EPW58743   6.877   7.755   6.632  0.0823 -0.3188  0.1466
14235WAT      O58744   1.352   5.737   1.920  0.5879 -0.7054  0.0540
14235WAT     H158745   1.352   5.642   1.929  2.3128 -0.6456  0.9796
14235WAT     H258746   1.417   5.768   1.983  0.2278  1.0757 -0.3882
14235WAT    EPW58747   1.361   5.728   1.929  0.7679 -0.4625  0.1178
14236WAT      O58748   5.964   1.447   6.175  0.5597 -0.7865  0.0412
14236WAT     H158749   6.019   1.400   6.237  2.6525 -0.1457 -1.2392
14236WAT     H258750   5.980   1.540   6.194 -2.6291 -0.4358  1.7637
14236WAT    EPW58751   5.973   1.453   6.186  0.4153 -0.6558  0.0994
14237WAT      O58752  10.934   1.074   7.298  0.1692 -0.0974  0.0081
14237WAT     H158753  10.864   1.075   7.364 -0.2526  0.1664 -0.4372
14237WAT     H258754  11.008   1.117   7.341  0.1841 -0.7169  0.6176
14237WAT    EPW58755  10.934   1.080   7.313  0.1159 -0.1442  0.0296
14238WAT      O58756   9.786   0.940   8.038  0.2666  0.0402 -0.4160
14238WAT     H158757   9.718   0.945   7.972 -1.3712 -0.1302  1.1748
14238WAT     H258758   9.748   0.981   8.116  2.4506  1.0801  0.1989
14238WAT    EPW58759   9.772   0.946   8.040  0.3386  0.1549 -0.1254
14239WAT      O58760   0.874   0.577   5.619  0.0437  0.0933  0.2872
14239WAT     H158761   0.837   0.536   5.541 -0.7347 -2.1268  1.7389
14239WAT     H258762   0.955   0.528   5.636  0.4897  0.9083  0.5922
14239WAT    EPW58763   0.880   0.565   5.611 -0.0002 -0.0920  0.5190
14240WAT      O58764   8.236   1.521   5.900  0.0430  0.4450  0.2897
14240WAT     H158765   8.263   1.460   5.832  0.2125  0.7640  0.0701
14240WAT     H258766   8.172   1.472   5.952  3.0414 -1.4044  2.5742
14240WAT    EPW58767   8.231   1.506   5.898  0.4611  0.2432  0.5622
14241WAT      O58768   9.648   3.698   6.563 -0.1560  0.7180 -0.4992
14241WAT     H158769   9.701   3.762   6.610 -0.3328  0.4580  0.0624
14241WAT     H258770   9.691   3.690   6.477  0.5508  0.7105 -0.1544
14241WAT    EPW58771   9.661   3.706   6.558 -0.0863  0.6827 -0.3798
14242WAT      O58772   9.727   0.315   6.118 -0.1166 -0.1647 -1.1316
14242WAT     H158773   9.799   0.377   6.131  0.8717 -1.7803  2.4164
14242WAT     H258774   9.663   0.340   6.185  0.2762 -2.7691  0.3499
14242WAT    EPW58775   9.728   0.326   6.129  0.0648 -0.7213 -0.4685
14243WAT      O58776   7.905   0.294   8.445 -0.1725  0.6970  0.0680
14243WAT     H158777   7.862   0.233   8.504  2.2193 -0.0085  1.1835
14243WAT     H258778   7.982   0.325   8.493  0.9194  1.4337 -2.0057
14243WAT    EPW58779   7.910   0.290   8.459  0.2871  0.7011 -0.0577
14244WAT      O58780   9.770   2.970   7.635 -0.4028 -0.3917 -0.0601
14244WAT     H158781   9.843   2.946   7.578 -0.6737 -1.5979  0.0847
14244WAT     H258782   9.796   3.055   7.671  1.3595 -1.1816  0.6782
14244WAT    EPW58783   9.783   2.978   7.633 -0.2055 -0.6549  0.0560
14245WAT      O58784   0.551   1.650   5.161  0.1560 -0.6916  0.5306
14245WAT     H158785   0.549   1.743   5.143  2.0285 -0.4924  1.1383
14245WAT     H258786   0.636   1.635   5.203  1.0602 -3.0683 -1.8329
14245WAT    EPW58787   0.562   1.660   5.164  0.5222 -0.9788  0.2990
14246WAT      O58788   1.574   5.357   2.103 -0.5009  0.4050 -0.1614
14246WAT     H158789   1.570   5.300   2.027 -1.3337  1.2343 -0.7636
14246WAT     H258790   1.520   5.313   2.169  1.4059 -1.0486  0.5066
14246WAT    EPW58791   1.566   5.344   2.102 -0.3593  0.3223 -0.1527
14247WAT      O58792   3.792   8.703   7.465  0.4275 -0.1033  0.3322
14247WAT     H158793   3.866   8.744   7.510 -0.2559  0.8993  0.5885
14247WAT     H258794   3.787   8.750   7.382  0.9144 -1.1028 -0.2693
14247WAT    EPW58795   3.801   8.715   7.460  0.4016 -0.1030  0.2866
14248WAT      O58796   2.848   7.144   0.663  0.1557  0.2265 -0.6130
14248WAT     H158797   2.878   7.178   0.579  1.8209  0.6493  0.1199
14248WAT     H258798   2.922   7.157   0.723 -1.0754  0.1823  0.9994
14248WAT    EPW58799   2.862   7.150   0.660  0.2130  0.2763 -0.3037
14249WAT      O58800   7.828  10.053   6.960 -0.1196  0.3232  0.1335
14249WAT     H158801   7.895  10.115   6.990  1.6920 -1.2828 -0.3302
14249WAT     H258802   7.813   9.996   7.035 -1.5132  1.0441  0.4409
14249WAT    EPW58803   7.835  10.054   6.974 -0.0644  0.2065  0.1128
14250WAT      O58804  10.976   4.884   8.293 -0.0322  0.3622  0.0285
14250WAT     H158805  10.972   4.969   8.337 -2.5328 -0.1897  1.0364
14250WAT     H258806  10.886   4.869   8.261 -0.3485 -2.9536  2.0270
14250WAT    EPW58807  10.963   4.893   8.294 -0.4034 -0.1478  0.4249
14251WAT      O58808   7.914   3.746   8.623  0.3702 -0.1278 -0.0913
14251WAT     H158809   7.991   3.803   8.624 -0.8451  1.6086 -0.8820
14251WAT     H258810   7.855   3.786   8.559 -2.4207  0.2885  2.4826
14251WAT    EPW58811   7.916   3.759   8.615 -0.1581  0.1560  0.1435
14252WAT      O58812   9.358   3.999   7.934 -0.2049 -0.4530 -0.5902
14252WAT     H158813   9.446   4.035   7.919 -0.4809  0.9036  0.7817
14252WAT     H258814   9.329   3.969   7.848  0.9912  0.5251 -1.3660
14252WAT    EPW58815   9.366   4.000   7.921 -0.0834 -0.1450 -0.5116
14253WAT      O58816   6.065   2.616   4.468  0.2070 -1.0468 -0.1545
14253WAT     H158817   5.971   2.614   4.487  0.1870 -0.0457 -0.0952
14253WAT     H258818   6.070   2.610   4.372  0.0425 -0.4003 -0.2079
14253WAT    EPW58819   6.053   2.615   4.458  0.1826 -0.8296 -0.1538
14254WAT      O58820   3.791  10.092   7.006  0.2878  0.0730  0.0715
14254WAT     H158821   3.885  10.079   6.995  0.2145 -0.2318 -0.2155
14254WAT     H258822   3.774  10.179   6.969 -0.0041 -1.0420 -2.6545
14254WAT    EPW58823   3.801  10.102   7.000  0.2396 -0.1144 -0.3262
14255WAT      O58824   4.749   8.538   0.352 -0.2567  0.3620  0.1226
14255WAT     H158825   4.839   8.541   0.384  0.3825  0.3673 -1.5764
14255WAT     H258826   4.715   8.455   0.385  0.4979  0.1838  0.4718
14255WAT    EPW58827   4.756   8.527   0.361 -0.0727  0.3386 -0.0555
14256WAT      O58828   4.731   6.283   0.706  0.3861 -0.1050  0.4048
14256WAT     H158829   4.822   6.256   0.692  0.4286  1.1431 -2.3656
14256WAT     H258830   4.704   6.322   0.622 -2.6304 -0.1789  1.2221
14256WAT    EPW58831   4.739   6.285   0.693 -0.0062  0.0498  0.1472
14257WAT      O58832   2.693   2.829   1.761  0.2801  0.1785 -0.1319
14257WAT     H158833   2.788   2.837   1.750  0.1202  0.7906 -1.2079
14257WAT     H258834   2.682   2.804   1.853  1.6113 -2.5613 -0.6103
14257WAT    EPW58835   2.704   2.827   1.772  0.4346 -0.1022 -0.3369
14258WAT      O58836   7.625   2.049   7.635  0.7716  0.4727  0.3812
14258WAT     H158837   7.676   2.050   7.554 -1.4281  3.3982 -1.1450
14258WAT     H258838   7.659   2.123   7.685  1.7001 -0.9510  1.9501
14258WAT    EPW58839   7.636   2.059   7.631  0.6039  0.6707  0.3867
14259WAT      O58840   0.041   0.173   8.910 -0.2538 -0.0267 -0.0550
14259WAT     H158841   0.076   0.118   8.840 -2.1305  0.5867 -1.5579
14259WAT     H258842   0.115   0.185   8.970  0.3483 -3.8167  0.1989
14259WAT    EPW58843   0.056   0.168   8.908 -0.4219 -0.4457 -0.2203
14260WAT      O58844   9.321   2.274   8.959 -0.3942 -0.0065 -0.6352
14260WAT     H158845   9.397   2.327   8.985 -0.9731  1.3126 -1.5369
14260WAT     H258846   9.345   2.184   8.985  0.5688  0.6824  1.0232
14260WAT    EPW58847   9.334   2.269   8.966 -0.3438  0.2586 -0.5350
14261WAT      O58848   4.963  10.326   7.585 -0.5591 -0.1184  0.5551
14261WAT     H158849   5.027  10.272   7.540 -0.2942  0.7456 -0.1316
14261WAT     H258850   4.920  10.375   7.515  1.5123  3.0781  1.3131
14261WAT    EPW58851   4.966  10.325   7.570 -0.2508  0.4172  0.5643
14262WAT      O58852   9.558   1.032   7.068  0.6925  0.0819 -0.1628
14262WAT     H158853   9.621   1.068   7.131  1.3623  0.4003 -1.0001
14262WAT     H258854   9.589   0.943   7.052  0.0776 -0.2725  0.5222
14262WAT    EPW58855   9.571   1.025   7.074  0.7000  0.0772 -0.1829
14263WAT      O58856   6.577   9.165   7.301  0.5530 -0.2040 -0.0840
14263WAT     H158857   6.532   9.167   7.385 -0.7342  0.2828 -0.7433
14263WAT     H258858   6.521   9.110   7.245  0.8540  0.2892 -0.8930
14263WAT    EPW58859   6.564   9.158   7.304  0.4230 -0.0749 -0.2775
14264WAT      O58860   5.256   9.039   0.368  0.3112  0.4373  0.0920
14264WAT     H158861   5.317   9.037   0.295 -1.3013 -0.1871 -1.2872
14264WAT     H258862   5.292   8.976   0.431 -0.6919 -2.7399 -2.2564
14264WAT    EPW58863   5.269   9.031   0.367 -0.0336 -0.0644 -0.3997
14265WAT      O58864   9.659   1.313   8.846 -0.7069 -0.4760  0.0016
14265WAT     H158865   9.735   1.356   8.807 -0.6609 -0.3317  0.2453
14265WAT     H258866   9.594   1.310   8.776 -2.2427  3.6259  0.9493
14265WAT    EPW58867   9.661   1.318   8.832 -0.9036  0.0842  0.1588
14266WAT      O58868   1.341   7.319   1.273 -0.2369  0.0058  0.2055
14266WAT     H158869   1.406   7.275   1.328 -0.4291 -0.3809  0.1288
14266WAT     H258870   1.351   7.278   1.187 -1.2049 -0.7205  0.4186
14266WAT    EPW58871   1.351   7.308   1.269 -0.3899 -0.1411  0.2235
14267WAT      O58872   0.778   9.307   0.389  0.0390  0.5124  0.6660
14267WAT     H158873   0.757   9.381   0.331  0.2474  0.6823  0.8056
14267WAT     H258874   0.795   9.234   0.330 -2.5705 -0.0910  0.5570
14267WAT    EPW58875   0.777   9.307   0.374 -0.2777  0.4554  0.6700
14268WAT      O58876   0.306   0.666   6.222  0.1741 -0.3671  0.0618
14268WAT     H158877   0.394   0.701   6.236  0.6012 -1.6249  0.7191
14268WAT     H258878   0.320   0.573   6.204 -1.1463 -1.1172  2.5036
14268WAT    EPW58879   0.320   0.658   6.221  0.0563 -0.6319  0.4704
14269WAT      O58880   7.073   0.260   4.870 -0.1911  0.4006 -0.5987
14269WAT     H158881   7.083   0.325   4.940 -0.0444  0.4253 -0.6446
14269WAT     H258882   7.144   0.278   4.808 -0.0769  0.1231 -0.5537
14269WAT    EPW58883   7.083   0.271   4.871 -0.1566  0.3672 -0.5989
14270WAT      O58884   9.551   2.326   7.943  0.5097 -0.3637 -0.1578
14270WAT     H158885   9.586   2.375   7.869 -1.1714  3.3769  1.2307
14270WAT     H258886   9.623   2.324   8.006  0.4205  1.0704  0.0247
14270WAT    EPW58887   9.565   2.332   7.942  0.2761  0.3189  0.0494
14271WAT      O58888  10.587   0.640   6.373 -0.4787  0.0329 -0.0624
14271WAT     H158889  10.627   0.711   6.322  0.3228 -1.2947 -1.3587
14271WAT     H258890  10.661   0.594   6.412 -0.5814 -2.6549 -2.7406
14271WAT    EPW58891  10.602   0.643   6.372 -0.3862 -0.4967 -0.5867
14272WAT      O58892   0.077   3.405   8.920 -0.1049  0.3983 -0.3844
14272WAT     H158893   0.108   3.315   8.907 -2.4021 -0.6419  0.6537
14272WAT     H258894  -0.015   3.402   8.895 -1.1915  1.5291  2.8882
14272WAT    EPW58895   0.069   3.392   8.915 -0.5512  0.4102  0.1841
14273WAT      O58896   3.955   8.767   8.067 -0.3485 -0.1010  0.0946
14273WAT     H158897   3.957   8.719   8.149 -3.9475  1.4344  1.3005
14273WAT     H258898   4.009   8.844   8.082  1.3549 -1.2105 -0.0908
14273WAT    EPW58899   3.962   8.771   8.080 -0.5984 -0.0453  0.2289
14274WAT      O58900   0.217   0.024   7.389 -0.7535  1.0915  0.4212
14274WAT     H158901   0.260  -0.029   7.456 -1.4349  0.6297  0.4994
14274WAT     H258902   0.289   0.066   7.342 -0.0807 -0.9949 -0.5696
14274WAT    EPW58903   0.232   0.022   7.391 -0.7546  0.7554  0.3009
14275WAT      O58904   0.637   1.373   7.547 -0.5138 -1.1241 -0.0791
14275WAT     H158905   0.631   1.395   7.454 -1.5339 -1.1267 -0.0197
14275WAT     H258906   0.547   1.376   7.579 -0.2753 -1.9637  0.7211
14275WAT    EPW58907   0.624   1.376   7.539 -0.6168 -1.2352  0.0341
14276WAT      O58908  10.510   0.329   5.658 -0.2519 -0.2379 -0.4214
14276WAT     H158909  10.526   0.423   5.660 -0.6451 -0.1348 -1.4418
14276WAT     H258910  10.501   0.304   5.750 -1.0140  0.8806 -0.1732
14276WAT    EPW58911  10.511   0.338   5.670 -0.4044 -0.0768 -0.5233
14277WAT      O58912   8.240   0.743   8.271  0.0317 -0.0485  0.1330
14277WAT     H158913   8.217   0.650   8.272  0.8541 -0.2652  1.8651
14277WAT     H258914   8.162   0.786   8.235 -0.9291 -1.2748  0.6732
14277WAT    EPW58915   8.226   0.736   8.266  0.0138 -0.2388  0.4325
14278WAT      O58916   1.347   1.754   4.890 -0.0675 -0.1471 -0.4328
14278WAT     H158917   1.283   1.811   4.848  0.1431 -0.1460 -0.7606
14278WAT     H258918   1.388   1.808   4.957 -2.7679 -1.1004  2.1663
14278WAT    EPW58919   1.344   1.768   4.893 -0.3960 -0.2727 -0.1330
14279WAT      O58920   3.095   9.949   4.032  0.0056  0.3180  0.2800
14279WAT     H158921   3.119  10.041   4.044  0.3004  0.0538  1.8574
14279WAT     H258922   3.077   9.917   4.120  0.5600 -1.3204 -0.1690
14279WAT    EPW58923   3.096   9.957   4.045  0.1177  0.0668  0.4289
14280WAT      O58924  10.070   0.243   5.939 -0.2626 -0.1744 -0.5046
14280WAT     H158925  10.090   0.303   5.867 -0.1579 -0.2911 -0.5719
14280WAT     H258926  10.031   0.167   5.896  0.6832 -0.6544 -0.5302
14280WAT    EPW58927  10.067   0.241   5.924 -0.1235 -0.2531 -0.5169
14281WAT      O58928   4.509   5.205   2.823 -0.7821  0.1763 -0.0554
14281WAT     H158929   4.571   5.190   2.894 -1.4127 -0.6840  0.3372
14281WAT     H258930   4.509   5.299   2.810 -2.4124  0.6448  2.7183
14281WAT    EPW58931   4.517   5.215   2.831 -1.0800  0.1245  0.3622
14282WAT      O58932   9.219   1.194   4.491 -0.2473  0.5075  1.3464
14282WAT     H158933   9.154   1.245   4.539  0.8121  1.7045  1.5602
14282WAT     H258934   9.303   1.232   4.517  0.7316 -2.2752  2.6450
14282WAT    EPW58935   9.222   1.206   4.501  0.0215  0.2983  1.5457
14283WAT      O58936   5.788   8.471   5.739 -0.1143  0.7925  0.1128
14283WAT     H158937   5.741   8.550   5.765  1.1883  3.0566 -3.7481
14283WAT     H258938   5.758   8.453   5.650  0.4142 -2.5344  0.4810
14283WAT    EPW58939   5.778   8.479   5.731  0.1276  0.6523 -0.3476
14284WAT      O58940   3.660   5.942   0.053  0.1169 -0.3451 -0.8392
14284WAT     H158941   3.724   5.905  -0.009  1.0382 -0.4367  0.1289
14284WAT     H258942   3.604   5.998  -0.001  1.8399  0.7910 -1.5443
14284WAT    EPW58943   3.661   5.944   0.038  0.4656 -0.2072 -0.8045
14285WAT      O58944   9.365   1.235   8.318  0.8994 -0.0406 -0.3205
14285WAT     H158945   9.337   1.325   8.333 -3.0665 -0.7384 -2.2500
14285WAT     H258946   9.385   1.231   8.225 -1.3041 -1.5304 -0.8270
14285WAT    EPW58947   9.364   1.246   8.308  0.0858 -0.3291 -0.6413
14286WAT      O58948   9.918   0.065   7.444 -0.1256  0.1944  0.2514
14286WAT     H158949   9.932   0.032   7.355  3.6403  1.2551  0.2560
14286WAT     H258950   9.902   0.159   7.432  1.2167  0.4992  0.6443
14286WAT    EPW58951   9.918   0.073   7.430  0.5484  0.3745  0.3040
14287WAT      O58952   0.718   9.808   1.888 -0.4263  0.6871 -0.1182
14287WAT     H158953   0.682   9.892   1.918 -1.4345  0.4224 -0.5224
14287WAT     H258954   0.770   9.776   1.961 -1.4517  0.8521  0.7102
14287WAT    EPW58955   0.720   9.815   1.901 -0.6945  0.6738 -0.0622
14288WAT      O58956   8.747   0.504   7.481 -0.1381  0.2208  0.1585
14288WAT     H158957   8.813   0.513   7.412 -1.2355  0.1630 -0.9352
14288WAT     H258958   8.795   0.466   7.555  0.4604 -2.8869 -1.6294
14288WAT    EPW58959   8.762   0.500   7.481 -0.2041 -0.1967 -0.2217
14289WAT      O58960   9.086   0.080   5.845 -0.4117 -0.2705 -0.1623
14289WAT     H158961   9.095   0.156   5.786  5.9197 -0.1559  0.2441
14289WAT     H258962   9.030   0.112   5.916  0.3106  3.4022 -1.0005
14289WAT    EPW58963   9.080   0.094   5.846  0.5188  0.2290 -0.2193
14290WAT      O58964   4.901   9.400   6.204 -0.3045  0.5690 -0.0638
14290WAT     H158965   4.973   9.336   6.206 -3.7474 -3.7675  0.5634
14290WAT     H258966   4.862   9.390   6.117 -1.2069  1.4902  0.2182
14290WAT    EPW58967   4.906   9.390   6.193 -0.8774  0.1187  0.0560
14291WAT      O58968  10.827   0.862   7.925 -0.0803 -0.1337 -0.1994
14291WAT     H158969  10.817   0.780   7.972  4.6270 -0.2666  1.1262
14291WAT     H258970  10.749   0.913   7.946 -0.3048 -1.9289  4.1774
14291WAT    EPW58971  10.816   0.858   7.934  0.5107 -0.3880  0.5527
14292WAT      O58972   8.093   8.029   8.122  0.0104  0.0524  0.5190
14292WAT     H158973   8.063   8.085   8.051  0.9529 -0.1880 -0.0755
14292WAT     H258974   8.095   7.941   8.084 -0.8767 -0.3170  1.2717
14292WAT    EPW58975   8.089   8.024   8.108  0.0172 -0.0281  0.5403
14293WAT      O58976   6.278   5.931   5.686 -0.1715 -0.5040 -0.4848
14293WAT     H158977   6.340   5.858   5.686 -1.2120 -1.4262 -1.4647
14293WAT     H258978   6.305   5.986   5.760  0.4262 -2.0447  0.4730
14293WAT    EPW58979   6.290   5.929   5.696 -0.2298 -0.8287 -0.4876
14294WAT      O58980   5.783   8.696   7.791 -0.2019  0.5027 -0.0339
14294WAT     H158981   5.732   8.658   7.719  1.1083 -1.4041 -0.0597
14294WAT     H258982   5.872   8.664   7.774  0.4467  1.4345  1.5107
14294WAT    EPW58983   5.788   8.686   7.779  0.0565  0.3748  0.1659
14295WAT      O58984   1.617   1.412   8.813 -0.3112  0.0001 -0.1969
14295WAT     H158985   1.563   1.337   8.840 -0.3780  0.3127  0.5868
14295WAT     H258986   1.705   1.376   8.805 -0.5254 -0.3821 -0.8552
14295WAT    EPW58987   1.621   1.397   8.816 -0.3482 -0.0092 -0.1807
14296WAT      O58988   6.385   9.346   6.451 -0.6493 -0.1528 -0.2044
14296WAT     H158989   6.333   9.342   6.531 -0.0596  1.7774  0.3253
14296WAT     H258990   6.467   9.301   6.473 -0.4508  0.4604  0.3198
14296WAT    EPW58991   6.389   9.339   6.464 -0.5453  0.1826 -0.0656
14297WAT      O58992   9.239   9.552   5.938  0.3226 -0.2543 -0.1697
14297WAT     H158993   9.305   9.595   5.993  0.0119 -2.7179  2.3222
14297WAT     H258994   9.156   9.592   5.964  0.1891 -1.3399  1.1903
14297WAT    EPW58995   9.237   9.563   5.949  0.2642 -0.7224  0.3388
14298WAT      O58996   7.217   1.716   5.029  0.9473 -0.0275 -0.0911
14298WAT     H158997   7.198   1.809   5.042  2.8639  0.6291 -1.4265
14298WAT     H258998   7.144   1.683   4.976  0.1986  0.6820  0.4776
14298WAT    EPW58999   7.205   1.724   5.023  1.1013  0.1527 -0.1924
14299WAT      O59000   2.180   3.272   8.955  0.0932 -0.1252  0.0759
14299WAT     H159001   2.262   3.223   8.954  0.1930  0.0467 -0.8687
14299WAT     H259002   2.130   3.232   9.026  0.8801 -0.4148  0.4858
14299WAT    EPW59003   2.184   3.260   8.964  0.2102 -0.1409  0.0052
14300WAT      O59004   8.182   0.750   6.143  0.4507 -0.3527  0.3606
14300WAT     H159005   8.227   0.754   6.058  1.9148  0.0524  1.1268
14300WAT     H259006   8.202   0.663   6.176  0.4490 -0.2653  0.5912
14300WAT    EPW59007   8.191   0.739   6.136  0.6442 -0.2877  0.4921
14301WAT      O59008   5.471   1.861   6.091 -0.3429 -0.0240  0.5905
14301WAT     H159009   5.509   1.896   6.010 -1.2653  0.5381  0.3851
14301WAT     H259010   5.441   1.774   6.067  1.1938 -0.6510  0.8734
14301WAT    EPW59011   5.472   1.854   6.077 -0.2618 -0.0326  0.6008
14302WAT      O59012   1.118   2.805   6.584 -0.5738  0.5634 -0.2436
14302WAT     H159013   1.165   2.808   6.667 -0.7666  1.8385 -0.1632
14302WAT     H259014   1.187   2.794   6.518 -0.4336 -0.6125  0.0727
14302WAT    EPW59015   1.133   2.804   6.586 -0.5807  0.5765 -0.1912
14303WAT      O59016   3.572   2.023   6.068 -0.5667  0.4285 -0.1115
14303WAT     H159017   3.518   1.947   6.086 -1.5729  1.1925  0.1669
14303WAT     H259018   3.510   2.096   6.062  0.3480  1.1848 -0.6181
14303WAT    EPW59019   3.557   2.023   6.070 -0.5789  0.6291 -0.1416
14304WAT      O59020  10.192   0.385   1.808  0.0174  0.3410 -0.0551
14304WAT     H159021  10.129   0.423   1.869  0.5921 -0.3094  0.9824
14304WAT     H259022  10.252   0.457   1.788  2.0320 -0.2531  3.1318
14304WAT    EPW59023  10.192   0.400   1.813  0.3586  0.1769  0.5020
14305WAT      O59024  10.558   4.650   7.859 -0.2906  0.5190  0.1098
14305WAT     H159025  10.539   4.599   7.780 -0.2898  0.1471  0.3465
14305WAT     H259026  10.481   4.638   7.915  0.0951  0.0171  0.5527
14305WAT    EPW59027  10.546   4.641   7.856 -0.2398  0.4039  0.1993
14306WAT      O59028  10.304   1.828   6.551 -0.2407 -0.4112  0.1492
14306WAT     H159029  10.382   1.865   6.508  0.3781 -2.7888 -0.9489
14306WAT     H259030  10.254   1.904   6.579  1.6273  1.2192 -0.6737
14306WAT    EPW59031  10.308   1.843   6.549  0.0877 -0.5099 -0.1040
14307WAT      O59032  10.482   0.842   8.173 -0.0272 -0.2628  0.3195
14307WAT     H159033  10.508   0.839   8.265  1.8788 -0.6237 -0.1882
14307WAT     H259034  10.403   0.895   8.172 -0.1515 -0.3596  2.1801
14307WAT    EPW59035  10.475   0.848   8.185  0.2084 -0.3232  0.4978
14308WAT      O59036   8.228   6.917   0.332 -0.0639 -0.7964 -0.3122
14308WAT     H159037   8.186   6.979   0.392  0.1496  0.9508 -1.8600
14308WAT     H259038   8.180   6.835   0.345 -3.2758  0.7618 -1.1088
14308WAT    EPW59039   8.216   6.915   0.341 -0.4597 -0.3605 -0.6214
14309WAT      O59040   9.150   7.668   1.303 -0.3306  0.6779  0.7268
14309WAT     H159041   9.203   7.687   1.380 -2.7516  0.5071  2.5459
14309WAT     H259042   9.129   7.575   1.311  0.2530  0.3751 -0.7848
14309WAT    EPW59043   9.154   7.658   1.314 -0.5736  0.6154  0.7673
14310WAT      O59044   0.555   2.965   6.434  0.0016 -0.7426 -0.2565
14310WAT     H159045   0.512   3.025   6.494 -0.2889  1.3550 -2.4122
14310WAT     H259046   0.613   2.913   6.489  0.9022  2.0982  1.6594
14310WAT    EPW59047   0.557   2.966   6.449  0.0821 -0.0913 -0.2882
14311WAT      O59048   6.827   9.183   7.519 -0.3530 -0.1033  0.0883
14311WAT     H159049   6.905   9.207   7.468  0.4479 -1.3713  0.6633
14311WAT     H259050   6.770   9.259   7.512  0.0039  0.0311 -2.1434
14311WAT    EPW59051   6.830   9.196   7.511 -0.2003 -0.2532 -0.1302
14312WAT      O59052   1.605   3.611   3.958  0.0541  0.3771 -0.6746
14312WAT     H159053   1.544   3.615   3.884  1.9115  3.5035 -2.2719
14312WAT     H259054   1.571   3.675   4.020  0.9637  1.1931 -0.9954
14312WAT    EPW59055   1.593   3.620   3.957  0.4191  0.8972 -0.9277
14313WAT      O59056   2.264   0.857   7.828 -0.2335 -0.4457  0.0896
14313WAT     H159057   2.240   0.774   7.787 -0.8173  0.0734 -0.6625
14313WAT     H259058   2.227   0.852   7.916 -0.6209 -0.8246 -0.0890
14313WAT    EPW59059   2.256   0.845   7.834 -0.3617 -0.4272 -0.0331
14314WAT      O59060   0.091   2.694   6.912 -0.0684 -0.4153  0.5609
14314WAT     H159061   0.021   2.677   6.975  1.0014 -1.3539  1.5304
14314WAT     H259062   0.157   2.628   6.930  1.0505  0.3923 -0.3835
14314WAT    EPW59063   0.090   2.683   6.922  0.2202 -0.4327  0.5639
14315WAT      O59064   2.003   2.780   6.388  0.7416  0.0607 -0.0533
14315WAT     H159065   1.962   2.825   6.462  0.5945  0.5388 -0.4207
14315WAT     H259066   1.962   2.694   6.387  0.4099  0.2145  0.1379
14315WAT    EPW59067   1.992   2.775   6.398  0.6785  0.1441 -0.0765
14316WAT      O59068  10.954   1.016   6.360  0.0523  0.3906  0.9948
14316WAT     H159069  11.007   0.947   6.322 -0.0816 -0.0552  1.5953
14316WAT     H259070  10.951   0.994   6.454 -1.7909  0.0043  0.8635
14316WAT    EPW59071  10.961   1.004   6.368 -0.2079  0.2809  1.0569
14317WAT      O59072   1.561   0.863   5.363  0.2528  0.9722  0.4145
14317WAT     H159073   1.536   0.777   5.396  2.0479 -0.3088 -1.3728
14317WAT     H259074   1.482   0.895   5.319  0.4227 -1.2264 -1.6827
14317WAT    EPW59075   1.547   0.856   5.362  0.5119  0.5132 -0.0980
14318WAT      O59076   2.443   1.364   6.655  0.0846  0.2609  0.1062
14318WAT     H159077   2.469   1.438   6.600  0.7002 -1.6034 -2.2383
14318WAT     H259078   2.495   1.375   6.735  0.8206  1.8525 -0.5507
14318WAT    EPW59079   2.453   1.375   6.658  0.2629  0.2249 -0.2899
14319WAT      O59080   3.144   7.919   0.147  0.5012 -0.7027  0.3409
14319WAT     H159081   3.141   7.900   0.241 -2.5475  2.1796  1.0274
14319WAT     H259082   3.107   8.007   0.140 -0.4534 -1.2460 -3.6883
14319WAT    EPW59083   3.139   7.928   0.159 -0.0271 -0.3943 -0.1000
14320WAT      O59084   8.451   9.769   8.201 -0.8193  0.0387  0.4599
14320WAT     H159085   8.513   9.728   8.262  3.0000  2.3294 -1.4860
14320WAT     H259086   8.447   9.708   8.127 -0.0229  0.3467  0.1551
14320WAT    EPW59087   8.459   9.755   8.199 -0.2108  0.3810  0.1631
14321WAT      O59088  10.752   0.935   6.011 -0.6784  0.1831  0.1843
14321WAT     H159089  10.812   0.868   5.979 -0.8723  1.3226 -2.9137
14321WAT     H259090  10.747   0.919   6.105  1.9991 -1.9019  0.1127
14321WAT    EPW59091  10.759   0.924   6.019 -0.3514  0.0584 -0.2339
14322WAT      O59092   8.206   9.500   5.013  0.4228  0.6340  0.4313
14322WAT     H159093   8.114   9.484   4.991  0.8567 -1.6554  0.0246
14322WAT     H259094   8.252   9.491   4.929  1.4914 -2.8820  1.2473
14322WAT    EPW59095   8.200   9.497   4.999  0.6208 -0.1321  0.4854
14323WAT      O59096   5.382   8.489   0.337  0.2713  0.1646 -0.0983
14323WAT     H159097   5.434   8.419   0.299 -0.7765 -0.6255 -0.1035
14323WAT     H259098   5.298   8.485   0.292  0.5438  2.1471 -0.8889
14323WAT    EPW59099   5.378   8.479   0.326  0.1690  0.3223 -0.2032
14324WAT      O59100   7.121   7.061   0.372 -0.1417 -0.4534 -0.6800
14324WAT     H159101   7.032   7.096   0.380 -0.1343 -0.5209 -0.2641
14324WAT     H259102   7.109   6.968   0.354 -0.1677 -0.1596 -2.3614
14324WAT    EPW59103   7.108   7.053   0.371 -0.1440 -0.4234 -0.8469
14325WAT      O59104   8.573   1.610   7.178 -0.3952  0.0417  0.0827
14325WAT     H159105   8.484   1.647   7.177 -1.0340 -1.4295 -0.6375
14325WAT     H259106   8.577   1.561   7.260 -0.4661 -0.3479 -0.1413
14325WAT    EPW59107   8.562   1.608   7.188 -0.4892 -0.2037 -0.0420
14326WAT      O59108   2.235   0.339   5.339 -0.2098 -0.5919 -0.3073
14326WAT     H159109   2.186   0.291   5.273 -2.1904 -0.3610  0.9326
14326WAT     H259110   2.232   0.284   5.417  3.0041 -1.3633 -0.5610
14326WAT    EPW59111   2.228   0.326   5.341 -0.0470 -0.6632 -0.1771
14327WAT      O59112   9.908   0.202   6.680  0.6836 -0.6272  0.0147
14327WAT     H159113   9.952   0.206   6.765  2.4371 -0.7523 -0.8403
14327WAT     H259114   9.833   0.146   6.695 -0.3571  1.1451  2.0084
14327WAT    EPW59115   9.904   0.195   6.693  0.7777 -0.4099  0.1650
14328WAT      O59116   3.768   6.358   4.596 -0.2559 -0.5582 -0.3586
14328WAT     H159117   3.768   6.329   4.687 -1.5271 -0.7966 -0.4184
14328WAT     H259118   3.848   6.410   4.588 -0.8129  0.6644  1.2860
14328WAT    EPW59119   3.778   6.361   4.607 -0.4969 -0.4284 -0.1497
14329WAT      O59120   1.557   4.748   7.143  0.2390  0.0705  0.1787
14329WAT     H159121   1.517   4.712   7.063 -1.8147  2.3191  0.0660
14329WAT     H259122   1.533   4.841   7.142  0.7385  0.3263  3.0837
14329WAT    EPW59123   1.548   4.755   7.132  0.0341  0.4008  0.5472
14330WAT      O59124   9.813   9.836   6.028  0.7080 -0.2110  0.3024
14330WAT     H159125   9.824   9.752   6.073 -0.0238 -1.2290 -1.3186
14330WAT     H259126   9.719   9.842   6.011  0.6527  1.3009  1.0058
14330WAT    EPW59127   9.802   9.826   6.032  0.6037 -0.1454  0.1812
14331WAT      O59128   1.205   4.295   8.551 -0.3701 -0.1555 -0.3090
14331WAT     H159129   1.251   4.303   8.467  0.6642 -0.0917  0.2544
14331WAT     H259130   1.232   4.372   8.601  1.0704 -1.4989  1.0539
14331WAT    EPW59131   1.214   4.306   8.546 -0.0436 -0.3242 -0.0548
14332WAT      O59132   3.400   7.420   0.913 -0.4178 -0.1136  0.0357
14332WAT     H159133   3.331   7.419   0.979  0.6224 -0.5353  1.1555
14332WAT     H259134   3.354   7.404   0.830 -1.8764  1.4282  0.4946
14332WAT    EPW59135   3.385   7.418   0.910 -0.4730  0.0341  0.2439
14333WAT      O59136   2.210   0.426   5.888 -0.1287 -0.3237 -0.9427
14333WAT     H159137   2.151   0.498   5.910  1.2152  0.1589  1.4469
14333WAT     H259138   2.170   0.349   5.928 -0.5500 -0.5400 -1.7682
14333WAT    EPW59139   2.197   0.425   5.896 -0.0070 -0.2886 -0.7365
14334WAT      O59140   0.584   1.731   5.884  0.3736  0.3943  0.0580
14334WAT     H159141   0.545   1.692   5.963  1.9591  1.4443  1.4276
14334WAT     H259142   0.509   1.750   5.828 -1.3153  3.0741  2.9168
14334WAT    EPW59143   0.569   1.728   5.887  0.3600  0.8861  0.6158
14335WAT      O59144  10.092   9.790   7.912 -0.6081 -0.4453  0.6278
14335WAT     H159145  10.004   9.756   7.899 -1.3269  0.1339  3.3085
14335WAT     H259146  10.080   9.868   7.967  1.4460  0.7977 -0.5465
14335WAT    EPW59147  10.079   9.796   7.917 -0.4320 -0.2055  0.8264
14336WAT      O59148  10.188   9.339   6.799 -0.7363 -0.0761  0.7840
14336WAT     H159149  10.219   9.409   6.856 -1.0668 -0.3251  1.2832
14336WAT     H259150  10.267   9.292   6.774 -0.0864  2.2479 -2.0625
14336WAT    EPW59151  10.202   9.342   6.804 -0.6948  0.1974  0.4742
14337WAT      O59152   3.468   1.452   2.606 -0.2350 -0.2000 -0.1882
14337WAT     H159153   3.440   1.458   2.697 -0.9305  1.2906 -0.4605
14337WAT     H259154   3.480   1.358   2.590 -0.0409 -0.4748  1.4400
14337WAT    EPW59155   3.466   1.440   2.616 -0.3011 -0.0396 -0.0094
14338WAT      O59156   1.325   2.590   6.618 -0.0578 -0.2418  0.5548
14338WAT     H159157   1.383   2.664   6.637 -1.3462  1.7279 -2.3581
14338WAT     H259158   1.281   2.572   6.701  0.6800  1.9421  1.4979
14338WAT    EPW59159   1.327   2.598   6.631 -0.1304  0.3061  0.2952
14339WAT      O59160   3.222   7.417   1.868 -0.2574  0.0228  0.3328
14339WAT     H159161   3.263   7.331   1.877 -0.0633 -1.0123 -5.7312
14339WAT     H259162   3.292   7.479   1.890  0.6774 -1.4070  1.5728
14339WAT    EPW59163   3.237   7.414   1.872 -0.1086 -0.3021 -0.3035
14340WAT      O59164   7.164   5.583   1.354  0.7219  0.6002  0.1068
14340WAT     H159165   7.093   5.538   1.308  0.8600  0.9256 -0.4357
14340WAT     H259166   7.157   5.674   1.325  2.7876  0.2467 -1.8263
14340WAT    EPW59167   7.154   5.589   1.344  1.0126  0.5968 -0.2197
14341WAT      O59168   2.037   1.696   8.324  0.4481  0.4829 -0.6571
14341WAT     H159169   1.949   1.729   8.306  0.0191  0.4056  1.1072
14341WAT     H259170   2.045   1.700   8.419  1.3578 -2.0676 -0.5631
14341WAT    EPW59171   2.027   1.701   8.334  0.5115  0.1363 -0.4125
14342WAT      O59172   1.301   2.496   5.324  0.1817 -0.0560  0.3011
14342WAT     H159173   1.207   2.504   5.304  0.7533  0.1195 -2.7482
14342WAT     H259174   1.334   2.432   5.261  1.9887 -0.7791  1.9034
14342WAT    EPW59175   1.293   2.489   5.313  0.4954 -0.1283  0.1101
14343WAT      O59176   7.406   9.268   6.516  0.2202  0.7008 -1.1704
14343WAT     H159177   7.488   9.271   6.564 -0.4810  0.5330  0.0942
14343WAT     H259178   7.428   9.226   6.433  1.8750  2.9074 -1.9206
14343WAT    EPW59179   7.419   9.263   6.511  0.3462  0.9704 -1.1024
14344WAT      O59180   3.546   8.058   1.502 -0.3224 -0.1538  0.3718
14344WAT     H159181   3.461   8.038   1.540 -0.4614  0.7042  0.5249
14344WAT     H259182   3.592   7.974   1.501 -0.6216 -0.3546  1.6687
14344WAT    EPW59183   3.541   8.044   1.507 -0.3803 -0.0677  0.5630
14345WAT      O59184   3.566   1.806   3.634  0.0973  0.3770  0.0176
14345WAT     H159185   3.650   1.824   3.592 -0.6826  1.6872 -1.0395
14345WAT     H259186   3.518   1.753   3.570 -1.6493  3.5645 -1.5368
14345WAT    EPW59187   3.570   1.801   3.620 -0.2360  0.9702 -0.3269
14346WAT      O59188   8.861  10.041   7.657 -0.0473 -0.5621  0.5281
14346WAT     H159189   8.850   9.951   7.625  0.4956 -0.5179  0.2033
14346WAT     H259190   8.788  10.089   7.618 -0.2286 -0.8180  0.5462
14346WAT    EPW59191   8.850  10.035   7.648  0.0000 -0.5898  0.4876
14347WAT      O59192   0.618   7.274   6.138 -0.0720 -0.7219 -0.3291
14347WAT     H159193   0.572   7.313   6.212 -1.7051  1.1920 -2.2334
14347WAT     H259194   0.550   7.230   6.087  0.8254 -1.0976 -1.2473
14347WAT    EPW59195   0.603   7.274   6.141 -0.1690 -0.5190 -0.7014
14348WAT      O59196   9.165   0.874   8.765 -0.1997 -0.2414  0.4614
14348WAT     H159197   9.161   0.965   8.736 -2.6075 -0.4565 -0.1078
14348WAT     H259198   9.231   0.834   8.708 -1.8864  0.3114 -2.0668
14348WAT    EPW59199   9.173   0.881   8.754 -0.7401 -0.1969  0.0525
14349WAT      O59200   0.421   0.949   8.294 -0.9168 -0.9513  0.5424
14349WAT     H159201   0.464   0.907   8.219  1.2437  1.0362  0.5636
14349WAT     H259202   0.329   0.958   8.267 -0.0482  0.5416 -2.3318
14349WAT    EPW59203   0.414   0.945   8.280 -0.5172 -0.4922  0.1664
14350WAT      O59204   0.435   1.354   5.785 -0.0276 -0.4910  0.0769
14350WAT     H159205   0.415   1.436   5.831  0.8920 -0.1397 -0.1343
14350WAT     H259206   0.350   1.311   5.776 -1.0875  1.8538 -2.5633
14350WAT    EPW59207   0.421   1.359   5.790 -0.0461 -0.1354 -0.2992
14351WAT      O59208   5.165   9.224   1.793  0.0491  1.0237  0.2346
14351WAT     H159209   5.188   9.277   1.870 -1.9636  0.3088  1.4065
14351WAT     H259210   5.245   9.223   1.740  0.6220  3.9540  0.8637
14351WAT    EPW59211   5.179   9.231   1.796 -0.1407  1.3156  0.4722
14352WAT      O59212   2.862   5.842   0.817 -0.3295  0.2171 -0.4400
14352WAT     H159213   2.855   5.931   0.852  0.6169  1.2883 -2.7348
14352WAT     H259214   2.955   5.820   0.828 -0.5639 -0.5315  0.1320
14352WAT    EPW59215   2.873   5.851   0.823 -0.2356  0.2596 -0.6672
14353WAT      O59216   3.002   0.266   7.639 -0.2883  0.3336 -0.1357
14353WAT     H159217   3.079   0.252   7.695 -0.0025 -1.6274 -0.9196
14353WAT     H259218   3.038   0.292   7.554 -0.6492  1.9398  0.1818
14353WAT    EPW59219   3.017   0.267   7.635 -0.2981  0.2868 -0.1974
14354WAT      O59220   6.332   4.021   2.194  0.1818  0.1112 -0.2588
14354WAT     H159221   6.304   3.967   2.120 -0.7826 -0.3483  0.4214
14354WAT     H259222   6.392   4.085   2.156  2.8905 -2.5615 -0.8282
14354WAT    EPW59223   6.336   4.022   2.179  0.4120 -0.3023 -0.2441
14355WAT      O59224   8.698   1.911   8.756  0.2600  0.0603 -0.2624
14355WAT     H159225   8.632   1.980   8.757  0.9876  0.8130  1.3627
14355WAT     H259226   8.758   1.935   8.827  1.1461 -1.6779 -0.3637
14355WAT    EPW59227   8.697   1.924   8.766  0.4721 -0.0696 -0.0620
14356WAT      O59228   0.270   0.061   5.185  0.2324 -0.1912 -0.3741
14356WAT     H159229   0.206   0.132   5.183  0.9329  0.4441 -1.1392
14356WAT     H259230   0.242   0.002   5.115  0.4065  0.0293 -0.6340
14356WAT    EPW59231   0.258   0.063   5.175  0.3478 -0.0783 -0.5095
14357WAT      O59232   1.010   0.333   8.242 -0.4062  0.1273  0.4055
14357WAT     H159233   1.014   0.242   8.214 -0.3660 -0.5937  2.5867
14357WAT     H259234   0.924   0.343   8.282 -0.9337  1.4541 -0.9513
14357WAT    EPW59235   1.000   0.323   8.243 -0.4705  0.2072  0.5145
14358WAT      O59236   0.495   8.286   7.897 -0.6286 -0.0230 -0.3281
14358WAT     H159237   0.548   8.323   7.967  0.1486 -0.2039 -0.8097
14358WAT     H259238   0.448   8.361   7.860 -1.8794 -0.0731  1.0615
14358WAT    EPW59239   0.495   8.301   7.901 -0.6910 -0.0539 -0.2084
14359WAT      O59240   2.488   3.912   5.608  0.0767 -0.0010  0.3600
14359WAT     H159241   2.404   3.913   5.654  0.7444 -1.2063  1.7030
14359WAT     H259242   2.549   3.951   5.671  0.3829  1.8437 -1.0017
14359WAT    EPW59243   2.485   3.918   5.623  0.2053  0.0832  0.3576
14360WAT      O59244   0.151   0.817   6.535  0.4697  0.3933 -0.1004
14360WAT     H159245   0.187   0.759   6.603  1.3695  0.6159 -0.3689
14360WAT     H259246   0.069   0.849   6.573 -0.4068 -1.5472 -0.2129
14360WAT    EPW59247   0.145   0.813   6.549  0.4728  0.1667 -0.1507
14361WAT      O59248   7.600   8.922   3.882  0.2718 -0.3970 -0.2446
14361WAT     H159249   7.533   8.855   3.869 -2.6531  2.1038  0.6130
14361WAT     H259250   7.612   8.960   3.795  0.9399 -1.1374 -0.4841
14361WAT    EPW59251   7.592   8.918   3.869 -0.0257 -0.1650 -0.1631
14362WAT      O59252   6.648   6.596   0.467 -0.0287  0.0803  0.6241
14362WAT     H159253   6.662   6.590   0.562 -0.3271 -3.4468  0.5505
14362WAT     H259254   6.715   6.657   0.437 -0.0976  1.4995  3.0882
14362WAT    EPW59255   6.659   6.604   0.476 -0.0772 -0.1976  0.9394
14363WAT      O59256   4.679   5.614   0.387  0.6971  0.1146 -0.3447
14363WAT     H159257   4.710   5.534   0.344 -0.0373 -0.2916 -0.1238
14363WAT     H259258   4.602   5.587   0.436 -0.4443  1.2603 -1.4524
14363WAT    EPW59259   4.673   5.600   0.388  0.4497  0.2124 -0.4617
14364WAT      O59260   4.914   5.279   0.787 -0.2739 -0.2632 -0.2931
14364WAT     H159261   4.853   5.281   0.860  1.1866 -0.9874  1.0082
14364WAT     H259262   4.917   5.187   0.760  2.4135 -0.8681  1.6642
14364WAT    EPW59263   4.906   5.267   0.793  0.2732 -0.4382  0.1366
14365WAT      O59264   7.253   9.766   8.202  0.3474  0.5036 -0.3557
14365WAT     H159265   7.194   9.712   8.256  0.6949  0.5222  0.0490
14365WAT     H259266   7.312   9.806   8.265  1.6233 -0.5356 -0.8504
14365WAT    EPW59267   7.253   9.764   8.218  0.5615  0.3691 -0.3681
14366WAT      O59268  10.478   7.530   5.095  0.6528  0.8830 -0.2345
14366WAT     H159269  10.415   7.565   5.032 -0.3042  0.9941  0.7337
14366WAT     H259270  10.472   7.591   5.169 -0.7801 -1.0569  1.3568
14366WAT    EPW59271  10.469   7.543   5.097  0.3376  0.6418  0.1030
14367WAT      O59272   3.085   3.553   7.613  0.6275 -0.1735 -0.2179
14367WAT     H159273   3.126   3.605   7.682 -1.5697  0.8120  0.4292
14367WAT     H259274   3.072   3.615   7.541 -2.4709  0.4492  0.7407
14367WAT    EPW59275   3.089   3.568   7.613 -0.0709  0.0386 -0.0062
14368WAT      O59276   3.254   3.505   4.255  0.4652 -0.4342 -0.8380
14368WAT     H159277   3.262   3.536   4.165  0.1206 -1.0759 -1.0937
14368WAT     H259278   3.169   3.461   4.258  1.2290 -1.9639 -0.6796
14368WAT    EPW59279   3.244   3.504   4.243  0.5205 -0.7206 -0.8509
14369WAT      O59280   1.001   2.444   6.267  0.3574 -0.1103 -0.2701
14369WAT     H159281   0.981   2.484   6.352  1.5333 -1.0031  0.4698
14369WAT     H259282   1.019   2.518   6.209  0.3156  0.4915  0.4652
14369WAT    EPW59283   1.001   2.459   6.271  0.5070 -0.1487 -0.0753
14370WAT      O59284   1.532   2.018   6.979 -0.2773  0.3222  0.1544
14370WAT     H159285   1.556   2.097   6.930 -2.2974  0.0213 -1.4779
14370WAT     H259286   1.550   1.946   6.918 -4.6226  0.0638 -1.1323
14370WAT    EPW59287   1.538   2.019   6.964 -1.1168  0.2484 -0.2306
14371WAT      O59288   0.501   4.526   6.872 -0.1045  0.1653  0.6532
14371WAT     H159289   0.581   4.544   6.923  0.7209 -1.8712  0.1815
14371WAT     H259290   0.469   4.443   6.907 -3.3826  1.9539  2.3638
14371WAT    EPW59291   0.508   4.518   6.884 -0.4280  0.1326  0.8166
14372WAT      O59292  10.694   6.821   8.307 -0.0651  0.5513 -0.1682
14372WAT     H159293  10.625   6.756   8.324  1.4370 -0.4707  2.6099
14372WAT     H259294  10.667   6.898   8.357  0.0692  0.6692 -0.2778
14372WAT    EPW59295  10.681   6.822   8.316  0.1512  0.4320  0.1836
14373WAT      O59296   4.822   2.871   5.861 -0.6649 -0.5220 -0.2203
14373WAT     H159297   4.849   2.862   5.770 -0.9816 -2.2533 -0.1800
14373WAT     H259298   4.896   2.914   5.904 -1.3818  2.4296 -1.6705
14373WAT    EPW59299   4.835   2.875   5.855 -0.8011 -0.3612 -0.4063
14374WAT      O59300   7.712   9.894   7.201 -0.4711  0.2846  0.1521
14374WAT     H159301   7.642   9.877   7.265  0.3591 -0.4528  0.8947
14374WAT     H259302   7.676   9.865   7.117 -1.4367  0.9025  0.3362
14374WAT    EPW59303   7.698   9.888   7.199 -0.4890  0.2689  0.2744
14375WAT      O59304   1.440   4.423   7.060 -0.4029  0.1138 -0.1787
14375WAT     H159305   1.421   4.490   6.995  1.0060  1.6775  0.9225
14375WAT     H259306   1.415   4.462   7.143  1.4153 -0.2624  0.6028
14375WAT    EPW59307   1.434   4.437   7.062  0.0227  0.2704  0.0699
14376WAT      O59308   2.023   4.048   7.948  0.4807  0.2637 -0.4995
14376WAT     H159309   2.005   4.044   7.854  2.5941  0.5993 -0.9523
14376WAT     H259310   1.939   4.075   7.987 -0.5413 -0.2938 -2.2186
14376WAT    EPW59311   2.009   4.051   7.941  0.6247  0.2348 -0.7858
14377WAT      O59312   7.281   6.582   2.157  0.4963 -0.4509 -0.2675
14377WAT     H159313   7.357   6.610   2.208 -0.2630  0.2188  0.5247
14377WAT     H259314   7.235   6.521   2.216 -2.2808  2.9173  1.4063
14377WAT    EPW59315   7.285   6.577   2.172  0.0298  0.0820  0.0577
14378WAT      O59316   4.231   0.806   5.640  0.4000  0.0303 -0.7133
14378WAT     H159317   4.306   0.765   5.597  1.0207 -0.3683  0.6905
14378WAT     H259318   4.251   0.899   5.641 -0.1943  0.2127 -2.3305
14378WAT    EPW59319   4.243   0.813   5.635  0.4034  0.0018 -0.7412
14379WAT      O59320   3.451   9.600   6.941 -0.9202  0.1682 -0.5072
14379WAT     H159321   3.409   9.663   6.884 -0.6056  0.6517 -0.2176
14379WAT     H259322   3.385   9.577   7.006 -0.2063  2.4416  1.1653
14379WAT    EPW59323   3.437   9.605   6.942 -0.7845  0.5322 -0.2480
14380WAT      O59324   5.066   6.859   0.323  0.1271  0.3024 -0.0388
14380WAT     H159325   5.041   6.838   0.233  1.2148  0.0451 -0.2869
14380WAT     H259326   5.158   6.884   0.318  0.2517  0.1160  1.0332
14380WAT    EPW59327   5.075   6.860   0.311  0.2868  0.2437  0.0698
14381WAT      O59328   7.427   8.544   7.854 -0.2602 -0.6642 -0.4838
14381WAT     H159329   7.426   8.640   7.846  0.4361 -0.6205 -0.1091
14381WAT     H259330   7.458   8.514   7.769  2.9268 -0.3806  0.4437
14381WAT    EPW59331   7.431   8.553   7.842  0.2520 -0.6208 -0.3121
14382WAT      O59332   2.295   1.632   8.605 -0.5560 -0.1478 -0.2747
14382WAT     H159333   2.344   1.711   8.583 -1.6221  1.3779  2.3196
14382WAT     H259334   2.205   1.663   8.617 -1.1142 -1.8649  0.2737
14382WAT    EPW59335   2.289   1.647   8.604 -0.7701 -0.1730  0.1397
14383WAT      O59336   1.125   0.772   5.527  0.7658 -0.3513 -0.5889
14383WAT     H159337   1.114   0.677   5.531 -0.1543 -0.3496 -2.1198
14383WAT     H259338   1.161   0.796   5.612 -0.4131 -1.8740  0.3882
14383WAT    EPW59339   1.128   0.762   5.538  0.4890 -0.5519 -0.6618
14384WAT      O59340   3.557   3.636   3.068 -0.2826  0.6262 -0.5982
14384WAT     H159341   3.581   3.596   3.151 -2.8496  0.6817  0.2336
14384WAT     H259342   3.554   3.563   3.006 -0.1179  0.3116 -0.2395
14384WAT    EPW59343   3.560   3.621   3.071 -0.5994  0.5921 -0.4413
14385WAT      O59344  10.679   0.118   4.809  0.1898 -0.6817 -0.5972
14385WAT     H159345  10.702   0.028   4.784  2.1445 -0.6076  0.6956
14385WAT     H259346  10.719   0.173   4.742 -1.0262 -0.7238 -1.4018
14385WAT    EPW59347  10.687   0.113   4.797  0.2871 -0.6775 -0.5331
14386WAT      O59348   1.888   6.362   0.894 -0.1161 -0.7002 -0.1231
14386WAT     H159349   1.883   6.408   0.811 -0.5030 -0.3145  0.1071
14386WAT     H259350   1.910   6.272   0.871  0.5685 -0.4213 -0.5827
14386WAT    EPW59351   1.890   6.356   0.880 -0.0768 -0.6125 -0.1533
14387WAT      O59352   3.402   0.034   5.314 -0.6648 -0.3276  0.7845
14387WAT     H159353   3.378   0.094   5.243  0.2911  0.4248  1.0811
14387WAT     H259354   3.321   0.023   5.364 -1.0664  0.0134  0.2287
14387WAT    EPW59355   3.388   0.040   5.311 -0.5916 -0.1833  0.7501
14388WAT      O59356   4.868   7.773   0.672 -1.1589  0.2322 -0.5590
14388WAT     H159357   4.893   7.795   0.762 -2.7521 -3.5314  1.0205
14388WAT     H259358   4.951   7.772   0.624  0.5823 -2.3997  2.1273
14388WAT    EPW59359   4.883   7.776   0.678 -1.1394 -0.6111  0.0036
14389WAT      O59360   1.752   0.505   3.496 -0.4537 -0.7163  0.2881
14389WAT     H159361   1.828   0.563   3.482 -0.4524 -1.0202 -1.1248
14389WAT     H259362   1.777   0.423   3.454 -1.1926 -1.1334  0.6516
14389WAT    EPW59363   1.766   0.502   3.488 -0.5510 -0.8114  0.1496
14390WAT      O59364   0.779   2.079   4.558 -1.1684 -1.6142  0.3792
14390WAT     H159365   0.777   2.111   4.648 -1.9738  0.4386 -0.3137
14390WAT     H259366   0.742   1.991   4.563 -1.3365 -1.4764  2.0270
14390WAT    EPW59367   0.774   2.071   4.570 -1.2968 -1.3254  0.5054
14391WAT      O59368   1.136   3.553   8.351  0.3555 -0.1157 -0.2569
14391WAT     H159369   1.186   3.518   8.425 -0.6040 -0.0490  0.4481
14391WAT     H259370   1.186   3.628   8.320 -0.4255  1.4042  1.9338
14391WAT    EPW59371   1.149   3.558   8.357  0.1259  0.0936  0.1249
14392WAT      O59372   1.403   2.557   8.445 -0.6565  0.2416  0.1404
14392WAT     H159373   1.420   2.464   8.438  2.7248  0.6949  0.5945
14392WAT     H259374   1.402   2.588   8.355 -3.6829 -0.4023 -0.1368
14392WAT    EPW59375   1.405   2.549   8.432 -0.6096  0.2165  0.1636
14393WAT      O59376   5.983   8.036   2.444 -0.1373 -0.4151  0.3136
14393WAT     H159377   6.018   8.053   2.356  1.4590  1.7596  1.2793
14393WAT     H259378   6.047   8.075   2.503 -2.3737  0.3968  2.3549
14393WAT    EPW59379   5.996   8.043   2.440 -0.2217 -0.0215  0.7104
14394WAT      O59380   2.192   1.029   6.365  0.2041  1.0371 -0.4494
14394WAT     H159381   2.226   1.060   6.449 -0.7980 -0.3900  0.5331
14394WAT     H259382   2.191   0.934   6.373  0.7195  0.8212 -2.3637
14394WAT    EPW59383   2.196   1.021   6.377  0.1398  0.8203 -0.5722
14395WAT      O59384  10.572   1.608   8.471 -0.2480 -0.3124 -0.5711
14395WAT     H159385  10.489   1.654   8.476  0.2803  0.5865  3.6492
14395WAT     H259386  10.637   1.675   8.451 -0.1920 -0.4313 -0.7941
14395WAT    EPW59387  10.570   1.623   8.469 -0.1712 -0.2095 -0.0434
14396WAT      O59388   1.880   5.620   7.847 -0.4007  0.1094 -0.1631
14396WAT     H159389   1.965   5.578   7.847 -0.6399 -0.3785  0.0221
14396WAT     H259390   1.876   5.666   7.931 -0.5933 -0.4322  0.1285
14396WAT    EPW59391   1.890   5.621   7.858 -0.4576 -0.0265 -0.1004
14397WAT      O59392   2.160   1.409   5.259  0.3142  0.5818 -0.2803
14397WAT     H159393   2.210   1.435   5.337 -0.3494  0.5547  0.1689
14397WAT     H259394   2.222   1.359   5.206  1.0234  1.3348 -0.1773
14397WAT    EPW59395   2.175   1.406   5.262  0.3202  0.6775 -0.2072
14398WAT      O59396   0.413   2.157   5.203 -0.2079 -0.2213 -0.0554
14398WAT     H159397   0.364   2.130   5.125 -0.9774  0.1662  0.2774
14398WAT     H259398   0.419   2.252   5.195 -1.3493 -0.0341  0.9280
14398WAT    EPW59399   0.407   2.166   5.191 -0.4599 -0.1454  0.1183
14399WAT      O59400   4.631   3.452   5.912  0.1158  0.0765  0.8760
14399WAT     H159401   4.564   3.517   5.891  1.0723  0.7592 -0.1607
14399WAT     H259402   4.631   3.448   6.008 -0.2952  1.2579  0.9420
14399WAT    EPW59403   4.622   3.460   5.922  0.1879  0.3225  0.7482
14400WAT      O59404   0.106   0.920   8.000  0.3301  0.3706 -0.1834
14400WAT     H159405   0.012   0.900   8.002  0.3885 -0.0003  2.7090
14400WAT     H259406   0.149   0.835   7.997  0.5841  0.4868  0.1775
14400WAT    EPW59407   0.099   0.906   8.000  0.3714  0.3370  0.2456
14401WAT      O59408   3.461   4.686   2.485  0.1147  0.0110  0.5630
14401WAT     H159409   3.485   4.681   2.577 -0.5347  1.2480  0.8217
14401WAT     H259410   3.537   4.728   2.443 -0.0340  0.4584  0.7339
14401WAT    EPW59411   3.474   4.691   2.491  0.0093  0.2332  0.6196
14402WAT      O59412   0.802   0.928   7.308  0.4033 -0.4363  0.0338
14402WAT     H159413   0.786   0.955   7.218  0.9102  1.7743  0.5566
14402WAT     H259414   0.737   0.976   7.360 -0.1808 -2.0235  0.8438
14402WAT    EPW59415   0.791   0.938   7.303  0.3931 -0.3541  0.2093
14403WAT      O59416   2.036   2.634   8.415 -0.3474 -0.7640 -0.3509
14403WAT     H159417   1.959   2.640   8.473 -0.6414 -1.6547 -0.6292
14403WAT     H259418   2.008   2.576   8.345 -1.0103  2.4980 -3.0354
14403WAT    EPW59419   2.022   2.627   8.414 -0.4735 -0.4513 -0.7415
14404WAT      O59420   3.371   4.287   1.436  0.4317 -0.1471  0.7812
14404WAT     H159421   3.372   4.379   1.463 -0.2900  0.3046 -0.6778
14404WAT     H259422   3.461   4.257   1.451  0.4187  0.4727  2.2680
14404WAT    EPW59423   3.383   4.295   1.442  0.3349 -0.0057  0.7848
14405WAT      O59424   8.590   8.811   7.676  0.0853  0.1068 -0.0161
14405WAT     H159425   8.594   8.716   7.664 -1.8002 -0.1666  1.1334
14405WAT     H259426   8.523   8.840   7.613  1.9010  0.9708 -1.6434
14405WAT    EPW59427   8.582   8.803   7.666  0.0758  0.1845 -0.0792
14406WAT      O59428   2.599   3.482   8.576 -0.1434  0.2642 -0.7901
14406WAT     H159429   2.661   3.520   8.514 -0.1442 -0.6351 -1.3473
14406WAT     H259430   2.557   3.411   8.528 -2.9172  1.9366 -1.0502
14406WAT    EPW59431   2.602   3.478   8.562 -0.5094  0.3660 -0.8984
14407WAT      O59432   4.837   7.568   0.358 -0.6453  0.3954  0.5809
14407WAT     H159433   4.753   7.610   0.375 -0.9503 -0.9851  2.9503
14407WAT     H259434   4.841   7.496   0.422  1.8334 -0.2896 -0.2363
14407WAT    EPW59435   4.827   7.564   0.369 -0.3586  0.1228  0.7856
14408WAT      O59436   2.028   3.091   7.888 -0.1427 -0.5386  0.1326
14408WAT     H159437   1.993   3.022   7.944 -0.8745  1.6322  2.5812
14408WAT     H259438   2.104   3.124   7.935  0.8795 -0.3809 -1.5467
14408WAT    EPW59439   2.033   3.086   7.901 -0.1043 -0.2314  0.2341
14409WAT      O59440   8.219  10.001   8.467 -0.5197 -0.0890 -0.0391
14409WAT     H159441   8.139  10.010   8.519 -0.0057  0.2027  0.7217
14409WAT     H259442   8.207  10.062   8.394 -1.0625 -0.1808 -0.0298
14409WAT    EPW59443   8.207  10.010   8.464 -0.5236 -0.0629  0.0625
14410WAT      O59444   6.158   9.000   1.544 -0.4444  0.1245 -0.8236
14410WAT     H159445   6.087   9.061   1.526  0.2022  1.4054  0.7491
14410WAT     H259446   6.194   8.979   1.458 -2.1731  0.0820 -1.5796
14410WAT    EPW59447   6.153   9.005   1.530 -0.5870  0.2875 -0.7159
14411WAT      O59448   2.826   0.128   4.557  0.1197  0.3395 -0.0653
14411WAT     H159449   2.733   0.109   4.571  0.5545 -2.3001 -0.2577
14411WAT     H259450   2.826   0.203   4.497 -1.9546 -1.0911 -2.0156
14411WAT    EPW59451   2.813   0.136   4.551 -0.0966 -0.1973 -0.3479
14412WAT      O59452   2.139   0.890   7.086  0.0956 -0.0231 -0.6453
14412WAT     H159453   2.097   0.814   7.045 -1.4759  0.0214  0.7355
14412WAT     H259454   2.085   0.965   7.058 -0.7824  0.0513  1.0817
14412WAT    EPW59455   2.126   0.890   7.077 -0.2275 -0.0074 -0.2356
14413WAT      O59456   4.817   2.735   4.963 -0.2478 -0.2048 -0.0967
14413WAT     H159457   4.786   2.664   5.020  0.2983  0.7984  1.5233
14413WAT     H259458   4.788   2.815   5.008 -0.2516  0.6183 -1.5240
14413WAT    EPW59459   4.809   2.736   4.977 -0.1764  0.0360 -0.0713
14414WAT      O59460   5.879  10.322   7.475 -0.2996  0.0591  0.0960
14414WAT     H159461   5.962  10.368   7.459  0.6073 -0.4432  2.8397
14414WAT     H259462   5.812  10.384   7.447  0.9221  2.3148  1.8339
14414WAT    EPW59463   5.881  10.337   7.469 -0.0188  0.2899  0.6874
14415WAT      O59464   5.609   5.388   0.062  0.2370  0.1986  0.2371
14415WAT     H159465   5.553   5.411  -0.012 -0.2682  0.9085  0.8296
14415WAT     H259466   5.549   5.369   0.134  0.7102 -0.8758  0.3759
14415WAT    EPW59467   5.594   5.388   0.062  0.2327  0.1507  0.3335
14416WAT      O59468   2.067   0.097   2.922 -0.0077 -0.3492 -0.0121
14416WAT     H159469   2.025   0.175   2.883 -0.6902  0.5257  2.3337
14416WAT     H259470   2.153   0.128   2.950  0.6512 -1.0875 -1.1324
14416WAT    EPW59471   2.073   0.112   2.920 -0.0108 -0.3311  0.1496
14417WAT      O59472   9.231   6.352   1.769 -0.7548  0.0516 -0.4771
14417WAT     H159473   9.321   6.334   1.794 -0.8441 -0.4252 -0.4826
14417WAT     H259474   9.235   6.372   1.676 -0.3821  2.1110 -0.0738
14417WAT    EPW59475   9.243   6.352   1.760 -0.7176  0.2604 -0.4246
14418WAT      O59476   1.665   2.531   6.243 -0.3971  0.3797  0.0612
14418WAT     H159477   1.639   2.439   6.243 -0.1700  0.3118 -0.1803
14418WAT     H259478   1.584   2.579   6.257 -0.6251  0.1647 -0.4612
14418WAT    EPW59479   1.651   2.525   6.245 -0.3972  0.3424 -0.0393
14419WAT      O59480  10.428   2.967   8.402 -1.1838 -0.7161 -0.1353
14419WAT     H159481  10.408   2.926   8.486 -3.7053  1.8710  0.7183
14419WAT     H259482  10.393   2.907   8.336 -0.7442 -1.9735  0.7551
14419WAT    EPW59483  10.420   2.954   8.404 -1.4582 -0.5406  0.0944
14420WAT      O59484   6.656   8.091   0.637 -0.0329 -0.3499 -0.4636
14420WAT     H159485   6.622   8.154   0.574  0.1128  0.4080  0.2086
14420WAT     H259486   6.730   8.050   0.592 -0.4706 -0.4466 -1.1103
14420WAT    EPW59487   6.661   8.094   0.623 -0.0713 -0.2627 -0.4603
14421WAT      O59488   0.913   5.134   7.616  0.4128 -0.0284  0.3150
14421WAT     H159489   0.899   5.078   7.692  0.1359 -0.6966 -0.2140
14421WAT     H259490   0.834   5.123   7.563  1.1962 -0.7243 -0.7685
14421WAT    EPW59491   0.901   5.125   7.619  0.4796 -0.2081  0.1023
14422WAT      O59492   3.346   2.716   6.196 -0.1779 -0.0461 -0.1128
14422WAT     H159493   3.276   2.659   6.164 -1.7097  2.0687 -0.8042
14422WAT     H259494   3.324   2.732   6.288 -0.1691 -0.0049 -0.1177
14422WAT    EPW59495   3.334   2.711   6.204 -0.3788  0.2383 -0.2048
14423WAT      O59496   2.905   7.689   5.944  0.4998  0.0162 -0.4697
14423WAT     H159497   2.862   7.605   5.924  0.5181  0.4660 -2.5973
14423WAT     H259498   2.974   7.697   5.878  0.3571  1.8098 -0.4344
14423WAT    EPW59499   2.908   7.679   5.933  0.4834  0.3121 -0.7455
14424WAT      O59500  10.987   2.068   5.676 -0.4114  0.1243  0.3590
14424WAT     H159501  11.072   2.041   5.711 -1.2921 -1.3509  1.5108
14424WAT     H259502  10.945   2.115   5.749 -1.1305 -0.4247  0.3132
14424WAT    EPW59503  10.992   2.071   5.690 -0.6224 -0.1427  0.5050
14425WAT      O59504   1.917   2.627   7.765 -0.1384  0.0378  0.6160
14425WAT     H159505   1.877   2.695   7.710  1.8551  1.5821  0.9382
14425WAT     H259506   1.978   2.582   7.705  0.0582 -0.0749  0.9009
14425WAT    EPW59507   1.920   2.630   7.750  0.1504  0.2267  0.6959
14426WAT      O59508   5.800  10.223   8.147  0.1127  0.4156  0.1525
14426WAT     H159509   5.787  10.313   8.117 -1.5713  0.5876  1.2895
14426WAT     H259510   5.818  10.232   8.241 -4.2253 -0.5367  1.2871
14426WAT    EPW59511   5.801  10.236   8.155 -0.6814  0.3133  0.4520
14427WAT      O59512   1.262   0.046   6.410  0.6419 -0.2471  0.0442
14427WAT     H159513   1.270   0.029   6.316 -1.1552 -0.6073 -0.0625
14427WAT     H259514   1.196   0.115   6.416  0.2083 -0.7447  1.0798
14427WAT    EPW59515   1.255   0.053   6.398  0.3476 -0.3610  0.1667
14428WAT      O59516   0.307  10.034   4.567  0.5584  0.3003  0.0540
14428WAT     H159517   0.306   9.963   4.631 -0.8834  0.4066  0.1743
14428WAT     H259518   0.272  10.110   4.614  0.0538  0.5337 -0.6761
14428WAT    EPW59519   0.302  10.035   4.582  0.3017  0.3448 -0.0262
14429WAT      O59520   4.685   1.746   3.803  0.3542  0.2946  0.2884
14429WAT     H159521   4.755   1.729   3.739  1.0798  0.3916  1.0446
14429WAT     H259522   4.659   1.837   3.786  0.9418  0.5089  0.4908
14429WAT    EPW59523   4.691   1.756   3.792  0.5274  0.3356  0.4147
14430WAT      O59524   3.691   4.249   6.424  0.3263 -0.5171  0.1919
14430WAT     H159525   3.709   4.262   6.517 -0.2271  1.5419  0.0622
14430WAT     H259526   3.777   4.250   6.383  0.5988 -1.7558  0.6848
14430WAT    EPW59527   3.704   4.251   6.431  0.2892 -0.4086  0.2398
14431WAT      O59528   3.690   3.536   4.259 -0.1179  0.0406  0.1062
14431WAT     H159529   3.638   3.455   4.255 -0.6745  0.3358  1.1526
14431WAT     H259530   3.647   3.595   4.197 -1.9677  0.7851  1.9860
14431WAT    EPW59531   3.677   3.533   4.250 -0.4355  0.1777  0.4921
14432WAT      O59532   1.818   2.684   8.591  0.0696 -0.0489  0.2925
14432WAT     H159533   1.783   2.610   8.641 -0.2994 -0.9806 -1.2746
14432WAT     H259534   1.748   2.749   8.591 -0.7657 -0.9123 -0.7651
14432WAT    EPW59535   1.804   2.683   8.597 -0.0892 -0.2855 -0.0544
14433WAT      O59536   4.274   6.172   0.284 -0.4441  0.2896  0.1361
14433WAT     H159537   4.285   6.263   0.312  0.6258 -0.5468  2.7318
14433WAT     H259538   4.222   6.178   0.204 -1.7319  3.1020  1.0342
14433WAT    EPW59539   4.268   6.185   0.277 -0.4728  0.5503  0.5969
14434WAT      O59540   5.194   6.982   0.891 -0.1592  0.0092  0.5492
14434WAT     H159541   5.245   6.921   0.839  1.9870  1.6376  0.6251
14434WAT     H259542   5.246   6.996   0.970 -1.7177  0.2158  1.5978
14434WAT    EPW59543   5.207   6.976   0.895 -0.0818  0.2513  0.6975
14435WAT      O59544   7.059  10.045   7.117  1.0229 -0.0235 -1.0508
14435WAT     H159545   7.008  10.040   7.036  0.8662  0.9918 -1.0297
14435WAT     H259546   7.112  10.125   7.107  2.2659 -0.7854 -0.8699
14435WAT    EPW59547   7.060  10.055   7.105  1.1661  0.0095 -1.0240
14436WAT      O59548   8.571   0.651   8.380 -0.0013  0.0585  0.6018
14436WAT     H159549   8.502   0.620   8.321  0.1153 -0.7180  0.8637
14436WAT     H259550   8.609   0.726   8.335  0.7715 -1.1387 -0.8206
14436WAT    EPW59551   8.567   0.657   8.366  0.1163 -0.2018  0.4492
14437WAT      O59552   3.054   3.320   6.016 -0.3572 -0.0920 -0.3723
14437WAT     H159553   3.131   3.378   6.009 -1.5116  1.9434  1.9166
14437WAT     H259554   3.005   3.335   5.936  0.2531  0.7765 -0.6018
14437WAT    EPW59555   3.058   3.330   6.005 -0.4292  0.2910 -0.1006
14438WAT      O59556   7.862   8.710   7.185  0.3097  0.4667  0.2673
14438WAT     H159557   7.839   8.622   7.155  0.4813  0.4929  0.0568
14438WAT     H259558   7.895   8.754   7.107  0.5446  0.6103  0.4472
14438WAT    EPW59559   7.863   8.705   7.171  0.3631  0.4892  0.2635
14439WAT      O59560   4.192   5.257   0.768  0.4986 -0.6325 -0.6261
14439WAT     H159561   4.123   5.232   0.707  1.1429  0.4920 -1.8612
14439WAT     H259562   4.148   5.258   0.854 -0.6781 -1.2286 -1.1942
14439WAT    EPW59563   4.177   5.254   0.771  0.4284 -0.5629 -0.8639
14440WAT      O59564   4.169   2.265   4.023 -0.6182  0.1749  0.0279
14440WAT     H159565   4.204   2.343   3.980  0.6358  0.7343  1.9474
14440WAT     H259566   4.078   2.286   4.039 -0.7013  0.5869 -0.8903
14440WAT    EPW59567   4.162   2.278   4.019 -0.4637  0.3028  0.1600
14441WAT      O59568   6.835  10.005   5.002 -0.5380 -0.2401  0.6215
14441WAT     H159569   6.891  10.082   5.012  0.9698 -1.0050 -1.3851
14441WAT     H259570   6.774  10.028   4.932  0.4289 -1.1035 -0.5387
14441WAT    EPW59571   6.834  10.018   4.994 -0.2117 -0.4549  0.2038
14442WAT      O59572   6.577   9.832   5.324 -0.0629 -0.6143  0.0058
14442WAT     H159573   6.619   9.900   5.271  1.3705 -1.6729 -0.2921
14442WAT     H259574   6.531   9.880   5.393  1.6087  0.6680  0.3039
14442WAT    EPW59575   6.577   9.847   5.326  0.3464 -0.5846  0.0060
14443WAT      O59576   1.366   2.266   8.515  0.8313 -0.1953  0.4646
14443WAT     H159577   1.422   2.226   8.582  0.7063 -0.3884  0.4532
14443WAT     H259578   1.277   2.258   8.549  0.5543 -2.0602 -0.6023
14443WAT    EPW59579   1.362   2.260   8.528  0.7783 -0.4666  0.3223
14444WAT      O59580   6.450   5.697   1.115  0.0115 -0.0499  0.2560
14444WAT     H159581   6.397   5.776   1.101  2.1138  1.4177  0.2050
14444WAT     H259582   6.390   5.625   1.095 -1.5779  1.5492 -1.0836
14444WAT    EPW59583   6.435   5.698   1.111  0.0792  0.3543  0.0726
14445WAT      O59584   4.882   7.135   0.279 -0.2824  0.4643  0.2487
14445WAT     H159585   4.799   7.089   0.291  0.1731 -0.1341  1.2913
14445WAT     H259586   4.944   7.088   0.336  0.4767  1.6500  0.4436
14445WAT    EPW59587   4.879   7.122   0.288 -0.1221  0.5417  0.4119
14446WAT      O59588   1.571  10.293   3.621  0.1303  0.2969 -0.4211
14446WAT     H159589   1.495  10.346   3.597  1.6412  1.1620 -3.9846
14446WAT     H259590   1.603  10.333   3.702 -2.4683  0.6101  0.5514
14446WAT    EPW59591   1.565  10.306   3.628 -0.0131  0.4525 -0.7628
14447WAT      O59592   0.684   3.131   4.685 -0.7131 -0.6797  0.0708
14447WAT     H159593   0.663   3.217   4.721 -0.0879 -1.0988  1.4896
14447WAT     H259594   0.661   3.138   4.592 -1.2149  0.8238  0.2800
14447WAT    EPW59595   0.678   3.143   4.678 -0.6968 -0.5367  0.2856
14448WAT      O59596   7.083  10.279   5.807 -0.3945 -0.0853 -0.5811
14448WAT     H159597   7.087  10.333   5.728  0.4586 -0.8928 -1.0972
14448WAT     H259598   7.115  10.336   5.877 -1.2733  0.6732 -0.7729
14448WAT    EPW59599   7.088  10.294   5.806 -0.3977 -0.0920 -0.6745
14449WAT      O59600   0.225   0.483   6.953 -0.2818  0.2192  0.1300
14449WAT     H159601   0.147   0.433   6.931  0.3875 -1.5723  1.5534
14449WAT     H259602   0.199   0.539   7.026 -0.0209 -1.1234  1.2835
14449WAT    EPW59603   0.211   0.484   6.960 -0.1591 -0.1942  0.4697
14450WAT      O59604   1.416   4.884   5.354 -0.3633 -0.2524  0.0127
14450WAT     H159605   1.407   4.900   5.260  1.7539  1.0254 -0.0430
14450WAT     H259606   1.345   4.934   5.394 -0.9875 -0.4174 -0.8626
14450WAT    EPW59607   1.405   4.893   5.347 -0.1664 -0.1054 -0.1101
14451WAT      O59608   2.160   0.547   6.280 -0.0509  0.0077 -0.3332
14451WAT     H159609   2.163   0.478   6.346 -0.9966 -1.1203 -1.4160
14451WAT     H259610   2.234   0.529   6.223 -0.3902 -0.2297 -0.7086
14451WAT    EPW59611   2.170   0.536   6.281 -0.2204 -0.1724 -0.5257
14452WAT      O59612   6.941   7.984   6.519 -0.6020  0.2635 -0.2100
14452WAT     H159613   6.922   7.907   6.573  0.0429 -0.1438 -0.5539
14452WAT     H259614   7.036   7.990   6.520 -0.6637  1.3006  0.1377
14452WAT    EPW59615   6.951   7.974   6.526 -0.5250  0.3464 -0.2098
14453WAT      O59616   1.868   4.549   0.691  0.4811 -0.5254 -0.3680
14453WAT     H159617   1.827   4.526   0.608  0.0937 -0.4369 -0.2040
14453WAT     H259618   1.799   4.537   0.756  0.6880 -0.2774 -0.0988
14453WAT    EPW59619   1.854   4.545   0.689  0.4573 -0.4809 -0.3109
14454WAT      O59620   9.049   9.259   6.863  0.3438  0.0766 -0.0749
14454WAT     H159621   9.006   9.221   6.785 -0.9835 -0.2693  0.7838
14454WAT     H259622   8.991   9.331   6.889 -0.2735 -0.9900  1.6617
14454WAT    EPW59623   9.035   9.263   6.856  0.0873 -0.1097  0.2673
14455WAT      O59624   8.869   7.760   2.157 -0.4808 -0.4243  0.0362
14455WAT     H159625   8.794   7.793   2.206  0.1524  0.8216  0.2394
14455WAT     H259626   8.922   7.714   2.222 -1.1907 -1.5489 -0.1667
14455WAT    EPW59627   8.866   7.759   2.172 -0.4907 -0.4084  0.0362
14456WAT      O59628  10.178   9.354   7.451  0.3347  0.1578  0.1323
14456WAT     H159629  10.239   9.427   7.448 -0.3152  0.7519  0.9862
14456WAT     H259630  10.232   9.277   7.434  1.3975  0.6367  1.2001
14456WAT    EPW59631  10.193   9.353   7.448  0.3891  0.2999  0.3858
14457WAT      O59632   2.741   3.507   7.393 -0.1186  0.5588 -0.1321
14457WAT     H159633   2.657   3.514   7.439 -0.0807  1.1680 -0.1525
14457WAT     H259634   2.718   3.508   7.301 -0.0628  1.1707 -0.1448
14457WAT    EPW59635   2.727   3.508   7.387 -0.1061  0.7198 -0.1364
14458WAT      O59636   3.126   6.885   3.234 -0.1457 -0.1633  0.8057
14458WAT     H159637   3.101   6.972   3.205 -0.7519 -0.3271  0.8173
14458WAT     H259638   3.045   6.835   3.233  0.4352 -1.1454 -0.6152
14458WAT    EPW59639   3.112   6.890   3.230 -0.1490 -0.3145  0.6200
14459WAT      O59640  10.374   3.726   8.248  1.1125  0.3831  0.2724
14459WAT     H159641  10.464   3.724   8.281  1.1497 -0.4714  0.1393
14459WAT     H259642  10.355   3.819   8.236  1.8891  0.5844  0.5464
14459WAT    EPW59643  10.383   3.738   8.251  1.2197  0.2971  0.2913
14460WAT      O59644   6.149   7.055   2.244  0.2629 -0.6224 -0.6166
14460WAT     H159645   6.115   7.097   2.165 -0.2072 -1.0114 -0.6286
14460WAT     H259646   6.213   6.992   2.212  0.5507 -0.3164 -0.6404
14460WAT    EPW59647   6.153   7.052   2.229  0.2391 -0.6332 -0.6216
14461WAT      O59648   2.633   2.918   4.670  0.6347  0.6244 -0.0863
14461WAT     H159649   2.651   2.905   4.577  0.2102 -1.6313  0.0881
14461WAT     H259650   2.539   2.901   4.678  0.8220 -0.0365  0.8507
14461WAT    EPW59651   2.623   2.914   4.659  0.6036  0.2396  0.0603
14462WAT      O59652   0.814   1.549   6.815  0.0235  0.0113 -0.0526
14462WAT     H159653   0.861   1.564   6.733 -2.8604  0.0049 -1.8615
14462WAT     H259654   0.846   1.464   6.846  1.9344  0.5027 -0.5922
14462WAT    EPW59655   0.824   1.539   6.808 -0.1048  0.0752 -0.3624
14463WAT      O59656   4.440   6.309   1.658  0.1565  0.6256  0.1317
14463WAT     H159657   4.358   6.283   1.700  0.5325  0.4074  0.7423
14463WAT     H259658   4.413   6.362   1.583 -0.5216  3.0786  1.9897
14463WAT    EPW59659   4.426   6.313   1.654  0.1166  0.9203  0.4573
14464WAT      O59660   7.961   7.425   0.826  0.1082 -0.2693 -0.5180
14464WAT     H159661   7.968   7.428   0.731 -3.2250 -0.6174 -0.9080
14464WAT     H259662   7.975   7.333   0.849 -1.1112 -0.5848 -0.9634
14464WAT    EPW59663   7.964   7.413   0.816 -0.4923 -0.3564 -0.6282
14465WAT      O59664   0.287   1.272   6.392  0.8985 -0.4385 -0.2043
14465WAT     H159665   0.200   1.299   6.423  0.1288  0.0264 -2.5643
14465WAT     H259666   0.285   1.176   6.399  0.2473 -0.4268 -0.1121
14465WAT    EPW59667   0.275   1.263   6.397  0.7111 -0.3756 -0.5038
14466WAT      O59668  10.193   0.395   5.706 -0.1622 -0.0014 -0.1112
14466WAT     H159669  10.186   0.321   5.646 -1.7584 -1.9465  2.2880
14466WAT     H259670  10.270   0.443   5.675  1.9694 -3.5316 -0.8506
14466WAT    EPW59671  10.202   0.392   5.694 -0.0916 -0.7235  0.1078
14467WAT      O59672   7.439   8.989   7.019  0.2346 -0.2497  0.0925
14467WAT     H159673   7.464   8.962   7.107 -0.1499 -1.0353 -0.0296
14467WAT     H259674   7.344   8.985   7.019  0.2473 -0.7026 -0.4897
14467WAT    EPW59675   7.430   8.985   7.030  0.1857 -0.4134 -0.0005
14468WAT      O59676   2.206   3.490   7.206  0.2274 -0.0493  0.8722
14468WAT     H159677   2.272   3.480   7.138 -0.6930  2.3477 -0.5095
14468WAT     H259678   2.254   3.520   7.282  0.7824  1.8650 -0.1694
14468WAT    EPW59679   2.221   3.492   7.207  0.1793  0.5194  0.5524
14469WAT      O59680   2.908   1.585   5.959  0.0611  0.4522  1.1259
14469WAT     H159681   2.881   1.650   5.894 -1.7306 -1.5208 -0.2284
14469WAT     H259682   2.997   1.611   5.983  0.2853  2.0338 -1.1083
14469WAT    EPW59683   2.916   1.597   5.953 -0.1457  0.4005  0.6526
14470WAT      O59684   4.650   1.566   7.851 -0.9392 -0.8284  0.7617
14470WAT     H159685   4.706   1.524   7.916 -1.5078  0.3965  2.0924
14470WAT     H259686   4.598   1.629   7.901  0.4700  2.1307 -1.2075
14470WAT    EPW59687   4.651   1.569   7.866 -0.8285 -0.2766  0.6776
14471WAT      O59688   0.462   4.829   7.907  0.4199 -0.5638  0.5648
14471WAT     H159689   0.456   4.848   7.814 -1.8408  0.3183  0.8237
14471WAT     H259690   0.404   4.754   7.921  2.4551 -2.1694  0.9811
14471WAT    EPW59691   0.454   4.822   7.897  0.3902 -0.6590  0.6537
14472WAT      O59692   9.096   1.923   7.889 -0.6231  0.6675 -0.2012
14472WAT     H159693   9.019   1.979   7.899 -0.1292  1.3090  0.0936
14472WAT     H259694   9.067   1.852   7.833 -1.5637  0.6447  0.3018
14472WAT    EPW59695   9.082   1.921   7.883 -0.6819  0.7491 -0.0958
14473WAT      O59696   9.740   0.350   7.573  0.0710 -0.1714  0.2138
14473WAT     H159697   9.713   0.265   7.608 -1.2664  0.0915 -0.1383
14473WAT     H259698   9.659   0.400   7.564  1.0260  2.1881  3.0227
14473WAT    EPW59699   9.726   0.345   7.576  0.0205  0.1744  0.5379
14474WAT      O59700   2.877   2.173   2.699  0.0596  0.0326  0.7919
14474WAT     H159701   2.938   2.208   2.763  0.1773 -1.0271  1.2809
14474WAT     H259702   2.929   2.112   2.647 -0.2504  0.1991  0.2783
14474WAT    EPW59703   2.892   2.169   2.701  0.0341 -0.0852  0.7886
14475WAT      O59704   9.623   1.384   6.264  0.3112  0.0094 -0.3102
14475WAT     H159705   9.591   1.303   6.304  2.2445 -0.7023 -0.0906
14475WAT     H259706   9.712   1.395   6.299  0.6098  1.4708 -1.4139
14475WAT    EPW59707   9.631   1.375   6.274  0.6061  0.1082 -0.4270
14476WAT      O59708   6.219   7.825   1.315  0.9051 -0.7749  0.0416
14476WAT     H159709   6.276   7.855   1.385  2.4321 -1.1723 -0.9881
14476WAT     H259710   6.145   7.885   1.316  0.9873 -0.6591  1.8519
14476WAT    EPW59711   6.216   7.837   1.324  1.1175 -0.8121  0.1446
14477WAT      O59712   9.893   9.507   6.458  0.1351 -0.2060  0.2257
14477WAT     H159713   9.956   9.469   6.397  0.0646 -0.2820  0.2008
14477WAT     H259714   9.856   9.581   6.410  0.1217 -0.2308  0.1981
14477WAT    EPW59715   9.897   9.512   6.444  0.1245 -0.2189  0.2189
14478WAT      O59716   8.598  10.235   7.904 -0.1550 -0.1631  0.8286
14478WAT     H159717   8.630  10.156   7.945 -0.4277 -1.0138 -0.5209
14478WAT     H259718   8.532  10.204   7.841 -1.3329  1.2556  1.3112
14478WAT    EPW59719   8.593  10.221   7.901 -0.3457 -0.0882  0.7141
14479WAT      O59720   6.833   5.636   2.422 -0.0260 -0.7999 -0.0275
14479WAT     H159721   6.803   5.636   2.512  1.2284 -0.6487  0.4144
14479WAT     H259722   6.811   5.549   2.389  0.6192 -1.3068  0.8367
14479WAT    EPW59723   6.826   5.624   2.429  0.2246 -0.8466  0.1447
14480WAT      O59724  10.479   2.433   6.854  0.2323 -0.8109 -0.2953
14480WAT     H159725  10.509   2.464   6.768  0.5563 -0.9180 -0.2225
14480WAT     H259726  10.480   2.338   6.847 -2.7415 -0.8532 -1.2053
14480WAT    EPW59727  10.483   2.425   6.841 -0.1178 -0.8307 -0.4058
14481WAT      O59728   4.126   6.343   0.802 -0.3534  0.2599  0.4573
14481WAT     H159729   4.149   6.292   0.880  1.5843 -0.9098 -0.7919
14481WAT     H259730   4.086   6.422   0.837 -1.4547 -1.1109  2.5563
14481WAT    EPW59731   4.124   6.346   0.817 -0.2432 -0.0751  0.5694
14482WAT      O59732   3.371   2.119   4.719  0.1345  0.2976 -0.2884
14482WAT     H159733   3.348   2.116   4.812 -0.6121  0.9391 -0.4429
14482WAT     H259734   3.360   2.211   4.695 -1.2517 -0.1197 -1.3934
14482WAT    EPW59735   3.366   2.131   4.728 -0.1467  0.3271 -0.4544
14483WAT      O59736   1.367   0.041   5.411  0.2014  0.9061  0.4105
14483WAT     H159737   1.291  -0.004   5.375  1.7953 -0.3864 -1.5720
14483WAT     H259738   1.397  -0.015   5.483  1.8833 -1.0978 -1.7314
14483WAT    EPW59739   1.361   0.028   5.416  0.6335  0.4712 -0.1333
14484WAT      O59740   1.340   3.387   6.973  0.3175  0.8353 -0.3822
14484WAT     H159741   1.423   3.374   6.927  1.5777 -0.3379  2.0338
14484WAT     H259742   1.322   3.481   6.964  1.5037  0.9746 -1.5790
14484WAT    EPW59743   1.348   3.398   6.966  0.6402  0.6989 -0.2215
14485WAT      O59744   0.001  10.029   7.974 -0.5401  0.1116  0.0550
14485WAT     H159745  -0.008  10.093   7.903  0.3210  0.2958  0.0938
14485WAT     H259746  -0.010  10.081   8.054 -0.7263  0.0526  0.0666
14485WAT    EPW59747  -0.001  10.044   7.976 -0.4511  0.1283  0.0618
14486WAT      O59748   9.062  10.347   5.595  0.1051  0.8848 -0.3760
14486WAT     H159749   9.108  10.289   5.656  0.4224  3.1583  1.7094
14486WAT     H259750   9.130  10.379   5.537 -0.1676 -1.1553 -1.9468
14486WAT    EPW59751   9.077  10.343   5.595  0.1116  0.9155 -0.3083
14487WAT      O59752   2.370   7.800   6.136  0.4230 -0.4667  0.3624
14487WAT     H159753   2.434   7.871   6.146 -1.0832  1.2901 -1.5043
14487WAT     H259754   2.329   7.793   6.222  1.9700 -0.5199  1.1439
14487WAT    EPW59755   2.373   7.809   6.148  0.4282 -0.2420  0.2189
14488WAT      O59756  10.223   8.236   6.326  0.7224  0.3993  0.2510
14488WAT     H159757  10.147   8.294   6.330 -0.4710 -1.1146  0.9368
14488WAT     H259758  10.270   8.263   6.247 -2.0778 -0.4051 -1.8575
14488WAT    EPW59759  10.219   8.247   6.316  0.1950  0.0939  0.0632
14489WAT      O59760   3.277   2.278   7.697 -0.2403  0.0654  0.4633
14489WAT     H159761   3.288   2.287   7.792  0.7007 -0.4447  0.4113
14489WAT     H259762   3.365   2.294   7.661 -0.8458  1.6251 -0.4345
14489WAT    EPW59763   3.290   2.282   7.705 -0.1960  0.2038  0.3378
14490WAT      O59764   7.818   5.953   1.480 -0.0161 -0.2220 -0.3562
14490WAT     H159765   7.846   5.925   1.393  0.4015  0.9212 -0.6027
14490WAT     H259766   7.753   5.888   1.506  0.0698 -0.7437 -1.3923
14490WAT    EPW59767   7.813   5.941   1.472  0.0503 -0.1400 -0.5254
14491WAT      O59768   4.517   5.056   8.273 -0.0633  0.0527 -0.6111
14491WAT     H159769   4.519   5.150   8.290  0.9187 -0.1150  0.2704
14491WAT     H259770   4.564   5.045   8.190  0.6225  0.2468 -0.2486
14491WAT    EPW59771   4.524   5.067   8.264  0.1569  0.0563 -0.4473
14492WAT      O59772   0.744   0.521   6.118  0.2066 -0.4628 -0.8769
14492WAT     H159773   0.737   0.481   6.031  0.4242  0.1796 -1.2042
14492WAT     H259774   0.790   0.604   6.101  0.9201 -0.6782 -0.0425
14492WAT    EPW59775   0.749   0.527   6.104  0.3294 -0.4065 -0.8099
14493WAT      O59776   3.336   4.564   6.560  0.1630  0.6083 -0.1456
14493WAT     H159777   3.331   4.566   6.655  2.6261 -2.7858  0.2134
14493WAT     H259778   3.396   4.635   6.538  0.4425  0.7309  0.9412
14493WAT    EPW59779   3.343   4.574   6.570  0.5246  0.1769  0.0453
14494WAT      O59780   1.727   9.246   3.837 -0.9111 -0.0027 -0.3054
14494WAT     H159781   1.787   9.189   3.884 -0.2700  1.1472  0.3158
14494WAT     H259782   1.667   9.279   3.904 -1.6724 -0.4262 -0.7665
14494WAT    EPW59783   1.727   9.243   3.852 -0.9270  0.0930 -0.2844
14495WAT      O59784   2.055   5.164   4.856  0.2285 -0.4890 -0.3232
14495WAT     H159785   2.022   5.159   4.946 -1.2998 -1.2238 -0.8828
14495WAT     H259786   2.138   5.211   4.863  0.6571 -1.4507  1.5921
14495WAT    EPW59787   2.061   5.170   4.869  0.0833 -0.7126 -0.1440
14496WAT      O59788   3.173   4.563   6.300 -0.1456  0.2915 -0.6986
14496WAT     H159789   3.235   4.527   6.236 -0.4890 -0.2515 -0.7297
14496WAT     H259790   3.221   4.560   6.383  0.2076  0.7537 -0.8791
14496WAT    EPW59791   3.188   4.558   6.302 -0.1444  0.2806 -0.7265
14497WAT      O59792   5.230   1.822   6.921  0.2067 -0.5040 -0.6221
14497WAT     H159793   5.193   1.906   6.894 -0.1367 -0.2519  0.5911
14497WAT     H259794   5.228   1.769   6.841 -1.6220 -0.0788 -0.9119
14497WAT    EPW59795   5.225   1.826   6.907 -0.0796 -0.4146 -0.5004
14498WAT      O59796   6.175   9.061   0.094  0.1989  0.7826 -0.5720
14498WAT     H159797   6.214   9.119   0.029  1.0864  2.5051  1.3927
14498WAT     H259798   6.248   9.035   0.150 -0.5646 -0.5764 -0.1482
14498WAT    EPW59799   6.190   9.065   0.093  0.2153  0.8307 -0.2569
14499WAT      O59800   3.923   3.473   5.845 -0.4008  0.0785  0.5190
14499WAT     H159801   3.861   3.523   5.792 -1.5296  0.6003  2.2747
14499WAT     H259802   3.905   3.381   5.823  2.0073  0.2792 -3.0889
14499WAT    EPW59803   3.912   3.467   5.835 -0.2322  0.1738  0.2749
14500WAT      O59804   2.776   2.760   6.168  0.8558 -0.0471 -0.3294
14500WAT     H159805   2.760   2.786   6.258 -0.7623  1.9490 -1.1204
14500WAT     H259806   2.750   2.668   6.164 -1.2088  0.4463  0.7602
14500WAT    EPW59807   2.771   2.751   6.179  0.3700  0.2812 -0.2902
14501WAT      O59808   3.550   5.970   6.090  0.2924  0.0922  0.7577
14501WAT     H159809   3.510   6.042   6.139  1.0301  1.3755 -0.4750
14501WAT     H259810   3.634   5.955   6.134 -0.1975 -0.5981  1.5047
14501WAT    EPW59811   3.556   5.977   6.103  0.3251  0.1702  0.6936
14502WAT      O59812   2.223   2.762   7.837 -0.5192 -0.4453 -0.1415
14502WAT     H159813   2.247   2.845   7.877  1.3457  0.8679 -3.5556
14502WAT     H259814   2.128   2.762   7.836 -0.5660  0.9904  1.1678
14502WAT    EPW59815   2.214   2.773   7.842 -0.2794 -0.0826 -0.4194
14503WAT      O59816   6.087   9.857   0.324 -0.4998  0.5467 -0.2317
14503WAT     H159817   6.090   9.888   0.233  0.2245 -2.2700 -1.2722
14503WAT     H259818   6.179   9.855   0.351 -0.5868  0.0256  0.0434
14503WAT    EPW59819   6.100   9.861   0.315 -0.4163  0.1068 -0.3327
14504WAT      O59820   4.386   4.216   5.043  0.5214 -0.1805 -0.7501
14504WAT     H159821   4.368   4.267   5.122  1.1472  0.0185 -0.7256
14504WAT     H259822   4.322   4.145   5.045  2.8664 -2.5545  2.0808
14504WAT    EPW59823   4.375   4.213   5.054  0.9131 -0.4678 -0.3731
14505WAT      O59824   7.577   7.872   2.796 -0.1316 -0.5424  0.6796
14505WAT     H159825   7.564   7.784   2.760  0.8335 -2.0245  3.6018
14505WAT     H259826   7.666   7.896   2.768 -0.7868  0.0367 -1.0208
14505WAT    EPW59827   7.587   7.864   2.788 -0.0906 -0.6614  0.8407
14506WAT      O59828   1.027   4.715   5.761 -0.4551  0.3056 -0.3907
14506WAT     H159829   0.968   4.776   5.806  2.3506  1.4550  2.0239
14506WAT     H259830   0.995   4.628   5.785 -1.0011  0.9001  1.1537
14506WAT    EPW59831   1.015   4.712   5.770 -0.1570  0.5355  0.1314
14507WAT      O59832   4.816   3.308   5.759 -0.0719 -0.4406 -0.1636
14507WAT     H159833   4.805   3.319   5.854  0.5931  1.4639 -0.2685
14507WAT     H259834   4.887   3.243   5.751  0.9601  0.5294  0.6931
14507WAT    EPW59835   4.824   3.300   5.771  0.1519 -0.0615 -0.0644
14508WAT      O59836   2.867   2.251   4.167  0.1722 -0.0072  0.2490
14508WAT     H159837   2.812   2.207   4.103 -0.6190  0.7519  0.3875
14508WAT     H259838   2.934   2.296   4.114 -0.5386  0.7032 -0.0588
14508WAT    EPW59839   2.869   2.251   4.151 -0.0260  0.1867  0.2267
14509WAT      O59840   2.633   3.528   7.118 -0.3619  0.3970  0.4126
14509WAT     H159841   2.688   3.515   7.041  0.0395 -2.5197  1.0488
14509WAT     H259842   2.546   3.499   7.091 -0.3925  0.0795  0.8379
14509WAT    EPW59843   2.629   3.522   7.104 -0.3129 -0.0296  0.5527
14510WAT      O59844   4.083   4.284   2.942 -0.0401 -0.1431 -0.3523
14510WAT     H159845   4.091   4.366   2.990 -2.4574  1.1238 -1.8891
14510WAT     H259846   4.102   4.308   2.851 -1.1663 -1.1674 -0.8867
14510WAT    EPW59847   4.086   4.298   2.936 -0.5076 -0.1113 -0.6256
14511WAT      O59848  10.784   6.895   5.546 -0.3311 -0.4124 -0.2488
14511WAT     H159849  10.719   6.961   5.520  0.3647 -0.3542 -1.9332
14511WAT     H259850  10.867   6.929   5.514  0.4519 -0.8636  1.2088
14511WAT    EPW59851  10.786   6.908   5.538 -0.1359 -0.4640 -0.2787
14512WAT      O59852   1.425   4.640   6.899  0.2020 -0.3841  0.5967
14512WAT     H159853   1.362   4.710   6.920 -0.0160  0.0903 -1.4743
14512WAT     H259854   1.472   4.672   6.822  1.5588 -1.6405  0.8605
14512WAT    EPW59855   1.423   4.653   6.892  0.3521 -0.4871  0.3583
14513WAT      O59856   3.281   2.536   4.938 -0.0900 -0.0485  0.0792
14513WAT     H159857   3.311   2.572   5.022 -1.4983 -1.4136  1.2571
14513WAT     H259858   3.186   2.525   4.950 -0.2343 -0.7905 -1.5077
14513WAT    EPW59859   3.272   2.539   4.951 -0.2947 -0.3265  0.0253
14514WAT      O59860   3.120   2.901   5.087 -0.3598  0.2035 -0.4966
14514WAT     H159861   3.079   2.870   5.007  1.2980  1.2843 -1.8506
14514WAT     H259862   3.122   2.997   5.077 -1.4173  0.4929  1.5266
14514WAT    EPW59863   3.115   2.910   5.075 -0.2807  0.3844 -0.4084
14515WAT      O59864   4.134   5.740   4.702  1.2024  0.2794 -0.3362
14515WAT     H159865   4.117   5.763   4.793  0.0769 -2.6582  0.2889
14515WAT     H259866   4.229   5.729   4.697  1.2811  0.5755  0.4189
14515WAT    EPW59867   4.144   5.742   4.713  1.0641 -0.0691 -0.1545
14516WAT      O59868   2.015   4.966   6.785 -0.0658 -0.1927 -0.1380
14516WAT     H159869   1.945   5.030   6.781 -0.6531 -0.5492  2.3929
14516WAT     H259870   2.093   5.016   6.810 -0.0124 -0.1487 -0.3949
14516WAT    EPW59871   2.016   4.981   6.788 -0.1363 -0.2341  0.1619
14517WAT      O59872   3.466   2.227   8.779  0.4051  0.2447  0.2749
14517WAT     H159873   3.418   2.148   8.755  0.0981  0.7014 -0.6480
14517WAT     H259874   3.471   2.277   8.698  1.4226  0.7429  0.6292
14517WAT    EPW59875   3.461   2.223   8.765  0.4989  0.3706  0.1998
14518WAT      O59876   0.170   9.713   7.146  0.1474 -0.0002 -0.0758
14518WAT     H159877   0.225   9.767   7.089  1.0281 -0.3742  0.4169
14518WAT     H259878   0.195   9.738   7.235  0.9117 -1.5537  0.1693
14518WAT    EPW59879   0.180   9.723   7.150  0.3643 -0.2546  0.0215
14519WAT      O59880   3.033   1.150   6.099 -0.1243 -0.3996  0.5789
14519WAT     H159881   3.020   1.150   6.004  3.6532 -0.5671 -0.0775
14519WAT     H259882   3.037   1.057   6.122  1.4620 -0.3974  0.4101
14519WAT    EPW59883   3.032   1.137   6.090  0.5831 -0.4213  0.4702
14520WAT      O59884   2.731   1.919   6.241 -0.2567 -0.4464  0.8961
14520WAT     H159885   2.749   1.970   6.320 -1.3899 -0.3893  1.1459
14520WAT     H259886   2.672   1.975   6.189  2.0188  0.3698 -0.9606
14520WAT    EPW59887   2.725   1.934   6.244 -0.1061 -0.3312  0.6843
14521WAT      O59888   9.965   7.056   7.220 -0.6811  0.7577 -0.5381
14521WAT     H159889  10.027   7.113   7.174 -0.4644  0.7549 -0.2541
14521WAT     H259890  10.003   6.969   7.214 -0.8974  0.6772 -0.7726
14521WAT    EPW59891   9.978   7.052   7.213 -0.6809  0.7470 -0.5314
14522WAT      O59892   3.892   3.015   6.485 -0.1047 -0.6055 -0.4126
14522WAT     H159893   3.980   2.996   6.515 -0.8064  0.2347  2.5063
14522WAT     H259894   3.891   3.110   6.470 -0.7105 -0.4889  0.3375
14522WAT    EPW59895   3.903   3.025   6.487 -0.2772 -0.4793  0.0713
14523WAT      O59896   7.309   6.841   1.120  0.0272 -0.2007 -0.0548
14523WAT     H159897   7.343   6.846   1.210 -0.5837  0.0594  0.1655
14523WAT     H259898   7.214   6.851   1.130 -0.0461 -0.2215 -0.7263
14523WAT    EPW59899   7.301   6.843   1.133 -0.0632 -0.1690 -0.1143
14524WAT      O59900   4.218   6.926   4.422 -0.3938  0.0670  0.1721
14524WAT     H159901   4.288   6.884   4.373 -1.8421 -0.6898 -1.3494
14524WAT     H259902   4.203   7.009   4.377  0.9976  1.3235  1.8727
14524WAT    EPW59903   4.225   6.931   4.410 -0.4013  0.1328  0.1957
14525WAT      O59904   3.080   4.835   5.763  0.4003  0.9435  0.0941
14525WAT     H159905   3.074   4.916   5.714 -0.5269  2.0725  1.9458
14525WAT     H259906   3.117   4.860   5.848  0.2986 -0.5836  0.6338
14525WAT    EPW59907   3.084   4.849   5.768  0.2645  0.8910  0.4096
14526WAT      O59908   3.077   2.128   8.542 -0.3851  0.0361 -0.1544
14526WAT     H159909   3.037   2.044   8.519  0.0021 -0.1592 -0.1213
14526WAT     H259910   3.008   2.193   8.526 -0.4316 -0.1998 -0.9606
14526WAT    EPW59911   3.063   2.126   8.537 -0.3401 -0.0207 -0.2556
14527WAT      O59912   1.904   3.197   6.152  0.1176  0.1310  1.0855
14527WAT     H159913   1.866   3.216   6.066  1.6418  1.3653  0.6332
14527WAT     H259914   1.988   3.155   6.132 -0.4680 -1.6031  2.0419
14527WAT    EPW59915   1.910   3.194   6.138  0.2414  0.0651  1.1520
14528WAT      O59916   1.938   1.247   7.718 -0.2524  0.0262  0.0669
14528WAT     H159917   1.951   1.231   7.624  1.9268 -0.2173  0.3480
14528WAT     H259918   1.983   1.175   7.761 -3.2736 -1.2211  1.3799
14528WAT    EPW59919   1.946   1.236   7.711 -0.3635 -0.1705  0.2770
14529WAT      O59920   1.975   4.576   3.986  0.0618 -0.3002  0.7084
14529WAT     H159921   2.053   4.569   4.041 -0.2085  1.5158  1.3643
14529WAT     H259922   1.902   4.577   4.047 -0.5995 -2.6458  0.0762
14529WAT    EPW59923   1.975   4.575   4.001 -0.0611 -0.3700  0.7116
14530WAT      O59924   1.545   4.071   8.607 -0.0647 -0.6898 -0.4053
14530WAT     H159925   1.567   4.160   8.633 -0.0967 -1.2819  1.8718
14530WAT     H259926   1.627   4.022   8.620 -0.6010 -1.3799  0.5324
14530WAT    EPW59927   1.559   4.076   8.612 -0.1397 -0.8585  0.0191
14531WAT      O59928   0.852   1.682   5.005  0.5920  0.1937 -0.5037
14531WAT     H159929   0.784   1.718   4.948  1.2659  0.6121 -1.0493
14531WAT     H259930   0.844   1.587   4.995 -1.2705  0.1197  1.0244
14531WAT    EPW59931   0.842   1.674   4.996  0.4352  0.2391 -0.3741
14532WAT      O59932   0.658   5.966   6.001  0.0078 -0.5304 -0.0652
14532WAT     H159933   0.629   5.945   6.089 -0.3082  0.1098 -0.0159
14532WAT     H259934   0.578   5.958   5.947 -0.1021  0.4776 -0.0566
14532WAT    EPW59935   0.643   5.962   6.005 -0.0483 -0.3130 -0.0575
14533WAT      O59936   8.037   9.899   8.654  0.0460  0.4387  0.0653
14533WAT     H159937   8.130   9.912   8.673  0.8699  3.4271 -4.4951
14533WAT     H259938   7.993   9.964   8.709  1.0717  1.5376 -0.3744
14533WAT    EPW59939   8.044   9.909   8.664  0.2899  0.9770 -0.5941
14534WAT      O59940   3.193   3.583   8.307 -0.2321 -0.6532  0.1668
14534WAT     H159941   3.285   3.581   8.333 -0.5553  0.5138  1.5297
14534WAT     H259942   3.149   3.634   8.376 -1.5231  0.7662 -1.5979
14534WAT    EPW59943   3.199   3.589   8.320 -0.4451 -0.3122  0.1140
14535WAT      O59944   1.568   6.164   8.259 -0.0446  0.0544  0.0819
14535WAT     H159945   1.544   6.117   8.339 -0.3662  1.2896  0.7348
14535WAT     H259946   1.663   6.152   8.253 -0.1468 -0.8253  0.1367
14535WAT    EPW59947   1.577   6.156   8.269 -0.1004  0.1013  0.1755
14536WAT      O59948   3.333   4.928   7.770 -0.4222  0.0173  0.1925
14536WAT     H159949   3.368   5.016   7.758  1.7303 -0.7660  0.4764
14536WAT     H259950   3.359   4.881   7.691  0.8461 -1.0979  1.2411
14536WAT    EPW59951   3.341   4.934   7.758  0.0291 -0.2332  0.3684
14537WAT      O59952   1.778   0.484   8.593 -0.2838  0.8310 -0.2987
14537WAT     H159953   1.683   0.475   8.599 -0.0638 -2.0835  0.7394
14537WAT     H259954   1.804   0.525   8.676 -0.5681  0.0807  0.1809
14537WAT    EPW59955   1.769   0.488   8.605 -0.2923  0.3476 -0.0982
14538WAT      O59956   1.396   2.338   5.902 -0.3926  0.3545  0.1905
14538WAT     H159957   1.324   2.278   5.921 -0.3302  0.4183  0.6356
14538WAT     H259958   1.452   2.334   5.980  0.2238  0.1057 -0.2569
14538WAT    EPW59959   1.394   2.329   5.915 -0.3030  0.3300  0.1905
14539WAT      O59960   0.888   3.025   7.008  0.0898 -0.5765 -0.0089
14539WAT     H159961   0.949   3.058   6.942 -1.7289 -0.7126 -1.8482
14539WAT     H259962   0.895   3.087   7.080 -0.4459  1.7552 -1.8182
14539WAT    EPW59963   0.897   3.037   7.009 -0.2207 -0.2869 -0.4904
14540WAT      O59964   3.436   4.635   8.304 -0.1829 -0.4741  0.3773
14540WAT     H159965   3.411   4.650   8.213 -2.4169 -0.8003  0.8804
14540WAT     H259966   3.526   4.668   8.310 -0.1870  0.0717 -1.7916
14540WAT    EPW59967   3.445   4.642   8.293 -0.4781 -0.4451  0.1574
14541WAT      O59968   3.002   4.191   6.044 -1.1981 -0.6023 -0.4803
14541WAT     H159969   3.019   4.278   6.007  0.2813  0.0975  1.6269
14541WAT     H259970   3.054   4.132   5.989  2.0519  0.5656  1.0919
14541WAT    EPW59971   3.011   4.195   6.032 -0.5742 -0.3560  0.0050
14542WAT      O59972   1.067   1.439   7.633  0.4993  0.2912 -0.7942
14542WAT     H159973   1.083   1.525   7.594  0.4439 -0.1588 -1.8641
14542WAT     H259974   1.127   1.435   7.707 -0.8652  1.9931  0.4708
14542WAT    EPW59975   1.077   1.450   7.637  0.3120  0.4564 -0.7687
14543WAT      O59976  10.698   1.034   7.485 -0.2385  0.5678  0.0774
14543WAT     H159977  10.702   1.121   7.526  0.6927  0.4381  0.2607
14543WAT     H259978  10.729   0.974   7.552  0.2360  0.2273 -0.4395
14543WAT    EPW59979  10.702   1.038   7.499 -0.0529  0.5058  0.0331
14544WAT      O59980   3.682   5.440   4.269  1.1450 -0.4251 -0.7708
14544WAT     H159981   3.638   5.363   4.234  0.8523 -1.0963  0.9673
14544WAT     H259982   3.757   5.406   4.318  0.4894  0.2677  0.7992
14544WAT    EPW59983   3.686   5.426   4.271  1.0200 -0.4220 -0.3347
14545WAT      O59984   2.389   5.824   5.268  0.0275 -0.1728 -0.1225
14545WAT     H159985   2.352   5.859   5.187 -2.3251  2.2932  1.8220
14545WAT     H259986   2.476   5.864   5.273 -0.7654  1.7212 -0.3221
14545WAT    EPW59987   2.396   5.834   5.258 -0.3874  0.4025  0.1078
14546WAT      O59988   0.956   2.448   8.367  0.4568 -0.2060  0.2251
14546WAT     H159989   0.981   2.457   8.276 -0.1571 -0.5666  0.0159
14546WAT     H259990   0.991   2.362   8.393 -0.4446 -0.6655 -0.0393
14546WAT    EPW59991   0.964   2.438   8.359  0.2570 -0.3144  0.1631
14547WAT      O59992   7.136   8.441   0.918  0.0571 -1.0720  0.4116
14547WAT     H159993   7.154   8.504   0.988  0.9187  0.5104 -1.1458
14547WAT     H259994   7.057   8.395   0.946 -0.9149  1.0794  1.3752
14547WAT    EPW59995   7.128   8.443   0.931  0.0427 -0.5798  0.3333
14548WAT      O59996   8.522   8.755   8.511  0.3239 -0.3919 -0.5628
14548WAT     H159997   8.481   8.698   8.447  1.7199 -0.3231 -1.5426
14548WAT     H259998   8.500   8.844   8.482  2.3318 -0.2999 -1.9525
14548WAT    EPW59999   8.514   8.759   8.499  0.7730 -0.3710 -0.8755
14549WAT      O60000   3.011   3.116   6.582 -0.2874 -0.0067  0.2576
14549WAT     H160001   2.995   3.122   6.677 -0.5560  2.0850  0.1308
14549WAT     H260002   2.939   3.165   6.543  0.2192 -0.2371 -1.0150
14549WAT    EPW60003   2.999   3.123   6.590 -0.2559  0.2388  0.0730
14550WAT      O60004   2.092   1.341   6.024  0.2249  0.3700 -0.2546
14550WAT     H160005   2.146   1.363   5.948  1.4431  1.8915  0.9657
14550WAT     H260006   2.110   1.249   6.041  2.1604  0.7179 -0.1587
14550WAT    EPW60007   2.101   1.332   6.017  0.6410  0.6166 -0.0811
14551WAT      O60008   2.957   0.567   7.295 -0.3957 -0.4290 -0.0578
14551WAT     H160009   3.014   0.631   7.336 -0.2693 -0.6981  0.1913
14551WAT     H260010   2.937   0.604   7.209  1.1412 -0.8881 -0.6282
14551WAT    EPW60011   2.962   0.580   7.289 -0.1763 -0.5250 -0.1001
14552WAT      O60012   6.695   7.986   1.387 -0.2744 -0.3074  0.3082
14552WAT     H160013   6.679   8.008   1.295  0.5487 -0.3973  0.1401
14552WAT     H260014   6.771   7.929   1.385  0.6695  0.8732  1.1678
14552WAT    EPW60015   6.703   7.981   1.374 -0.0415 -0.1636  0.3994
14553WAT      O60016   3.124   4.200   1.541 -0.3853  0.4161  0.2381
14553WAT     H160017   3.212   4.234   1.525  0.4683 -1.3149  1.0016
14553WAT     H260018   3.072   4.232   1.467  1.4915 -0.5860 -1.6313
14553WAT    EPW60019   3.129   4.208   1.529 -0.0253  0.0553  0.0922
14554WAT      O60020   2.709   1.841   3.618  0.2632 -0.2496  0.1323
14554WAT     H160021   2.674   1.929   3.628 -2.9553 -1.2404 -1.2724
14554WAT     H260022   2.702   1.803   3.705 -3.1338 -0.6131 -0.1560
14554WAT    EPW60023   2.704   1.848   3.631 -0.6093 -0.4283 -0.0910
14555WAT      O60024   2.092   7.155   6.419  0.5851 -0.3857  0.0969
14555WAT     H160025   2.172   7.193   6.455  0.8641 -0.9269  0.0678
14555WAT     H260026   2.091   7.065   6.453  0.5172 -0.7017 -0.7079
14555WAT    EPW60027   2.103   7.148   6.428  0.6130 -0.4988 -0.0131
14556WAT      O60028   0.436   6.569   8.795  0.2332 -0.1191 -0.5631
14556WAT     H160029   0.515   6.550   8.745  1.3866 -0.3335  1.2623
14556WAT     H260030   0.438   6.664   8.809  0.1787 -0.1242 -0.5191
14556WAT    EPW60031   0.446   6.579   8.790  0.3781 -0.1478 -0.3166
14557WAT      O60032   6.889   1.519   3.959  0.0761 -0.1366 -0.0753
14557WAT     H160033   6.868   1.589   3.897  2.3335 -0.4367 -1.2979
14557WAT     H260034   6.885   1.561   4.045  0.2879  1.2259 -0.7071
14557WAT    EPW60035   6.886   1.534   3.962  0.4017  0.0036 -0.3200
14558WAT      O60036   0.944   3.279   8.147  0.0067  0.2954 -0.4825
14558WAT     H160037   0.860   3.234   8.157  0.3605 -0.2018  0.2813
14558WAT     H260038   0.960   3.320   8.232  1.0270 -0.4782 -0.2884
14558WAT    EPW60039   0.935   3.279   8.159  0.1880  0.1278 -0.3562
14559WAT      O60040   3.403   4.877   7.484  0.3874 -0.0494  0.0645
14559WAT     H160041   3.313   4.909   7.478  0.9060  1.4032 -0.4958
14559WAT     H260042   3.405   4.800   7.428 -0.1462  0.8004 -1.1566
14559WAT    EPW60043   3.391   4.871   7.476  0.3855  0.2542 -0.1705
14560WAT      O60044   4.635   6.074   1.616  0.0343  0.0574  0.3311
14560WAT     H160045   4.650   6.059   1.523  3.1573  0.6589  0.6352
14560WAT     H260046   4.573   6.147   1.618 -2.3074 -1.7401 -1.1694
14560WAT    EPW60047   4.629   6.082   1.604  0.1376 -0.1004  0.1733
14561WAT      O60048   1.544   3.593   4.345  0.1366 -0.4915  0.8081
14561WAT     H160049   1.467   3.650   4.355  0.9829  0.8058  0.2722
14561WAT     H260050   1.569   3.571   4.435 -0.7081 -0.7153  0.9951
14561WAT    EPW60051   1.537   3.598   4.358  0.1368 -0.3500  0.7622
14562WAT      O60052   1.625   5.128   8.338  0.3816  0.4706 -0.1152
14562WAT     H160053   1.631   5.047   8.389  3.5801 -0.6038 -1.9484
14562WAT     H260054   1.552   5.176   8.378 -1.1050 -2.8812  1.6070
14562WAT    EPW60055   1.616   5.123   8.350  0.6074 -0.1132 -0.1297
14563WAT      O60056   6.129   7.733   1.880 -0.0559  0.4229 -0.5202
14563WAT     H160057   6.160   7.820   1.854  2.2420 -0.4510 -0.8588
14563WAT     H260058   6.178   7.713   1.959  0.3926 -1.0793 -1.1550
14563WAT    EPW60059   6.139   7.742   1.887  0.3064  0.1094 -0.6485
14564WAT      O60060  10.531   5.758   7.912 -0.3380  0.6713 -0.1898
14564WAT     H160061  10.560   5.831   7.857  1.7969  0.9236  1.1678
14564WAT     H260062  10.467   5.797   7.972 -1.5355  0.7174 -1.4576
14564WAT    EPW60063  10.526   5.773   7.913 -0.2141  0.7107 -0.1776
14565WAT      O60064   5.187   7.486   5.479  0.3871  0.5331 -0.1287
14565WAT     H160065   5.207   7.460   5.569  0.8164  0.7667 -0.1515
14565WAT     H260066   5.092   7.498   5.478  0.3283  0.1292  0.1860
14565WAT    EPW60067   5.177   7.484   5.491  0.4358  0.5107 -0.0904
14566WAT      O60068  10.623   1.722   5.490  0.5834 -0.1910 -0.4167
14566WAT     H160069  10.641   1.706   5.583 -1.7865  0.1847  0.1643
14566WAT     H260070  10.636   1.816   5.480 -1.1876  0.1354  0.0786
14566WAT    EPW60071  10.627   1.732   5.501  0.0372 -0.0985 -0.2744
14567WAT      O60072   1.694   2.034   2.792  0.3233  0.2658  0.1346
14567WAT     H160073   1.728   2.105   2.846 -1.8248  0.2202  1.6778
14567WAT     H260074   1.675   2.074   2.708  0.2073  1.2647  0.6205
14567WAT    EPW60075   1.696   2.048   2.788  0.0247  0.3915  0.4021
14568WAT      O60076   0.182   2.609   8.418  1.0314 -0.0259 -0.8293
14568WAT     H160077   0.170   2.677   8.351 -1.7195 -0.3996 -0.8599
14568WAT     H260078   0.212   2.656   8.495  1.7518  0.8095 -1.5997
14568WAT    EPW60079   0.184   2.624   8.419  0.7636  0.0352 -0.9346
14569WAT      O60080   2.290   4.437   4.487 -0.3480  0.2794  0.4871
14569WAT     H160081   2.236   4.510   4.457 -1.2151  0.0258  1.3818
14569WAT     H260082   2.350   4.420   4.414 -1.6969  0.3477 -0.6920
14569WAT    EPW60083   2.291   4.444   4.473 -0.6403  0.2549  0.4494
14570WAT      O60084   2.827   5.688   7.024  0.2419  0.4044 -0.6666
14570WAT     H160085   2.890   5.640   6.970  0.1253 -0.4348 -0.0702
14570WAT     H260086   2.750   5.630   7.028  0.4384  0.2127  0.8222
14570WAT    EPW60087   2.825   5.674   7.017  0.2524  0.2685 -0.3915
14571WAT      O60088   2.953   2.823   4.190 -0.1518 -0.2160  0.2247
14571WAT     H160089   3.020   2.852   4.128 -1.0720 -2.0261 -1.7988
14571WAT     H260090   2.972   2.870   4.271  3.0194 -0.0468 -0.4924
14571WAT    EPW60091   2.964   2.833   4.192  0.1451 -0.4324 -0.1369
14572WAT      O60092   3.509   5.036   6.979 -0.3464 -0.1119  0.4164
14572WAT     H160093   3.498   4.999   6.892  0.1714  0.9753 -0.1263
14572WAT     H260094   3.531   4.961   7.034 -1.4961 -0.9439 -0.2067
14572WAT    EPW60095   3.511   5.022   6.975 -0.4297 -0.0782  0.2627
14573WAT      O60096   4.979   7.019   4.121  0.0795  0.6352  0.7045
14573WAT     H160097   4.962   6.953   4.188 -0.4351  1.0942  1.0283
14573WAT     H260098   4.894   7.037   4.082  0.3369  0.5422  0.0812
14573WAT    EPW60099   4.966   7.013   4.125  0.0458  0.6838  0.6649
14574WAT      O60100   1.795   2.409   8.044  0.8661 -0.3398  0.0560
14574WAT     H160101   1.758   2.465   7.975  2.9721  1.1334  0.0476
14574WAT     H260102   1.779   2.320   8.012 -0.2241  0.2594 -1.2170
14574WAT    EPW60103   1.788   2.405   8.031  1.0001 -0.0665 -0.1130
14575WAT      O60104  10.312   9.120   8.297  0.1210 -0.2614  0.0213
14575WAT     H160105  10.354   9.034   8.305  0.1600 -0.0831  2.9367
14575WAT     H260106  10.221   9.099   8.275  0.0793 -1.1054  0.8918
14575WAT    EPW60107  10.305   9.106   8.295  0.1211 -0.3490  0.5207
14576WAT      O60108   2.153   2.282   4.235  0.4853 -0.1086  0.1844
14576WAT     H160109   2.100   2.210   4.268 -1.0061  0.4260 -0.9381
14576WAT     H260110   2.225   2.241   4.187  0.1811 -0.8367  0.3517
14576WAT    EPW60111   2.156   2.267   4.233  0.2484 -0.1340  0.0584
14577WAT      O60112   0.917   2.759   8.006  0.1955 -0.8362 -0.3455
14577WAT     H160113   0.906   2.782   7.913 -2.4010 -2.5500 -0.5957
14577WAT     H260114   0.997   2.803   8.033  0.7567  0.1554 -3.2627
14577WAT    EPW60115   0.926   2.768   7.997 -0.0730 -0.9315 -0.7632
14578WAT      O60116   1.297   1.619   7.921  0.3164  0.2242 -0.3763
14578WAT     H160117   1.295   1.529   7.954  1.0276 -0.0391 -1.0169
14578WAT     H260118   1.390   1.635   7.901  0.3736  1.4933  0.7675
14578WAT    EPW60119   1.309   1.609   7.922  0.4178  0.3569 -0.3097
14579WAT      O60120   7.447  10.219   8.444 -0.0200 -0.3136  0.2476
14579WAT     H160121   7.402  10.291   8.489 -0.2463 -0.4777  0.2895
14579WAT     H260122   7.537  10.224   8.475  0.4863  1.2098 -1.2818
14579WAT    EPW60123   7.453  10.229   8.454  0.0167 -0.1349  0.0520
14580WAT      O60124   2.589   5.772   6.057 -0.5245 -0.5107  0.4353
14580WAT     H160125   2.620   5.686   6.029  0.4445 -0.0928  0.1839
14580WAT     H260126   2.493   5.763   6.062 -0.3438 -2.1288  2.1756
14580WAT    EPW60127   2.580   5.760   6.054 -0.3728 -0.6688  0.6318
14581WAT      O60128   4.100   2.737   6.542  0.0727 -0.4421  0.0965
14581WAT     H160129   4.178   2.693   6.508  0.7404  0.2877  0.6728
14581WAT     H260130   4.030   2.672   6.531  1.2475 -2.1388  2.0178
14581WAT    EPW60131   4.101   2.722   6.536  0.3157 -0.5696  0.4261
14582WAT      O60132   2.720   2.961   6.362  0.3775 -0.6424 -0.3589
14582WAT     H160133   2.743   3.031   6.301  0.1704 -0.6693 -0.4711
14582WAT     H260134   2.781   2.971   6.434 -0.1486  0.1454 -0.0016
14582WAT    EPW60135   2.731   2.972   6.363  0.2807 -0.5419 -0.3266
14583WAT      O60136   1.068   1.800   8.942  0.4551  0.7611  0.4609
14583WAT     H160137   1.098   1.813   9.032 -0.1983  0.8689  0.6709
14583WAT     H260138   1.102   1.714   8.918 -1.0197 -0.1812  1.5303
14583WAT    EPW60139   1.076   1.791   8.951  0.1744  0.6510  0.6299
14584WAT      O60140   3.949   3.664   8.710 -0.5719  0.2235  0.0989
14584WAT     H160141   3.961   3.667   8.615 -1.9992 -1.0627 -0.1510
14584WAT     H260142   3.999   3.739   8.743  0.8743  0.0388 -1.5494
14584WAT    EPW60143   3.957   3.674   8.702 -0.5693  0.0294 -0.1512
14585WAT      O60144   3.149   5.472   8.440  0.2930  0.3906 -0.2519
14585WAT     H160145   3.079   5.430   8.489  0.7894  0.9154  0.9304
14585WAT     H260146   3.203   5.399   8.408  0.2541  0.0509  0.4336
14585WAT    EPW60147   3.147   5.457   8.442  0.3533  0.4148 -0.0052
14586WAT      O60148   0.252   4.912   3.650 -0.1204  0.1522 -0.3594
14586WAT     H160149   0.262   5.008   3.646 -2.3116  0.4525  0.0664
14586WAT     H260150   0.176   4.894   3.596 -1.5234 -0.9752  1.8370
14586WAT    EPW60151   0.243   4.923   3.643 -0.5944  0.0432 -0.0136
14587WAT      O60152   4.596   8.267   0.501  0.5729 -0.4253  0.2987
14587WAT     H160153   4.632   8.207   0.566  2.1195  1.0778  0.9028
14587WAT     H260154   4.614   8.224   0.417 -0.0812 -1.6759  0.7741
14587WAT    EPW60155   4.603   8.253   0.499  0.6909 -0.3920  0.4410
14588WAT      O60156   1.506   1.173   8.871 -0.2922  0.2012 -0.2471
14588WAT     H160157   1.475   1.113   8.939  1.1111  0.2432  0.4693
14588WAT     H260158   1.550   1.116   8.807 -1.6674  0.1529 -1.1875
14588WAT    EPW60159   1.508   1.157   8.872 -0.2885  0.2003 -0.2761
14589WAT      O60160   2.753   0.934   7.536  0.1973  0.0888 -0.0045
14589WAT     H160161   2.801   1.015   7.520  0.3065 -0.0311 -0.3026
14589WAT     H260162   2.715   0.912   7.450  2.1739 -1.4681 -0.5492
14589WAT    EPW60163   2.754   0.942   7.522  0.4723 -0.1324 -0.1156
14590WAT      O60164   8.006   6.844   0.859 -0.4349  0.3550 -0.1389
14590WAT     H160165   7.957   6.802   0.788  1.3698  1.7846 -2.3434
14590WAT     H260166   7.938   6.878   0.918 -2.0469  0.3342 -1.8895
14590WAT    EPW60167   7.991   6.843   0.858 -0.4096  0.5412 -0.6606
14591WAT      O60168   1.416   2.614   5.887 -0.5295  0.2214 -0.1222
14591WAT     H160169   1.415   2.520   5.906  1.0740  0.2373  0.1710
14591WAT     H260170   1.373   2.654   5.963 -0.7539 -0.2395 -0.0053
14591WAT    EPW60171   1.410   2.607   5.900 -0.3476  0.1627 -0.0682
14592WAT      O60172   3.501   3.846   6.381 -0.0821 -0.1079 -0.5034
14592WAT     H160173   3.593   3.860   6.359  1.2040 -1.1770  3.2634
14592WAT     H260174   3.457   3.926   6.354  2.2355  1.0377 -1.1468
14592WAT    EPW60175   3.507   3.858   6.375  0.3933 -0.0978 -0.0918
14593WAT      O60176   5.913   1.921   8.875  0.1285  0.0374  0.1033
14593WAT     H160177   5.955   1.993   8.829 -1.4247  0.1430 -1.2215
14593WAT     H260178   5.908   1.851   8.810 -1.3764 -0.0924  0.3299
14593WAT    EPW60179   5.918   1.921   8.861 -0.2749  0.0342 -0.0415
14594WAT      O60180   2.302   2.944   8.071 -0.3451  0.1799  0.1617
14594WAT     H160181   2.296   3.018   8.132 -0.9041 -0.5030  0.9493
14594WAT     H260182   2.280   2.867   8.124  0.2188 -0.5567 -0.6478
14594WAT    EPW60183   2.299   2.944   8.086 -0.3445 -0.0074  0.1588
14595WAT      O60184   3.784   4.355   6.070  0.1114  0.2470 -0.4381
14595WAT     H160185   3.723   4.377   6.140  1.3166  3.7885 -0.2742
14595WAT     H260186   3.732   4.358   5.990 -0.5741 -0.1963 -0.0114
14595WAT    EPW60187   3.769   4.359   6.069  0.1800  0.6554 -0.3603
14596WAT      O60188   4.175   2.676   7.896 -0.2680 -0.1749 -0.2959
14596WAT     H160189   4.167   2.754   7.952 -1.0310  0.1927 -0.8878
14596WAT     H260190   4.231   2.617   7.945 -0.8761  0.1563  0.8472
14596WAT    EPW60191   4.181   2.679   7.910 -0.4489 -0.0827 -0.2234
14597WAT      O60192   2.067   5.869   6.774 -0.4250  0.9629 -0.1050
14597WAT     H160193   2.093   5.789   6.820  0.1525 -0.0523 -2.0899
14597WAT     H260194   1.972   5.859   6.760 -0.5797  1.2159  0.6707
14597WAT    EPW60195   2.058   5.857   6.779 -0.3694  0.8626 -0.2644
14598WAT      O60196   4.251   6.862   2.619  1.6498 -0.0456  0.1965
14598WAT     H160197   4.249   6.941   2.672  1.7931 -0.0736  0.2424
14598WAT     H260198   4.297   6.798   2.673  1.2096 -0.2691  0.3083
14598WAT    EPW60199   4.257   6.864   2.633  1.6105 -0.0792  0.2173
14599WAT      O60200   0.334   0.923   1.237  0.1255  0.1574 -0.1775
14599WAT     H160201   0.390   0.862   1.286  1.4175  1.1147 -0.3833
14599WAT     H260202   0.269   0.951   1.300  1.0199  0.4279  0.6573
14599WAT    EPW60203   0.333   0.919   1.252  0.4139  0.3194 -0.0946
14600WAT      O60204   4.916   7.312   0.479 -0.4021  0.2232  0.4778
14600WAT     H160205   4.920   7.255   0.556 -0.5363 -1.2487 -0.5528
14600WAT     H260206   4.900   7.252   0.406  0.7766  1.4496 -0.8509
14600WAT    EPW60207   4.914   7.296   0.479 -0.2642  0.1910  0.1666
14601WAT      O60208   3.856   7.498   5.588 -0.3229  0.3802 -0.0760
14601WAT     H160209   3.945   7.465   5.579 -0.4586 -0.0640  0.1818
14601WAT     H260210   3.806   7.450   5.522  0.0217  2.2013 -1.7965
14601WAT    EPW60211   3.861   7.488   5.578 -0.2954  0.5620 -0.2687
14602WAT      O60212   2.705   0.229   6.158 -0.5527 -0.1808 -0.5367
14602WAT     H160213   2.692   0.323   6.147 -3.8864 -0.4786 -0.0732
14602WAT     H260214   2.625   0.189   6.123  1.2300 -2.9869 -1.8423
14602WAT    EPW60215   2.693   0.236   6.152 -0.7572 -0.5902 -0.6480
14603WAT      O60216   4.978   5.156   1.293 -0.6785 -0.6417 -0.4091
14603WAT     H160217   4.940   5.076   1.257 -1.6163 -0.8314  0.9436
14603WAT     H260218   4.905   5.217   1.299 -0.8319 -0.9465  2.0519
14603WAT    EPW60219   4.964   5.154   1.289 -0.8223 -0.7071  0.0939
14604WAT      O60220   7.505   9.290   6.932 -0.5457  0.2287 -0.3780
14604WAT     H160221   7.558   9.242   6.868 -0.2980  2.3976 -1.9236
14604WAT     H260222   7.461   9.222   6.983  2.9009 -1.6952  0.3524
14604WAT    EPW60223   7.506   9.274   6.930 -0.0584  0.2608 -0.4857
14605WAT      O60224   1.387   4.433   7.873 -0.3158  0.6318 -0.4055
14605WAT     H160225   1.351   4.520   7.890 -0.9463 -0.1159  2.6780
14605WAT     H260226   1.326   4.394   7.811 -1.4138  1.5170  0.0787
14605WAT    EPW60227   1.374   4.440   7.867 -0.5438  0.6499  0.0651
14606WAT      O60228   2.219   3.221   6.896 -0.0624  0.1643 -0.6378
14606WAT     H160229   2.185   3.133   6.884 -0.2776  0.3732 -1.6532
14606WAT     H260230   2.141   3.276   6.905  0.0648  0.0990  1.4453
14606WAT    EPW60231   2.204   3.217   6.896 -0.0740  0.1832 -0.4971
14607WAT      O60232   5.124  10.129   0.194 -0.2456  0.5592  0.5711
14607WAT     H160233   5.144  10.220   0.174  1.7397 -0.2133 -1.4178
14607WAT     H260234   5.209  10.090   0.214 -1.1547 -0.7285  2.1384
14607WAT    EPW60235   5.138  10.136   0.194 -0.1035  0.2875  0.5155
14608WAT      O60236   3.695   2.244   3.678  0.0896  0.0494 -0.0715
14608WAT     H160237   3.727   2.212   3.762 -0.2511 -0.1833 -0.0322
14608WAT     H260238   3.696   2.340   3.687 -0.5654  0.0132  0.4270
14608WAT    EPW60239   3.700   2.253   3.690 -0.0417  0.0139 -0.0006
14609WAT      O60240   0.474   6.272   5.801  0.1300 -0.4524  0.6417
14609WAT     H160241   0.561   6.232   5.807 -0.3091 -1.6913 -0.7128
14609WAT     H260242   0.443   6.276   5.892  0.8878 -1.6563  0.9727
14609WAT    EPW60243   0.481   6.267   5.814  0.1720 -0.7744  0.5069
14610WAT      O60244   3.906   0.276   7.884  0.0617  0.4727  0.1121
14610WAT     H160245   3.862   0.202   7.927 -0.3068  0.6364  0.0179
14610WAT     H260246   3.935   0.331   7.957  1.3883 -0.3511  0.2340
14610WAT    EPW60247   3.904   0.273   7.900  0.1881  0.3856  0.1154
14611WAT      O60248   7.553   4.905   2.081  0.1767  0.1146  0.2185
14611WAT     H160249   7.547   4.862   2.166 -1.8646  0.6053  0.3566
14611WAT     H260250   7.521   4.839   2.018  0.4651  0.1974 -0.0193
14611WAT    EPW60251   7.548   4.890   2.084 -0.0546  0.1903  0.2055
14612WAT      O60252   3.160   0.904   7.199  0.5373 -0.1884 -0.2004
14612WAT     H160253   3.109   0.829   7.167 -1.2906  1.4028 -1.2420
14612WAT     H260254   3.165   0.963   7.123  1.3529  1.0324  0.7749
14612WAT    EPW60255   3.154   0.902   7.185  0.4038  0.1825 -0.2089
14613WAT      O60256   2.599   4.303   6.021 -0.2278  0.0405 -0.6357
14613WAT     H160257   2.528   4.260   5.973 -0.1926  0.1733 -0.8096
14613WAT     H260258   2.671   4.305   5.958  0.1914 -0.8201 -0.1931
14613WAT    EPW60259   2.599   4.298   6.006 -0.1678 -0.0556 -0.6003
14614WAT      O60260   3.442   3.604   8.529  0.4556 -0.8172  0.1052
14614WAT     H160261   3.373   3.660   8.563 -0.3387 -1.1518 -0.9131
14614WAT     H260262   3.512   3.610   8.594 -1.6047 -2.7340  2.7145
14614WAT    EPW60263   3.442   3.612   8.542  0.0789 -1.1142  0.3152
14615WAT      O60264   2.286   4.286   7.727 -0.0998  0.2986  0.5352
14615WAT     H160265   2.208   4.256   7.680  0.3748 -0.4104  0.1780
14615WAT     H260266   2.339   4.207   7.738  2.1610  1.2204 -2.2476
14615WAT    EPW60267   2.283   4.271   7.722  0.2611  0.3269  0.1211
14616WAT      O60268   9.196   1.108   1.140  0.1763  0.0617  0.1499
14616WAT     H160269   9.153   1.073   1.218 -1.1711  0.9638 -0.1488
14616WAT     H260270   9.201   1.202   1.156  0.1092  0.2255 -0.7395
14616WAT    EPW60271   9.191   1.116   1.152 -0.0105  0.2022 -0.0068
14617WAT      O60272  10.910   2.806   0.905 -0.2722 -0.5110 -0.6715
14617WAT     H160273  10.982   2.746   0.884 -0.2964 -1.5355  1.8666
14617WAT     H260274  10.947   2.867   0.968 -1.7721 -1.5854  1.3404
14617WAT    EPW60275  10.924   2.806   0.910 -0.4730 -0.7877 -0.0714
14618WAT      O60276   9.257   9.797   7.780 -0.6655 -0.1597  0.1863
14618WAT     H160277   9.191   9.750   7.831 -0.1318  0.7438  1.8127
14618WAT     H260278   9.250   9.888   7.810  1.2944 -0.0360  0.4132
14618WAT    EPW60279   9.247   9.803   7.791 -0.3366 -0.0243  0.4308
14619WAT      O60280   2.644   2.827   5.356  0.2480  0.0436  0.1615
14619WAT     H160281   2.723   2.871   5.387  0.5749 -0.7472  0.4917
14619WAT     H260282   2.613   2.881   5.284  1.9009 -0.3623 -0.9198
14619WAT    EPW60283   2.650   2.840   5.351  0.5090 -0.1142  0.0622
14620WAT      O60284   3.452   3.463   8.215  0.9410 -0.2083 -0.1677
14620WAT     H160285   3.465   3.529   8.147 -2.9797  1.4757  0.4757
14620WAT     H260286   3.450   3.380   8.166 -2.0238  0.9606 -2.3280
14620WAT    EPW60287   3.454   3.461   8.199  0.0329  0.1680 -0.3672
14621WAT      O60288   3.026   0.444   8.711 -0.1131 -0.1369 -0.4120
14621WAT     H160289   2.983   0.510   8.766  1.4336  0.4031  0.2218
14621WAT     H260290   3.069   0.385   8.773 -0.5667 -1.1152 -1.0023
14621WAT    EPW60291   3.026   0.445   8.726  0.0311 -0.1947 -0.4063
14622WAT      O60292   6.934   8.826   0.653 -0.4842  0.2003  0.2939
14622WAT     H160293   7.008   8.823   0.592 -1.1577 -0.7575 -0.4952
14622WAT     H260294   6.873   8.888   0.614 -0.3019  0.6613  0.7269
14622WAT    EPW60295   6.936   8.834   0.640 -0.5491  0.1349  0.2469
14623WAT      O60296   9.613   1.448   0.430  0.1996 -0.3173 -0.1094
14623WAT     H160297   9.570   1.398   0.362 -1.5063 -0.0416  0.7256
14623WAT     H260298   9.702   1.462   0.397 -0.0379 -1.7502 -1.4323
14623WAT    EPW60299   9.619   1.443   0.417 -0.0567 -0.4700 -0.1737
14624WAT      O60300   4.149   5.656   0.225 -0.5201 -0.5279  0.0491
14624WAT     H160301   4.059   5.676   0.201 -0.5586  0.8353  1.1373
14624WAT     H260302   4.164   5.567   0.194 -2.4764 -1.0517  0.4788
14624WAT    EPW60303   4.140   5.647   0.218 -0.7837 -0.4172  0.2493
14625WAT      O60304  10.480   2.010   8.316 -0.0937  0.2517  0.8626
14625WAT     H160305  10.488   1.987   8.408 -1.0261  0.3520  0.9736
14625WAT     H260306  10.571   2.010   8.283  0.4821  2.2595  2.2651
14625WAT    EPW60307  10.493   2.007   8.324 -0.1407  0.5298  1.0624
14626WAT      O60308   0.944   2.003   4.911 -0.1651  0.1573  0.4989
14626WAT     H160309   0.924   2.087   4.871  1.9377  0.1780 -0.6784
14626WAT     H260310   0.944   2.020   5.005 -0.6415  1.2422  0.3206
14626WAT    EPW60311   0.941   2.016   4.918  0.0494  0.3031  0.3200
14627WAT      O60312   1.688   3.488   6.191  0.6944  0.5257 -0.8978
14627WAT     H160313   1.710   3.578   6.213 -0.0751  0.0254  2.3665
14627WAT     H260314   1.772   3.449   6.165  1.2317  1.8709 -1.2712
14627WAT    EPW60315   1.702   3.494   6.190  0.6638  0.6372 -0.5164
14628WAT      O60316   4.682   2.970   2.750  0.1854  0.6219 -0.3849
14628WAT     H160317   4.754   2.911   2.772  1.0950  2.4090  1.7799
14628WAT     H260318   4.603   2.921   2.773  0.8179 -0.3937 -0.3096
14628WAT    EPW60319   4.681   2.956   2.756  0.3886  0.7237 -0.0894
14629WAT      O60320   1.816   6.381   3.018 -0.1601 -0.5215 -0.2832
14629WAT     H160321   1.824   6.293   2.980 -0.5556  0.3991 -2.6859
14629WAT     H260322   1.849   6.372   3.107 -0.7308 -3.2283 -0.2566
14629WAT    EPW60323   1.821   6.368   3.025 -0.2875 -0.7570 -0.5965
14630WAT      O60324   4.200   3.197   4.859  0.8630 -0.1786 -0.4878
14630WAT     H160325   4.250   3.199   4.940 -0.3867 -2.8308  0.4577
14630WAT     H260326   4.114   3.231   4.882  0.4250 -1.1749 -0.5968
14630WAT    EPW60327   4.196   3.202   4.872  0.6406 -0.6598 -0.3774
14631WAT      O60328  10.217   2.058   6.720 -1.0593  0.0039  0.0207
14631WAT     H160329  10.201   2.151   6.703 -0.8842 -0.2272 -1.5875
14631WAT     H260330  10.185   2.044   6.809 -1.3522  1.5366  0.1862
14631WAT    EPW60331  10.211   2.068   6.729 -1.0748  0.1756 -0.1695
14632WAT      O60332  10.359  10.332   4.457 -0.4365  0.4808  0.1722
14632WAT     H160333  10.430  10.395   4.448 -0.7773  0.6712 -1.4380
14632WAT     H260334  10.284  10.384   4.487 -0.6107  0.8060 -0.7722
14632WAT    EPW60335  10.359  10.347   4.460 -0.5040  0.5488 -0.1650
14633WAT      O60336   5.289   7.638   2.091 -0.0075  0.1572 -0.4800
14633WAT     H160337   5.196   7.660   2.082 -0.1006  0.1909  0.5009
14633WAT     H260338   5.289   7.551   2.131  0.3876  0.6777  0.6678
14633WAT    EPW60339   5.277   7.629   2.095  0.0322  0.2303 -0.1993
14634WAT      O60340   1.166   5.926   4.650  0.3252 -0.1502 -0.1313
14634WAT     H160341   1.175   5.984   4.725 -0.0797  0.1087 -0.2748
14634WAT     H260342   1.219   5.967   4.581  2.1497 -1.3091  0.5068
14634WAT    EPW60343   1.174   5.939   4.651  0.5124 -0.2689 -0.0660
14635WAT      O60344   2.519   2.248   4.576 -0.3617 -0.1919  0.0705
14635WAT     H160345   2.447   2.275   4.633 -1.6015 -2.9640 -0.0449
14635WAT     H260346   2.482   2.180   4.521  1.2327  1.2601 -3.0473
14635WAT    EPW60347   2.505   2.243   4.576 -0.3148 -0.3659 -0.3557
14636WAT      O60348   1.876   2.960   5.728 -0.2336  0.1466 -0.4549
14636WAT     H160349   1.793   2.912   5.730 -0.0514 -0.1652  0.4313
14636WAT     H260350   1.900   2.968   5.821 -0.0540  1.5968 -0.6110
14636WAT    EPW60351   1.868   2.954   5.741 -0.1859  0.2967 -0.3586
14637WAT      O60352   3.861   3.845   5.189 -0.0739 -0.0884  0.0056
14637WAT     H160353   3.880   3.939   5.190 -1.7159  0.2744  0.9274
14637WAT     H260354   3.926   3.807   5.249  0.7411  0.4115 -0.5397
14637WAT    EPW60355   3.872   3.852   5.197 -0.1829  0.0254  0.0553
14638WAT      O60356   3.523   3.457   7.936  0.0106  0.2878 -0.1805
14638WAT     H160357   3.603   3.406   7.924  0.5183  1.2134 -0.9249
14638WAT     H260358   3.535   3.533   7.879 -1.3561  0.5023 -0.2130
14638WAT    EPW60359   3.535   3.460   7.927 -0.1028  0.4383 -0.2830
14639WAT      O60360   1.887   1.481   6.117  0.5677 -0.2461  0.0469
14639WAT     H160361   1.818   1.417   6.131 -0.0867  0.0699 -1.5102
14639WAT     H260362   1.960   1.431   6.082  0.5542 -0.3516  0.1707
14639WAT    EPW60363   1.887   1.466   6.114  0.4796 -0.2183 -0.1421
14640WAT      O60364   1.710   1.915   5.873  0.1436 -0.6296  0.3906
14640WAT     H160365   1.663   1.964   5.941  0.8569 -0.6583  0.9118
14640WAT     H260366   1.681   1.825   5.884  0.4872 -0.6871  0.8645
14640WAT    EPW60367   1.700   1.910   5.884  0.2830 -0.6410  0.5221
14641WAT      O60368   2.257   2.596   7.436  0.5829 -0.0191 -0.6745
14641WAT     H160369   2.200   2.576   7.510  0.4446 -1.0429 -1.0380
14641WAT     H260370   2.285   2.686   7.450  1.2959 -0.4845  1.1331
14641WAT    EPW60371   2.253   2.605   7.447  0.6586 -0.2155 -0.4840
14642WAT      O60372   2.432   3.686   6.093  0.2000  0.1446  0.3050
14642WAT     H160373   2.426   3.712   6.000  1.6493 -0.2950  0.0577
14642WAT     H260374   2.400   3.596   6.095  1.0318 -0.1668  0.0504
14642WAT    EPW60375   2.427   3.678   6.081  0.5008  0.0455  0.2389
14643WAT      O60376   3.009   2.409   4.927 -0.4320  0.3280  0.0978
14643WAT     H160377   2.977   2.498   4.913  1.1915  1.0456  0.6476
14643WAT     H260378   3.029   2.377   4.839 -1.8975  0.1385 -0.1850
14643WAT    EPW60379   3.008   2.417   4.914 -0.4112  0.3976  0.1328
14644WAT      O60380   1.593   4.279   6.392 -0.8904 -0.5288 -0.5976
14644WAT     H160381   1.596   4.274   6.297 -3.8844 -0.7627 -0.7635
14644WAT     H260382   1.684   4.293   6.418 -0.0125 -0.2845 -3.4768
14644WAT    EPW60383   1.605   4.280   6.383 -1.1694 -0.5274 -0.9992
14645WAT      O60384   4.417   7.509   0.153  0.0769 -0.7598 -0.0387
14645WAT     H160385   4.367   7.451   0.096 -1.2876 -0.9173  1.2478
14645WAT     H260386   4.380   7.495   0.240 -1.0718  2.7932  0.2047
14645WAT    EPW60387   4.406   7.500   0.157 -0.2546 -0.3119  0.1631
14646WAT      O60388   3.823   8.889   0.745 -0.5800 -0.0209 -0.0656
14646WAT     H160389   3.789   8.840   0.671 -2.4229  2.0739 -0.7153
14646WAT     H260390   3.901   8.841   0.772 -0.0290 -1.0636 -3.1341
14646WAT    EPW60391   3.829   8.876   0.739 -0.7503  0.1173 -0.5561
14647WAT      O60392   0.153   7.812   4.771  0.7021 -0.4615  0.3109
14647WAT     H160393   0.097   7.739   4.798  0.4851 -0.2301  0.4938
14647WAT     H260394   0.092   7.885   4.758  0.8220 -0.5308 -0.6720
14647WAT    EPW60395   0.138   7.812   4.773  0.6893 -0.4404  0.2050
14648WAT      O60396   1.014   6.143   5.801  0.0229 -0.1938 -0.3161
14648WAT     H160397   1.109   6.135   5.809  0.3945  2.2113 -1.5470
14648WAT     H260398   0.982   6.053   5.809  2.4938 -1.2417 -1.1921
14648WAT    EPW60399   1.022   6.130   5.803  0.3978 -0.0145 -0.5939
14649WAT      O60400   6.161   3.487   6.817 -0.0181  0.5706  0.6904
14649WAT     H160401   6.164   3.395   6.844  0.1191  0.3930  0.0872
14649WAT     H260402   6.076   3.518   6.850 -1.2617 -0.4996 -1.3152
14649WAT    EPW60403   6.150   3.479   6.825 -0.1638  0.4060  0.3462
14650WAT      O60404   1.815   2.537   4.393  0.0078  0.0880  0.5987
14650WAT     H160405   1.826   2.458   4.340  1.5074  0.5573  0.1461
14650WAT     H260406   1.721   2.552   4.395 -0.1380 -0.2145 -1.5321
14650WAT    EPW60407   1.804   2.528   4.386  0.1864  0.1099  0.2580
14651WAT      O60408   2.958   1.401   8.854 -0.3312  0.2736  0.6187
14651WAT     H160409   2.995   1.489   8.862 -0.0030  0.2562 -0.5354
14651WAT     H260410   2.867   1.411   8.881 -1.1233  1.6387 -2.1401
14651WAT    EPW60411   2.951   1.414   8.858 -0.3923  0.4514  0.1025
14652WAT      O60412   4.014   4.931   7.703 -0.0695  0.2514  0.0460
14652WAT     H160413   4.013   4.986   7.625  0.2799  2.1383  1.3050
14652WAT     H260414   4.105   4.901   7.710 -0.1686 -0.1636 -0.4240
14652WAT    EPW60415   4.026   4.934   7.694 -0.0367  0.4456  0.1502
14653WAT      O60416   2.099   2.859   5.630  0.3708  0.8136 -0.2675
14653WAT     H160417   2.086   2.767   5.606  0.6025  0.5389  0.6167
14653WAT     H260418   2.017   2.884   5.673  1.5693 -0.1385  2.9220
14653WAT    EPW60419   2.086   2.850   5.633  0.5596  0.6518  0.2699
14654WAT      O60420   1.944   1.214   4.625  0.1519  0.1043 -0.0027
14654WAT     H160421   1.938   1.131   4.673  2.7343 -0.0394  0.2431
14654WAT     H260422   1.919   1.280   4.689  0.8400 -0.2975  0.7004
14654WAT    EPW60423   1.940   1.211   4.640  0.5833  0.0323  0.1225
14655WAT      O60424   9.361   6.158   7.740  0.0629 -0.0023 -1.0740
14655WAT     H160425   9.434   6.122   7.689 -0.1230  0.6062 -1.7863
14655WAT     H260426   9.283   6.132   7.692 -0.1001  0.8198 -1.2623
14655WAT    EPW60427   9.361   6.150   7.727  0.0172  0.1862 -1.1928
14656WAT      O60428   2.475   2.862   7.304  0.0850  0.5105  0.3581
14656WAT     H160429   2.556   2.871   7.354 -0.4142 -2.5423  2.0138
14656WAT     H260430   2.412   2.828   7.368 -1.1381 -1.8213 -1.9184
14656WAT    EPW60431   2.477   2.859   7.319 -0.1422 -0.1997  0.2763
14657WAT      O60432   3.784   3.848   5.747 -0.2667 -0.0502 -0.3873
14657WAT     H160433   3.817   3.935   5.724 -1.2798  0.0020 -1.7995
14657WAT     H260434   3.750   3.857   5.836 -0.3988  1.0198 -0.5381
14657WAT    EPW60435   3.784   3.860   5.756 -0.4178  0.0978 -0.5934
14658WAT      O60436   1.917   4.657   7.560 -0.2380 -0.5315  0.3088
14658WAT     H160437   1.952   4.570   7.543 -0.3654 -0.0078 -3.6034
14658WAT     H260438   1.827   4.654   7.526  0.3223  1.4766 -1.6530
14658WAT    EPW60439   1.909   4.645   7.553 -0.1808 -0.1974 -0.4659
14659WAT      O60440   7.027   9.694   0.566  0.6758 -0.1055 -0.1667
14659WAT     H160441   7.035   9.701   0.661  1.4022  1.0825 -0.2934
14659WAT     H260442   6.933   9.700   0.549  0.5141 -0.6309  0.4765
14659WAT    EPW60443   7.015   9.695   0.576  0.7503 -0.0181 -0.0986
14660WAT      O60444   1.610   1.769   6.546 -1.3303 -0.2904  0.0089
14660WAT     H160445   1.616   1.743   6.638  0.0843  1.6246  0.5128
14660WAT     H260446   1.699   1.756   6.512 -1.4037  0.7312 -0.5989
14660WAT    EPW60447   1.623   1.764   6.553 -1.1533  0.0969 -0.0045
14661WAT      O60448   6.246   6.799   0.291  0.4710 -0.1768 -0.4887
14661WAT     H160449   6.175   6.789   0.228 -0.9039 -1.1099  1.1329
14661WAT     H260450   6.222   6.742   0.364  1.3634  1.8121  1.4650
14661WAT    EPW60451   6.234   6.790   0.292  0.4075 -0.0374 -0.0172
14662WAT      O60452   9.640   9.829   7.011 -0.3518 -0.7229 -0.6749
14662WAT     H160453   9.577   9.797   6.947  0.3060 -0.9621 -1.2104
14662WAT     H260454   9.588   9.881   7.072 -1.2764 -1.9149 -0.4070
14662WAT    EPW60455   9.625   9.832   7.011 -0.3867 -0.9112 -0.7100
14663WAT      O60456   4.548   1.589   4.591 -0.1087 -0.0768  1.0414
14663WAT     H160457   4.541   1.587   4.687  3.2492 -2.2745  1.3871
14663WAT     H260458   4.530   1.500   4.564  0.3023  0.2233 -0.2611
14663WAT    EPW60459   4.545   1.577   4.600  0.3884 -0.3271  0.9153
14664WAT      O60460   2.982   0.655   1.156  0.1319  0.6522  0.0043
14664WAT     H160461   2.998   0.715   1.083 -0.2469  1.9833  0.9879
14664WAT     H260462   2.889   0.637   1.153  0.2171  0.2322 -0.1904
14664WAT    EPW60463   2.972   0.660   1.146  0.0932  0.7724  0.1084
14665WAT      O60464   4.719   5.311   8.729  0.2618 -0.4208 -0.1920
14665WAT     H160465   4.630   5.344   8.722  0.9238  1.2184 -1.5850
14665WAT     H260466   4.711   5.230   8.780 -1.7266  0.6981  1.3957
14665WAT    EPW60467   4.706   5.304   8.735  0.0868 -0.0570 -0.1669
14666WAT      O60468   4.841   2.065   4.677 -0.8713 -0.2161  0.3003
14666WAT     H160469   4.882   2.151   4.670  0.8075 -0.8099  1.9148
14666WAT     H260470   4.823   2.040   4.586 -0.7552  1.5295 -0.2442
14666WAT    EPW60471   4.844   2.073   4.664 -0.6344 -0.0643  0.4411
14667WAT      O60472   1.683   1.803   6.824  0.3312  0.2504  0.0742
14667WAT     H160473   1.658   1.735   6.886  0.3281  0.2823  0.1077
14667WAT     H260474   1.749   1.855   6.870  1.0481 -0.3028 -0.2996
14667WAT    EPW60475   1.688   1.801   6.838  0.4253  0.1816  0.0293
14668WAT      O60476   7.192   9.090   0.116 -0.8134 -0.1313 -0.1342
14668WAT     H160477   7.242   9.163   0.152  1.0442 -1.8945  1.1661
14668WAT     H260478   7.253   9.048   0.055 -0.9571 -1.8031  0.7944
14668WAT    EPW60479   7.207   9.094   0.113 -0.5872 -0.5846  0.1598
14669WAT      O60480   1.258   1.160   4.687 -0.1303  0.0916 -0.5488
14669WAT     H160481   1.230   1.252   4.689  0.5961  0.3221 -0.6370
14669WAT     H260482   1.258   1.133   4.779  0.7906  0.5423 -0.4041
14669WAT    EPW60483   1.254   1.169   4.700  0.0871  0.1815 -0.5414
14670WAT      O60484   2.931   1.428   8.588  0.3221  0.1471 -0.2200
14670WAT     H160485   2.941   1.390   8.676 -0.3784 -4.1921 -1.7765
14670WAT     H260486   2.853   1.483   8.594 -0.2552 -0.8046  1.6722
14670WAT    EPW60487   2.922   1.430   8.601  0.1535 -0.5507 -0.1760
14671WAT      O60488   4.867   3.731   2.843  0.1578 -0.4302  0.3847
14671WAT     H160489   4.873   3.647   2.798 -0.4848  0.4282 -1.3859
14671WAT     H260490   4.875   3.797   2.774 -0.2045  0.9723  1.6057
14671WAT    EPW60491   4.869   3.729   2.828  0.0250 -0.1322  0.3122
14672WAT      O60492   6.525   7.055   1.188  0.3093 -0.2021  0.1407
14672WAT     H160493   6.564   7.034   1.273  0.2576  2.2001  0.8522
14672WAT     H260494   6.531   6.974   1.138  2.0958 -1.1774  1.7696
14672WAT    EPW60495   6.531   7.042   1.193  0.5381 -0.0141  0.4494
14673WAT      O60496   0.766   6.258   8.822  0.1948  0.0868  0.1165
14673WAT     H160497   0.808   6.172   8.832  0.8881  0.5110  1.0482
14673WAT     H260498   0.697   6.260   8.888  2.1521  1.3562  2.2858
14673WAT    EPW60499   0.763   6.247   8.832  0.5443  0.3102  0.5260
14674WAT      O60500   2.888   0.077   7.266 -0.6682  0.5848  0.2382
14674WAT     H160501   2.799   0.106   7.288 -0.5893  0.3417  0.9069
14674WAT     H260502   2.929   0.154   7.228 -1.1256  0.7392  0.0452
14674WAT    EPW60503   2.882   0.091   7.264 -0.7181  0.5731  0.3009
14675WAT      O60504   2.235   1.498   6.233 -0.0699 -0.2112 -0.4396
14675WAT     H160505   2.323   1.465   6.213  0.2729  1.2294 -1.4791
14675WAT     H260506   2.178   1.454   6.169  0.4165  1.2989 -1.9690
14675WAT    EPW60507   2.239   1.488   6.222  0.0392  0.1780 -0.7784
14676WAT      O60508   1.235   0.546   6.043 -0.1164  0.1011 -0.0805
14676WAT     H160509   1.247   0.485   6.116 -1.4129 -0.3313 -0.2056
14676WAT     H260510   1.200   0.626   6.084 -1.6109 -0.4195 -0.3020
14676WAT    EPW60511   1.232   0.549   6.058 -0.4845 -0.0246 -0.1261
14677WAT      O60512   7.378   7.464   0.602  0.3401  0.2261 -0.0376
14677WAT     H160513   7.316   7.473   0.529 -0.5610 -1.1127  0.5226
14677WAT     H260514   7.325   7.428   0.674  1.3007  1.1122  1.1497
14677WAT    EPW60515   7.362   7.460   0.602  0.3479  0.1664  0.1929
14678WAT      O60516   1.542   6.399   6.780 -0.2852 -0.2867  0.4588
14678WAT     H160517   1.553   6.415   6.874 -0.9476 -0.2613  0.5367
14678WAT     H260518   1.470   6.336   6.775  0.1495 -0.7563 -0.0089
14678WAT    EPW60519   1.534   6.393   6.792 -0.3153 -0.3452  0.4072
14679WAT      O60520   2.769   3.715   8.109  0.4546  0.0454  0.4499
14679WAT     H160521   2.753   3.728   8.016 -0.4767  1.6041  0.7871
14679WAT     H260522   2.857   3.750   8.123  0.4862  0.0650  0.1995
14679WAT    EPW60523   2.779   3.722   8.099  0.3359  0.2537  0.4616
14680WAT      O60524   2.686   5.435   6.932  0.1619  0.4084 -0.6557
14680WAT     H160525   2.744   5.362   6.912 -0.2618  0.6197 -2.9346
14680WAT     H260526   2.645   5.411   7.015  1.0829 -1.2613 -0.6346
14680WAT    EPW60527   2.688   5.422   6.941  0.2276  0.2158 -0.9532
14681WAT      O60528   0.899   5.887   5.843 -0.0552  0.7581  0.3149
14681WAT     H160529   0.830   5.890   5.910  0.5304 -1.0906  1.0540
14681WAT     H260530   0.976   5.854   5.889 -0.1367 -2.5526 -1.5984
14681WAT    EPW60531   0.900   5.883   5.858  0.0112  0.0780  0.1602
14682WAT      O60532   5.109   3.970   3.043 -0.3998  0.2345  0.0832
14682WAT     H160533   5.087   3.910   2.973  1.5105 -1.4868  0.8668
14682WAT     H260534   5.151   4.044   3.000  1.0584 -0.9513 -0.6378
14682WAT    EPW60535   5.112   3.972   3.028  0.0446 -0.1490  0.0914
14683WAT      O60536   2.220   3.888   8.533  0.0146 -0.6424  0.1820
14683WAT     H160537   2.135   3.861   8.567  0.3500 -0.0118  1.6054
14683WAT     H260538   2.282   3.870   8.604  0.6470  1.3248  0.1918
14683WAT    EPW60539   2.217   3.882   8.547  0.1422 -0.2998  0.3705
14684WAT      O60540   0.905   4.300   4.222  0.3460 -0.0097  0.3822
14684WAT     H160541   0.890   4.215   4.180 -0.1469  0.4907 -0.4913
14684WAT     H260542   0.954   4.279   4.301  1.1130 -1.0109 -0.3330
14684WAT    EPW60543   0.909   4.286   4.227  0.3821 -0.0761  0.1726
14685WAT      O60544   3.959   3.744   6.691 -0.4573 -0.0253  0.4533
14685WAT     H160545   3.870   3.715   6.668 -0.2247 -1.6335  1.4216
14685WAT     H260546   4.015   3.697   6.629 -0.2586  0.9106 -0.0904
14685WAT    EPW60547   3.955   3.734   6.680 -0.4005 -0.1141  0.5090
14686WAT      O60548   6.773   2.392   3.802  0.4940  0.7365 -1.0614
14686WAT     H160549   6.689   2.437   3.808 -0.3381 -0.7240 -1.2764
14686WAT     H260550   6.831   2.441   3.860 -1.2482  0.1648  1.3260
14686WAT    EPW60551   6.769   2.404   3.810  0.1545  0.4686 -0.7749
14687WAT      O60552   2.477   5.083   7.981  0.7878  0.1832 -0.1148
14687WAT     H160553   2.430   5.032   7.916  1.5749 -1.9383  0.8960
14687WAT     H260554   2.541   5.133   7.931 -1.5927  2.1790 -1.3818
14687WAT    EPW60555   2.480   5.083   7.966  0.5776  0.1664 -0.1485
14688WAT      O60556   3.560   4.370   6.659  0.0602 -0.5961  0.2719
14688WAT     H160557   3.493   4.434   6.633  1.2262  0.7542  0.4353
14688WAT     H260558   3.584   4.395   6.748 -0.0390 -1.7950  0.6527
14688WAT    EPW60559   3.555   4.382   6.667  0.2009 -0.5763  0.3436
14689WAT      O60560  10.662   5.413   4.681  0.2158  0.0021  0.2317
14689WAT     H160561  10.738   5.467   4.657  1.3342 -1.0471  1.2267
14689WAT     H260562  10.621   5.461   4.753 -0.8047  1.1583 -1.0604
14689WAT    EPW60563  10.667   5.427   4.687  0.2284  0.0165  0.1926
14690WAT      O60564   9.910   0.943   0.227 -0.1111  0.1642 -0.3944
14690WAT     H160565   9.958   0.892   0.162 -0.6586 -1.0829  0.1404
14690WAT     H260566   9.951   1.029   0.225  1.1273 -0.4088 -1.0338
14690WAT    EPW60567   9.922   0.947   0.218 -0.0205 -0.0758 -0.4082
14691WAT      O60568   3.851   3.259   1.454  0.0161 -0.3034  0.3298
14691WAT     H160569   3.846   3.170   1.488  1.0835  0.1406  1.7451
14691WAT     H260570   3.894   3.251   1.369  1.0906 -1.0377  0.9285
14691WAT    EPW60571   3.856   3.246   1.447  0.2986 -0.3417  0.5955
14692WAT      O60572   0.433   3.616   6.969 -0.3757 -0.1386  0.5786
14692WAT     H160573   0.428   3.636   7.063  1.6770  2.9442  0.1652
14692WAT     H260574   0.365   3.670   6.929 -0.8040 -0.9378  0.2029
14692WAT    EPW60575   0.423   3.626   6.976 -0.1614  0.1627  0.4745
14693WAT      O60576   2.379   3.546   5.266  1.0157  0.7101  0.0624
14693WAT     H160577   2.466   3.507   5.254  1.1453 -0.0828  2.8228
14693WAT     H260578   2.339   3.492   5.334 -1.2071  1.7986 -0.3189
14693WAT    EPW60579   2.386   3.534   5.273  0.7397  0.7491  0.3762
14694WAT      O60580   5.192   0.701   7.355  1.4157  0.1952  0.3863
14694WAT     H160581   5.137   0.624   7.371  1.4853 -0.1787 -1.0038
14694WAT     H260582   5.167   0.763   7.423  0.6210 -0.6719  0.9099
14694WAT    EPW60583   5.181   0.699   7.366  1.3199  0.0315  0.2720
14695WAT      O60584   0.358   2.068   6.404  0.0681  0.4619  0.3279
14695WAT     H160585   0.437   2.118   6.421  2.0932 -1.5514 -2.3951
14695WAT     H260586   0.363   2.043   6.312 -2.8726 -1.2687  0.4810
14695WAT    EPW60587   0.369   2.071   6.394 -0.0527 -0.0318 -0.0110
14696WAT      O60588   0.291   3.944   7.771 -0.5041 -0.4526 -0.0347
14696WAT     H160589   0.202   3.959   7.740 -0.5561 -1.7277 -0.5859
14696WAT     H260590   0.319   3.864   7.726  1.4264  0.6440 -0.9129
14696WAT    EPW60591   0.283   3.935   7.761 -0.2564 -0.4761 -0.2234
14697WAT      O60592   4.355   1.598   8.676 -0.1000 -0.5512  0.3904
14697WAT     H160593   4.390   1.576   8.763  0.2359  0.3346  0.4888
14697WAT     H260594   4.266   1.562   8.676  0.4923 -2.1014  0.4476
14697WAT    EPW60595   4.348   1.590   8.688  0.0224 -0.6388  0.4110
14698WAT      O60596   3.478   5.475   8.145  0.6037 -0.4468 -0.3360
14698WAT     H160597   3.508   5.446   8.231 -1.4394  0.4235  0.7365
14698WAT     H260598   3.555   5.465   8.089  1.1889 -3.9686  0.8235
14698WAT    EPW60599   3.492   5.470   8.149  0.4115 -0.7963 -0.0420
14699WAT      O60600   2.275   3.261   4.994 -0.5214  0.1834 -0.1191
14699WAT     H160601   2.288   3.311   4.913  1.9054  1.1784  0.7733
14699WAT     H260602   2.249   3.174   4.964 -0.9724  0.8814 -1.8973
14699WAT    EPW60603   2.273   3.256   4.979 -0.2607  0.4066 -0.2358
14700WAT      O60604   3.536   6.823   3.860  0.7285  0.3412 -0.3234
14700WAT     H160605   3.514   6.913   3.883  0.8755 -0.0988  1.7996
14700WAT     H260606   3.548   6.779   3.945  1.7327 -1.4093 -1.3086
14700WAT    EPW60607   3.535   6.829   3.875  0.8802  0.0525 -0.1733
14701WAT      O60608   7.998   9.516   2.555 -0.0578  0.6126 -0.4556
14701WAT     H160609   8.001   9.603   2.595  1.8181 -0.0621  1.0485
14701WAT     H260610   7.910   9.484   2.575  0.3713  0.8198  2.1741
14701WAT    EPW60611   7.987   9.524   2.563  0.2460  0.5503  0.0898
14702WAT      O60612   1.464   3.237   7.534 -0.7342 -0.7566  0.1507
14702WAT     H160613   1.536   3.237   7.471  0.0334  2.4587  0.8549
14702WAT     H260614   1.386   3.215   7.482  0.2795 -1.1770 -1.2503
14702WAT    EPW60615   1.463   3.234   7.519 -0.4994 -0.3879  0.0589
14703WAT      O60616   2.845   4.415   3.011  0.8109 -0.4405 -0.0763
14703WAT     H160617   2.893   4.354   3.067  0.2378 -0.7615  0.0688
14703WAT     H260618   2.790   4.359   2.956  0.1462 -0.0450  0.1816
14703WAT    EPW60619   2.844   4.400   3.011  0.6475 -0.4308 -0.0232
14704WAT      O60620   2.235   4.348   8.389 -0.1348  0.0019  0.1665
14704WAT     H160621   2.185   4.318   8.313 -1.0163  0.4520  0.5543
14704WAT     H260622   2.282   4.425   8.358  0.2342 -0.3494 -0.1663
14704WAT    EPW60623   2.235   4.354   8.375 -0.2025  0.0150  0.1736
14705WAT      O60624   0.999   7.120   7.992 -0.5465  1.0645 -0.1262
14705WAT     H160625   1.007   7.139   7.899  0.5734  0.0344 -0.2647
14705WAT     H260626   0.960   7.033   7.996  0.6817  0.5004  0.3023
14705WAT    EPW60627   0.995   7.111   7.980 -0.2367  0.8540 -0.0880
14706WAT      O60628   9.441   4.838   0.730 -0.2083 -0.2178 -0.0091
14706WAT     H160629   9.417   4.745   0.736 -2.2943  0.3781  3.6291
14706WAT     H260630   9.535   4.839   0.743 -0.4261 -1.7949  2.3758
14706WAT    EPW60631   9.450   4.826   0.732 -0.5126 -0.3474  0.7854
14707WAT      O60632   1.034   3.067   3.691 -0.0278  1.1739 -0.5255
14707WAT     H160633   0.966   3.003   3.713  0.9578 -0.0876 -0.9942
14707WAT     H260634   1.024   3.082   3.597  0.6476  0.5717 -0.7060
14707WAT    EPW60635   1.024   3.060   3.682  0.1913  0.9279 -0.6111
14708WAT      O60636   0.130   3.557   7.474  0.1485 -0.3802 -0.1916
14708WAT     H160637   0.083   3.586   7.396  1.2911  1.3138 -0.3070
14708WAT     H260638   0.221   3.546   7.445  0.5635  0.1280  0.8612
14708WAT    EPW60639   0.136   3.559   7.460  0.3540 -0.0898 -0.0679
14709WAT      O60640   7.690   7.087   8.190 -0.2494  0.5837  0.1328
14709WAT     H160641   7.633   7.071   8.115 -0.5999 -1.3949  0.7716
14709WAT     H260642   7.753   7.015   8.188 -0.6522  0.1240  2.0781
14709WAT    EPW60643   7.691   7.076   8.180 -0.3488  0.2625  0.4740
14710WAT      O60644   6.349   7.628   4.056 -0.7141 -0.2549  1.6647
14710WAT     H160645   6.392   7.548   4.027 -1.3649 -0.7103  1.9320
14710WAT     H260646   6.256   7.607   4.053 -0.9598  0.8510  0.6752
14710WAT    EPW60647   6.343   7.615   4.051 -0.8323 -0.1693  1.5693
14711WAT      O60648   2.005   2.203   6.944 -0.7562 -0.3375  0.8287
14711WAT     H160649   1.983   2.284   6.897  1.7321 -1.0534 -1.8221
14711WAT     H260650   1.934   2.143   6.921 -0.1349 -0.3424 -1.3204
14711WAT    EPW60651   1.992   2.206   6.935 -0.3461 -0.4325  0.1957
14712WAT      O60652   2.025   2.382   0.806  0.1456 -0.6641 -0.8343
14712WAT     H160653   1.983   2.425   0.732  1.4983  0.6133 -0.9067
14712WAT     H260654   1.954   2.333   0.848 -1.2923  0.9376 -1.2564
14712WAT    EPW60655   2.010   2.381   0.802  0.1343 -0.2844 -0.8995
14713WAT      O60656   7.475   8.892   0.677  0.4066 -0.2435  0.0238
14713WAT     H160657   7.558   8.938   0.663  0.4437 -0.0885  0.7164
14713WAT     H260658   7.483   8.855   0.765 -0.6021  0.5479  0.4737
14713WAT    EPW60659   7.487   8.893   0.687  0.2785 -0.1183  0.1745
14714WAT      O60660   1.145   1.346   0.715  0.5786  0.5499 -0.6670
14714WAT     H160661   1.187   1.285   0.776  0.7386  2.4202  1.2132
14714WAT     H260662   1.213   1.409   0.693 -0.0007  0.9642 -1.3165
14714WAT    EPW60663   1.159   1.346   0.720  0.5233  0.8512 -0.5047
14715WAT      O60664   1.220   9.265   3.952  0.2406 -0.3855 -0.4562
14715WAT     H160665   1.251   9.217   3.875  0.2709 -2.1856  0.6100
14715WAT     H260666   1.299   9.287   4.001  0.1115 -2.3523  0.7638
14715WAT    EPW60667   1.234   9.261   3.948  0.2276 -0.8821 -0.1547
14716WAT      O60668   3.266   2.506   6.564  0.4599  0.0492 -0.1580
14716WAT     H160669   3.245   2.599   6.568  2.7219  0.6479 -0.7922
14716WAT     H260670   3.274   2.479   6.655  0.5191  0.6514  0.0158
14716WAT    EPW60671   3.264   2.515   6.576  0.7660  0.2075 -0.2186
14717WAT      O60672   1.292   5.658   8.449 -0.1723 -0.3619 -0.1409
14717WAT     H160673   1.256   5.592   8.390  0.0102 -0.7636  0.1935
14717WAT     H260674   1.368   5.616   8.489 -1.0654 -0.5727  1.3790
14717WAT    EPW60675   1.297   5.644   8.446 -0.2661 -0.4425  0.1040
14718WAT      O60676   2.174   5.709   6.051  0.4987 -0.1113 -0.4811
14718WAT     H160677   2.180   5.714   5.955 -0.4947 -1.6290 -0.6504
14718WAT     H260678   2.116   5.635   6.068  0.3540  0.3600  1.3047
14718WAT    EPW60679   2.167   5.700   6.040  0.3486 -0.2494 -0.2677
14719WAT      O60680  10.344   0.426   6.916 -0.3222 -0.1024  0.8486
14719WAT     H160681  10.399   0.348   6.921 -1.2701 -0.7107  2.2518
14719WAT     H260682  10.260   0.399   6.952 -0.8141  1.4564  0.9447
14719WAT    EPW60683  10.341   0.412   6.921 -0.5121  0.0229  1.0464
14720WAT      O60684   2.959   4.787   4.702  0.2123 -0.9071 -0.1582
14720WAT     H160685   2.897   4.715   4.690 -1.0073  0.3542 -1.8873
14720WAT     H260686   3.043   4.752   4.674 -0.7780 -1.0653 -3.2198
14720WAT    EPW60687   2.962   4.773   4.697 -0.0792 -0.7617 -0.7901
14721WAT      O60688   1.572   3.915   7.316  0.6062 -0.2189 -0.0825
14721WAT     H160689   1.494   3.903   7.262  1.6303 -0.7813 -1.5176
14721WAT     H260690   1.641   3.869   7.268  1.1861 -2.6601  2.7858
14721WAT    EPW60691   1.571   3.908   7.303  0.8177 -0.6152  0.1066
14722WAT      O60692   2.953   8.183   2.469  0.5531  0.1906  0.1152
14722WAT     H160693   3.030   8.126   2.480 -0.1526 -0.7450  0.2911
14722WAT     H260694   2.953   8.238   2.548  0.3941 -0.5890  0.6629
14722WAT    EPW60695   2.963   8.183   2.481  0.4390 -0.0358  0.2106
14723WAT      O60696  10.554   0.701   0.393  0.8333  0.0504 -0.7460
14723WAT     H160697  10.605   0.775   0.359  1.2447  0.1582  0.0674
14723WAT     H260698  10.553   0.637   0.321  2.7861 -0.2664 -0.5519
14723WAT    EPW60699  10.561   0.702   0.379  1.1454  0.0228 -0.6131
14724WAT      O60700   3.178   5.826   7.138  0.9872  0.3617  0.1112
14724WAT     H160701   3.204   5.800   7.050  3.0948  2.1296  0.1310
14724WAT     H260702   3.252   5.876   7.171 -0.7730  1.9516  1.9167
14724WAT    EPW60703   3.191   5.829   7.131  1.0329  0.8047  0.3521
14725WAT      O60704   2.924   4.653   5.531  0.1805 -0.3966 -0.0116
14725WAT     H160705   2.954   4.744   5.532  0.9610 -0.6287  1.6744
14725WAT     H260706   2.911   4.631   5.623 -0.2157 -1.9318 -0.4048
14725WAT    EPW60707   2.926   4.662   5.543  0.2311 -0.6297  0.1590
14726WAT      O60708   3.409   4.931   6.712 -0.6591 -1.0963 -0.2179
14726WAT     H160709   3.463   4.875   6.656  0.2793  0.1127 -0.5705
14726WAT     H260710   3.345   4.970   6.653  0.4070  0.2728 -0.5318
14726WAT    EPW60711   3.408   4.929   6.697 -0.3947 -0.7565 -0.3059
14727WAT      O60712   2.677   3.530   6.069  0.0391 -0.6044  0.2592
14727WAT     H160713   2.758   3.581   6.081  0.3545 -0.6555 -1.4056
14727WAT     H260714   2.607   3.595   6.078  0.3599 -0.2059 -0.0495
14727WAT    EPW60715   2.679   3.546   6.072  0.1230 -0.5586 -0.0012
14728WAT      O60716   2.871   9.128   3.166 -0.5434  0.2335  0.0579
14728WAT     H160717   2.822   9.046   3.164  1.5103 -1.0515 -0.3234
14728WAT     H260718   2.884   9.150   3.074 -0.9220  0.9031  0.1600
14728WAT    EPW60719   2.867   9.120   3.154 -0.3225  0.1521  0.0211
14729WAT      O60720   3.483   2.177   4.014 -0.3313 -0.2262 -0.5789
14729WAT     H160721   3.503   2.086   4.035 -1.3856 -0.2164  0.6062
14729WAT     H260722   3.536   2.228   4.074 -2.0655 -0.1630  1.0059
14729WAT    EPW60723   3.492   2.172   4.024 -0.6990 -0.2165 -0.2134
14730WAT      O60724   1.326   3.758   6.636  0.4887 -0.1780 -0.1905
14730WAT     H160725   1.340   3.763   6.542  0.9040 -1.4929 -0.2119
14730WAT     H260726   1.396   3.811   6.674  1.7182 -1.4904 -0.5531
14730WAT    EPW60727   1.337   3.766   6.629  0.7056 -0.5245 -0.2410
14731WAT      O60728   3.032   6.691   5.330  0.2260 -0.3443  0.0087
14731WAT     H160729   2.949   6.645   5.324  1.3691 -2.3822 -1.5859
14731WAT     H260730   3.082   6.661   5.254  3.2026 -0.8159  1.9592
14731WAT    EPW60731   3.028   6.681   5.319  0.7691 -0.6752  0.0558
14732WAT      O60732   3.679   4.745   2.789  0.3140  0.7098 -0.7073
14732WAT     H160733   3.767   4.707   2.783 -0.2684 -0.5379 -1.7168
14732WAT     H260734   3.629   4.680   2.838  0.1774  1.8969  0.8080
14732WAT    EPW60735   3.684   4.731   2.795  0.2191  0.7019 -0.6405
14733WAT      O60736   2.359   3.464   5.666  0.1281 -0.6337  0.1434
14733WAT     H160737   2.441   3.414   5.665  0.4437 -0.1352  0.5283
14733WAT     H260738   2.319   3.445   5.581  1.4645  0.4230 -0.7800
14733WAT    EPW60739   2.365   3.455   5.655  0.3459 -0.4286  0.0722
14734WAT      O60740   1.827   5.841   8.038  0.0252  0.4782  0.1016
14734WAT     H160741   1.824   5.906   8.107 -0.6004 -1.0901  1.6348
14734WAT     H260742   1.744   5.853   7.991  0.5575  1.7021 -0.5776
14734WAT    EPW60743   1.815   5.851   8.041  0.0129  0.4327  0.2136
14735WAT      O60744   1.192   5.499   8.260  0.2684  0.4084  0.8604
14735WAT     H160745   1.132   5.474   8.189 -1.5400  1.8681  1.7997
14735WAT     H260746   1.277   5.463   8.233 -1.0577 -2.0677 -0.3514
14735WAT    EPW60747   1.196   5.491   8.247 -0.1451  0.2742  0.8245
14736WAT      O60748   7.999  10.361   2.025 -0.5360  0.7424  0.6265
14736WAT     H160749   7.991  10.429   2.092  1.5705  0.7539  0.9268
14736WAT     H260750   7.929  10.381   1.963  0.4655  3.6521  0.3140
14736WAT    EPW60751   7.989  10.372   2.026 -0.1259  1.1277  0.6249
14737WAT      O60752   5.103   1.691   7.718 -0.4861 -0.5975  0.2669
14737WAT     H160753   5.111   1.752   7.644  1.1303 -0.0230  0.8516
14737WAT     H260754   5.156   1.616   7.692 -0.6557 -0.7856  0.4696
14737WAT    EPW60755   5.111   1.689   7.705 -0.2952 -0.5466  0.3707
14738WAT      O60756   1.103   4.043   7.206 -0.0824 -0.6240  0.4482
14738WAT     H160757   1.045   4.112   7.175  0.0972 -0.5277  0.3275
14738WAT     H260758   1.159   4.023   7.131  0.6234 -0.1086  0.8303
14738WAT    EPW60759   1.103   4.050   7.192  0.0344 -0.5431  0.4828
14739WAT      O60760   4.514   5.500   6.559 -0.3292  0.1186 -0.0439
14739WAT     H160761   4.420   5.512   6.545 -0.1046  0.7818 -1.1103
14739WAT     H260762   4.554   5.580   6.525  0.7834 -1.0476 -1.6555
14739WAT    EPW60763   4.507   5.512   6.553 -0.1528  0.0525 -0.3972
14740WAT      O60764   3.587   2.630   5.704  0.1830 -0.5415 -0.2023
14740WAT     H160765   3.551   2.662   5.786 -0.4386 -2.9456  0.5503
14740WAT     H260766   3.678   2.608   5.724  0.4440  0.1699 -0.5628
14740WAT    EPW60767   3.594   2.631   5.717  0.1355 -0.7648 -0.1507
14741WAT      O60768   0.920   0.832   6.867 -0.4376  1.0371  0.2006
14741WAT     H160769   0.845   0.774   6.878 -0.0024  0.2436 -0.8698
14741WAT     H260770   0.889   0.917   6.898 -1.4876  0.5228  0.6038
14741WAT    EPW60771   0.906   0.836   6.872 -0.5187  0.8647  0.1125
14742WAT      O60772   3.919   4.160   6.289 -0.0568 -0.1425  0.3648
14742WAT     H160773   4.011   4.141   6.274  0.1214  0.9963 -0.0893
14742WAT     H260774   3.883   4.175   6.202 -0.1609  1.5706  0.6680
14742WAT    EPW60775   3.926   4.159   6.276 -0.0471  0.2337  0.3450
14743WAT      O60776   1.534   5.372   6.703 -0.1454  0.1382 -0.2168
14743WAT     H160777   1.572   5.316   6.634 -1.1714  0.6926 -1.2575
14743WAT     H260778   1.604   5.380   6.768  1.5033  0.9965 -1.9991
14743WAT    EPW60779   1.548   5.365   6.703 -0.0632  0.3245 -0.5891
14744WAT      O60780   6.614   9.418   1.011  0.8312  0.1493 -0.0294
14744WAT     H160781   6.530   9.456   1.036  0.4235 -0.6446 -0.1468
14744WAT     H260782   6.611   9.415   0.915  0.1582 -1.6543  0.0141
14744WAT    EPW60783   6.603   9.422   1.002  0.6886 -0.1936 -0.0392
14745WAT      O60784   1.525   8.052   1.204 -0.0095  0.1812  0.4760
14745WAT     H160785   1.567   8.004   1.133 -0.5150  0.3043  0.0881
14745WAT     H260786   1.439   8.009   1.215  0.0072  0.2491  0.9196
14745WAT    EPW60787   1.519   8.040   1.196 -0.0740  0.2065  0.4833
14746WAT      O60788   9.028   1.116   1.359 -0.0459  0.0035  0.1104
14746WAT     H160789   9.030   1.200   1.405  1.8249 -0.1246  0.3448
14746WAT     H260790   8.946   1.118   1.309  1.2226  3.2253 -2.2133
14746WAT    EPW60791   9.018   1.127   1.359  0.3676  0.4116 -0.1651
14747WAT      O60792   2.788   0.081   5.687  0.3897 -0.0865 -0.4489
14747WAT     H160793   2.754   0.123   5.607 -1.6066  0.4620  0.6323
14747WAT     H260794   2.840   0.007   5.654 -0.3600  0.1273 -2.2635
14747WAT    EPW60795   2.790   0.077   5.672  0.0275  0.0141 -0.5455
14748WAT      O60796   9.975   7.860   1.307  0.2260 -0.3673 -0.6729
14748WAT     H160797   9.949   7.778   1.265  0.0118 -2.5826  3.3427
14748WAT     H260798  10.068   7.868   1.286  0.2298 -1.5707 -1.2223
14748WAT    EPW60799   9.984   7.851   1.298  0.1984 -0.8185 -0.2158
14749WAT      O60800   2.440   5.067   7.345  0.2121 -0.2363 -0.2021
14749WAT     H160801   2.507   5.125   7.310  0.5448 -0.4348  0.1027
14749WAT     H260802   2.376   5.058   7.274  0.7946 -0.5034 -0.6941
14749WAT    EPW60803   2.440   5.074   7.331  0.3328 -0.2980 -0.2265
14750WAT      O60804   2.400   7.646   5.788  0.1221  0.6347 -0.0559
14750WAT     H160805   2.485   7.684   5.768  1.7413 -0.8764  3.2077
14750WAT     H260806   2.353   7.715   5.835  0.0059  1.0502 -0.7641
14750WAT    EPW60807   2.405   7.660   5.792  0.3203  0.4902  0.2811
14751WAT      O60808   7.964   9.258   4.601 -0.2424 -0.0349  0.4176
14751WAT     H160809   7.899   9.188   4.598 -0.7108  0.3493  1.1309
14751WAT     H260810   8.013   9.250   4.520 -1.5487  0.0025 -0.4009
14751WAT    EPW60811   7.962   9.248   4.590 -0.4764  0.0205  0.4034
14752WAT      O60812   0.928   1.861   5.669  0.8760 -0.2412  0.3086
14752WAT     H160813   0.941   1.778   5.623  0.8039  0.0982 -0.3382
14752WAT     H260814   0.897   1.836   5.756  0.6637 -0.8881  0.0515
14752WAT    EPW60815   0.926   1.847   5.674  0.8385 -0.2818  0.1898
14753WAT      O60816   5.970   5.109   7.538 -0.0272  0.0427 -0.1575
14753WAT     H160817   5.890   5.162   7.543  0.5470  1.0289 -0.9588
14753WAT     H260818   5.939   5.019   7.528 -1.0459  0.4357 -0.6731
14753WAT    EPW60819   5.956   5.104   7.537 -0.0861  0.2246 -0.3312
14754WAT      O60820   3.416   3.756   6.649  0.0135  0.2474  0.3190
14754WAT     H160821   3.327   3.730   6.624 -0.7094  2.6961  0.0685
14754WAT     H260822   3.447   3.807   6.574  2.4481 -2.1236 -0.4395
14754WAT    EPW60823   3.408   3.759   6.636  0.2391  0.2576  0.1860
14755WAT      O60824   6.874   6.249   0.078  1.1484 -0.0440 -0.1287
14755WAT     H160825   6.930   6.242   0.001  2.3552 -2.6702  0.8899
14755WAT     H260826   6.934   6.247   0.152 -0.1764 -2.1469  0.9891
14755WAT    EPW60827   6.889   6.248   0.077  1.1330 -0.6678  0.1531
14756WAT      O60828   3.763   3.246   5.226  0.0990 -0.1713 -0.2027
14756WAT     H160829   3.836   3.211   5.175  0.8943 -1.3268  1.6517
14756WAT     H260830   3.801   3.270   5.310 -1.1631  1.7827 -0.1247
14756WAT    EPW60831   3.777   3.244   5.230  0.0374 -0.0662  0.0520
14757WAT      O60832   4.222   3.872   7.728 -1.2129  0.0595 -0.8596
14757WAT     H160833   4.157   3.937   7.755 -2.2983 -2.1299  2.5272
14757WAT     H260834   4.189   3.839   7.645 -3.0008  0.8851 -0.5387
14757WAT    EPW60835   4.209   3.876   7.721 -1.5917 -0.1206 -0.3707
14758WAT      O60836   6.102   9.888   0.041 -0.3313  0.2043 -0.1662
14758WAT     H160837   6.097   9.983   0.031 -1.7598  0.4926  2.3752
14758WAT     H260838   6.187   9.864   0.003 -0.5827  2.2574 -2.1644
14758WAT    EPW60839   6.113   9.897   0.035 -0.5531  0.5131 -0.0946
14759WAT      O60840   4.458   4.814   0.354  0.3303 -0.6940 -0.4859
14759WAT     H160841   4.453   4.758   0.276  0.0195  0.1877 -1.1106
14759WAT     H260842   4.445   4.903   0.321 -0.1340 -0.3325  0.6143
14759WAT    EPW60843   4.455   4.818   0.339  0.2282 -0.5298 -0.4232
14760WAT      O60844   4.351   6.000   5.136 -0.2835 -0.1895  0.5198
14760WAT     H160845   4.370   5.939   5.207  1.2821 -1.0339 -0.5661
14760WAT     H260846   4.346   6.086   5.179  0.8097 -0.6524  1.6336
14760WAT    EPW60847   4.353   6.004   5.151  0.0670 -0.3619  0.5233
14761WAT      O60848   2.491   4.029   7.493 -0.4488 -0.4167 -0.1536
14761WAT     H160849   2.555   4.003   7.426 -0.4591  0.2876 -0.4481
14761WAT     H260850   2.460   4.115   7.464  1.1914  0.9699  1.9034
14761WAT    EPW60851   2.496   4.037   7.480 -0.2339 -0.1411  0.0787
14762WAT      O60852   7.905   2.700   0.683 -0.1074 -0.4828 -0.0523
14762WAT     H160853   7.905   2.789   0.650  1.1583 -1.0235 -1.6392
14762WAT     H260854   7.968   2.653   0.628 -1.2689 -2.5439  0.2462
14762WAT    EPW60855   7.913   2.705   0.672 -0.0937 -0.8260 -0.2223
14763WAT      O60856   4.554   7.498   0.641  0.6400  0.4633 -0.1558
14763WAT     H160857   4.488   7.521   0.707 -0.8123  0.1903 -1.4363
14763WAT     H260858   4.635   7.491   0.690 -0.3183  0.5768  1.5460
14763WAT    EPW60859   4.556   7.500   0.656  0.3221  0.4423 -0.1003
14764WAT      O60860   9.790  10.094   0.352 -0.3082 -0.4997  0.3072
14764WAT     H160861   9.788  10.167   0.290  1.2215 -0.3142  0.4288
14764WAT     H260862   9.741  10.127   0.428  2.5439  1.5240  1.4473
14764WAT    EPW60863   9.783  10.108   0.354  0.2694 -0.2084  0.4736
14765WAT      O60864   4.278   2.616   8.431 -0.4340  0.5736  0.5427
14765WAT     H160865   4.267   2.549   8.364 -3.0820  0.1663  1.2545
14765WAT     H260866   4.372   2.635   8.432  0.2559 -2.3397 -0.4015
14765WAT    EPW60867   4.289   2.610   8.423 -0.6926  0.1357  0.5121
14766WAT      O60868  10.729   3.746   7.510 -0.2485  1.0997  0.3573
14766WAT     H160869  10.709   3.655   7.490  0.6345  1.2964 -1.6838
14766WAT     H260870  10.651   3.795   7.484  0.4119  1.2079 -1.6170
14766WAT    EPW60871  10.716   3.740   7.504 -0.0448  1.1401 -0.1724
14767WAT      O60872   7.775   8.044   1.654  0.7539 -0.2776  0.2457
14767WAT     H160873   7.804   7.956   1.680  2.2566  0.2608  0.5192
14767WAT     H260874   7.687   8.052   1.690 -0.2130 -2.3649 -1.4107
14767WAT    EPW60875   7.767   8.033   1.662  0.8245 -0.4821  0.0632
14768WAT      O60876   1.256   1.342   5.843  0.4864  0.1905  0.0142
14768WAT     H160877   1.271   1.393   5.763 -3.1403  2.6844  0.6454
14768WAT     H260878   1.325   1.372   5.903  0.4838  1.8849 -0.7551
14768WAT    EPW60879   1.267   1.353   5.840  0.0077  0.7429 -0.0038
14769WAT      O60880   4.708   1.095   6.662 -0.2030  0.1458  0.9045
14769WAT     H160881   4.635   1.145   6.626 -0.3489 -1.2114 -0.8663
14769WAT     H260882   4.696   1.098   6.757 -1.7679  1.0753  0.7004
14769WAT    EPW60883   4.697   1.102   6.670 -0.4289  0.0893  0.6437
14770WAT      O60884   5.539   2.793   6.687 -0.6272 -0.3547 -0.2470
14770WAT     H160885   5.504   2.737   6.617 -2.8734 -0.5636  0.9320
14770WAT     H260886   5.498   2.878   6.671 -0.5596 -0.2062  0.3564
14770WAT    EPW60887   5.529   2.797   6.676 -0.9146 -0.3628 -0.0117
14771WAT      O60888   4.129   3.796   3.515  0.4634  0.3758  0.1105
14771WAT     H160889   4.058   3.847   3.475  0.3980 -0.6815 -1.1612
14771WAT     H260890   4.167   3.746   3.443  1.7112 -0.0239  1.0046
14771WAT    EPW60891   4.125   3.796   3.500  0.6196  0.1837  0.0608
14772WAT      O60892   2.916   4.061   7.374  0.7623  0.7354 -0.6535
14772WAT     H160893   2.903   4.140   7.323 -1.4361  0.3498 -0.8196
14772WAT     H260894   2.978   4.009   7.323 -0.4399  0.8867 -2.3488
14772WAT    EPW60895   2.922   4.064   7.361  0.3138  0.7045 -0.8991
14773WAT      O60896   7.377  10.017   2.799 -0.0181 -0.4668  0.3261
14773WAT     H160897   7.424  10.084   2.749 -0.6109 -1.5587 -1.8340
14773WAT     H260898   7.406   9.935   2.761 -2.1998 -1.2509  0.2560
14773WAT    EPW60899   7.387  10.015   2.788 -0.3841 -0.7143  0.0319
14774WAT      O60900   6.993   8.032   1.178 -0.1071 -0.4233  0.0280
14774WAT     H160901   6.935   7.979   1.124  1.3618  0.2844 -2.4101
14774WAT     H260902   7.069   8.049   1.122  0.4261  2.4843  1.4240
14774WAT    EPW60903   6.996   8.027   1.164  0.1569  0.0534 -0.1094
14775WAT      O60904   4.793   4.555   4.882  0.5356 -0.1035  0.0875
14775WAT     H160905   4.751   4.474   4.912 -0.6505  0.5699  0.3170
14775WAT     H260906   4.790   4.549   4.786 -3.4964  1.4995 -0.0726
14775WAT    EPW60907   4.787   4.544   4.873 -0.1526  0.1967  0.0966
14776WAT      O60908   1.272   4.842   3.456  0.5351 -0.1999  0.3803
14776WAT     H160909   1.211   4.823   3.527  0.1452 -2.3036 -0.4464
14776WAT     H260910   1.310   4.927   3.479  1.8270 -1.5891  4.0586
14776WAT    EPW60911   1.269   4.851   3.469  0.6541 -0.6602  0.7564
14777WAT      O60912   3.796   2.999   8.360 -0.3232 -0.0319 -1.1504
14777WAT     H160913   3.886   2.967   8.355 -0.0626  0.3549  0.4442
14777WAT     H260914   3.744   2.932   8.315  0.4582 -1.6878  0.2990
14777WAT    EPW60915   3.801   2.986   8.353 -0.1858 -0.1992 -0.7486
14778WAT      O60916   3.375   6.396   5.449 -0.1702  0.3062  0.5683
14778WAT     H160917   3.330   6.456   5.509  0.7797 -0.1681  1.8115
14778WAT     H260918   3.459   6.438   5.432  0.7694 -0.9070  1.9600
14778WAT    EPW60919   3.380   6.409   5.455  0.0789  0.0839  0.9158
14779WAT      O60920   1.873   1.336   0.542  0.4165  0.1985 -0.1873
14779WAT     H160921   1.851   1.324   0.634 -0.3904 -0.7588 -0.4908
14779WAT     H260922   1.855   1.429   0.524 -0.5260  0.1277  0.3353
14779WAT    EPW60923   1.868   1.347   0.551  0.1858  0.0629 -0.1584
14780WAT      O60924  10.866   7.373   4.702 -0.3178  0.4416 -0.2902
14780WAT     H160925  10.791   7.352   4.646 -0.9511  1.1061  0.2893
14780WAT     H260926  10.876   7.295   4.758 -1.6155  0.9790  0.7338
14780WAT    EPW60927  10.858   7.360   4.702 -0.5722  0.6001 -0.0784
14781WAT      O60928   7.304   8.317   0.716 -0.7409 -0.0273  0.0416
14781WAT     H160929   7.276   8.354   0.799 -0.8343  0.0002 -0.0019
14781WAT     H260930   7.278   8.382   0.651  1.9125  1.3278  0.2375
14781WAT    EPW60931   7.297   8.330   0.718 -0.4032  0.1550  0.0617
14782WAT      O60932   1.656   6.305   5.664 -0.3083  0.0910 -0.1455
14782WAT     H160933   1.725   6.368   5.682  1.6801 -1.6970 -1.0079
14782WAT     H260934   1.661   6.291   5.570 -0.8188 -1.1965  0.0003
14782WAT    EPW60935   1.665   6.311   5.654 -0.1134 -0.3150 -0.2403
14783WAT      O60936   3.622   3.816   8.392 -0.7167  0.0963 -0.5893
14783WAT     H160937   3.642   3.845   8.303 -0.9911  1.5088 -0.2117
14783WAT     H260938   3.602   3.723   8.382  2.3804 -0.6061 -1.5339
14783WAT    EPW60939   3.622   3.808   8.379 -0.3444  0.1899 -0.6642
14784WAT      O60940   2.899   6.438   5.389 -0.4901 -0.5057  0.0138
14784WAT     H160941   2.804   6.434   5.380 -0.6588  0.5188  1.1098
14784WAT     H260942   2.914   6.468   5.479  0.8943 -1.5931  0.1859
14784WAT    EPW60943   2.889   6.442   5.399 -0.3297 -0.5138  0.1812
14785WAT      O60944   3.478   3.448   5.829 -0.6161  0.2811 -0.2496
14785WAT     H160945   3.483   3.498   5.748 -3.9653  2.3278  0.5679
14785WAT     H260946   3.465   3.358   5.801 -0.4602  0.7572 -1.9565
14785WAT    EPW60947   3.477   3.443   5.815 -1.0372  0.6138 -0.3669
14786WAT      O60948   4.642   4.121   5.170  0.2211  0.4273  0.2094
14786WAT     H160949   4.555   4.153   5.143 -0.4653  1.8334  3.4566
14786WAT     H260950   4.633   4.026   5.172 -0.3340  0.3773 -2.0248
14786WAT    EPW60951   4.629   4.113   5.167  0.0572  0.6061  0.3431
14787WAT      O60952   0.493   5.549   6.263 -1.1318  0.0136  0.3834
14787WAT     H160953   0.457   5.504   6.186 -0.5367 -0.4094  0.3437
14787WAT     H260954   0.508   5.479   6.326  0.0493  0.1139  0.2264
14787WAT    EPW60955   0.490   5.534   6.261 -0.8975 -0.0291  0.3576
14788WAT      O60956   3.353   0.264   8.030  0.2239 -0.5380  0.7359
14788WAT     H160957   3.307   0.184   8.054  0.0158  0.3160  3.5737
14788WAT     H260958   3.434   0.235   7.989 -0.1622 -2.1811  1.0909
14788WAT    EPW60959   3.357   0.250   8.028  0.1454 -0.6421  1.1573
14789WAT      O60960   3.331   5.624   8.651  0.3081 -0.2743 -0.3452
14789WAT     H160961   3.251   5.580   8.622  0.0278  0.4146 -0.6401
14789WAT     H260962   3.303   5.713   8.672  1.2157  0.3267 -1.6043
14789WAT    EPW60963   3.317   5.630   8.650  0.3909 -0.1040 -0.5493
14790WAT      O60964   2.135   7.271   6.892 -0.0960 -0.4927 -0.8224
14790WAT     H160965   2.225   7.303   6.890 -0.1519  0.0012  1.9597
14790WAT     H260966   2.142   7.182   6.924 -0.6755  0.0438  0.8704
14790WAT    EPW60967   2.148   7.264   6.896 -0.1798 -0.3569 -0.2325
14791WAT      O60968   8.986   8.347   0.239  0.5512 -0.2309 -0.1930
14791WAT     H160969   8.912   8.384   0.191  0.5626 -2.5361 -2.1951
14791WAT     H260970   8.953   8.265   0.276  1.5069 -0.1993  0.7815
14791WAT    EPW60971   8.972   8.341   0.238  0.6781 -0.5312 -0.3285
14792WAT      O60972   3.902   5.607   8.810  0.5149 -0.1544  0.6751
14792WAT     H160973   3.892   5.637   8.901  0.6712  0.2142  0.5714
14792WAT     H260974   3.814   5.579   8.785 -0.2857  2.7420 -0.1071
14792WAT    EPW60975   3.889   5.607   8.819  0.4300  0.2766  0.5589
14793WAT      O60976   2.231   6.067   6.879  0.0484 -0.1783 -0.1535
14793WAT     H160977   2.292   6.029   6.942 -0.9013 -1.8342 -0.1812
14793WAT     H260978   2.176   5.993   6.851 -3.2234  1.4955  1.2812
14793WAT    EPW60979   2.232   6.052   6.884 -0.5083 -0.1760  0.0322
14794WAT      O60980   3.541   3.220   6.906  0.2597 -0.2485  0.5042
14794WAT     H160981   3.569   3.134   6.875  0.1594 -0.1402  0.1025
14794WAT     H260982   3.538   3.274   6.826 -2.0753 -0.5074  0.3574
14794WAT    EPW60983   3.545   3.216   6.891 -0.0616 -0.2685  0.4318
14795WAT      O60984   7.334   1.199   7.731  0.4831  0.0455  0.2580
14795WAT     H160985   7.370   1.283   7.703 -1.9515  1.1053  0.0513
14795WAT     H260986   7.266   1.222   7.795 -2.4288 -1.4321 -2.0689
14795WAT    EPW60987   7.329   1.213   7.736 -0.2220 -0.0097 -0.0761
14796WAT      O60988   1.294   6.295   8.952  0.9790 -0.1553 -0.1374
14796WAT     H160989   1.324   6.224   8.896  0.0453 -0.1933 -0.6159
14796WAT     H260990   1.298   6.373   8.896 -1.0716 -0.3828 -0.6695
14796WAT    EPW60991   1.298   6.296   8.937  0.5851 -0.1898 -0.2708
14797WAT      O60992   5.019   3.404   8.470 -0.0850 -0.3218 -0.3426
14797WAT     H160993   5.019   3.311   8.445 -1.3952 -0.0754 -1.3575
14797WAT     H260994   4.930   3.420   8.502 -0.4532  1.0212 -1.9294
14797WAT    EPW60995   5.007   3.394   8.471 -0.3064 -0.1121 -0.6862
14798WAT      O60996   3.596   4.264   7.435 -0.1279 -0.3444  0.3513
14798WAT     H160997   3.664   4.276   7.368 -1.3778  0.0603 -0.8919
14798WAT     H260998   3.521   4.312   7.402 -0.9551 -0.5572  1.8330
14798WAT    EPW60999   3.595   4.272   7.422 -0.4019 -0.3190  0.3829
14799WAT      O61000   7.018   6.831   1.153 -0.1745  0.5025  0.5727
14799WAT     H161001   6.952   6.858   1.218 -2.1430  0.0579 -1.1555
14799WAT     H261002   6.967   6.809   1.075  1.8000 -2.4657 -0.0214
14799WAT    EPW61003   7.002   6.832   1.152 -0.1738  0.0525  0.2664
14800WAT      O61004   0.071   3.513   0.777  0.8738 -0.1465 -0.3026
14800WAT     H161005   0.161   3.543   0.766  0.7436 -0.5431 -3.1862
14800WAT     H261006   0.062   3.440   0.716 -1.2649 -0.4667  0.3130
14800WAT    EPW61007   0.082   3.508   0.767  0.5741 -0.2412 -0.6017
14801WAT      O61008   2.530   6.803   6.846 -0.1852  0.1137 -0.4133
14801WAT     H161009   2.541   6.836   6.935  2.2055  0.7752 -0.8715
14801WAT     H261010   2.613   6.823   6.803 -0.9216 -1.0491 -2.5292
14801WAT    EPW61011   2.543   6.810   6.852  0.0329  0.0474 -0.7527
14802WAT      O61012   2.278   2.097   6.992  0.8655 -0.3031 -0.3567
14802WAT     H161013   2.210   2.145   6.945  0.7524 -1.3741 -1.3394
14802WAT     H261014   2.288   2.015   6.944  2.8596 -0.1929 -0.2514
14802WAT    EPW61015   2.271   2.093   6.980  1.1135 -0.4297 -0.4723
14803WAT      O61016   2.362   5.603   3.778 -0.4061 -0.0320  0.4647
14803WAT     H161017   2.363   5.686   3.825 -1.9045  0.6922 -0.6837
14803WAT     H261018   2.360   5.627   3.685  4.7666 -1.4059 -0.3029
14803WAT    EPW61019   2.362   5.617   3.772  0.0784 -0.1178  0.2121
14804WAT      O61020   1.482   2.917   4.026  0.1822  0.2758 -0.1710
14804WAT     H161021   1.516   3.004   4.005  0.0875  0.5378  0.7035
14804WAT     H261022   1.393   2.933   4.058  0.1987 -0.1222  0.0861
14804WAT    EPW61023   1.475   2.930   4.028  0.1719  0.2577 -0.0219
14805WAT      O61024   3.816   7.010   4.727  0.2856  0.1807 -0.4281
14805WAT     H161025   3.724   6.989   4.712 -0.8935  3.3938  1.3413
14805WAT     H261026   3.818   7.049   4.814  3.5808 -0.8360  0.0807
14805WAT    EPW61027   3.804   7.013   4.736  0.5648  0.4706 -0.1280
14806WAT      O61028   0.546   5.123   7.112  0.0734  1.6515 -0.9005
14806WAT     H161029   0.481   5.155   7.174  0.9239  0.1237  0.8769
14806WAT     H261030   0.530   5.028   7.106  0.6753  1.6015 -2.2286
14806WAT    EPW61031   0.535   5.114   7.119  0.2650  1.4434 -0.8409
14807WAT      O61032   1.677   6.545   8.659  0.2094 -0.3453  0.3542
14807WAT     H161033   1.658   6.452   8.670  0.8375 -0.4902  0.2618
14807WAT     H261034   1.613   6.575   8.594 -1.3668 -0.2152  1.9110
14807WAT    EPW61035   1.666   6.537   8.652  0.0843 -0.3471  0.5479
14808WAT      O61036   2.020   8.147   6.502 -0.1307 -0.2729  0.0617
14808WAT     H161037   2.106   8.132   6.539 -0.0924 -0.5701 -0.1439
14808WAT     H261038   1.967   8.074   6.535 -0.5554  0.4189  0.9663
14808WAT    EPW61039   2.024   8.135   6.512 -0.1817 -0.2213  0.1543
14809WAT      O61040   3.246   3.707   7.177 -0.0991  0.2844 -0.6090
14809WAT     H161041   3.250   3.653   7.099  3.4915 -0.8366  0.1588
14809WAT     H261042   3.202   3.653   7.243 -1.1350  0.3801 -1.2014
14809WAT    EPW61043   3.241   3.693   7.176  0.2378  0.1493 -0.5856
14810WAT      O61044   4.368   3.409   6.204 -0.1939 -0.3164 -0.2040
14810WAT     H161045   4.415   3.481   6.246 -0.9560  0.1977 -0.1898
14810WAT     H261046   4.333   3.357   6.277  0.1818 -0.5791 -0.2124
14810WAT    EPW61047   4.369   3.412   6.219 -0.2446 -0.2834 -0.2031
14811WAT      O61048   7.410  10.266   0.493 -0.2232 -0.1575  0.1387
14811WAT     H161049   7.462  10.335   0.534 -0.5599 -0.2943  0.8156
14811WAT     H261050   7.474  10.210   0.449 -0.0481  1.2768 -1.5067
14811WAT    EPW61051   7.425  10.268   0.493 -0.2446  0.0129  0.0110
14812WAT      O61052   7.849   9.551   1.573  0.6650  0.1280 -0.1696
14812WAT     H161053   7.897   9.488   1.627  0.4714  0.6715  0.6483
14812WAT     H261054   7.763   9.558   1.614  0.1991 -0.1108 -1.0673
14812WAT    EPW61055   7.844   9.544   1.585  0.5779  0.1688 -0.1802
14813WAT      O61056   3.681   2.968   2.992 -0.8029 -0.0067  0.3784
14813WAT     H161057   3.768   2.954   3.029 -0.2916  1.7826 -0.0615
14813WAT     H261058   3.622   2.965   3.068 -0.1035  0.8457  0.9654
14813WAT    EPW61059   3.685   2.966   3.007 -0.6433  0.3418  0.3979
14814WAT      O61060   2.999   4.728   7.979  0.3191  0.2725 -0.4278
14814WAT     H161061   2.906   4.736   8.003  0.4836 -2.5029  1.5960
14814WAT     H261062   3.046   4.757   8.057  0.9860 -2.9530  0.4930
14814WAT    EPW61063   2.993   4.733   7.992  0.4287 -0.5188 -0.0393
14815WAT      O61064   0.841   0.435   0.374 -0.6611 -0.9210  0.0312
14815WAT     H161065   0.770   0.479   0.420  0.7678  1.8617 -0.2500
14815WAT     H261066   0.797   0.386   0.304 -2.4844 -1.6477  1.6019
14815WAT    EPW61067   0.826   0.434   0.370 -0.7131 -0.6499  0.2013
14816WAT      O61068   9.323   7.758   1.924  0.4059  0.3700 -0.1497
14816WAT     H161069   9.251   7.821   1.920 -2.0685 -2.2292  0.5233
14816WAT     H261070   9.315   7.717   2.010 -0.0145 -2.8319 -1.5463
14816WAT    EPW61071   9.312   7.761   1.935  0.0243 -0.3953 -0.2451
14817WAT      O61072   5.496   1.878   7.645  0.0132 -0.5681  0.0801
14817WAT     H161073   5.413   1.926   7.640  1.1583  1.6666  1.1973
14817WAT     H261074   5.529   1.879   7.555 -0.7615 -0.7216 -0.2155
14817WAT    EPW61075   5.489   1.885   7.633  0.0622 -0.2936  0.1884
14818WAT      O61076   2.641   3.429   5.197  0.1839 -0.0261  0.8360
14818WAT     H161077   2.713   3.439   5.134  0.6790 -0.1646  1.3723
14818WAT     H261078   2.592   3.353   5.165  0.3799 -0.0455  0.5722
14818WAT    EPW61079   2.644   3.421   5.184  0.2751 -0.0471  0.8721
14819WAT      O61080   5.976   7.153   1.582  0.2482 -0.0124 -0.3081
14819WAT     H161081   5.984   7.196   1.497  1.1458  1.0880  0.3053
14819WAT     H261082   5.882   7.152   1.600 -0.0961 -1.6319 -1.9727
14819WAT    EPW61083   5.965   7.158   1.573  0.3211 -0.0808 -0.4467
14820WAT      O61084   3.103   2.631   8.432 -0.4042  0.6142  0.0417
14820WAT     H161085   3.096   2.692   8.358  1.2805 -0.3441 -0.9818
14820WAT     H261086   3.161   2.674   8.493  0.8324  0.0567 -0.7072
14820WAT    EPW61087   3.109   2.645   8.430 -0.0188  0.4144 -0.1922
14821WAT      O61088   3.496   7.493   5.867 -0.5365  0.3321 -0.1719
14821WAT     H161089   3.479   7.494   5.773  0.5121 -0.3890 -0.3872
14821WAT     H261090   3.481   7.402   5.894 -0.7454  0.5145  0.3384
14821WAT    EPW61091   3.492   7.481   5.858 -0.4258  0.2611 -0.1328
14822WAT      O61092   2.489   5.355   6.743 -0.4904 -0.6936  0.3088
14822WAT     H161093   2.397   5.340   6.767 -0.7681  0.1020 -0.2045
14822WAT     H261094   2.533   5.365   6.828 -1.2643  0.9627  0.5680
14822WAT    EPW61095   2.483   5.355   6.758 -0.6291 -0.3703  0.2754
14823WAT      O61096   2.303   5.233   8.146  0.1227  0.0563  0.0275
14823WAT     H161097   2.213   5.207   8.128 -0.1281  0.7179  0.2791
14823WAT     H261098   2.355   5.187   8.080 -0.7311  2.2517 -2.3375
14823WAT    EPW61099   2.298   5.224   8.135 -0.0229  0.4332 -0.2513
14824WAT      O61100   3.472   5.914   5.754 -0.3756  0.4910  0.2001
14824WAT     H161101   3.521   5.918   5.672  2.2828  0.5967  1.6692
14824WAT     H261102   3.471   5.821   5.777  0.8444  0.6778  1.0889
14824WAT    EPW61103   3.479   5.903   5.746  0.1359  0.5298  0.5109
14825WAT      O61104   5.251   7.071   0.202  0.2856 -1.0165 -0.2941
14825WAT     H161105   5.232   7.002   0.138 -0.3799 -0.1956 -1.0005
14825WAT     H261106   5.328   7.039   0.249  0.4708 -1.8758 -1.1531
14825WAT    EPW61107   5.259   7.057   0.200  0.2222 -1.0216 -0.5005
14826WAT      O61108   3.397   0.232   5.725  0.0349 -0.0202 -0.5719
14826WAT     H161109   3.383   0.312   5.777 -1.2567 -0.3304 -0.4103
14826WAT     H261110   3.343   0.245   5.647 -0.0500 -0.6647 -0.6219
14826WAT    EPW61111   3.388   0.244   5.722 -0.1466 -0.1461 -0.5572
14827WAT      O61112   4.137   4.065   7.389 -0.7214 -0.4250 -0.2145
14827WAT     H161113   4.063   4.074   7.328 -1.7477 -1.5676  0.8050
14827WAT     H261114   4.097   4.055   7.475  0.6001 -1.5169  0.3180
14827WAT    EPW61115   4.122   4.065   7.392 -0.6824 -0.7198 -0.0098
14828WAT      O61116   3.908   1.653   7.619  0.0048  0.0951  0.3748
14828WAT     H161117   3.919   1.672   7.712  1.6888  0.7791  0.0688
14828WAT     H261118   3.845   1.581   7.616 -2.5260  2.0830  1.8723
14828WAT    EPW61119   3.901   1.646   7.631 -0.1068  0.4476  0.5322
14829WAT      O61120   5.401   6.075   6.973 -0.0124  0.1730  0.8109
14829WAT     H161121   5.333   6.137   7.000  0.6691  1.1308  0.3953
14829WAT     H261122   5.387   5.998   7.028  0.6635  1.6328  3.1569
14829WAT    EPW61123   5.390   6.073   6.984  0.1667  0.4919  1.0657
14830WAT      O61124   2.691   4.642   7.672 -0.1164 -0.4792 -0.2725
14830WAT     H161125   2.654   4.555   7.662  0.0949 -0.5952 -0.0442
14830WAT     H261126   2.637   4.698   7.616  0.9152 -1.0683 -1.9026
14830WAT    EPW61127   2.679   4.638   7.663  0.0474 -0.5722 -0.4573
14831WAT      O61128   3.278   4.897   3.386  0.2423  0.3919  0.7210
14831WAT     H161129   3.188   4.928   3.380 -1.2061 -3.4833 -0.6627
14831WAT     H261130   3.303   4.878   3.295 -0.4818 -5.3481  1.3020
14831WAT    EPW61131   3.269   4.898   3.373 -0.0441 -0.8764  0.6152
14832WAT      O61132   2.124   6.102   7.750 -0.1270 -0.0215 -1.0687
14832WAT     H161133   2.047   6.108   7.808 -2.4413  1.0172 -4.0091
14832WAT     H261134   2.149   6.193   7.734  2.2787 -0.3464  0.3615
14832WAT    EPW61135   2.117   6.115   7.756 -0.1148  0.0727 -1.2677
14833WAT      O61136   3.033   2.926   8.686  0.2634 -0.4727  0.3134
14833WAT     H161137   2.948   2.895   8.717 -0.7707  1.2227 -0.6645
14833WAT     H261138   3.028   2.917   8.590  0.8289  0.4633  0.1883
14833WAT    EPW61139   3.021   2.921   8.677  0.2016 -0.1255  0.1678
14834WAT      O61140   5.590  10.204   0.290 -0.4008 -0.0297 -0.3594
14834WAT     H161141   5.499  10.213   0.321 -0.9033 -0.0726 -1.7546
14834WAT     H261142   5.608  10.110   0.298  0.9925  0.3911  3.7317
14834WAT    EPW61143   5.580  10.192   0.295 -0.2832  0.0200 -0.0038
14835WAT      O61144   3.990   6.518   4.642  0.7198 -0.7347  0.0246
14835WAT     H161145   3.962   6.592   4.696  0.1723  1.3159 -2.8086
14835WAT     H261146   4.063   6.553   4.590 -0.0131 -1.9011 -1.9011
14835WAT    EPW61147   3.996   6.533   4.642  0.5510 -0.6182 -0.6032
14836WAT      O61148   5.412   5.622   7.161 -0.1779  0.1032 -0.3348
14836WAT     H161149   5.447   5.560   7.097  0.7383  0.5079 -0.2506
14836WAT     H261150   5.332   5.581   7.194  1.6313 -2.1850  1.5114
14836WAT    EPW61151   5.406   5.609   7.157  0.1817 -0.1452 -0.0803
14837WAT      O61152   1.484   4.716   8.466  0.0844  0.4619 -0.3386
14837WAT     H161153   1.539   4.642   8.491  1.4102  1.7295  0.6136
14837WAT     H261154   1.421   4.679   8.403  2.3420 -0.9572 -1.9058
14837WAT    EPW61155   1.483   4.701   8.461  0.5569  0.4418 -0.4196
14838WAT      O61156   3.482   5.709   4.905 -0.1984 -0.5117  0.1974
14838WAT     H161157   3.523   5.704   4.819 -0.4497  0.7754 -0.0194
14838WAT     H261158   3.554   5.724   4.965 -0.2771  1.6591 -0.1732
14838WAT    EPW61159   3.497   5.710   4.902 -0.2420 -0.0556  0.1199
14839WAT      O61160   2.716   4.825   7.962  0.4313 -0.3220  0.3125
14839WAT     H161161   2.668   4.791   7.887 -0.4636  0.3560  0.5580
14839WAT     H261162   2.700   4.920   7.960  0.6492 -0.2531  1.1788
14839WAT    EPW61163   2.708   4.833   7.952  0.3420 -0.2236  0.4592
14840WAT      O61164   3.049   4.870   6.381 -0.9147  0.3836  0.2363
14840WAT     H161165   3.091   4.937   6.435  0.4323 -0.9409  0.9164
14840WAT     H261166   3.047   4.792   6.437 -0.9392 -0.5908 -1.0630
14840WAT    EPW61167   3.054   4.868   6.395 -0.7403  0.0803  0.1547
14841WAT      O61168   2.356   0.779   1.130 -0.0681 -0.0114 -0.4323
14841WAT     H161169   2.388   0.769   1.040  1.1733  0.6811 -0.0902
14841WAT     H261170   2.263   0.800   1.119 -0.5703 -2.3902 -1.4409
14841WAT    EPW61171   2.348   0.780   1.116  0.0294 -0.2338 -0.5202
14842WAT      O61172   4.622   6.162   7.169  0.1828  0.3315  0.1523
14842WAT     H161173   4.609   6.089   7.229  0.2254  2.2609  2.6280
14842WAT     H261174   4.535   6.178   7.132  0.1858 -0.9437 -0.5009
14842WAT    EPW61175   4.608   6.154   7.172  0.1886  0.4177  0.3924
14843WAT      O61176   2.196   6.425   5.965 -0.1356 -1.1113 -0.2373
14843WAT     H161177   2.168   6.517   5.965 -0.1664 -1.1133 -0.9182
14843WAT     H261178   2.230   6.410   6.053 -0.6243 -0.5978  0.0490
14843WAT    EPW61179   2.196   6.435   5.977 -0.2042 -1.0438 -0.2894
14844WAT      O61180   7.005   7.337   0.606  0.1150 -0.1583 -0.0503
14844WAT     H161181   6.967   7.285   0.535 -0.0014  0.1542 -0.2221
14844WAT     H261182   7.031   7.419   0.564 -1.4707  0.7124  0.5504
14844WAT    EPW61183   7.003   7.341   0.591 -0.1097 -0.0021  0.0063
14845WAT      O61184   3.714   1.428   6.340  0.0515 -0.2217  0.1398
14845WAT     H161185   3.782   1.365   6.316  0.7901  1.4091 -2.5191
14845WAT     H261186   3.759   1.494   6.392 -0.4571 -1.1465  1.8423
14845WAT    EPW61187   3.729   1.428   6.343  0.0818 -0.1286  0.0136
14846WAT      O61188   2.511   4.032   6.366  0.6197 -0.3525  0.0867
14846WAT     H161189   2.487   4.079   6.286  3.4780 -2.9475 -2.5862
14846WAT     H261190   2.583   4.084   6.403  0.6311 -0.1580 -0.2048
14846WAT    EPW61191   2.518   4.045   6.360  0.9981 -0.6690 -0.3042
14847WAT      O61192   0.620   0.080   1.092  0.8191  0.0086 -0.3178
14847WAT     H161193   0.571   0.105   1.014  1.4583  1.3112 -0.3264
14847WAT     H261194   0.625   0.160   1.145  1.2646 -0.5920  0.5767
14847WAT    EPW61195   0.614   0.094   1.089  0.9622  0.1012 -0.2010
14848WAT      O61196   3.179   2.010   7.763  0.3616 -0.1735  0.9058
14848WAT     H161197   3.221   2.093   7.740  0.3418 -0.4859 -0.2929
14848WAT     H261198   3.220   1.985   7.846 -1.8456  2.5967  3.0648
14848WAT    EPW61199   3.190   2.018   7.771  0.0677  0.1506  1.0324
14849WAT      O61200   1.402   6.250   4.905 -0.6716 -0.3652 -0.6358
14849WAT     H161201   1.330   6.259   4.843  0.4760  0.3113 -1.9530
14849WAT     H261202   1.430   6.159   4.896  0.5895  0.1273 -2.5043
14849WAT    EPW61203   1.396   6.239   4.895 -0.3540 -0.2110 -1.0560
14850WAT      O61204   5.282   1.958   4.737  0.1305 -0.1139 -0.5827
14850WAT     H161205   5.315   1.965   4.648  3.4643 -3.7910  0.0911
14850WAT     H261206   5.319   2.034   4.782  0.5142  0.4150 -1.7561
14850WAT    EPW61207   5.291   1.969   4.731  0.6208 -0.5292 -0.6485
14851WAT      O61208   2.472   5.422   8.267 -0.2583 -0.5396 -0.4861
14851WAT     H161209   2.438   5.341   8.228  0.4283 -0.4369 -1.3271
14851WAT     H261210   2.478   5.483   8.193 -0.8773  0.3210  0.1603
14851WAT    EPW61211   2.468   5.419   8.252 -0.2494 -0.4122 -0.5116
14852WAT      O61212   3.745   4.515   7.662  0.5007  0.0291  0.5496
14852WAT     H161213   3.755   4.531   7.568 -0.2276  2.5115  0.8078
14852WAT     H261214   3.652   4.497   7.674  0.2206  1.6079  0.9669
14852WAT    EPW61215   3.734   4.515   7.651  0.3676  0.5648  0.6387
14853WAT      O61216   0.655   0.044   5.742 -0.9535  0.0557  0.1653
14853WAT     H161217   0.599   0.101   5.796 -2.5561 -2.9628  1.9902
14853WAT     H261218   0.599  -0.031   5.722  1.6039 -1.8279 -0.3737
14853WAT    EPW61219   0.640   0.042   5.746 -0.8276 -0.5908  0.3347
14854WAT      O61220   8.418   4.091   0.483  0.0296  0.0597  0.7609
14854WAT     H161221   8.454   4.154   0.420  1.4593  0.8857  2.3280
14854WAT     H261222   8.389   4.017   0.429  0.9768  0.8364 -0.8828
14854WAT    EPW61223   8.419   4.089   0.468  0.3428  0.2713  0.7508
14855WAT      O61224   9.057   8.215   1.186  0.3318 -0.2858 -0.2853
14855WAT     H161225   9.033   8.141   1.130  1.4204 -2.1813  1.5768
14855WAT     H261226   9.040   8.293   1.133 -1.3446 -1.8374 -2.1638
14855WAT    EPW61227   9.052   8.216   1.172  0.2537 -0.7405 -0.2874
14856WAT      O61228   2.704   6.426   6.189 -0.2032  0.0485 -0.5578
14856WAT     H161229   2.669   6.392   6.272  1.1691  1.2571  0.5576
14856WAT     H261230   2.737   6.348   6.144 -0.4148 -0.5564  0.2919
14856WAT    EPW61231   2.703   6.411   6.194 -0.0501  0.1280 -0.2985
14857WAT      O61232   3.373   5.521   5.627 -0.0930  0.4516 -0.1060
14857WAT     H161233   3.332   5.607   5.632  1.8247  1.4298 -0.1855
14857WAT     H261234   3.300   5.460   5.621 -1.5014  2.1146 -0.7857
14857WAT    EPW61235   3.358   5.524   5.627 -0.0259  0.7999 -0.2060
14858WAT      O61236   6.246   8.793   0.465 -0.4971  0.5881 -0.6878
14858WAT     H161237   6.200   8.725   0.417 -2.9143  1.4122  0.2977
14858WAT     H261238   6.308   8.746   0.521  1.3277 -0.4537 -3.3748
14858WAT    EPW61239   6.248   8.778   0.466 -0.5751  0.5598 -0.9122
14859WAT      O61240   5.435   9.328   0.955  0.3103  0.5665 -0.3467
14859WAT     H161241   5.340   9.333   0.964  0.3041  3.5626 -1.2166
14859WAT     H261242   5.449   9.299   0.865  0.1447  2.5037 -1.0370
14859WAT    EPW61243   5.424   9.325   0.945  0.2878  1.2169 -0.5525
14860WAT      O61244   2.399   2.644   5.847 -0.5028  0.8532 -0.2002
14860WAT     H161245   2.417   2.701   5.921  1.1412  1.3715 -0.9405
14860WAT     H261246   2.422   2.696   5.770 -2.5253  0.4680 -1.1449
14860WAT    EPW61247   2.404   2.658   5.846 -0.5528  0.8709 -0.4227
14861WAT      O61248   6.275  10.242   0.254 -0.2295  0.4596 -0.2399
14861WAT     H161249   6.200  10.249   0.194  0.7772 -1.3034 -1.8214
14861WAT     H261250   6.339  10.304   0.218 -1.2763  2.8934  1.8264
14861WAT    EPW61251   6.274  10.251   0.241 -0.2348  0.5474 -0.1759
14862WAT      O61252   5.835   9.530   0.837  0.2151 -0.0808  0.3132
14862WAT     H161253   5.858   9.559   0.925 -0.6660  1.3633  0.0894
14862WAT     H261254   5.918   9.537   0.788  0.5486 -0.2166  0.8476
14862WAT    EPW61255   5.849   9.535   0.842  0.1428  0.0925  0.3542
14863WAT      O61256   6.360   3.237   7.876  0.3754  0.5350 -0.1185
14863WAT     H161257   6.340   3.196   7.959  0.0623 -1.0054 -0.9259
14863WAT     H261258   6.354   3.167   7.811 -2.4922  2.2145 -1.9302
14863WAT    EPW61259   6.357   3.223   7.878 -0.0443  0.5534 -0.4640
14864WAT      O61260   2.830   4.266   7.183 -0.4783  0.3511 -0.2820
14864WAT     H161261   2.889   4.328   7.141  0.0015  0.5342  0.6532
14864WAT     H261262   2.767   4.244   7.114 -0.4086  1.5474 -0.7558
14864WAT    EPW61263   2.829   4.271   7.168 -0.4058  0.5333 -0.2213
14865WAT      O61264   4.351   1.830   4.929 -0.0514 -0.3529 -0.3668
14865WAT     H161265   4.341   1.915   4.971 -1.2311 -1.4944  1.8264
14865WAT     H261266   4.391   1.775   4.997  3.5669 -0.8956 -2.6635
14865WAT    EPW61267   4.355   1.834   4.944  0.2701 -0.5750 -0.3800
14866WAT      O61268   9.063   1.637   0.973 -0.2022  0.6217  0.1265
14866WAT     H161269   9.002   1.663   1.042 -0.7033 -1.5830  0.6003
14866WAT     H261270   9.007   1.611   0.900  0.2273  0.3577 -0.1180
14866WAT    EPW61271   9.048   1.637   0.972 -0.2122  0.2961  0.1568
14867WAT      O61272   4.459   5.153   8.581  0.5833 -0.2273 -0.2168
14867WAT     H161273   4.422   5.218   8.641  0.1618  0.0889 -0.8178
14867WAT     H261274   4.418   5.070   8.608  0.0037 -0.0009 -0.4001
14867WAT    EPW61275   4.449   5.150   8.593  0.4511 -0.1559 -0.3204
14868WAT      O61276   1.500   9.327   6.933 -0.0411  0.8017 -0.1699
14868WAT     H161277   1.484   9.391   6.864  0.7965  1.4177  0.1758
14868WAT     H261278   1.593   9.338   6.953 -0.1130  0.1366  0.5570
14868WAT    EPW61279   1.511   9.337   6.927  0.0598  0.7954 -0.0281
14869WAT      O61280   7.911   9.602   1.264  0.5282  0.2612  0.0226
14869WAT     H161281   7.830   9.617   1.216  1.2693  3.0907 -0.5121
14869WAT     H261282   7.884   9.588   1.354 -0.5377  2.6551  0.1231
14869WAT    EPW61283   7.897   9.602   1.269  0.4852  0.9503 -0.0346
14870WAT      O61284   3.137   7.595   5.815 -0.3895 -0.3901  0.5257
14870WAT     H161285   3.214   7.632   5.858 -1.5725  1.1688  1.4291
14870WAT     H261286   3.131   7.643   5.732 -1.3093  0.7773  1.2208
14870WAT    EPW61287   3.146   7.606   5.810 -0.6669 -0.0305  0.7365
14871WAT      O61288   2.179   6.053   8.474  0.1856 -0.3269 -0.2734
14871WAT     H161289   2.241   6.121   8.451  1.0941 -0.3070  1.9918
14871WAT     H261290   2.230   5.989   8.524 -1.7540  0.4492  3.0534
14871WAT    EPW61291   2.194   6.053   8.478  0.0496 -0.2220  0.4640
14872WAT      O61292   3.193   4.901   7.145  0.5181 -0.0988 -0.0218
14872WAT     H161293   3.181   4.987   7.184  2.5143 -0.0612  0.6274
14872WAT     H261294   3.285   4.879   7.163  1.3631 -0.4729 -3.9174
14872WAT    EPW61295   3.204   4.909   7.153  0.8929 -0.1433 -0.4499
14873WAT      O61296   5.580   6.234   6.751  0.0646 -0.1308  0.2087
14873WAT     H161297   5.669   6.227   6.716  0.4819 -0.5962  1.3177
14873WAT     H261298   5.536   6.297   6.694  0.8481 -0.5431 -0.8713
14873WAT    EPW61299   5.586   6.241   6.739  0.2229 -0.2463  0.2127
14874WAT      O61300   2.638   4.411   6.273 -0.2569 -0.4355  0.2489
14874WAT     H161301   2.597   4.398   6.187  1.5078 -0.7928 -0.5844
14874WAT     H261302   2.677   4.326   6.294 -1.2885 -0.5770  1.7934
14874WAT    EPW61303   2.637   4.398   6.264 -0.1601 -0.5014  0.3428
14875WAT      O61304   3.167   6.289   6.060 -0.5308  0.3668 -0.6562
14875WAT     H161305   3.234   6.323   6.119  0.0395 -3.0405  0.8740
14875WAT     H261306   3.130   6.367   6.019  2.8488  2.5480  0.0248
14875WAT    EPW61307   3.171   6.304   6.063 -0.0099  0.2053 -0.3643
14876WAT      O61308   1.366   4.160   7.249  0.3622  0.0790  1.2780
14876WAT     H161309   1.281   4.116   7.246  0.7567 -0.6412 -0.3473
14876WAT     H261310   1.363   4.223   7.177 -0.1938  2.8380  3.5562
14876WAT    EPW61311   1.354   4.163   7.239  0.3409  0.3476  1.3642
14877WAT      O61312   7.750   7.343   1.102  0.6886  0.1776 -0.4835
14877WAT     H161313   7.760   7.389   1.019 -0.2335 -0.5218 -0.9982
14877WAT     H261314   7.719   7.255   1.077 -1.4219  0.5378  0.6834
14877WAT    EPW61315   7.747   7.337   1.088  0.2887  0.1328 -0.3975
14878WAT      O61316   3.468   5.142   8.123  0.1463 -0.4291 -0.0716
14878WAT     H161317   3.516   5.194   8.058  0.9739 -1.7871 -0.5720
14878WAT     H261318   3.445   5.061   8.077  1.8819 -1.9909  1.6696
14878WAT    EPW61319   3.471   5.138   8.108  0.4843 -0.8142  0.0916
14879WAT      O61320   1.872   4.680   7.055  0.3534  0.1081  0.0635
14879WAT     H161321   1.924   4.745   7.101  1.8370  0.2479 -1.7063
14879WAT     H261322   1.850   4.615   7.122 -0.7229  2.0876  1.7493
14879WAT    EPW61323   1.876   4.680   7.070  0.4071  0.3877  0.0522
14880WAT      O61324   1.059   2.572   5.807  0.2047 -1.0374 -0.8692
14880WAT     H161325   1.135   2.540   5.757  1.2465  1.0020 -0.6755
14880WAT     H261326   1.045   2.661   5.775 -0.0628 -0.2178  1.3807
14880WAT    EPW61327   1.067   2.579   5.796  0.3068 -0.6604 -0.5465
14881WAT      O61328  10.963   1.608   0.958  0.1801 -0.5378  0.5460
14881WAT     H161329  10.981   1.551   1.032  0.4835 -1.3626 -0.1426
14881WAT     H261330  10.980   1.554   0.881 -1.7954 -0.2613 -0.1536
14881WAT    EPW61331  10.968   1.593   0.957 -0.0401 -0.6101  0.3630
14882WAT      O61332   4.075   5.198   8.410 -0.2398  0.2954  0.4337
14882WAT     H161333   4.043   5.250   8.336  1.5112  0.4532 -0.2590
14882WAT     H261334   4.073   5.258   8.484  1.0508  1.1553 -0.2013
14882WAT    EPW61335   4.070   5.213   8.410  0.1616  0.4296  0.2584
14883WAT      O61336   8.453   8.992   1.929  0.2444 -0.1053 -0.1219
14883WAT     H161337   8.372   9.014   1.974  0.0806 -1.4781  0.3151
14883WAT     H261338   8.507   9.071   1.935 -0.3408  0.2130  1.2250
14883WAT    EPW61339   8.450   9.005   1.936  0.1454 -0.2437  0.1134
14884WAT      O61340   3.726   4.466   3.776 -0.4844 -0.3440  0.2355
14884WAT     H161341   3.670   4.482   3.852 -0.5471 -3.6946  1.0527
14884WAT     H261342   3.776   4.387   3.799  2.5137  0.8064 -1.6192
14884WAT    EPW61343   3.725   4.458   3.789 -0.0972 -0.6342  0.0987
14885WAT      O61344   3.393   1.944   8.294  0.1117 -0.3558  0.5216
14885WAT     H161345   3.464   1.898   8.338  2.0689  0.7362 -1.2529
14885WAT     H261346   3.383   2.026   8.343  1.4536  0.3276 -0.2813
14885WAT    EPW61347   3.401   1.949   8.306  0.5468 -0.1217  0.1812
14886WAT      O61348   2.945   4.356   6.743  0.2784 -0.2892 -0.0253
14886WAT     H161349   2.947   4.401   6.828 -0.1058 -0.2629 -0.0280
14886WAT     H261350   3.034   4.366   6.709 -0.0197  1.3089 -0.4487
14886WAT    EPW61351   2.957   4.363   6.749  0.1886 -0.0751 -0.0815
14887WAT      O61352   0.181   4.283   3.756 -0.3562 -0.6802 -0.4178
14887WAT     H161353   0.266   4.268   3.716 -1.0038 -1.5755 -1.4869
14887WAT     H261354   0.189   4.371   3.795  1.3090 -1.0767  0.2300
14887WAT    EPW61355   0.193   4.293   3.756 -0.2220 -0.8507 -0.4734
14888WAT      O61356  10.438   0.105   0.671 -0.2149  0.0438  0.3963
14888WAT     H161357  10.469   0.086   0.582 -1.2144  1.7004 -0.3593
14888WAT     H261358  10.346   0.130   0.659  0.2876  2.7412  1.5315
14888WAT    EPW61359  10.430   0.105   0.657 -0.2809  0.6181  0.4463
14889WAT      O61360   4.436   4.585   8.157 -0.2817  0.2094  0.5897
14889WAT     H161361   4.368   4.519   8.168 -1.3111  1.1568  0.1052
14889WAT     H261362   4.388   4.668   8.154  0.8811  0.8805  0.0285
14889WAT    EPW61363   4.421   4.587   8.158 -0.2642  0.4227  0.4520
14890WAT      O61364   3.011   5.089   8.239 -0.5903 -0.1861 -0.3759
14890WAT     H161365   2.994   5.166   8.184  1.6872  2.6662  2.4949
14890WAT     H261366   3.008   5.123   8.329  0.1392 -3.5757  1.0831
14890WAT    EPW61367   3.009   5.104   8.244 -0.1938 -0.2570  0.1945
14891WAT      O61368   3.916   4.528   8.684  0.7278  0.7143 -0.0735
14891WAT     H161369   3.978   4.600   8.679  1.1253  0.3311 -1.0484
14891WAT     H261370   3.970   4.452   8.706  0.6785  0.3121 -1.2851
14891WAT    EPW61371   3.931   4.527   8.686  0.7738  0.6106 -0.3619
14892WAT      O61372   4.862   6.274   7.106  1.0083 -0.0469 -0.2784
14892WAT     H161373   4.775   6.257   7.141  0.5571  1.3213 -0.6832
14892WAT     H261374   4.853   6.355   7.056  2.1042 -0.8489 -1.8618
14892WAT    EPW61375   4.850   6.283   7.104  1.0934  0.0277 -0.5405
14893WAT      O61376   0.075   1.668   8.431 -0.0498 -0.2874 -0.0507
14893WAT     H161377   0.025   1.662   8.512  0.6065 -1.2624  0.3119
14893WAT     H261378   0.085   1.577   8.402  2.8377 -0.3535  0.7704
14893WAT    EPW61379   0.070   1.655   8.438  0.4176 -0.4248  0.1054
14894WAT      O61380   2.257   6.743   8.858  0.2929  0.5149  0.1308
14894WAT     H161381   2.322   6.791   8.807 -0.3800  2.4853  1.0251
14894WAT     H261382   2.175   6.789   8.842  0.0156  1.1204  2.7850
14894WAT    EPW61383   2.255   6.755   8.849  0.1676  0.8545  0.5994
14895WAT      O61384   3.368   6.908   6.122 -0.3606  0.3297 -0.4039
14895WAT     H161385   3.364   6.817   6.151 -2.3435 -0.2026 -2.1197
14895WAT     H261386   3.443   6.911   6.063  0.9126  0.3420  1.1435
14895WAT    EPW61387   3.378   6.896   6.118 -0.4542  0.2613 -0.4263
14896WAT      O61388   1.623   4.213   7.824 -0.2217 -0.4872  0.5962
14896WAT     H161389   1.689   4.241   7.760  0.5357  0.1206  1.6056
14896WAT     H261390   1.544   4.260   7.798  0.1968  0.1162  0.3668
14896WAT    EPW61391   1.621   4.223   7.812 -0.0666 -0.3276  0.6990
14897WAT      O61392   5.053   6.250   6.670 -0.4219 -0.7841  0.5013
14897WAT     H161393   5.065   6.344   6.657 -1.6832 -0.4843  1.2883
14897WAT     H261394   5.010   6.220   6.590 -1.4626 -0.3680  0.8885
14897WAT    EPW61395   5.049   6.258   6.657 -0.7257 -0.6897  0.6559
14898WAT      O61396   1.344   1.527   0.716 -0.3434 -1.1142  0.0134
14898WAT     H161397   1.391   1.446   0.734 -0.2254 -0.7771  1.3366
14898WAT     H261398   1.390   1.565   0.642  1.5051 -0.8040  1.2430
14898WAT    EPW61399   1.356   1.521   0.709 -0.0840 -1.0288  0.3501
14899WAT      O61400   3.666   2.585   7.788 -0.4728 -0.0388 -0.2725
14899WAT     H161401   3.649   2.496   7.818 -1.7606  0.3870  0.3329
14899WAT     H261402   3.605   2.639   7.837  1.1025  1.3434  0.2483
14899WAT    EPW61403   3.655   2.580   7.798 -0.4349  0.1996 -0.1242
14900WAT      O61404   3.851   2.960   6.224 -0.1895  0.0495  0.1031
14900WAT     H161405   3.865   2.984   6.316 -1.6015  0.6669  0.1767
14900WAT     H261406   3.784   2.892   6.228 -3.9609  3.3834 -0.6438
14900WAT    EPW61407   3.844   2.954   6.237 -0.8731  0.5708  0.0143
14901WAT      O61408   3.776   5.403   7.429  0.1875 -0.4968  0.4243
14901WAT     H161409   3.742   5.492   7.416 -0.1066 -0.8992 -1.8199
14901WAT     H261410   3.845   5.393   7.364  0.9607 -1.5742  1.3690
14901WAT    EPW61411   3.780   5.413   7.419  0.2508 -0.6919  0.2532
14902WAT      O61412   4.744   5.320   6.612 -0.0938 -0.1485  0.1252
14902WAT     H161413   4.784   5.407   6.615  0.5957 -0.4694  0.8043
14902WAT     H261414   4.660   5.333   6.569 -0.4481  1.0398  1.1220
14902WAT    EPW61415   4.738   5.333   6.607 -0.0498 -0.0339  0.3464
14903WAT      O61416   6.066   6.198   7.451 -0.1284  0.5526  0.5431
14903WAT     H161417   5.981   6.164   7.479  0.0745 -0.1569  0.2964
14903WAT     H261418   6.066   6.289   7.481 -0.8947  0.4998  0.7173
14903WAT    EPW61419   6.055   6.206   7.459 -0.2027  0.4523  0.5331
14904WAT      O61420   3.348   6.175   7.027  0.2404  0.0256  0.1868
14904WAT     H161421   3.393   6.108   6.976 -2.5317 -2.5744  0.8525
14904WAT     H261422   3.394   6.177   7.110 -0.1037 -1.7558  0.4609
14904WAT    EPW61423   3.360   6.167   7.031 -0.1705 -0.5522  0.3109
14905WAT      O61424   5.090   5.613   8.208  0.3509  0.5519  0.8664
14905WAT     H161425   5.098   5.708   8.217  0.6589  0.5605  0.5623
14905WAT     H261426   5.066   5.600   8.116 -0.1909  0.3612  1.0367
14905WAT    EPW61427   5.088   5.624   8.197  0.3202  0.5279  0.8488
14906WAT      O61428   5.606   9.755   0.728 -0.3007  0.0901 -0.0468
14906WAT     H161429   5.671   9.739   0.797 -0.8116  1.2117  0.7173
14906WAT     H261430   5.656   9.748   0.647  0.9229  1.4711  0.5491
14906WAT    EPW61431   5.621   9.752   0.727 -0.2067  0.4201  0.1326
14907WAT      O61432   6.377   6.762   7.739  0.9252 -0.0090  0.6889
14907WAT     H161433   6.285   6.786   7.755 -0.0626 -0.3177 -3.3563
14907WAT     H261434   6.420   6.845   7.722 -0.1761 -0.0571 -3.3534
14907WAT    EPW61435   6.370   6.776   7.739  0.6495 -0.0558 -0.3777
14908WAT      O61436   3.756   6.631   8.499  0.0296  0.3199 -0.3913
14908WAT     H161437   3.719   6.544   8.486  0.9693 -0.7032  2.8927
14908WAT     H261438   3.692   6.690   8.458 -2.9105 -1.6410  1.0495
14908WAT    EPW61439   3.743   6.628   8.492 -0.2342 -0.0737  0.2322
14909WAT      O61440   2.905   4.992   8.620  0.2423  0.1213  0.2767
14909WAT     H161441   2.865   4.980   8.535  1.5607  0.2016 -0.3843
14909WAT     H261442   2.845   4.949   8.681 -1.5571  1.4805 -0.4526
14909WAT    EPW61443   2.892   4.985   8.617  0.1788  0.3111  0.0935
14910WAT      O61444   1.558   3.893   7.856 -0.6142 -0.3657  0.1751
14910WAT     H161445   1.545   3.988   7.846  1.6445 -0.0803 -0.8056
14910WAT     H261446   1.553   3.878   7.950 -3.5323  0.2288  0.2173
14910WAT    EPW61447   1.556   3.904   7.867 -0.7012 -0.2496  0.0513
14911WAT      O61448   8.558   1.502   0.564 -0.4022 -0.3885 -0.1198
14911WAT     H161449   8.631   1.519   0.504 -1.1504  1.6819 -0.5422
14911WAT     H261450   8.518   1.422   0.532  0.7711 -0.7280 -0.7949
14911WAT    EPW61451   8.562   1.494   0.552 -0.3457 -0.1602 -0.2645
14912WAT      O61452   2.626   6.788   6.342 -0.7410  0.8410  0.0152
14912WAT     H161453   2.556   6.736   6.303  0.0358 -0.4147  0.2407
14912WAT     H261454   2.701   6.774   6.285 -0.1013  0.4621  0.9224
14912WAT    EPW61455   2.626   6.780   6.329 -0.5541  0.6256  0.1645
14913WAT      O61456   3.537   6.934   8.001  0.0719 -0.4307  0.3827
14913WAT     H161457   3.546   7.004   7.936  0.7051 -1.9793 -1.2978
14913WAT     H261458   3.510   6.979   8.081 -2.1923  1.4583 -1.2656
14913WAT    EPW61459   3.534   6.949   8.003 -0.1433 -0.3858 -0.0563
14914WAT      O61460   0.622   2.886   1.423 -1.6022  0.5468  0.2175
14914WAT     H161461   0.709   2.853   1.446 -2.5456 -1.0371  1.7259
14914WAT     H261462   0.567   2.808   1.419 -3.0232  1.5502 -0.4368
14914WAT    EPW61463   0.626   2.872   1.426 -1.9141  0.4703  0.3302
14915WAT      O61464   4.677   7.492   3.731 -0.2648 -0.3617 -0.7976
14915WAT     H161465   4.586   7.475   3.755 -0.1901 -0.7583 -0.8031
14915WAT     H261466   4.671   7.537   3.646 -0.3649 -2.9163 -2.2490
14915WAT    EPW61467   4.664   7.496   3.723 -0.2682 -0.7508 -0.9897
14916WAT      O61468   9.331  10.186   0.664 -0.2032  0.1605  0.1595
14916WAT     H161469   9.389  10.230   0.727  2.6842 -0.2821 -1.9610
14916WAT     H261470   9.335  10.094   0.688  0.9843 -0.0229 -0.6307
14916WAT    EPW61471   9.339  10.180   0.675  0.3347  0.0772 -0.2244
14917WAT      O61472   2.159   5.600   6.577 -1.0456  0.1767  0.2282
14917WAT     H161473   2.200   5.680   6.545 -1.3222  0.2894  0.1477
14917WAT     H261474   2.146   5.616   6.671 -0.7957  0.0932  0.2763
14917WAT    EPW61475   2.162   5.613   6.585 -1.0490  0.1807  0.2241
14918WAT      O61476   5.116   4.122   8.627 -0.1930  0.1558  0.0507
14918WAT     H161477   5.181   4.053   8.640 -2.4468 -2.2208 -0.3995
14918WAT     H261478   5.073   4.131   8.712 -1.0199 -0.2555 -0.3062
14918WAT    EPW61479   5.119   4.114   8.640 -0.5991 -0.2117 -0.0553
14919WAT      O61480  10.112   0.631   0.930  0.6729 -0.8322 -0.3706
14919WAT     H161481  10.042   0.680   0.973  0.6307  0.2194 -1.5827
14919WAT     H261482  10.151   0.578   1.000 -3.2306 -3.8300 -0.1387
14919WAT    EPW61483  10.108   0.630   0.945  0.1531 -1.0889 -0.4999
14920WAT      O61484   4.728   4.131   6.213  0.2031 -1.2813  0.2202
14920WAT     H161485   4.785   4.191   6.166 -1.3080 -1.0585 -1.4112
14920WAT     H261486   4.719   4.171   6.300 -1.9654  1.8334 -1.2193
14920WAT    EPW61487   4.734   4.144   6.218 -0.2823 -0.8411 -0.1848
14921WAT      O61488   9.116   6.484   7.332  0.2804  0.9512  0.4467
14921WAT     H161489   9.145   6.397   7.360 -0.3950  0.5311 -0.1306
14921WAT     H261490   9.088   6.527   7.412 -1.6703 -0.2485  0.4507
14921WAT    EPW61491   9.116   6.478   7.346 -0.0658  0.7374  0.3712
14922WAT      O61492   4.418   8.181   7.701  0.3086  0.5941  0.0441
14922WAT     H161493   4.436   8.218   7.787 -2.2044  1.9620  0.0887
14922WAT     H261494   4.415   8.086   7.715  2.4629  0.5956  0.8723
14922WAT    EPW61495   4.420   8.173   7.714  0.2613  0.7744  0.1595
14923WAT      O61496   5.548   2.436   8.469 -0.3457 -0.1979 -0.1768
14923WAT     H161497   5.477   2.476   8.419  0.1339  1.6362  0.4896
14923WAT     H261498   5.613   2.411   8.403 -0.6166  0.2629 -0.6268
14923WAT    EPW61499   5.547   2.438   8.454 -0.3183  0.1049 -0.1483
14924WAT      O61500   4.064   4.770   8.126 -0.9426  0.3755 -0.4219
14924WAT     H161501   4.011   4.732   8.196  2.0240 -1.6803  0.9152
14924WAT     H261502   4.152   4.775   8.163  0.0226  2.9422 -2.7354
14924WAT    EPW61503   4.069   4.766   8.140 -0.4241  0.4432 -0.5503
14925WAT      O61504   5.888   8.258   8.593 -0.0797  0.0214 -0.4921
14925WAT     H161505   5.940   8.317   8.648  0.1379 -2.3725  2.0641
14925WAT     H261506   5.944   8.242   8.516  0.6788  1.5585 -0.2881
14925WAT    EPW61507   5.902   8.263   8.590  0.0489 -0.0911 -0.1278
14926WAT      O61508   5.546   7.439   8.720  0.1692 -0.2475  0.1479
14926WAT     H161509   5.587   7.396   8.795  2.0053  0.4069 -0.4324
14926WAT     H261510   5.489   7.372   8.683 -2.3934  0.0132  3.2375
14926WAT    EPW61511   5.544   7.424   8.725  0.0734 -0.1268  0.4787
14927WAT      O61512   0.695  10.077   6.376  1.1185  0.1804 -0.2697
14927WAT     H161513   0.764  10.115   6.431 -0.6928  2.4808  0.6033
14927WAT     H261514   0.742  10.039   6.302  3.5785 -1.7807  2.0617
14927WAT    EPW61515   0.710  10.077   6.373  1.2041  0.2251  0.1528
14928WAT      O61516   4.439   6.955   7.206 -0.5282  0.1270  0.7677
14928WAT     H161517   4.530   6.963   7.175 -0.6901 -4.4024 -1.7607
14928WAT     H261518   4.388   7.005   7.142 -0.0480 -0.5519 -0.1716
14928WAT    EPW61519   4.445   6.963   7.193 -0.4861 -0.5596  0.3099
14929WAT      O61520   4.481   5.772   6.877  0.0994 -0.2364 -0.0603
14929WAT     H161521   4.396   5.787   6.917  0.7120  1.2631  0.7245
14929WAT     H261522   4.502   5.854   6.832  0.4555 -1.1059 -1.5604
14929WAT    EPW61523   4.473   5.784   6.876  0.2270 -0.1531 -0.1545
14930WAT      O61524   9.577   5.106   0.751  0.2075  0.1022  0.2781
14930WAT     H161525   9.525   5.183   0.775 -0.4617 -0.2059 -0.1553
14930WAT     H261526   9.516   5.032   0.760  1.4021 -0.6966  2.8072
14930WAT    EPW61527   9.562   5.107   0.756  0.2770 -0.0436  0.5545
14931WAT      O61528   5.403   6.463   5.700 -0.0612 -0.6440  0.2323
14931WAT     H161529   5.319   6.502   5.726  1.1140  1.2015  1.5448
14931WAT     H261530   5.380   6.375   5.669 -2.4428 -0.2689  0.7225
14931WAT    EPW61531   5.389   6.456   5.700 -0.2203 -0.3512  0.4702
14932WAT      O61532   4.320   9.459   7.230  0.5288  0.4355 -0.5099
14932WAT     H161533   4.277   9.378   7.257 -0.9342  1.3023 -0.1227
14932WAT     H261534   4.296   9.468   7.137  2.6916 -0.7631 -1.2611
14932WAT    EPW61535   4.311   9.449   7.221  0.6211  0.3915 -0.5581
14933WAT      O61536   5.759   8.519   6.225  0.4165  0.0616 -0.4201
14933WAT     H161537   5.670   8.484   6.238 -0.5657  2.2923 -0.6489
14933WAT     H261538   5.801   8.456   6.167  0.8262 -3.8130  3.5644
14933WAT    EPW61539   5.753   8.506   6.219  0.3409 -0.1550  0.0753
14934WAT      O61540   8.544   6.291   7.140  0.3795  0.1548 -0.4672
14934WAT     H161541   8.465   6.345   7.144  0.2003 -0.0919 -0.6328
14934WAT     H261542   8.531   6.235   7.063 -0.4118 -1.6112  0.8608
14934WAT    EPW61543   8.532   6.291   7.130  0.2513 -0.1106 -0.3138
14935WAT      O61544   7.740   7.131   8.849  0.1830  0.0430  0.1646
14935WAT     H161545   7.797   7.205   8.869  1.3270 -1.6290  3.9765
14935WAT     H261546   7.667   7.140   8.910 -0.7805 -0.8836 -0.8011
14935WAT    EPW61547   7.738   7.142   8.859  0.2069 -0.2997  0.5403
14936WAT      O61548   7.757   5.879   8.483 -0.0981  0.3744  0.0342
14936WAT     H161549   7.771   5.966   8.521  0.8976  0.2961 -0.1435
14936WAT     H261550   7.663   5.863   8.495 -0.2871  1.4623  0.0923
14936WAT    EPW61551   7.746   5.889   8.490  0.0079  0.5076  0.0186
14937WAT      O61552   4.010   9.399   7.558  0.2996  0.2498 -0.0390
14937WAT     H161553   3.987   9.477   7.607 -0.6278  0.1113 -0.2479
14937WAT     H261554   4.060   9.346   7.620  0.3591  0.7067  0.3101
14937WAT    EPW61555   4.014   9.402   7.572  0.1853  0.2913 -0.0207
14938WAT      O61556  10.052   1.504   6.244  0.7805  0.0513  0.0432
14938WAT     H161557  10.008   1.586   6.222  0.4316  0.0752  0.8076
14938WAT     H261558   9.991   1.458   6.301  1.1974 -0.5092  0.0493
14938WAT    EPW61559  10.038   1.509   6.248  0.7892 -0.0194  0.1447
14939WAT      O61560   2.980   3.411   2.251  0.0810  0.6051  0.4428
14939WAT     H161561   2.994   3.379   2.162  1.1192 -1.8951  1.4182
14939WAT     H261562   2.977   3.507   2.242  3.1022  0.6296 -1.9045
14939WAT    EPW61563   2.981   3.420   2.239  0.6163  0.2786  0.2619
14940WAT      O61564   6.044   9.438   5.224 -0.0717  0.6818  0.0081
14940WAT     H161565   6.096   9.410   5.299 -0.6072 -0.5269 -0.0600
14940WAT     H261566   6.065   9.376   5.155 -1.2186  0.4794 -0.1729
14940WAT    EPW61567   6.054   9.426   5.225 -0.2935  0.4959 -0.0248
14941WAT      O61568   5.710   7.764   8.457  0.0556 -0.2139  0.4710
14941WAT     H161569   5.722   7.853   8.423  0.5819  0.1422  1.5090
14941WAT     H261570   5.798   7.737   8.483 -0.4357  0.0118  2.5774
14941WAT    EPW61571   5.723   7.772   8.456  0.0603 -0.1373  0.8855
14942WAT      O61572   5.720   6.447   6.140 -0.0580 -0.8589  0.1213
14942WAT     H161573   5.800   6.497   6.157  1.5960 -3.3109  0.0335
14942WAT     H261574   5.678   6.440   6.226 -0.2468  0.5099  0.1549
14942WAT    EPW61575   5.725   6.452   6.154  0.1354 -1.0018  0.1137
14943WAT      O61576   4.272   7.522   7.585 -0.2387 -0.5518 -0.0278
14943WAT     H161577   4.257   7.430   7.562 -1.8661 -0.2180 -0.4643
14943WAT     H261578   4.261   7.569   7.502 -1.3621  0.2020  0.5159
14943WAT    EPW61579   4.268   7.516   7.571 -0.6015 -0.4082 -0.0134
14944WAT      O61580   7.001   4.986   6.930  0.0524 -0.8387 -0.1586
14944WAT     H161581   6.964   4.902   6.903  0.4781 -0.7859 -0.9214
14944WAT     H261582   7.008   4.978   7.025 -0.7774 -1.3073 -0.1249
14944WAT    EPW61583   6.997   4.974   6.939 -0.0010 -0.8934 -0.2549
14945WAT      O61584   8.200   7.346   4.490 -0.4907 -0.2172 -0.8768
14945WAT     H161585   8.169   7.430   4.522 -0.3237 -0.7238  0.6784
14945WAT     H261586   8.295   7.352   4.494 -0.4488 -1.1850  1.3518
14945WAT    EPW61587   8.208   7.358   4.495 -0.4635 -0.4115 -0.3779
14946WAT      O61588   4.214   8.931   6.396  0.1508 -0.2228 -0.2452
14946WAT     H161589   4.248   8.865   6.334  0.7708 -0.5681  0.4414
14946WAT     H261590   4.268   9.008   6.379  1.5669 -0.8636  1.0511
14946WAT    EPW61591   4.226   8.932   6.385  0.4191 -0.3533  0.0160
14947WAT      O61592   4.664   9.005   5.735 -0.4296 -0.1877  0.0866
14947WAT     H161593   4.579   8.963   5.744 -1.2813  1.8768  3.2547
14947WAT     H261594   4.676   9.016   5.641 -4.4634  0.9677 -0.4479
14947WAT    EPW61595   4.655   9.001   5.724 -1.0741  0.2365  0.4339
14948WAT      O61596   6.553   0.283   3.982 -0.3120 -0.2932  0.6128
14948WAT     H161597   6.539   0.361   4.035 -1.6364  0.3219 -0.5882
14948WAT     H261598   6.647   0.283   3.964 -0.4101  1.4813 -0.0394
14948WAT    EPW61599   6.564   0.293   3.987 -0.4997  0.0220  0.3685
14949WAT      O61600   4.956   7.839   8.321  0.3599 -0.2877 -0.6387
14949WAT     H161601   5.039   7.796   8.301 -0.2114 -0.7892 -2.0305
14949WAT     H261602   4.889   7.774   8.300 -0.4933  0.9253 -1.8685
14949WAT    EPW61603   4.958   7.825   8.316  0.1719 -0.1938 -0.9847
14950WAT      O61604   4.594   9.837   6.485  0.1465  0.7581  0.2064
14950WAT     H161605   4.627   9.894   6.416 -2.1229  0.2796 -1.4018
14950WAT     H261606   4.659   9.844   6.556  3.5423 -0.0819 -2.5647
14950WAT    EPW61607   4.607   9.845   6.486  0.2952  0.5836 -0.3712
14951WAT      O61608   1.609   2.732   0.464  0.0083  0.1261 -0.1228
14951WAT     H161609   1.661   2.722   0.384 -0.0674  1.1673 -0.3130
14951WAT     H261610   1.619   2.648   0.509  2.3139  0.4455  0.1269
14951WAT    EPW61611   1.618   2.720   0.459  0.3024  0.3055 -0.1150
14952WAT      O61612   5.350   6.542   7.873 -0.4606 -0.6532  0.2899
14952WAT     H161613   5.386   6.628   7.893 -0.1081 -0.5028 -0.9522
14952WAT     H261614   5.261   6.544   7.908 -1.3252  1.1010 -1.8568
14952WAT    EPW61615   5.343   6.553   7.880 -0.5279 -0.4020 -0.1569
14953WAT      O61616   6.765   0.612   7.343  0.1297 -0.8256  0.1122
14953WAT     H161617   6.748   0.525   7.309  0.8153 -0.7881 -0.3423
14953WAT     H261618   6.680   0.656   7.340  0.1612 -0.8478 -1.4916
14953WAT    EPW61619   6.752   0.607   7.338  0.2244 -0.8236 -0.1593
14954WAT      O61620   5.830   8.022   7.965  0.5689 -0.7914  0.5479
14954WAT     H161621   5.770   8.090   7.995  1.7271  0.4589  0.1387
14954WAT     H261622   5.839   7.963   8.040 -0.5859 -0.6091  0.8495
14954WAT    EPW61623   5.824   8.023   7.979  0.5693 -0.6027  0.5336
14955WAT      O61624   7.793   5.512   8.094  0.2487 -0.2563  0.5098
14955WAT     H161625   7.833   5.559   8.020  1.4632  0.8775  1.8396
14955WAT     H261626   7.699   5.526   8.082  0.5399  2.8466  0.9753
14955WAT    EPW61627   7.786   5.520   8.082  0.4473  0.3023  0.7463
14956WAT      O61628   5.496   7.550   6.049 -0.4393  0.0186 -0.2500
14956WAT     H161629   5.419   7.499   6.073 -0.0988 -0.8789 -1.0143
14956WAT     H261630   5.534   7.504   5.974  0.5854  0.7021 -0.1836
14956WAT    EPW61631   5.491   7.537   6.042 -0.2592 -0.0100 -0.3419
14957WAT      O61632   3.490   3.287   6.329 -0.3344 -0.4518  0.0372
14957WAT     H161633   3.451   3.346   6.394 -0.2443 -1.7881  1.3585
14957WAT     H261634   3.519   3.345   6.258 -0.3322  1.0781  1.2410
14957WAT    EPW61635   3.489   3.303   6.328 -0.3222 -0.4262  0.3703
14958WAT      O61636   7.263   9.994   3.064  0.0841 -0.3364  0.2459
14958WAT     H161637   7.270  10.052   3.140 -0.9839 -0.7037  0.6431
14958WAT     H261638   7.305  10.043   2.992  1.2655 -0.0603  1.0920
14958WAT    EPW61639   7.270  10.008   3.064  0.0992 -0.3490  0.4098
14959WAT      O61640   5.622   9.599   2.963  0.6195 -0.3010  0.6477
14959WAT     H161641   5.568   9.635   2.892  0.7985 -0.2155  0.5539
14959WAT     H261642   5.561   9.588   3.036  0.6137  0.4490  0.7667
14959WAT    EPW61643   5.606   9.603   2.963  0.6423 -0.1912  0.6511
14960WAT      O61644   1.813   5.883   7.189  0.2235 -0.7274  1.0801
14960WAT     H161645   1.733   5.866   7.140 -1.0692  1.4713  2.2418
14960WAT     H261646   1.861   5.946   7.136  1.6098 -2.5202  0.0699
14960WAT    EPW61647   1.809   5.889   7.176  0.2359 -0.6740  1.1001
14961WAT      O61648   9.674   9.427   0.539  0.4505 -0.3968 -0.5134
14961WAT     H161649   9.758   9.469   0.520  0.0905 -0.2222 -1.8405
14961WAT     H261650   9.611   9.474   0.484 -1.1809  1.7066  2.8499
14961WAT    EPW61651   9.677   9.439   0.529  0.1879 -0.0963 -0.2448
14962WAT      O61652  10.111   1.028   6.454  0.2793 -0.4868 -0.3740
14962WAT     H161653  10.188   1.083   6.438  0.6465 -1.0948 -0.7325
14962WAT     H261654  10.095   1.036   6.548 -1.3695  2.4519 -0.8008
14962WAT    EPW61655  10.119   1.036   6.464  0.1101 -0.1794 -0.4776
14963WAT      O61656   7.750   0.220   4.181 -0.4147  0.0949  0.0520
14963WAT     H161657   7.778   0.305   4.148 -0.9440  1.1767  2.2232
14963WAT     H261658   7.801   0.157   4.130  1.7396  1.7755 -0.0393
14963WAT    EPW61659   7.761   0.223   4.170 -0.2003  0.4592  0.3262
14964WAT      O61660   8.291   9.135   7.226 -1.2474 -0.5729 -0.0331
14964WAT     H161661   8.293   9.218   7.178 -1.0765  0.5737  1.8243
14964WAT     H261662   8.370   9.089   7.199 -0.0220  1.0005  0.7065
14964WAT    EPW61663   8.301   9.140   7.216 -1.0638 -0.2141  0.3097
14965WAT      O61664   0.298   8.498   0.015  0.3944  0.2138 -0.2358
14965WAT     H161665   0.238   8.508   0.089  2.0910  0.7965  1.1184
14965WAT     H261666   0.361   8.432   0.045  3.2098  2.9285  0.3748
14965WAT    EPW61667   0.298   8.490   0.029  0.9895  0.6485  0.0234
14966WAT      O61668   7.793   7.425   7.512 -0.2965  0.5197  0.1686
14966WAT     H161669   7.836   7.367   7.449 -1.0480  0.8447 -0.6617
14966WAT     H261670   7.841   7.508   7.506 -0.3215  0.5274  0.0810
14966WAT    EPW61671   7.805   7.429   7.503 -0.3991  0.5636  0.0474
14967WAT      O61672   1.397   7.192   6.897 -0.3095 -0.5458  0.1434
14967WAT     H161673   1.395   7.096   6.897  2.7728 -0.7557 -1.6706
14967WAT     H261674   1.466   7.214   6.835 -2.3488  2.9572 -1.1455
14967WAT    EPW61675   1.406   7.182   6.889 -0.1719 -0.1113 -0.2658
14968WAT      O61676   6.177  10.301   8.455 -0.1659 -0.0506  0.3135
14968WAT     H161677   6.122  10.225   8.475 -0.7451  0.4064  0.4746
14968WAT     H261678   6.168  10.358   8.531  1.8935 -0.7203  1.1164
14968WAT    EPW61679   6.169  10.299   8.468  0.0293 -0.0782  0.4406
14969WAT      O61680   3.360   0.794   0.449  0.5001  0.0266 -0.5888
14969WAT     H161681   3.300   0.739   0.499 -1.0115  1.6744 -0.4802
14969WAT     H261682   3.361   0.755   0.361  0.4670 -0.8818 -0.1972
14969WAT    EPW61683   3.353   0.782   0.444  0.2964  0.1241 -0.5228
14970WAT      O61684   6.967   6.482   8.377  0.6872  0.5058  0.7404
14970WAT     H161685   6.911   6.404   8.384  2.0260 -0.7434 -1.2910
14970WAT     H261686   6.921   6.538   8.313  1.9249 -0.7993 -1.4090
14970WAT    EPW61687   6.953   6.479   8.369  1.0273  0.1690  0.1884
14971WAT      O61688   5.466   6.374   8.087 -0.2117  0.1843  0.3392
14971WAT     H161689   5.541   6.425   8.118 -0.5696  0.4100  0.8376
14971WAT     H261690   5.430   6.426   8.015  0.1736  0.0198  0.0227
14971WAT    EPW61691   5.471   6.388   8.081 -0.2079  0.1926  0.3629
14972WAT      O61692  10.883   3.930   1.975 -0.1372  0.1651 -0.5849
14972WAT     H161693  10.806   3.952   1.924  0.4706  2.2944 -0.6543
14972WAT     H261694  10.866   3.967   2.062  0.1157 -0.8344 -0.0841
14972WAT    EPW61695  10.871   3.937   1.980 -0.0238  0.3141 -0.5280
14973WAT      O61696   4.064   8.411   7.005  0.5819  0.6765  0.8869
14973WAT     H161697   3.969   8.405   7.016  0.7480  0.0976  2.3571
14973WAT     H261698   4.082   8.365   6.923 -0.4544  1.4110  0.2222
14973WAT    EPW61699   4.054   8.404   6.996  0.4673  0.6971  0.9933
14974WAT      O61700   6.737   6.296   6.913 -0.3654  0.5240  0.1313
14974WAT     H161701   6.700   6.251   6.989 -0.1041  0.2213  0.0798
14974WAT     H261702   6.695   6.383   6.914 -1.6137 -0.0480 -0.3213
14974WAT    EPW61703   6.726   6.302   6.923 -0.4952  0.4086  0.0648
14975WAT      O61704   0.179   3.878   1.291 -0.6250  0.6357  0.1066
14975WAT     H161705   0.084   3.863   1.283 -0.0910 -2.5580 -1.6774
14975WAT     H261706   0.203   3.834   1.373 -0.8603  3.1504  1.6356
14975WAT    EPW61707   0.169   3.870   1.301 -0.5856  0.5462  0.0730
14976WAT      O61708   7.945   8.917   7.522  0.6240  0.3486 -0.6517
14976WAT     H161709   8.027   8.962   7.500  0.9074 -0.5256 -1.4407
14976WAT     H261710   7.878   8.983   7.511  1.0167  0.5546 -1.9560
14976WAT    EPW61711   7.947   8.932   7.518  0.7131  0.2604 -0.9277
14977WAT      O61712   6.074   6.358   6.565 -0.1300  0.0016 -0.2081
14977WAT     H161713   6.109   6.272   6.589  1.5305  0.8352  0.5367
14977WAT     H261714   5.984   6.340   6.537 -0.0862 -1.8663  0.6658
14977WAT    EPW61715   6.067   6.344   6.564  0.0949 -0.1347  0.0052
14978WAT      O61716   1.160   4.417   3.182  0.3679  0.8276 -0.1018
14978WAT     H161717   1.159   4.412   3.087 -1.2932 -1.5847 -0.0324
14978WAT     H261718   1.171   4.327   3.211  0.8985  1.5096  2.0223
14978WAT    EPW61719   1.162   4.405   3.173  0.2187  0.5991  0.1874
14979WAT      O61720   5.872   9.166   4.347  0.4422 -0.2068 -0.0323
14979WAT     H161721   5.958   9.208   4.340 -0.7092  2.7011  1.3316
14979WAT     H261722   5.837   9.170   4.258  1.7388 -1.6119 -0.6491
14979WAT    EPW61723   5.879   9.172   4.334  0.4613 -0.0081  0.0663
14980WAT      O61724   4.606   8.807   8.337  0.0236 -0.1169 -0.2853
14980WAT     H161725   4.587   8.781   8.247  0.1015 -1.4335  0.0589
14980WAT     H261726   4.696   8.839   8.334  0.1481 -0.4884 -0.6103
14980WAT    EPW61727   4.615   8.807   8.325  0.0505 -0.3395 -0.2823
14981WAT      O61728   3.742   8.218   5.670  1.1598  0.2531  0.3165
14981WAT     H161729   3.715   8.258   5.753  1.3471 -1.3194  1.1746
14981WAT     H261730   3.660   8.187   5.631  1.3412 -2.7371  1.9750
14981WAT    EPW61731   3.727   8.219   5.676  1.2087 -0.3490  0.6480
14982WAT      O61732   3.249   8.854   5.829 -0.4727  0.0083  0.3017
14982WAT     H161733   3.284   8.907   5.901 -0.7912  1.9009 -0.8667
14982WAT     H261734   3.291   8.889   5.751 -1.7068 -0.5775 -0.6555
14982WAT    EPW61735   3.259   8.865   5.828 -0.6775  0.1807  0.0215
14983WAT      O61736  10.194   6.804   8.405  0.1690  0.7620  0.3000
14983WAT     H161737  10.164   6.759   8.326 -0.9603  2.5904 -0.3849
14983WAT     H261738  10.284   6.829   8.387  2.4132 -4.4331  2.2140
14983WAT    EPW61739  10.202   6.801   8.393  0.3157  0.3181  0.4625
14984WAT      O61740   5.079   6.496   7.947  0.0115  0.6658 -0.6662
14984WAT     H161741   5.062   6.590   7.952  1.4426  0.9027  0.5665
14984WAT     H261742   5.070   6.466   8.037 -1.8977 -0.6940 -1.2588
14984WAT    EPW61743   5.076   6.504   7.960 -0.0517  0.5178 -0.5817
14985WAT      O61744   3.503   6.991   4.236  0.5263 -0.3574 -0.0975
14985WAT     H161745   3.597   7.009   4.233  0.2651  2.2850 -5.6435
14985WAT     H261746   3.467   7.044   4.165 -4.7141 -3.8599 -0.5564
14985WAT    EPW61747   3.511   7.001   4.226 -0.1993 -0.4711 -0.8895
14986WAT      O61748   4.679   7.043   5.546 -0.0965 -0.2737 -0.0686
14986WAT     H161749   4.604   6.988   5.519 -0.7683  0.9129 -0.7197
14986WAT     H261750   4.751   7.014   5.489 -1.3080  1.7038 -2.8498
14986WAT    EPW61751   4.678   7.032   5.535 -0.3450  0.1438 -0.5217
14987WAT      O61752   8.732   0.919   2.777 -0.5724 -0.4428 -0.2143
14987WAT     H161753   8.825   0.927   2.800 -1.1378  1.1666  1.8292
14987WAT     H261754   8.695   0.862   2.845 -1.5522  1.1879  0.6925
14987WAT    EPW61755   8.739   0.913   2.789 -0.7763 -0.0155  0.1748
14988WAT      O61756   6.400   2.469   7.068  0.0683 -0.5646 -0.2690
14988WAT     H161757   6.359   2.494   6.985  0.7942 -0.3479 -0.5723
14988WAT     H261758   6.367   2.533   7.131  1.7287  1.1095 -0.9870
14988WAT    EPW61759   6.390   2.481   7.066  0.3829 -0.3153 -0.4034
14989WAT      O61760   8.913   0.811   5.659  0.0753 -0.5538  0.4477
14989WAT     H161761   8.994   0.798   5.610  0.7012 -2.0402  1.7938
14989WAT     H261762   8.917   0.902   5.687 -0.2921  0.3446 -2.1312
14989WAT    EPW61763   8.924   0.821   5.656  0.1092 -0.6313  0.2849
14990WAT      O61764   5.057   8.998   6.591  0.4782 -0.2782 -0.0117
14990WAT     H161765   5.069   9.065   6.524  0.7657 -0.1662  0.1471
14990WAT     H261766   5.139   9.000   6.641  0.2599 -0.3390  0.3569
14990WAT    EPW61767   5.070   9.007   6.589  0.4873 -0.2718  0.0579
14991WAT      O61768   5.277   8.081   7.585  0.4405 -0.4807 -0.6906
14991WAT     H161769   5.219   8.019   7.629  0.1181 -1.3931 -2.3367
14991WAT     H261770   5.236   8.097   7.501  0.4976  2.0559 -0.2996
14991WAT    EPW61771   5.264   8.075   7.580  0.4055 -0.2670 -0.8562
14992WAT      O61772   6.099   6.265   7.165 -0.8412  0.0133  0.3581
14992WAT     H161773   6.143   6.348   7.149  0.4394 -0.1047  2.7631
14992WAT     H261774   6.084   6.263   7.260 -1.0068 -2.3984  0.3639
14992WAT    EPW61775   6.103   6.275   7.176 -0.6940 -0.3204  0.6759
14993WAT      O61776   3.923   7.915   7.208 -0.4042 -0.3759  0.2635
14993WAT     H161777   3.833   7.942   7.230 -1.0580 -2.6740  0.7323
14993WAT     H261778   3.961   7.890   7.293  0.1683 -0.8197 -0.1212
14993WAT    EPW61779   3.916   7.915   7.222 -0.4151 -0.7374  0.2749
14994WAT      O61780   4.394   6.242   7.013  0.1517  0.3526  0.1318
14994WAT     H161781   4.315   6.295   7.022  0.9121  1.8187 -1.3058
14994WAT     H261782   4.371   6.174   6.950 -1.1154 -1.7367  2.6686
14994WAT    EPW61783   4.381   6.240   7.006  0.0846  0.2704  0.2766
14995WAT      O61784   4.882   7.628   6.411 -0.0227  0.1121 -0.0073
14995WAT     H161785   4.861   7.547   6.365 -1.3149  1.1935 -1.4552
14995WAT     H261786   4.873   7.607   6.504 -0.9237 -1.2482 -0.3778
14995WAT    EPW61787   4.878   7.615   6.417 -0.3121  0.0751 -0.2470
14996WAT      O61788   6.156   6.111   6.689  0.1256 -0.0859  0.5227
14996WAT     H161789   6.220   6.129   6.758 -0.5570  0.0291  1.1396
14996WAT     H261790   6.071   6.134   6.728 -0.2925 -0.2125 -0.2855
14996WAT    EPW61791   6.153   6.116   6.703 -0.0193 -0.0875  0.4976
14997WAT      O61792   5.267   6.735   8.160 -0.1404 -0.3472  0.0009
14997WAT     H161793   5.226   6.685   8.231  0.5662  0.4968  1.0435
14997WAT     H261794   5.197   6.793   8.129 -0.1123  0.1905  0.9012
14997WAT    EPW61795   5.252   6.736   8.165 -0.0434 -0.1650  0.2575
14998WAT      O61796   3.622   7.155   5.727  0.6657  0.1476 -0.0075
14998WAT     H161797   3.712   7.188   5.730  0.7758 -0.1043 -0.5271
14998WAT     H261798   3.632   7.060   5.730  0.3577  0.1399  1.2656
14998WAT    EPW61799   3.635   7.147   5.728  0.6396  0.1137  0.0920
14999WAT      O61800   4.192   8.445   7.630 -0.4019  0.0464  0.2282
14999WAT     H161801   4.261   8.423   7.567 -0.6017 -0.5824  0.2226
14999WAT     H261802   4.238   8.465   7.711 -0.1664  0.4586 -0.0042
14999WAT    EPW61803   4.207   8.445   7.632 -0.3972  0.0176  0.1972
15000WAT      O61804   5.425   8.090   7.204 -0.2765 -0.0062 -0.1619
15000WAT     H161805   5.331   8.100   7.218 -0.6610 -1.6746 -1.2676
15000WAT     H261806   5.462   8.173   7.234 -2.1272  0.8539 -0.0836
15000WAT    EPW61807   5.417   8.103   7.210 -0.5713 -0.1125 -0.2973
15001WAT      O61808   9.438   6.440   6.543 -0.1389 -0.4745 -0.2093
15001WAT     H161809   9.477   6.353   6.531  1.1704 -0.1866  1.5104
15001WAT     H261810   9.449   6.458   6.636 -1.7827  0.9140 -0.2359
15001WAT    EPW61811   9.444   6.431   6.554 -0.1826 -0.2534  0.0138
15002WAT      O61812   6.357   4.474   8.315 -0.0015 -0.2800 -0.1099
15002WAT     H161813   6.383   4.434   8.398 -0.8839 -0.2734  0.1799
15002WAT     H261814   6.440   4.499   8.274  0.4460 -0.1733  0.8242
15002WAT    EPW61815   6.371   4.472   8.320 -0.0587 -0.2649  0.0515
15003WAT      O61816   5.458  10.239   5.064  0.3690  0.1515  0.4629
15003WAT     H161817   5.457  10.248   4.969 -0.7901 -2.8603  0.0636
15003WAT     H261818   5.550  10.245   5.088  1.0326 -1.8131 -1.2710
15003WAT    EPW61819   5.470  10.241   5.055  0.3040 -0.5054  0.1814
15004WAT      O61820   4.588   7.291   7.290 -0.2943 -0.6702  0.2885
15004WAT     H161821   4.581   7.383   7.315 -2.6721 -0.4588 -0.8384
15004WAT     H261822   4.654   7.255   7.349 -1.1935  1.1669  2.5774
15004WAT    EPW61823   4.596   7.298   7.301 -0.7265 -0.4001  0.4416
15005WAT      O61824   6.098   6.702   7.151 -0.2404 -0.6967  0.9605
15005WAT     H161825   6.003   6.701   7.162 -0.4277 -0.4535 -0.3797
15005WAT     H261826   6.112   6.664   7.064  0.9737 -1.7078  1.5759
15005WAT    EPW61827   6.087   6.697   7.141 -0.1049 -0.7977  0.8650
15006WAT      O61828   6.021   5.604   6.459  0.2599  0.1635 -0.3711
15006WAT     H161829   5.998   5.543   6.529  2.0274 -0.6122 -0.4137
15006WAT     H261830   6.033   5.549   6.382 -0.2121  0.8425 -0.9507
15006WAT    EPW61831   6.019   5.589   6.458  0.4308  0.1507 -0.4532
15007WAT      O61832   6.461   8.106   4.058  0.7521  0.3478  0.3161
15007WAT     H161833   6.412   8.188   4.069  2.5144  1.2148  2.4688
15007WAT     H261834   6.395   8.037   4.064 -0.4674  1.5291  1.0598
15007WAT    EPW61835   6.446   8.108   4.060  0.8235  0.6185  0.6983
15008WAT      O61836   4.793   6.802   7.652  0.0135  0.7218 -0.1853
15008WAT     H161837   4.815   6.712   7.676 -0.1846  1.0628  1.3554
15008WAT     H261838   4.876   6.840   7.625  0.3763  0.4777  0.5436
15008WAT    EPW61839   4.806   6.795   7.652  0.0350  0.7346  0.1140
15009WAT      O61840   6.489   6.332   7.709 -0.6020  0.5776 -0.3174
15009WAT     H161841   6.471   6.253   7.658 -1.0467  0.7628 -0.4522
15009WAT     H261842   6.539   6.388   7.650  1.8839 -0.5622  0.5516
15009WAT    EPW61843   6.493   6.329   7.695 -0.3328  0.4516 -0.2205
15010WAT      O61844   7.566   1.034   6.513  0.1535 -0.3710  0.3850
15010WAT     H161845   7.574   1.124   6.483  0.9747 -1.5095 -3.2794
15010WAT     H261846   7.512   1.040   6.592  1.7358  3.4321  1.3945
15010WAT    EPW61847   7.560   1.047   6.519  0.4706 -0.0196  0.0348
15011WAT      O61848   6.730   7.877   7.610 -0.0821  0.5666  0.2142
15011WAT     H161849   6.756   7.916   7.694  0.0905 -0.8239  0.8394
15011WAT     H261850   6.782   7.924   7.545  1.0824  0.5146  1.0694
15011WAT    EPW61851   6.740   7.888   7.612  0.0947  0.3762  0.4096
15012WAT      O61852   6.477   6.555   6.217 -0.7410  0.0790  0.3791
15012WAT     H161853   6.572   6.548   6.214 -0.7601 -0.4985  1.0403
15012WAT     H261854   6.460   6.639   6.259 -0.5262 -0.0356  0.6925
15012WAT    EPW61855   6.487   6.565   6.222 -0.7150 -0.0122  0.5078
15013WAT      O61856   3.432   9.334   8.260 -0.3113  0.2023  0.0737
15013WAT     H161857   3.489   9.264   8.292  0.1823  0.5605 -0.0125
15013WAT     H261858   3.353   9.326   8.313 -0.5966 -0.9291 -0.4749
15013WAT    EPW61859   3.429   9.323   8.271 -0.2840  0.1001 -0.0100
15014WAT      O61860   0.621   4.361   0.267 -0.0218 -0.3653  0.1535
15014WAT     H161861   0.670   4.432   0.307  1.2785  0.1928 -2.2204
15014WAT     H261862   0.674   4.283   0.283  1.7747  0.2247 -2.3385
15014WAT    EPW61863   0.635   4.360   0.274  0.3866 -0.2139 -0.4883
15015WAT      O61864   4.123   5.917   8.093  0.3947 -0.2971 -0.2986
15015WAT     H161865   4.036   5.926   8.131  0.4675  1.3361 -0.4424
15015WAT     H261866   4.178   5.974   8.147  1.6048 -2.0120  0.3821
15015WAT    EPW61867   4.119   5.926   8.105  0.5639 -0.3078 -0.2279
15016WAT      O61868  10.894   5.787   0.088 -0.0895  0.0842  0.2050
15016WAT     H161869  10.928   5.788   0.177 -0.5946 -2.6661  0.4979
15016WAT     H261870  10.965   5.824   0.035  0.5335  0.9876  1.6195
15016WAT    EPW61871  10.908   5.792   0.093 -0.0739 -0.1590  0.4302
15017WAT      O61872   3.408   2.203   1.056 -0.3366 -0.0101  0.5536
15017WAT     H161873   3.493   2.163   1.041 -1.2897 -1.7510 -0.4546
15017WAT     H261874   3.379   2.230   0.969  0.2103  2.9146  1.1596
15017WAT    EPW61875   3.415   2.202   1.043 -0.3902  0.1462  0.5005
15018WAT      O61876   3.959   3.172   0.161 -0.2651  0.3176 -0.0015
15018WAT     H161877   3.889   3.128   0.209  3.0542 -1.2552  3.9897
15018WAT     H261878   3.937   3.265   0.166 -1.6250 -0.0499  1.9697
15018WAT    EPW61879   3.947   3.179   0.168 -0.0067  0.0616  0.7849
15019WAT      O61880   6.172   7.179   7.244 -0.1530 -0.1795  0.1683
15019WAT     H161881   6.226   7.122   7.189 -0.7247 -0.2174 -0.3732
15019WAT     H261882   6.232   7.245   7.277  0.3814 -0.6927  0.2343
15019WAT    EPW61883   6.187   7.180   7.241 -0.1576 -0.2520  0.1056
15020WAT      O61884   0.394  10.324   0.473 -0.3779  0.9050 -0.1087
15020WAT     H161885   0.425  10.406   0.512  2.9257  0.4175 -1.3166
15020WAT     H261886   0.329  10.352   0.409  2.3526  3.0649 -2.2521
15020WAT    EPW61887   0.390  10.339   0.469  0.4179  1.1253 -0.5507
15021WAT      O61888   4.632   8.529   6.813  0.1345 -0.3345  0.0123
15021WAT     H161889   4.704   8.494   6.760  0.6832 -0.2747  0.7036
15021WAT     H261890   4.643   8.488   6.899  0.2620  0.8539  0.5780
15021WAT    EPW61891   4.643   8.519   6.817  0.2239 -0.1698  0.1783
15022WAT      O61892   5.515   6.995   7.517 -0.4512  0.2322  0.0358
15022WAT     H161893   5.425   6.965   7.515 -0.5712  0.6006 -0.2616
15022WAT     H261894   5.513   7.074   7.570 -0.3906  0.5033 -0.3566
15022WAT    EPW61895   5.503   7.002   7.524 -0.4590  0.3166 -0.0551
15023WAT      O61896   7.309   9.271   5.558  0.4150 -0.2771 -0.2371
15023WAT     H161897   7.253   9.217   5.613  3.4437  0.7520  4.5513
15023WAT     H261898   7.254   9.346   5.533 -1.2113 -0.8622  1.4032
15023WAT    EPW61899   7.295   9.274   5.562  0.6001 -0.2189  0.6106
15024WAT      O61900   4.276   7.327   7.229 -0.2182 -0.0405 -0.0038
15024WAT     H161901   4.365   7.354   7.208  0.4647 -0.8033  1.7835
15024WAT     H261902   4.263   7.245   7.180 -0.0749  0.2418 -0.5227
15024WAT    EPW61903   4.286   7.320   7.220 -0.1094 -0.1040  0.1633
15025WAT      O61904  10.379   2.431   6.201  0.2769 -0.1551  0.7160
15025WAT     H161905  10.415   2.365   6.142 -0.3689 -1.4877  1.7551
15025WAT     H261906  10.454   2.487   6.224  1.0219 -1.0256  0.4583
15025WAT    EPW61907  10.394   2.430   6.196  0.2904 -0.4457  0.8190
15026WAT      O61908   6.585   9.994   8.921 -0.8183  0.1363  0.5669
15026WAT     H161909   6.498  10.030   8.938 -1.6746 -2.1618  1.4826
15026WAT     H261910   6.575   9.943   8.840  0.2486  1.4888 -0.4718
15026WAT    EPW61911   6.572   9.992   8.913 -0.7906  0.0124  0.5503
15027WAT      O61912   7.828   6.335   6.335 -0.2483  0.6229  0.0774
15027WAT     H161913   7.915   6.311   6.304 -0.7857  1.0010 -1.8013
15027WAT     H261914   7.769   6.269   6.297 -0.9641  1.2470  0.0709
15027WAT    EPW61915   7.831   6.323   6.326 -0.4134  0.7551 -0.1714
15028WAT      O61916   0.809   5.470   0.065 -0.1902  0.6963  0.1413
15028WAT     H161917   0.753   5.547   0.071 -1.3227  0.0613 -1.5774
15028WAT     H261918   0.749   5.396   0.073  0.9779 -0.1073  2.7705
15028WAT    EPW61919   0.794   5.470   0.067 -0.1855  0.5066  0.2613
15029WAT      O61920   4.123   6.832   7.683 -0.2694 -0.1835 -0.8601
15029WAT     H161921   4.075   6.753   7.660 -1.7197  0.3363  0.2366
15029WAT     H261922   4.215   6.807   7.675 -0.6915 -1.9525 -0.6440
15029WAT    EPW61923   4.129   6.818   7.679 -0.5162 -0.3483 -0.6869
15030WAT      O61924   6.233   7.305   5.628  0.1843  0.6839 -0.3996
15030WAT     H161925   6.179   7.383   5.639 -0.3526  0.4017 -0.9731
15030WAT     H261926   6.213   7.274   5.540  0.4664 -0.0459 -0.2131
15030WAT    EPW61927   6.223   7.311   5.618  0.1509  0.5505 -0.4506
15031WAT      O61928   7.888   5.714   8.247  0.6430 -0.2848  0.2080
15031WAT     H161929   7.832   5.672   8.181  0.4560  1.1199 -0.5661
15031WAT     H261930   7.826   5.758   8.306  0.8667  0.8458 -0.3587
15031WAT    EPW61931   7.872   5.714   8.246  0.6480  0.0498  0.0310
15032WAT      O61932   3.745   9.635   8.221  0.2642  0.1941 -0.0900
15032WAT     H161933   3.729   9.578   8.297 -1.3377  1.4607  0.5896
15032WAT     H261934   3.767   9.719   8.260 -1.7477  1.1805 -0.9640
15032WAT    EPW61935   3.746   9.638   8.236 -0.2124  0.4916 -0.1159
15033WAT      O61936  10.864   0.613   4.177  0.1083 -0.0516  0.6087
15033WAT     H161937  10.772   0.586   4.177  0.2974 -0.7331  0.0494
15033WAT     H261938  10.884   0.630   4.269 -0.8681  1.1491  0.6166
15033WAT    EPW61939  10.854   0.612   4.189  0.0038  0.0169  0.5357
15034WAT      O61940   4.788   7.808   6.225 -0.4200 -0.9920 -0.2481
15034WAT     H161941   4.833   7.772   6.301  0.9573 -0.9697 -1.0063
15034WAT     H261942   4.858   7.822   6.161 -1.6118 -1.5766 -1.7361
15034WAT    EPW61943   4.803   7.805   6.227 -0.3958 -1.0662 -0.5441
15035WAT      O61944   3.944   7.821   7.839 -0.0776  0.7976 -0.1060
15035WAT     H161945   4.002   7.772   7.897  0.4211  3.2595  1.6006
15035WAT     H261946   3.998   7.893   7.806 -1.9631  2.8927  1.1454
15035WAT    EPW61947   3.959   7.824   7.842 -0.2605  1.3986  0.2840
15036WAT      O61948   9.770   5.784   8.734 -0.4388 -0.1761  0.2153
15036WAT     H161949   9.741   5.710   8.788  2.2088  0.4863  2.8395
15036WAT     H261950   9.823   5.838   8.793  0.9054  1.8345 -2.5520
15036WAT    EPW61951   9.773   5.781   8.749  0.0877  0.1764  0.1965
15037WAT      O61952   8.845   7.286   8.438  0.1244 -0.2247  0.4289
15037WAT     H161953   8.859   7.381   8.444 -1.1526 -0.0934  2.7461
15037WAT     H261954   8.845   7.257   8.529 -0.9835 -2.2270 -0.1573
15037WAT    EPW61955   8.847   7.295   8.451 -0.1898 -0.4718  0.6571
15038WAT      O61956   5.747   8.191   6.982 -0.2301 -0.1956 -0.4435
15038WAT     H161957   5.756   8.258   7.050  0.5543 -1.8522  1.1802
15038WAT     H261958   5.739   8.109   7.030 -0.8242 -1.3295 -2.3660
15038WAT    EPW61959   5.747   8.189   6.997 -0.2053 -0.5636 -0.4830
15039WAT      O61960   8.456   5.710   7.100  0.6074 -0.3655  0.4475
15039WAT     H161961   8.414   5.691   7.184 -2.0699  0.5169 -0.5724
15039WAT     H261962   8.389   5.755   7.050  2.5191  0.2088 -1.7690
15039WAT    EPW61963   8.442   5.713   7.104  0.5064 -0.1731  0.0207
15040WAT      O61964   2.528   0.553   0.380 -0.6109  0.2441  0.1975
15040WAT     H161965   2.575   0.620   0.431  1.3003 -0.2921 -0.7847
15040WAT     H261966   2.439   0.588   0.372 -0.1724  1.7435  1.3364
15040WAT    EPW61967   2.522   0.567   0.386 -0.3008  0.3711  0.2182
15041WAT      O61968   8.682  10.189   7.487  0.2955 -0.2667  0.1985
15041WAT     H161969   8.759  10.245   7.495 -0.4502  1.0822 -1.4692
15041WAT     H261970   8.608  10.251   7.489 -0.8359 -1.5613  2.3798
15041WAT    EPW61971   8.682  10.205   7.488  0.0477 -0.2594  0.2666
15042WAT      O61972   5.591   6.280   7.774  0.1077 -0.4956  0.5545
15042WAT     H161973   5.522   6.214   7.777 -0.3979  0.0560  1.4339
15042WAT     H261974   5.594   6.316   7.862 -1.1602  2.2138 -0.4163
15042WAT    EPW61975   5.582   6.276   7.786 -0.1261 -0.0656  0.5424
15043WAT      O61976   5.774   6.789   5.775  0.2766  0.0303  0.2063
15043WAT     H161977   5.702   6.824   5.722 -1.2010 -0.1288  1.9993
15043WAT     H261978   5.846   6.850   5.761 -0.9998  1.6197  0.2267
15043WAT    EPW61979   5.774   6.802   5.766 -0.0868  0.2189  0.4456
15044WAT      O61980   6.376   1.599   0.384 -0.2487  0.6953  0.0478
15044WAT     H161981   6.466   1.627   0.371 -0.3116  0.4570 -1.0128
15044WAT     H261982   6.375   1.559   0.471  0.2369  2.3391  0.8445
15044WAT    EPW61983   6.388   1.597   0.394 -0.1929  0.8807  0.0130
15045WAT      O61984   5.519   7.960   6.589  0.3213 -0.2227  0.3495
15045WAT     H161985   5.502   7.972   6.496  1.1485 -1.2103  0.0490
15045WAT     H261986   5.528   7.865   6.599 -0.9072 -0.2378  1.6454
15045WAT    EPW61987   5.518   7.949   6.578  0.2682 -0.3552  0.4809
15046WAT      O61988   5.193   7.725   8.246 -0.4813  0.4142 -0.3478
15046WAT     H161989   5.201   7.630   8.250 -3.5525  0.0876 -0.0571
15046WAT     H261990   5.269   7.757   8.296  0.6471 -1.8422 -0.5088
15046WAT    EPW61991   5.204   7.717   8.253 -0.7374  0.0734 -0.3309
15047WAT      O61992   2.303   7.997   4.648  0.4209  0.0259 -0.4443
15047WAT     H161993   2.375   7.939   4.674  0.9302  0.2616 -1.2909
15047WAT     H261994   2.328   8.029   4.562 -0.2933  0.7971 -0.3786
15047WAT    EPW61995   2.316   7.994   4.640  0.3940  0.1588 -0.5474
15048WAT      O61996   7.214   7.916   4.777  0.6460 -0.0404 -0.5632
15048WAT     H161997   7.281   7.981   4.796 -1.6976  2.1494  0.9003
15048WAT     H261998   7.142   7.966   4.738  0.2178 -2.4514 -3.2299
15048WAT    EPW61999   7.213   7.931   4.775  0.2806 -0.0694 -0.7219
15049WAT      O62000   4.359   2.017   0.556  0.6084  0.2259 -0.1449
15049WAT     H162001   4.416   2.088   0.528  3.0260 -0.7166  2.0532
15049WAT     H262002   4.392   1.991   0.642 -2.2924 -1.3494  0.6513
15049WAT    EPW62003   4.371   2.023   0.564  0.5445 -0.1061  0.2501
15050WAT      O62004   1.399   2.855   0.619 -0.0628  0.5131  0.6961
15050WAT     H162005   1.489   2.822   0.618  0.1281  0.9968  1.2729
15050WAT     H262006   1.391   2.905   0.537  0.4893  1.2244  1.0649
15050WAT    EPW62007   1.410   2.857   0.608  0.0351  0.6706  0.8208
15051WAT      O62008   5.998   2.364   4.692  0.1213  0.1895  0.0054
15051WAT     H162009   5.971   2.451   4.665  0.1577  0.0081 -0.6256
15051WAT     H262010   6.070   2.378   4.753 -2.5774  0.8263  3.4090
15051WAT    EPW62011   6.004   2.377   4.696 -0.2298  0.2495  0.3710
15052WAT      O62012   4.111   9.841   8.718  0.1315  1.2255 -0.1567
15052WAT     H162013   4.055   9.797   8.654  2.0750  1.0116 -1.8077
15052WAT     H262014   4.089   9.799   8.802 -3.1184  2.1307 -0.4209
15052WAT    EPW62015   4.100   9.830   8.721 -0.0408  1.3165 -0.4086
15053WAT      O62016   7.795   9.161   6.940  0.5906 -0.9328  0.3169
15053WAT     H162017   7.752   9.107   7.006  2.9470 -0.9568  1.9380
15053WAT     H262018   7.831   9.235   6.988 -0.2617  0.7457 -1.4657
15053WAT    EPW62019   7.794   9.163   6.955  0.7892 -0.7148  0.2956
15054WAT      O62020   3.092   8.994   4.694  0.8181 -0.0444  0.3035
15054WAT     H162021   3.159   8.930   4.671  1.0944 -0.4974  2.1804
15054WAT     H262022   3.121   9.029   4.779 -0.3439  1.1273  0.2385
15054WAT    EPW62023   3.105   8.990   4.702  0.7013  0.0501  0.5426
15055WAT      O62024   6.006   5.775   6.672  0.6123 -0.4012  0.1522
15055WAT     H162025   5.968   5.863   6.664  2.1526  0.5692  2.5541
15055WAT     H262026   6.015   5.745   6.582 -1.7876  1.0473 -0.6753
15055WAT    EPW62027   6.002   5.783   6.659  0.4990 -0.0823  0.3603
15056WAT      O62028   1.569   3.043   2.410  0.1872  0.8366 -0.4521
15056WAT     H162029   1.508   2.970   2.421  0.7275 -0.0457 -2.7213
15056WAT     H262030   1.513   3.120   2.402 -0.4579  0.4846  0.5029
15056WAT    EPW62031   1.554   3.043   2.410  0.1734  0.6739 -0.6255
15057WAT      O62032   6.371   7.052   4.332  0.0692 -0.5357  0.1694
15057WAT     H162033   6.426   6.974   4.322  0.9373  0.1497 -0.7413
15057WAT     H262034   6.372   7.070   4.426  0.7807 -0.9915  0.2636
15057WAT    EPW62035   6.379   7.044   4.343  0.2775 -0.5054  0.0618
15058WAT      O62036   7.075   0.361   8.943  0.1451 -0.0215  0.1185
15058WAT     H162037   6.985   0.332   8.925  0.0256  0.7515 -0.6032
15058WAT     H262038   7.084   0.353   9.037 -0.2913 -1.2137  0.0714
15058WAT    EPW62039   7.064   0.356   8.953  0.0718 -0.0768  0.0176
15059WAT      O62040   4.618   5.739   7.110 -0.8125  0.7302  0.0148
15059WAT     H162041   4.594   5.740   7.017  4.3673 -0.9916 -1.6748
15059WAT     H262042   4.652   5.651   7.125  1.3823  1.8694  2.6035
15059WAT    EPW62043   4.619   5.727   7.100  0.1600  0.6535  0.1338
15060WAT      O62044   4.452   9.052   4.541 -0.5756 -0.0491  0.1127
15060WAT     H162045   4.371   9.001   4.548  1.0743 -3.0008 -0.4038
15060WAT     H262046   4.521   8.987   4.550  1.7589  2.2283 -0.2739
15060WAT    EPW62047   4.450   9.037   4.543 -0.0501 -0.1383 -0.0067
15061WAT      O62048   4.996  10.265   4.392 -0.1208 -0.3842  0.2337
15061WAT     H162049   5.021  10.208   4.465  0.1765 -0.1899  0.2830
15061WAT     H262050   5.073  10.267   4.336 -0.1640 -0.1010  0.1857
15061WAT    EPW62051   5.009  10.257   4.394 -0.0870 -0.3214  0.2341
15062WAT      O62052   5.568   4.509   7.301  0.6830 -0.1270  0.5623
15062WAT     H162053   5.655   4.486   7.268 -0.7336 -1.6128 -2.4458
15062WAT     H262054   5.526   4.425   7.320 -0.9085  0.4145 -0.3568
15062WAT    EPW62055   5.574   4.495   7.299  0.2859 -0.2515  0.0443
15063WAT      O62056   3.831   8.448   6.253 -0.1831  0.7195  0.7111
15063WAT     H162057   3.915   8.425   6.293  0.6311  1.8450 -0.2653
15063WAT     H262058   3.784   8.496   6.321 -0.9915 -1.7189  2.0143
15063WAT    EPW62059   3.836   8.451   6.267 -0.1823  0.5465  0.7539
15064WAT      O62060   5.654   7.700   6.223  0.0937 -0.1817 -0.5719
15064WAT     H162061   5.595   7.634   6.186  1.4752 -1.4375 -0.6691
15064WAT     H262062   5.697   7.739   6.147  0.0944  0.0159 -0.4693
15064WAT    EPW62063   5.652   7.696   6.208  0.2759 -0.3211 -0.5713
15065WAT      O62064  10.303   2.282   0.910 -0.0235  0.7478 -0.0251
15065WAT     H162065  10.315   2.358   0.854  2.9691 -1.0686 -2.1936
15065WAT     H262066  10.210   2.260   0.902 -0.6628  3.3495 -0.3680
15065WAT    EPW62067  10.292   2.289   0.901  0.2875  0.8513 -0.3563
15066WAT      O62068   6.025   5.900   6.364 -0.1016  0.6907  0.0616
15066WAT     H162069   6.017   5.810   6.395 -0.5346  0.1279 -1.5455
15066WAT     H262070   5.973   5.952   6.425  0.5133 -0.0694  1.2584
15066WAT    EPW62071   6.017   5.895   6.376 -0.0777  0.5164  0.0074
15067WAT      O62072   1.012   2.329   0.519 -0.4172  0.5160  0.3123
15067WAT     H162073   1.099   2.316   0.481  0.4668  1.4590  1.8976
15067WAT     H262074   0.962   2.252   0.491  1.1453 -0.4267 -0.0209
15067WAT    EPW62075   1.017   2.317   0.510 -0.0945  0.5159  0.4775
15068WAT      O62076   6.081   6.949   5.669 -0.9080  0.0839 -0.3459
15068WAT     H162077   6.062   7.031   5.716  1.1065 -0.0438  0.8269
15068WAT     H262078   6.169   6.963   5.634 -1.1404 -1.0422 -1.4216
15068WAT    EPW62079   6.090   6.962   5.671 -0.6728 -0.0818 -0.3331
15069WAT      O62080   7.989   0.308   7.507 -0.4317 -0.9925 -0.0025
15069WAT     H162081   8.021   0.251   7.437  0.8619 -0.7805  0.3931
15069WAT     H262082   7.902   0.335   7.478  0.1194 -0.8192 -1.5843
15069WAT    EPW62083   7.981   0.304   7.494 -0.1884 -0.9417 -0.1588
15070WAT      O62084   3.818   8.038   7.605  0.1947  0.7037  0.1568
15070WAT     H162085   3.733   8.081   7.602 -1.2825 -1.9310  1.0118
15070WAT     H262086   3.870   8.091   7.665 -1.4961  1.3578  1.1161
15070WAT    EPW62087   3.813   8.051   7.612 -0.2233  0.4425  0.3960
15071WAT      O62088   6.689   6.721   7.842  0.8350 -0.2590  0.7163
15071WAT     H162089   6.690   6.799   7.786 -1.5221 -0.9685 -0.4519
15071WAT     H262090   6.663   6.650   7.784 -0.8992 -1.1729  2.4969
15071WAT    EPW62091   6.686   6.722   7.827  0.2954 -0.4733  0.7970
15072WAT      O62092   8.114   8.394   7.731  0.5477  0.1155  0.3484
15072WAT     H162093   8.024   8.420   7.749  0.3439 -0.6239  0.4648
15072WAT     H262094   8.154   8.470   7.688  0.3009  0.9708  1.5981
15072WAT    EPW62095   8.108   8.407   7.727  0.4878  0.1307  0.5286
15073WAT      O62096   7.443   0.665   6.816  0.3571  0.0721  0.3117
15073WAT     H162097   7.366   0.665   6.760  1.9454 -0.8166 -2.0812
15073WAT     H262098   7.461   0.757   6.833  0.8048  0.5393 -2.2526
15073WAT    EPW62099   7.435   0.677   6.810  0.6254  0.0165 -0.3419
15074WAT      O62100   6.045   7.384   6.877  0.2734  0.8494  0.6526
15074WAT     H162101   6.039   7.408   6.969 -0.9932  1.8404  0.3305
15074WAT     H262102   6.075   7.293   6.879 -0.2872  0.6580  2.0624
15074WAT    EPW62103   6.048   7.375   6.889  0.0322  0.9549  0.7963
15075WAT      O62104   7.818   9.913   7.875  0.3009  0.3432  0.5279
15075WAT     H162105   7.854  10.000   7.895  2.7406 -0.6198  0.7437
15075WAT     H262106   7.833   9.902   7.781  1.6751 -0.4763  0.8062
15075WAT    EPW62107   7.825   9.923   7.865  0.8042  0.1078  0.5929
15076WAT      O62108   2.989   8.266   7.638 -0.2247 -0.0022 -0.4317
15076WAT     H162109   3.009   8.259   7.731  0.4350 -0.8440 -0.6241
15076WAT     H262110   2.920   8.201   7.623 -2.1551  1.8406 -0.0740
15076WAT    EPW62111   2.982   8.257   7.648 -0.3923  0.1302 -0.4096
15077WAT      O62112  10.045   0.381   6.167 -0.2343 -0.0126 -0.5082
15077WAT     H162113  10.130   0.394   6.210  0.3636 -0.7954 -1.4015
15077WAT     H262114  10.064   0.322   6.094 -1.3843  0.5318 -1.2882
15077WAT    EPW62115  10.059   0.375   6.163 -0.3071 -0.0441 -0.7288
15078WAT      O62116   7.026   6.326   7.208  0.1347  0.2250 -0.0309
15078WAT     H162117   7.098   6.285   7.255  0.1617  0.7849  0.4303
15078WAT     H262118   6.948   6.308   7.261  0.1920  1.0004  0.3251
15078WAT    EPW62119   7.025   6.318   7.221  0.1457  0.4008  0.0768
15079WAT      O62120   8.915   1.468   5.688  0.9184  0.0327 -0.5051
15079WAT     H162121   8.850   1.419   5.638  0.6136 -0.1932  0.0947
15079WAT     H262122   8.864   1.537   5.731  0.9698 -0.5244  0.4648
15079WAT    EPW62123   8.899   1.471   5.687  0.8850 -0.0706 -0.2983
15080WAT      O62124   8.884   7.936   8.126  0.0101 -0.1781 -0.4210
15080WAT     H162125   8.897   8.031   8.119 -0.9314 -0.0821 -1.0569
15080WAT     H262126   8.957   7.906   8.179  0.3343  0.9055 -0.2254
15080WAT    EPW62127   8.895   7.945   8.132 -0.0720 -0.0224 -0.4797
15081WAT      O62128   4.765   9.616   7.561  0.0369 -0.0885 -0.4562
15081WAT     H162129   4.803   9.533   7.589 -1.3290 -0.6745 -0.2572
15081WAT     H262130   4.728   9.653   7.641 -0.2384  0.2218 -0.7259
15081WAT    EPW62131   4.765   9.610   7.575 -0.1798 -0.1249 -0.4654
15082WAT      O62132   8.112   8.160   5.003  0.3418 -0.0825 -0.4773
15082WAT     H162133   8.071   8.121   5.080 -1.9964  0.3177 -1.4423
15082WAT     H262134   8.184   8.213   5.038 -0.5986  0.0225  1.4166
15082WAT    EPW62135   8.116   8.162   5.018 -0.0911 -0.0157 -0.3548
15083WAT      O62136   7.651   7.305   4.811 -0.3973 -0.1593 -0.1005
15083WAT     H162137   7.696   7.365   4.752  0.5421  0.2369  0.9733
15083WAT     H262138   7.578   7.357   4.846 -0.1982  0.0339  0.0377
15083WAT    EPW62139   7.647   7.320   4.808 -0.2470 -0.0818  0.0594
15084WAT      O62140   9.183   9.982   7.200  0.5700 -0.4964  0.3235
15084WAT     H162141   9.147  10.013   7.283  0.3774 -1.1552  0.4936
15084WAT     H262142   9.130  10.024   7.133 -0.1746 -1.0273  0.5653
15084WAT    EPW62143   9.172   9.991   7.202  0.4468 -0.6537  0.3779
15085WAT      O62144   2.962   3.144   7.238 -0.2606 -0.1241 -0.2403
15085WAT     H162145   3.056   3.160   7.245  0.4127 -3.1762 -1.0628
15085WAT     H262146   2.923   3.206   7.300  2.3826  0.2651  1.1740
15085WAT    EPW62147   2.969   3.154   7.247  0.1769 -0.4752 -0.1621
15086WAT      O62148   4.915   8.786   6.351  0.2151  0.2935  0.0323
15086WAT     H162149   4.975   8.787   6.426 -1.3986 -3.7546  1.6646
15086WAT     H262150   4.845   8.846   6.376  0.9954  1.0015  0.5553
15086WAT    EPW62151   4.914   8.794   6.364  0.1051 -0.1469  0.3164
15087WAT      O62152   3.048   7.588   2.614  0.6755  0.0937  1.2284
15087WAT     H162153   3.077   7.515   2.559  0.3786 -0.1636  1.4073
15087WAT     H262154   2.991   7.547   2.679  0.2523  0.5284  1.1351
15087WAT    EPW62155   3.044   7.573   2.616  0.5805  0.1171  1.2398
15088WAT      O62156   8.702   8.162   4.859 -0.2581  0.0028 -0.6686
15088WAT     H162157   8.659   8.128   4.938 -0.6449 -1.1722 -1.3612
15088WAT     H262158   8.651   8.127   4.787 -0.1813  1.4443 -1.4618
15088WAT    EPW62159   8.689   8.153   4.860 -0.2995  0.0381 -0.8645
15089WAT      O62160  10.472   9.224   6.379  0.7566 -0.0948  0.6046
15089WAT     H162161  10.535   9.180   6.322 -0.0992 -2.0095  1.0560
15089WAT     H262162  10.443   9.300   6.328  1.0375 -0.9830 -0.9534
15089WAT    EPW62163  10.476   9.229   6.364  0.6804 -0.4640  0.4587
15090WAT      O62164   9.624   2.161   6.201 -0.0486 -0.4851 -0.0796
15090WAT     H162165   9.700   2.118   6.241  1.0422  0.5069 -1.0340
15090WAT     H262166   9.643   2.163   6.108 -0.7386  0.7626 -0.2173
15090WAT    EPW62167   9.636   2.155   6.194  0.0048 -0.1897 -0.2234
15091WAT      O62168   9.164   1.251   7.706  0.8865  0.5563 -0.3389
15091WAT     H162169   9.203   1.316   7.764  0.1925 -0.5413  1.4380
15091WAT     H262170   9.070   1.270   7.707  0.6968 -0.3460  0.0654
15091WAT    EPW62171   9.157   1.262   7.713  0.7706  0.2925 -0.0513
15092WAT      O62172   7.398   8.629   6.670  0.5604 -0.2002 -0.3851
15092WAT     H162173   7.461   8.631   6.742 -1.2098 -0.9142  1.2924
15092WAT     H262174   7.451   8.616   6.592  2.4835 -0.7301  0.9266
15092WAT    EPW62175   7.413   8.627   6.669  0.5805 -0.3643  0.0091
15093WAT      O62176   4.606   3.173   0.923  0.4380 -0.0503  0.7853
15093WAT     H162177   4.554   3.253   0.919  2.4445  1.6527  4.2675
15093WAT     H262178   4.543   3.104   0.944 -1.0928  0.8508 -0.6037
15093WAT    EPW62179   4.591   3.175   0.925  0.5007  0.2931  1.0614
15094WAT      O62180   7.230   7.977   3.552 -0.0537 -0.7959 -0.5096
15094WAT     H162181   7.191   7.947   3.634  1.0704 -1.3983 -0.1640
15094WAT     H262182   7.305   8.030   3.579 -0.1339 -0.3428 -1.1464
15094WAT    EPW62183   7.235   7.980   3.566  0.0839 -0.8154 -0.5481
15095WAT      O62184   7.898   7.267   7.288 -0.6318 -0.0982  0.2825
15095WAT     H162185   7.953   7.210   7.342 -1.3279 -2.2946 -1.1789
15095WAT     H262186   7.808   7.241   7.309 -0.9954  0.8017 -0.0858
15095WAT    EPW62187   7.893   7.256   7.298 -0.7715 -0.2694  0.0412
15096WAT      O62188   3.881   7.667   8.163 -0.3398 -0.3998  0.2155
15096WAT     H162189   3.943   7.710   8.222  0.8605  2.3341 -2.6882
15096WAT     H262190   3.799   7.716   8.175  0.0662  0.5412 -0.6992
15096WAT    EPW62191   3.878   7.679   8.172 -0.1279  0.0849 -0.2880
15097WAT      O62192  10.162   0.685   3.846  0.6029 -0.3005  0.1564
15097WAT     H162193  10.115   0.723   3.772 -0.5845  0.4835  1.2656
15097WAT     H262194  10.116   0.602   3.863  0.1336  0.0591  0.7003
15097WAT    EPW62195  10.149   0.679   3.839  0.3843 -0.1497  0.3746
15098WAT      O62196   6.409   5.048   7.967  0.2009 -0.5216 -0.2912
15098WAT     H162197   6.369   4.990   7.902 -0.0395  0.4946 -1.0773
15098WAT     H262198   6.339   5.065   8.030 -0.1414 -0.0378 -0.7879
15098WAT    EPW62199   6.394   5.043   7.966  0.1240 -0.3240 -0.4604
15099WAT      O62200   8.838   2.731   6.151  0.4775  0.4394 -0.6005
15099WAT     H162201   8.813   2.728   6.243  0.8401  1.6802 -0.4510
15099WAT     H262202   8.844   2.824   6.129  3.4571  0.2746 -1.0025
15099WAT    EPW62203   8.836   2.742   6.160  0.9189  0.5813 -0.6337
15100WAT      O62204   4.413   6.969   5.200 -0.3996 -1.0628  0.3520
15100WAT     H162205   4.420   6.930   5.287  0.6832 -1.1649  0.2320
15100WAT     H262206   4.481   6.925   5.148  0.5401  0.6078  0.0709
15100WAT    EPW62207   4.423   6.958   5.204 -0.1328 -0.8559  0.2995
15101WAT      O62208   5.775   6.664   7.887 -0.6052 -0.6577  0.0298
15101WAT     H162209   5.779   6.608   7.964 -2.5475  0.2484  0.8552
15101WAT     H262210   5.746   6.749   7.920 -0.5546  0.0233 -1.5675
15101WAT    EPW62211   5.771   6.667   7.901 -0.8545 -0.4485 -0.0720
15102WAT      O62212  10.057   7.394   7.077 -0.6839  0.6205 -0.2814
15102WAT     H162213   9.984   7.418   7.019 -1.4468 -2.8509 -0.9881
15102WAT     H262214  10.134   7.425   7.030 -1.5314  1.8141 -0.9609
15102WAT    EPW62215  10.057   7.401   7.063 -0.8965  0.3200 -0.4642
15103WAT      O62216   2.729   9.452   8.254 -0.0426  0.0564  0.3233
15103WAT     H162217   2.795   9.516   8.228  2.5487 -2.5979 -0.1689
15103WAT     H262218   2.717   9.467   8.348  1.0534  0.7831  0.3726
15103WAT    EPW62219   2.736   9.462   8.263  0.4437 -0.1984  0.2651
15104WAT      O62220   3.948   9.065   6.353  0.2335 -0.3304  0.1878
15104WAT     H162221   4.018   9.002   6.369 -1.7137 -2.7590 -0.2020
15104WAT     H262222   3.986   9.150   6.374  2.6315 -1.7432  1.9808
15104WAT    EPW62223   3.962   9.068   6.358  0.2930 -0.8364  0.3729
15105WAT      O62224   4.458   8.090   6.345 -0.3906 -0.1799  0.3749
15105WAT     H162225   4.493   8.125   6.427  1.3485  0.5346 -0.6149
15105WAT     H262226   4.472   7.995   6.350  0.0020 -0.0971  0.7625
15105WAT    EPW62227   4.464   8.082   6.356 -0.1094 -0.0744  0.2952
15106WAT      O62228   9.583   0.430   6.373 -0.4629 -0.4682  0.2669
15106WAT     H162229   9.490   0.453   6.368 -0.9614 -2.3301 -3.5575
15106WAT     H262230   9.629   0.513   6.363 -1.7648  0.2739  0.1765
15106WAT    EPW62231   9.577   0.444   6.371 -0.7000 -0.6159 -0.2494
15107WAT      O62232   6.572   7.464   8.656  0.5646 -0.1269  0.2250
15107WAT     H162233   6.493   7.417   8.681  0.6926 -0.8616 -0.7090
15107WAT     H262234   6.642   7.421   8.705  0.4316  0.3622  0.8601
15107WAT    EPW62235   6.571   7.453   8.666  0.5639 -0.1597  0.1855
15108WAT      O62236   8.128   0.502   7.657  0.4253  0.0593  0.3949
15108WAT     H162237   8.085   0.477   7.739 -0.8388  0.4280 -0.1300
15108WAT     H262238   8.113   0.428   7.598  0.3460  0.2732  0.1430
15108WAT    EPW62239   8.121   0.489   7.660  0.2484  0.1362  0.2928
15109WAT      O62240   5.187   4.924   1.412 -0.3705  0.4367 -0.3150
15109WAT     H162241   5.245   4.945   1.486 -1.3401  0.1360  0.5568
15109WAT     H262242   5.222   4.975   1.339  1.3000 -0.1275  0.0477
15109WAT    EPW62243   5.199   4.933   1.412 -0.2782  0.3226 -0.1522
15110WAT      O62244   6.975   7.554   7.297  0.3343 -0.0188 -0.5211
15110WAT     H162245   7.050   7.503   7.328  1.3301  1.3601 -0.5123
15110WAT     H262246   6.899   7.511   7.335  1.1558 -1.1843 -0.1223
15110WAT    EPW62247   6.975   7.542   7.306  0.5739  0.0093 -0.4675
15111WAT      O62248   5.861   7.582   5.864 -0.1860 -0.3147 -0.1915
15111WAT     H162249   5.917   7.535   5.926 -1.1812  0.0681  1.0276
15111WAT     H262250   5.779   7.533   5.864 -0.2432 -0.2386 -1.1418
15111WAT    EPW62251   5.858   7.569   5.872 -0.3247 -0.2542 -0.1562
15112WAT      O62252   7.556   4.092   0.259  0.1811 -0.0190  0.0358
15112WAT     H162253   7.477   4.058   0.301 -0.8941  0.7481 -1.3221
15112WAT     H262254   7.626   4.071   0.321 -0.7797 -2.4003  0.4396
15112WAT    EPW62255   7.555   4.085   0.273 -0.0875 -0.2317 -0.0901
15113WAT      O62256   5.602   7.740   6.892  0.4970 -0.1305  0.1877
15113WAT     H162257   5.586   7.715   6.801 -0.3802 -0.7453  0.5005
15113WAT     H262258   5.637   7.661   6.933  2.1846  0.5100  0.0935
15113WAT    EPW62259   5.605   7.726   6.885  0.6039 -0.1273  0.2165
15114WAT      O62260   6.032   8.091   6.612  0.0128 -0.2639 -0.1454
15114WAT     H162261   6.055   8.002   6.583  2.1185  0.2621 -0.2642
15114WAT     H262262   6.114   8.126   6.646 -0.9618  1.3993  0.5850
15114WAT    EPW62263   6.046   8.084   6.613  0.1619  0.0243 -0.0646
15115WAT      O62264   7.394   7.475   6.558 -0.4983  0.2477 -0.8877
15115WAT     H162265   7.458   7.409   6.585 -0.0709  0.3203 -1.7025
15115WAT     H262266   7.316   7.424   6.535 -0.0447 -0.0210 -1.8794
15115WAT    EPW62267   7.392   7.460   6.558 -0.3819  0.2220 -1.1261
15116WAT      O62268   5.021   5.872   6.610  0.3296 -0.3781 -0.7730
15116WAT     H162269   5.090   5.900   6.671  0.9362 -1.9094 -0.7282
15116WAT     H262270   5.029   5.931   6.536  0.6415  0.4677 -0.0833
15116WAT    EPW62271   5.031   5.884   6.608  0.4508 -0.4685 -0.6762
15117WAT      O62272   8.520   9.630   8.789  0.6705  0.5775 -0.2348
15117WAT     H162273   8.604   9.636   8.833  0.1361  0.1718  0.8679
15117WAT     H262274   8.486   9.720   8.789  1.4252  0.8890 -1.3858
15117WAT    EPW62275   8.526   9.643   8.795  0.6995  0.5651 -0.2408
15118WAT      O62276   6.115   6.984   8.285  0.8783  0.2168  0.0368
15118WAT     H162277   6.086   6.970   8.195  0.1402  0.9298  0.1498
15118WAT     H262278   6.137   6.897   8.317 -3.9030 -0.9800  0.8616
15118WAT    EPW62279   6.114   6.971   8.277  0.1504  0.1531  0.1607
15119WAT      O62280   6.150   9.415   7.671  0.3443 -0.7863  0.2945
15119WAT     H162281   6.240   9.427   7.641 -0.7140  1.7408 -2.3856
15119WAT     H262282   6.150   9.449   7.761  2.0845 -1.0712  0.4321
15119WAT    EPW62283   6.162   9.421   7.679  0.4344 -0.4902 -0.0408
15120WAT      O62284   1.930   6.712   2.298 -0.1014  0.6396  0.6370
15120WAT     H162285   1.892   6.625   2.293 -1.0130  0.8670  2.6886
15120WAT     H262286   2.001   6.704   2.361  0.3336  1.2218  0.2375
15120WAT    EPW62287   1.934   6.700   2.305 -0.1643  0.7465  0.8550
15121WAT      O62288   0.645   1.312   7.062 -0.1097 -0.7761  0.4626
15121WAT     H162289   0.566   1.291   7.113 -1.0785  2.1043  0.3102
15121WAT     H262290   0.717   1.296   7.123 -0.9128 -1.6086  1.2454
15121WAT    EPW62291   0.644   1.307   7.077 -0.3434 -0.5060  0.5457
15122WAT      O62292   7.429   9.182   5.347  0.1581 -0.7282  0.0361
15122WAT     H162293   7.468   9.112   5.400  0.2997 -0.6233  0.0717
15122WAT     H262294   7.366   9.223   5.405  0.4009 -0.5338  0.1657
15122WAT    EPW62295   7.426   9.178   5.362  0.2089 -0.6890  0.0579
15123WAT      O62296   6.268   9.317   8.609  0.1979 -0.1421 -0.2696
15123WAT     H162297   6.222   9.303   8.527 -0.6550 -1.7866  0.4325
15123WAT     H262298   6.347   9.263   8.602 -1.8073 -3.6471  1.4226
15123WAT    EPW62299   6.272   9.308   8.598 -0.1788 -0.8216  0.0463
15124WAT      O62300   3.499   3.906   0.649  0.2036 -0.7234  0.1256
15124WAT     H162301   3.570   3.912   0.712 -0.4299 -0.9664  0.8890
15124WAT     H262302   3.510   3.820   0.609  0.6917 -0.5111 -0.2019
15124WAT    EPW62303   3.509   3.895   0.652  0.1844 -0.7273  0.1831
15125WAT      O62304   1.674   5.593   2.027  0.3892 -0.1764 -0.3873
15125WAT     H162305   1.740   5.642   2.077  0.2474  1.2743 -1.5677
15125WAT     H262306   1.660   5.514   2.078  1.8846  0.2239  0.7124
15125WAT    EPW62307   1.681   5.589   2.040  0.5677  0.0677 -0.3979
15126WAT      O62308   3.748   2.662   1.064  0.1427 -0.5385 -0.3336
15126WAT     H162309   3.668   2.626   1.101 -0.0356 -2.1630 -2.1530
15126WAT     H262310   3.719   2.707   0.984  1.1090 -2.0841 -1.6092
15126WAT    EPW62311   3.733   2.663   1.058  0.2466 -0.9565 -0.7418
15127WAT      O62312   5.493   7.907   7.653  0.1861  0.2113 -0.3257
15127WAT     H162313   5.440   7.983   7.629  0.4434  0.0621 -1.3911
15127WAT     H262314   5.580   7.942   7.669 -0.0343  0.3423  0.6483
15127WAT    EPW62315   5.497   7.922   7.652  0.1907  0.2089 -0.3376
15128WAT      O62316   5.900   8.661   8.524 -0.2540 -0.1977  0.2816
15128WAT     H162317   5.879   8.749   8.556 -0.6005  0.0378 -0.5553
15128WAT     H262318   5.916   8.610   8.603  2.4080  1.1799  0.7588
15128WAT    EPW62319   5.899   8.666   8.539  0.0517  0.0153  0.2337
15129WAT      O62320   9.667   2.174   5.169 -1.1339  0.3052 -0.6724
15129WAT     H162321   9.578   2.209   5.165 -1.2875  0.1040  0.4310
15129WAT     H262322   9.654   2.081   5.190 -0.6673  0.2752 -0.5233
15129WAT    EPW62323   9.653   2.166   5.172 -1.0929  0.2747 -0.5071
15130WAT      O62324   8.724   6.433   6.459 -0.6538  0.4130  0.3864
15130WAT     H162325   8.692   6.347   6.486  0.0147 -0.2624 -0.8710
15130WAT     H262326   8.811   6.441   6.498 -0.7161  0.5272  0.5041
15130WAT    EPW62327   8.731   6.423   6.467 -0.5736  0.3390  0.2360
15131WAT      O62328   9.081   9.719   5.450  0.0776 -0.1328 -0.5853
15131WAT     H162329   9.065   9.796   5.504 -0.0826  0.5874 -1.6420
15131WAT     H262330   9.036   9.737   5.368 -3.1054 -2.8700  0.3374
15131WAT    EPW62331   9.073   9.731   5.446 -0.3633 -0.3991 -0.6027
15132WAT      O62332   4.551   8.210   4.402  0.4807  0.7126 -0.6701
15132WAT     H162333   4.471   8.190   4.450 -0.1987  0.6984 -1.7658
15132WAT     H262334   4.621   8.202   4.467 -0.4971  1.7729  0.5891
15132WAT    EPW62335   4.549   8.207   4.417  0.2620  0.8507 -0.6483
15133WAT      O62336   5.389   6.828   7.868 -0.2577 -0.3821 -0.0785
15133WAT     H162337   5.373   6.813   7.775  0.0182  1.9830 -0.5586
15133WAT     H262338   5.349   6.913   7.887  3.4274  1.3216  0.8733
15133WAT    EPW62339   5.381   6.837   7.859  0.2646  0.1543 -0.0162
15134WAT      O62340   6.844   0.624   6.334 -0.5260 -0.4370 -0.5767
15134WAT     H162341   6.749   0.635   6.341 -1.0154 -2.5168 -2.6019
15134WAT     H262342   6.872   0.601   6.422 -2.3117 -2.0461 -0.3633
15134WAT    EPW62343   6.835   0.623   6.346 -0.8259 -0.9236 -0.8156
15135WAT      O62344   4.048   2.040   0.186 -0.3156  0.3860  0.3516
15135WAT     H162345   4.006   2.126   0.186  3.2877  2.6426 -5.0558
15135WAT     H262346   4.114   2.046   0.255 -2.7816  0.0435  2.9523
15135WAT    EPW62347   4.051   2.052   0.195 -0.1655  0.6385 -0.0186
15136WAT      O62348   5.697   6.778   3.999 -0.2219 -1.0174 -0.0013
15136WAT     H162349   5.772   6.723   3.977  0.8617 -0.2137  1.5461
15136WAT     H262350   5.724   6.867   3.975 -0.8190 -0.7635  0.2552
15136WAT    EPW62351   5.710   6.782   3.993 -0.1576 -0.8779  0.2366
15137WAT      O62352   6.200   9.015   8.444  0.5262 -0.2237  0.7895
15137WAT     H162353   6.254   8.943   8.411  1.2114  0.5417  0.1990
15137WAT     H262354   6.145   8.975   8.511  0.0907 -1.5215 -0.3254
15137WAT    EPW62355   6.200   9.000   8.449  0.5591 -0.2937  0.5646
15138WAT      O62356   5.362   6.806   1.068 -0.6673  0.2544  0.5168
15138WAT     H162357   5.384   6.774   0.981  3.7384  1.8535  0.8274
15138WAT     H262358   5.289   6.750   1.096 -0.0886 -2.5168 -2.8528
15138WAT    EPW62359   5.355   6.794   1.060 -0.0100  0.0997  0.1134
15139WAT      O62360   6.321   8.564   6.003  1.0956 -0.0991  0.3721
15139WAT     H162361   6.261   8.551   6.076 -1.0816  3.7374 -0.4941
15139WAT     H262362   6.399   8.602   6.043 -0.2475  2.3809  0.8012
15139WAT    EPW62363   6.324   8.567   6.018  0.6311  0.7343  0.3145
15140WAT      O62364   5.803   9.085   6.428 -0.1858  0.1178  0.2192
15140WAT     H162365   5.813   9.178   6.449  2.7487 -0.7002  3.2689
15140WAT     H262366   5.880   9.064   6.376  0.0828 -0.9357  1.0145
15140WAT    EPW62367   5.814   9.095   6.424  0.2365 -0.1287  0.7262
15141WAT      O62368   4.604   8.716   5.934 -0.0502  0.1336 -0.1843
15141WAT     H162369   4.656   8.637   5.921  1.5566  0.5569  2.8719
15141WAT     H262370   4.667   8.788   5.926 -1.1823  1.0575 -1.2810
15141WAT    EPW62371   4.619   8.716   5.931  0.0124  0.3119  0.0741
15142WAT      O62372   7.547   7.728   7.982 -0.5171 -0.3806  0.0208
15142WAT     H162373   7.620   7.782   8.010  0.2772 -2.3793  2.2035
15142WAT     H262374   7.585   7.641   7.968 -2.2604 -1.2033  0.0920
15142WAT    EPW62375   7.561   7.724   7.984 -0.6423 -0.7529  0.3181
15143WAT      O62376   9.995   0.291   7.734  0.1894 -1.3986 -0.2416
15143WAT     H162377   9.972   0.282   7.827  0.3927  1.0023  0.1120
15143WAT     H262378   9.918   0.260   7.687 -1.4805  0.7824  0.8394
15143WAT    EPW62379   9.982   0.286   7.740 -0.0038 -0.7942 -0.0525
15144WAT      O62380   6.605   6.114   6.647 -0.3309 -0.0135  0.2532
15144WAT     H162381   6.647   6.072   6.723  1.1757 -0.9968 -1.0555
15144WAT     H262382   6.594   6.043   6.584 -0.9063  0.9191 -0.7256
15144WAT    EPW62383   6.609   6.099   6.649 -0.2081 -0.0203 -0.0484
15145WAT      O62384   7.416   0.337   8.325  0.4341 -0.4493 -0.5612
15145WAT     H162385   7.420   0.413   8.267 -1.4956 -0.4557 -0.7642
15145WAT     H262386   7.368   0.271   8.275  1.0770 -1.4018  0.0499
15145WAT    EPW62387   7.410   0.339   8.311  0.2644 -0.5758 -0.5074
15146WAT      O62388   1.732   3.854   0.967  0.6819 -0.1166  0.5662
15146WAT     H162389   1.715   3.812   0.882 -0.5365  0.2954  0.5928
15146WAT     H262390   1.749   3.945   0.945  0.2611  0.0111  0.7738
15146WAT    EPW62391   1.732   3.860   0.953  0.4657 -0.0455  0.5971
15147WAT      O62392   8.050  10.013   4.743 -0.0838 -0.0704  0.1419
15147WAT     H162393   7.987   9.941   4.745 -0.6455  0.4184  1.1928
15147WAT     H262394   8.002  10.085   4.701  0.3971 -0.2287 -0.6975
15147WAT    EPW62395   8.035  10.013   4.738 -0.0944 -0.0267  0.1700
15148WAT      O62396   0.662   0.955   7.642  0.6395  0.6715  0.2931
15148WAT     H162397   0.676   0.978   7.734  0.0953 -0.2913  0.6275
15148WAT     H262398   0.711   0.874   7.631 -0.7283 -0.1634  0.2136
15148WAT    EPW62399   0.671   0.947   7.653  0.3873  0.4344  0.3269
15149WAT      O62400   6.321   7.468   7.112  0.2755  0.1046  0.2046
15149WAT     H162401   6.228   7.445   7.109  0.8165 -2.3170 -2.5807
15149WAT     H262402   6.353   7.424   7.191 -0.7316  0.0733  0.6213
15149WAT    EPW62403   6.313   7.459   7.122  0.2143 -0.2189 -0.1075
15150WAT      O62404   2.662   6.357   0.305 -0.4468 -0.3759  0.0546
15150WAT     H162405   2.665   6.397   0.218  1.7708 -0.9606 -0.1946
15150WAT     H262406   2.582   6.304   0.305 -1.1836  0.6718 -1.1105
15150WAT    EPW62407   2.652   6.355   0.294 -0.2514 -0.3150 -0.1320
15151WAT      O62408   8.110   9.699   6.564  0.2839 -0.1560  0.2125
15151WAT     H162409   8.088   9.755   6.638  0.4735 -0.9101  0.8521
15151WAT     H262410   8.094   9.753   6.487 -1.8638 -0.0042  0.7091
15151WAT    EPW62411   8.105   9.713   6.564  0.0257 -0.2351  0.3624
15152WAT      O62412   5.548   7.297   7.894 -0.9414 -0.6623  0.1724
15152WAT     H162413   5.505   7.226   7.847 -1.0283 -1.1342  0.9396
15152WAT     H262414   5.483   7.327   7.958 -0.3990 -0.9063  0.8578
15152WAT    EPW62415   5.534   7.292   7.896 -0.8812 -0.7567  0.3641
15153WAT      O62416   4.076   8.616   4.605  0.6812 -0.2990  0.6572
15153WAT     H162417   4.020   8.610   4.683 -0.2347  0.9794  0.1204
15153WAT     H262418   4.126   8.535   4.607 -0.3639 -0.9662  1.7872
15153WAT    EPW62419   4.075   8.604   4.616  0.4225 -0.2184  0.7353
15154WAT      O62420   3.364   0.993   1.277 -0.6349 -0.1660 -0.2824
15154WAT     H162421   3.415   0.945   1.342 -2.1781 -0.1468  1.0021
15154WAT     H262422   3.275   0.959   1.287 -1.4412  1.7562 -0.5051
15154WAT    EPW62423   3.359   0.982   1.287 -0.9447  0.0901 -0.1424
15155WAT      O62424   5.817   8.815   6.676 -0.0615  0.3114  0.1324
15155WAT     H162425   5.906   8.818   6.643 -0.1284 -0.4457 -0.1574
15155WAT     H262426   5.763   8.803   6.597 -0.1970 -1.9194  0.4906
15155WAT    EPW62427   5.821   8.813   6.661 -0.0882 -0.0825  0.1416
15156WAT      O62428   3.227   6.047   0.150  0.0548 -0.3711  0.4854
15156WAT     H162429   3.285   6.123   0.153 -1.1754  0.8378 -2.5102
15156WAT     H262430   3.156   6.069   0.210 -0.1412  0.7497 -0.1371
15156WAT    EPW62431   3.225   6.060   0.158 -0.1334 -0.0639  0.0082
15157WAT      O62432   5.792   7.982   8.258  0.0267  0.2881  0.4545
15157WAT     H162433   5.862   8.020   8.311  0.8941 -0.8981  0.1840
15157WAT     H262434   5.819   7.892   8.243 -1.1940  0.0282 -0.3083
15157WAT    EPW62435   5.805   7.975   8.263 -0.0196  0.0975  0.3181
15158WAT      O62436   0.696   0.907   4.054  0.8340  0.3212 -0.5940
15158WAT     H162437   0.669   0.995   4.077  0.7528  0.0144  0.5119
15158WAT     H262438   0.743   0.875   4.131 -1.8419 -1.7626  0.3396
15158WAT    EPW62439   0.699   0.914   4.067  0.4704  0.0059 -0.3252
15159WAT      O62440   5.204   7.762   6.795 -0.4383  0.0588  0.2796
15159WAT     H162441   5.250   7.720   6.868 -0.7630  0.4029  0.6826
15159WAT     H262442   5.242   7.849   6.789  0.0402 -0.1866 -0.3815
15159WAT    EPW62443   5.215   7.768   6.803 -0.4179  0.0720  0.2453
15160WAT      O62444   5.694   8.689   6.458 -1.0493 -0.5944  0.1093
15160WAT     H162445   5.726   8.609   6.415 -2.2319 -1.5144  0.8667
15160WAT     H262446   5.607   8.665   6.491 -0.7027  0.4476  1.9155
15160WAT    EPW62447   5.687   8.675   6.456 -1.1594 -0.5784  0.4475
15161WAT      O62448   5.002   9.987   7.959  0.0137 -0.4630 -0.4167
15161WAT     H162449   4.977   9.895   7.952  1.7947 -1.2338  2.0485
15161WAT     H262450   4.953  10.020   8.035  0.8053  0.0717 -0.1217
15161WAT    EPW62451   4.992   9.979   7.968  0.3529 -0.4940 -0.0525
15162WAT      O62452  10.142   3.807   7.348 -0.9452  0.3334  0.3079
15162WAT     H162453  10.116   3.755   7.272 -1.5510  2.4963 -1.0486
15162WAT     H262454  10.236   3.794   7.355 -1.0923 -0.9977  0.0742
15162WAT    EPW62455  10.151   3.799   7.339 -1.0448  0.4431  0.0978
15163WAT      O62456   5.247   7.513   6.412  0.2695 -0.9418 -0.1457
15163WAT     H162457   5.332   7.471   6.399  0.6332 -0.0319 -0.8943
15163WAT     H262458   5.218   7.535   6.324  0.1580  0.4532  0.2150
15163WAT    EPW62459   5.254   7.511   6.399  0.3028 -0.6380 -0.1967
15164WAT      O62460   6.887  10.240   7.757 -0.6575  0.7868  0.0975
15164WAT     H162461   6.957  10.285   7.805 -0.8472  2.5048 -1.1262
15164WAT     H262462   6.908  10.147   7.766  2.0271  1.2434 -0.5390
15164WAT    EPW62463   6.899  10.234   7.765 -0.3285  1.0743 -0.1481
15165WAT      O62464   3.832   8.423   7.496  0.9826 -0.8200  0.7150
15165WAT     H162465   3.770   8.389   7.561 -0.7189  2.0974  0.7756
15165WAT     H262466   3.822   8.518   7.500  4.2942 -0.2889 -0.5345
15165WAT    EPW62467   3.822   8.431   7.505  1.1951 -0.3653  0.5584
15166WAT      O62468   9.247   7.578   6.326  0.6784  0.1949  0.3019
15166WAT     H162469   9.341   7.564   6.317  0.4688 -3.5683  2.0083
15166WAT     H262470   9.209   7.530   6.252  0.0368  1.8307 -0.4750
15166WAT    EPW62471   9.254   7.570   6.315  0.5665 -0.0856  0.4246
15167WAT      O62472  10.951   0.107   7.674 -0.0507  0.8468 -0.5838
15167WAT     H162473  10.882   0.145   7.730 -1.2611  0.5970 -1.8474
15167WAT     H262474  10.914   0.024   7.644  2.4228 -1.2987  1.8544
15167WAT    EPW62475  10.937   0.101   7.677  0.1159  0.5312 -0.4289
15168WAT      O62476   9.517   1.246   8.591 -0.1544  0.1032 -0.5478
15168WAT     H162477   9.463   1.219   8.517 -1.0372 -0.3315  0.2284
15168WAT     H262478   9.594   1.190   8.586 -1.5073 -1.9984  0.4758
15168WAT    EPW62479   9.520   1.235   8.580 -0.4492 -0.2313 -0.3104
15169WAT      O62480   9.878   5.355   0.035  0.0134  0.4596 -0.3055
15169WAT     H162481   9.783   5.349   0.032  0.1406 -1.6807 -1.6570
15169WAT     H262482   9.909   5.266   0.022  2.2479  1.4164 -2.3236
15169WAT    EPW62483   9.870   5.343   0.033  0.3247  0.3035 -0.7499
15170WAT      O62484   5.400   9.215   7.504  0.3046 -0.9063 -0.1647
15170WAT     H162485   5.475   9.186   7.556  0.5539 -1.0388 -0.5957
15170WAT     H262486   5.329   9.224   7.568  1.0254  0.5627  0.4869
15170WAT    EPW62487   5.401   9.212   7.520  0.4325 -0.7300 -0.1354
15171WAT      O62488   7.168   7.233   6.862  0.6415  0.6498 -0.0019
15171WAT     H162489   7.191   7.170   6.931 -0.8571 -0.1589 -0.2002
15171WAT     H262490   7.245   7.288   6.854  1.5419 -0.3907  1.0530
15171WAT    EPW62491   7.181   7.232   6.870  0.5624  0.4060  0.1109
15172WAT      O62492   5.747   1.316   3.764 -0.7834 -0.1530  0.7156
15172WAT     H162493   5.664   1.362   3.755 -0.7888 -0.4307 -1.0540
15172WAT     H262494   5.776   1.302   3.674  1.2388  0.0374  1.2774
15172WAT    EPW62495   5.740   1.320   3.751 -0.5178 -0.1646  0.5563
15173WAT      O62496   1.152   1.711   7.710  0.2806 -0.4469  0.2087
15173WAT     H162497   1.222   1.773   7.688 -0.0617 -0.3830 -0.7705
15173WAT     H262498   1.182   1.667   7.789  0.6837  0.7326  0.7313
15173WAT    EPW62499   1.165   1.713   7.718  0.2887 -0.2829  0.1483
15174WAT      O62500   7.844   0.016   5.099  0.6099  0.0826  0.3053
15174WAT     H162501   7.844   0.055   5.186  0.5830  0.2386  0.2354
15174WAT     H262502   7.936   0.015   5.073  0.3901  2.5284 -0.7795
15174WAT    EPW62503   7.856   0.021   5.107  0.5772  0.4258  0.1531
15175WAT      O62504   7.296   5.698   8.195 -0.1006 -0.1095  0.3428
15175WAT     H162505   7.324   5.778   8.238 -0.1034  1.0177 -1.6375
15175WAT     H262506   7.351   5.629   8.233  0.1940  0.8826  1.7632
15175WAT    EPW62507   7.307   5.699   8.206 -0.0625  0.1702  0.2689
15176WAT      O62508   3.961   1.143   2.214  0.2487  0.9822 -0.1496
15176WAT     H162509   3.936   1.085   2.286  0.2161  0.4025 -0.6130
15176WAT     H262510   4.019   1.089   2.160 -0.4137  1.1218 -1.0179
15176WAT    EPW62511   3.965   1.128   2.216  0.1570  0.9241 -0.3253
15177WAT      O62512   7.594   1.261   7.329 -0.2547 -0.1329  0.1357
15177WAT     H162513   7.649   1.271   7.251  0.1836 -1.7662  0.2025
15177WAT     H262514   7.642   1.308   7.398 -0.2489  0.6482 -0.3932
15177WAT    EPW62515   7.608   1.269   7.328 -0.1962 -0.2453  0.0746
15178WAT      O62516   8.610   8.441   6.914  0.5708 -0.2652  0.7136
15178WAT     H162517   8.527   8.413   6.953  0.3652  0.0423  0.5046
15178WAT     H262518   8.662   8.471   6.989 -0.4825  2.0145  0.6135
15178WAT    EPW62519   8.606   8.441   6.929  0.4048  0.0763  0.6728
15179WAT      O62520   0.881   3.947   0.214 -0.8254  0.3937 -0.5369
15179WAT     H162521   0.794   3.907   0.223 -0.5764  0.1599  1.2187
15179WAT     H262522   0.891   3.963   0.120 -1.8738 -1.5863 -1.0338
15179WAT    EPW62523   0.871   3.944   0.203 -0.9308  0.1017 -0.3708
15180WAT      O62524   4.111   8.491   5.154 -0.1804 -0.4362  0.3225
15180WAT     H162525   4.070   8.499   5.067  0.0058 -0.1666  0.2586
15180WAT     H262526   4.185   8.552   5.151 -1.5408  1.4016  1.4735
15180WAT    EPW62527   4.115   8.500   5.142 -0.3355 -0.1588  0.4659
15181WAT      O62528   6.172   7.474   8.891  0.1738  0.8416 -0.4677
15181WAT     H162529   6.106   7.406   8.907  0.2818  0.9630  0.6101
15181WAT     H262530   6.239   7.457   8.957  1.1444  0.8333 -1.4367
15181WAT    EPW62531   6.172   7.463   8.902  0.3159  0.8564 -0.4530
15182WAT      O62532   7.704   7.148   5.859 -0.0049  0.1726  0.0739
15182WAT     H162533   7.633   7.167   5.798 -0.2639  0.2377  0.3915
15182WAT     H262534   7.660   7.131   5.942  0.3281 -0.1685  0.1846
15182WAT    EPW62535   7.689   7.148   5.862  0.0048  0.1361  0.1304
15183WAT      O62536   1.326   5.932   0.683  0.2515 -0.5688 -0.5252
15183WAT     H162537   1.394   5.995   0.705 -0.4696 -0.2070  0.7986
15183WAT     H262538   1.324   5.931   0.588  0.8588  0.7809 -0.5758
15183WAT    EPW62539   1.335   5.940   0.674  0.2364 -0.3428 -0.3573
15184WAT      O62540   2.349   2.717   1.223 -0.3355 -0.5844  0.0386
15184WAT     H162541   2.268   2.764   1.242 -0.0191  0.9806 -2.1460
15184WAT     H262542   2.393   2.770   1.157  2.9119 -0.9378  1.7205
15184WAT    EPW62543   2.344   2.730   1.217  0.1345 -0.4246 -0.0277
15185WAT      O62544   2.844   4.351   2.421  0.0592 -0.4075  0.0843
15185WAT     H162545   2.779   4.361   2.351  0.6239 -1.1853 -0.5719
15185WAT     H262546   2.816   4.272   2.468 -1.3767  1.1085  1.9345
15185WAT    EPW62547   2.831   4.342   2.418 -0.0556 -0.3099  0.2419
15186WAT      O62548   5.366   8.193   6.686 -0.7178  0.3476  0.4041
15186WAT     H162549   5.429   8.120   6.689  1.1953  1.8988 -0.1999
15186WAT     H262550   5.393   8.251   6.756 -0.8091  1.5530 -0.5226
15186WAT    EPW62551   5.378   8.191   6.695 -0.4776  0.7119  0.2019
15187WAT      O62552   7.229   8.038   6.491  0.5334  0.5610  0.1905
15187WAT     H162553   7.280   8.064   6.414  1.0801 -1.3353 -0.1467
15187WAT     H262554   7.245   7.944   6.500 -0.3497  0.5323  2.0217
15187WAT    EPW62555   7.238   8.029   6.482  0.4895  0.3071  0.3874
15188WAT      O62556   5.149   9.079   7.559  0.1082 -0.7236  0.1807
15188WAT     H162557   5.067   9.084   7.608  0.3119 -0.7260  0.5293
15188WAT     H262558   5.132   9.128   7.479  0.2921  0.7961  1.0177
15188WAT    EPW62559   5.136   9.086   7.555  0.1593 -0.5240  0.3371
15189WAT      O62560   6.983   0.644   6.964 -0.1282  0.2523  0.2503
15189WAT     H162561   7.006   0.689   7.045  0.0574  0.1266  0.2700
15189WAT     H262562   7.007   0.706   6.895 -0.3478  0.3850  0.2945
15189WAT    EPW62563   6.989   0.658   6.966 -0.1328  0.2532  0.2589
15190WAT      O62564   6.840   7.047   4.403 -0.6824 -0.5781  0.2405
15190WAT     H162565   6.931   7.068   4.385 -1.2451 -0.4603 -3.1192
15190WAT     H262566   6.843   6.963   4.449  1.0993 -1.7962 -1.9128
15190WAT    EPW62567   6.852   7.039   4.407 -0.5214 -0.7234 -0.4869
15191WAT      O62568   0.059   0.859   6.942  0.1506 -0.1112  0.2829
15191WAT     H162569   0.017   0.839   7.026  0.0849 -0.4749  0.1673
15191WAT     H262570   0.005   0.928   6.904  0.2916  0.1931  0.6240
15191WAT    EPW62571   0.047   0.865   6.948  0.1605 -0.1191  0.3128
15192WAT      O62572   5.877   6.575   7.265  0.0253  0.2772 -0.4641
15192WAT     H162573   5.945   6.560   7.330 -1.0095 -3.5172 -0.0261
15192WAT     H262574   5.807   6.619   7.313  0.0151 -0.7844  0.5252
15192WAT    EPW62575   5.877   6.579   7.280 -0.1125 -0.3633 -0.2756
15193WAT      O62576   6.290   4.868   0.228 -0.2336 -0.9728  0.4335
15193WAT     H162577   6.318   4.778   0.211  0.0385 -1.1881  1.8634
15193WAT     H262578   6.207   4.858   0.276 -0.7229 -0.4252 -0.2707
15193WAT    EPW62579   6.283   4.855   0.233 -0.2620 -0.9289  0.5292
15194WAT      O62580   0.397   1.405   8.255 -0.7229 -0.3807 -0.2429
15194WAT     H162581   0.400   1.384   8.162  0.7687  0.6175 -0.4623
15194WAT     H262582   0.449   1.485   8.263 -1.0778 -0.2712  1.4097
15194WAT    EPW62583   0.405   1.413   8.244 -0.5730 -0.2346 -0.0539
15195WAT      O62584   9.653   0.373   4.214 -0.5078 -0.1626  0.9472
15195WAT     H162585   9.687   0.316   4.284 -1.8473 -2.6868 -0.2949
15195WAT     H262586   9.710   0.357   4.140 -1.0421 -0.0687  0.5083
15195WAT    EPW62587   9.665   0.363   4.214 -0.7553 -0.4832  0.7255
15196WAT      O62588   2.781   6.996   1.436 -0.6894 -0.1175 -0.1829
15196WAT     H162589   2.754   6.904   1.434 -1.1569 -0.0128  0.5828
15196WAT     H262590   2.702   7.043   1.460 -0.1931  0.3586  0.5763
15196WAT    EPW62591   2.767   6.990   1.439 -0.6856 -0.0410  0.0183
15197WAT      O62592   5.158   9.587   7.472  0.5523  0.5048  0.2187
15197WAT     H162593   5.074   9.580   7.427 -0.3455 -0.6958  1.9718
15197WAT     H262594   5.217   9.532   7.421 -0.0941  0.1981 -0.2145
15197WAT    EPW62595   5.155   9.579   7.459  0.3486  0.3061  0.3929
15198WAT      O62596   7.205   1.761   0.688  0.6076 -0.4681  0.4183
15198WAT     H162597   7.222   1.787   0.778 -0.0724 -1.2266  0.7773
15198WAT     H262598   7.267   1.813   0.636  0.1775  0.8857  1.2089
15198WAT    EPW62599   7.215   1.771   0.693  0.4613 -0.3896  0.5699
15199WAT      O62600   6.539   9.153   8.000 -0.4037  0.4637 -0.3660
15199WAT     H162601   6.611   9.111   7.952  0.9786  1.2631  0.9060
15199WAT     H262602   6.556   9.247   7.991  0.1499  0.6419  1.9475
15199WAT    EPW62603   6.551   9.160   7.992 -0.1483  0.5927  0.1070
15200WAT      O62604   6.507   7.062   4.953  0.4394 -0.5660  0.3033
15200WAT     H162605   6.563   7.135   4.979  1.0687 -1.1551  0.6008
15200WAT     H262606   6.468   7.091   4.870  3.2997 -1.1971 -1.4292
15200WAT    EPW62607   6.509   7.076   4.945  0.9000 -0.7269  0.1137
15201WAT      O62608   2.912   5.288   1.642 -0.2875 -0.4777  0.2629
15201WAT     H162609   2.827   5.271   1.683 -1.2878  0.2081 -1.4112
15201WAT     H262610   2.934   5.377   1.671 -0.4366 -0.4284  0.2277
15201WAT    EPW62611   2.904   5.298   1.651 -0.4392 -0.3810  0.0374
15202WAT      O62612   6.495   7.962   8.352 -0.3443  0.1700 -1.0293
15202WAT     H162613   6.504   7.923   8.439 -2.9193  2.1108  0.2472
15202WAT     H262614   6.515   7.891   8.291  1.2884 -1.3171  1.1188
15202WAT    EPW62615   6.499   7.948   8.355 -0.4687  0.2298 -0.5779
15203WAT      O62616   7.260   6.042   8.723  0.0801  0.2690 -0.3201
15203WAT     H162617   7.224   6.130   8.736 -0.9818 -0.2838  0.7755
15203WAT     H262618   7.237   5.995   8.803  0.5056 -1.0484 -0.9366
15203WAT    EPW62619   7.252   6.047   8.735 -0.0043  0.0224 -0.2570
15204WAT      O62620   7.188   7.778   5.642 -0.6624  0.1484 -0.7031
15204WAT     H162621   7.166   7.844   5.576  0.6770  1.0005 -0.3253
15204WAT     H262622   7.192   7.826   5.724 -2.4473 -0.9231  0.0783
15204WAT    EPW62623   7.185   7.793   5.644 -0.7212  0.1194 -0.5500
15205WAT      O62624   4.712   8.204   5.583 -0.2850  0.4605 -0.1369
15205WAT     H162625   4.800   8.211   5.620 -0.4448 -0.2596  0.3943
15205WAT     H262626   4.664   8.149   5.645  0.1441 -3.0221 -2.6163
15205WAT    EPW62627   4.717   8.198   5.596 -0.2496 -0.0939 -0.3936
15206WAT      O62628   7.974   9.816   7.257  0.1138 -0.5414 -0.7519
15206WAT     H162629   7.884   9.844   7.274  0.5142  0.5547 -0.3405
15206WAT     H262630   8.016   9.821   7.343 -0.3875 -4.9093 -0.0439
15206WAT    EPW62631   7.967   9.820   7.271  0.1004 -0.9727 -0.6046
15207WAT      O62632   6.932   9.962   3.899  0.1248 -0.0321 -0.2834
15207WAT     H162633   6.861   9.908   3.934 -0.5319  0.4974 -0.7655
15207WAT     H262634   6.920   9.957   3.804 -0.6747  1.8849 -0.3159
15207WAT    EPW62635   6.921   9.954   3.891 -0.0672  0.2909 -0.3513
15208WAT      O62636   9.718   5.682   0.760 -0.2784 -0.3824 -0.1899
15208WAT     H162637   9.742   5.604   0.709 -1.4766 -1.4520  0.8195
15208WAT     H262638   9.656   5.728   0.704 -0.3726 -0.7167 -0.3664
15208WAT    EPW62639   9.713   5.678   0.746 -0.4487 -0.5674 -0.0800
15209WAT      O62640   5.780   9.624   5.069 -0.4553  0.2843 -0.2131
15209WAT     H162641   5.743   9.541   5.039  0.3703 -0.9310  1.9071
15209WAT     H262642   5.708   9.687   5.063 -2.4195 -1.5716  2.0488
15209WAT    EPW62643   5.766   9.621   5.064 -0.6053 -0.1216  0.3650
15210WAT      O62644   7.993   1.943   6.274  0.2410  0.0588 -0.2160
15210WAT     H162645   8.051   1.880   6.230  1.1016  2.1749 -2.3164
15210WAT     H262646   7.941   1.889   6.333  1.9709 -2.4135 -0.7621
15210WAT    EPW62647   7.994   1.927   6.276  0.5825  0.0119 -0.5651
15211WAT      O62648   7.619   5.945   4.738  0.5608  0.1005  0.8644
15211WAT     H162649   7.570   5.888   4.679  0.1049 -0.8290  2.1156
15211WAT     H262650   7.652   6.015   4.681 -1.4021  0.2493 -0.1761
15211WAT    EPW62651   7.617   5.947   4.722  0.2420 -0.0026  0.8924
15212WAT      O62652   6.691   6.646   3.583 -0.5781 -0.3229 -0.1691
15212WAT     H162653   6.726   6.619   3.667 -0.4829 -2.3265 -0.7946
15212WAT     H262654   6.758   6.620   3.520 -1.0007  0.4000 -0.9312
15212WAT    EPW62655   6.705   6.639   3.586 -0.6211 -0.4919 -0.3520
15213WAT      O62656   0.156   2.976   8.467 -0.0776  0.0482 -0.3409
15213WAT     H162657   0.076   2.951   8.513 -0.2353 -1.4370 -1.3481
15213WAT     H262658   0.225   2.969   8.533 -0.4104 -1.3152 -0.1008
15213WAT    EPW62659   0.154   2.972   8.481 -0.1423 -0.3276 -0.4420
15214WAT      O62660   0.129   0.755   4.171  0.5423  0.1621 -0.4504
15214WAT     H162661   0.087   0.826   4.219 -1.7512  0.6518 -2.9398
15214WAT     H262662   0.194   0.799   4.115  3.7316 -0.4675  2.4167
15214WAT    EPW62663   0.132   0.770   4.170  0.6604  0.1436 -0.4005
15215WAT      O62664   1.670   4.852   0.087 -0.0348 -0.0891  0.7723
15215WAT     H162665   1.698   4.942   0.067 -0.1193 -0.5740 -2.0007
15215WAT     H262666   1.588   4.842   0.038  0.2797 -1.8389  0.5414
15215WAT    EPW62667   1.662   4.863   0.078 -0.0045 -0.3839  0.3762
15216WAT      O62668   6.762   8.069   7.842 -0.2270 -0.1953  0.3422
15216WAT     H162669   6.757   8.164   7.828  3.1256  0.1672  0.7659
15216WAT     H262670   6.685   8.049   7.896 -0.9387  2.2823  0.3888
15216WAT    EPW62671   6.751   8.079   7.847  0.1211  0.1793  0.4044
15217WAT      O62672   7.430   6.287   8.023 -0.0578  0.1824 -0.2337
15217WAT     H162673   7.422   6.339   7.943 -1.7698 -0.0443 -0.2408
15217WAT     H262674   7.409   6.198   7.996  2.3029 -0.4824 -0.1078
15217WAT    EPW62675   7.426   6.282   8.009  0.0277  0.0644 -0.2184
15218WAT      O62676   7.561   6.830   6.703  0.6467 -0.0578 -0.5160
15218WAT     H162677   7.493   6.765   6.688  0.4878  0.0422 -0.2384
15218WAT     H262678   7.553   6.891   6.629  0.3898 -0.0068 -0.4465
15218WAT    EPW62679   7.551   6.829   6.691  0.5918 -0.0379 -0.4702
15219WAT      O62680   6.393   8.559   5.233  0.2611 -0.0705 -0.2855
15219WAT     H162681   6.315   8.575   5.179  0.0155  1.3640  0.4552
15219WAT     H262682   6.417   8.645   5.267  2.9927 -0.2237 -1.5574
15219WAT    EPW62683   6.386   8.573   5.230  0.5889  0.0982 -0.3555
15220WAT      O62684   9.172   1.192   6.005  0.4241  0.0913  0.4862
15220WAT     H162685   9.180   1.252   5.930  2.9414  0.3744  0.8957
15220WAT     H262686   9.262   1.166   6.025 -0.4414 -2.5659  1.3919
15220WAT    EPW62687   9.185   1.197   5.998  0.6423 -0.2218  0.6595
15221WAT      O62688   6.905   9.024   6.688 -0.3794  0.2827  0.1410
15221WAT     H162689   6.837   9.054   6.749 -1.3682  0.7402 -1.1210
15221WAT     H262690   6.951   9.104   6.663  1.4264 -0.1551  1.8422
15221WAT    EPW62691   6.902   9.039   6.693 -0.2718  0.2856  0.1991
15222WAT      O62692   7.587   2.402   2.538 -0.1981  0.1471  0.0595
15222WAT     H162693   7.659   2.417   2.476  1.6947  0.4183  2.2151
15222WAT     H262694   7.513   2.381   2.482  0.8990  2.2260 -2.4204
15222WAT    EPW62695   7.587   2.401   2.522  0.1965  0.4569  0.0167
15223WAT      O62696   1.730   5.171   0.054 -0.6874 -0.7526  0.3088
15223WAT     H162697   1.738   5.172   0.149 -0.8606  2.0042  0.3605
15223WAT     H262698   1.641   5.202   0.037  0.1146  1.1778 -0.7350
15223WAT    EPW62699   1.719   5.175   0.064 -0.6046 -0.1347  0.1780
15224WAT      O62700   7.159   7.059   7.077  0.0672  0.2937 -0.6459
15224WAT     H162701   7.099   7.132   7.089 -1.7360 -0.8370 -2.2393
15224WAT     H262702   7.156   7.012   7.161  0.4951  1.4780  0.0530
15224WAT    EPW62703   7.151   7.062   7.090 -0.1144  0.3006 -0.7639
15225WAT      O62704   5.644   9.865   5.390 -0.1130 -0.1870  0.6165
15225WAT     H162705   5.710   9.808   5.350  1.1967  1.4138  0.3644
15225WAT     H262706   5.650   9.847   5.484  2.4964  1.5679  0.9214
15225WAT    EPW62707   5.654   9.855   5.397  0.4039  0.2551  0.6235
15226WAT      O62708   4.458   9.074   7.375 -0.2055  0.0173 -0.3815
15226WAT     H162709   4.494   8.988   7.355 -1.1408 -0.6190  0.5365
15226WAT     H262710   4.491   9.131   7.306  0.9692 -0.9334 -0.6287
15226WAT    EPW62711   4.467   9.070   7.364 -0.1738 -0.1922 -0.2930
15227WAT      O62712   4.123   8.429   7.309 -0.1323  0.2977 -0.3856
15227WAT     H162713   4.087   8.453   7.224  1.8117 -0.1316 -1.4034
15227WAT     H262714   4.047   8.425   7.367 -1.4941  0.8199 -2.0353
15227WAT    EPW62715   4.108   8.431   7.305 -0.0558  0.3095 -0.7377
15228WAT      O62716   7.596   7.759   5.286 -0.2660 -0.2997  0.3478
15228WAT     H162717   7.588   7.837   5.341 -0.4204  0.3991 -0.6472
15228WAT     H262718   7.506   7.730   5.273 -0.1861 -0.9183  1.0712
15228WAT    EPW62719   7.583   7.765   5.292 -0.2761 -0.2890  0.3119
15229WAT      O62720   1.019   0.221   8.978  0.6367 -0.1996  0.3951
15229WAT     H162721   0.960   0.296   8.964  0.2224 -1.0149 -3.3587
15229WAT     H262722   1.097   0.243   8.927  1.1922 -1.5953  0.6170
15229WAT    EPW62723   1.021   0.234   8.969  0.6554 -0.4912 -0.0706
15230WAT      O62724   7.521   4.685   5.702  0.3332 -0.5336  0.8217
15230WAT     H162725   7.446   4.627   5.688 -0.2539  0.1919  0.9283
15230WAT     H262726   7.522   4.700   5.797 -0.1284  0.4188  0.6908
15230WAT    EPW62727   7.511   4.679   5.713  0.1948 -0.3121  0.8185
15231WAT      O62728   6.771   7.067   8.154  0.2899  0.1896 -0.4555
15231WAT     H162729   6.818   7.144   8.187 -1.5390  1.5922 -0.9437
15231WAT     H262730   6.691   7.103   8.116  0.4414 -1.7256 -2.8495
15231WAT    EPW62731   6.767   7.082   8.153  0.0691  0.1216 -0.8354
15232WAT      O62732   4.086   2.792   6.241  0.0502  0.1061 -0.5874
15232WAT     H162733   4.111   2.751   6.158 -1.0262 -1.6443 -0.1055
15232WAT     H262734   4.005   2.838   6.221 -0.5366 -0.8187 -0.4050
15232WAT    EPW62735   4.078   2.792   6.227 -0.1690 -0.2469 -0.5000
15233WAT      O62736   2.180   3.733   0.138  0.3306 -0.0106 -0.1321
15233WAT     H162737   2.103   3.761   0.188 -0.1118 -0.7143 -0.4166
15233WAT     H262738   2.183   3.794   0.064  1.6703  1.8163  1.3051
15233WAT    EPW62739   2.170   3.745   0.135  0.4489  0.1376  0.0199
15234WAT      O62740   7.500   7.432   3.254  0.0341 -0.0918  0.7221
15234WAT     H162741   7.521   7.463   3.342 -1.3601 -0.4559  1.2185
15234WAT     H262742   7.421   7.379   3.266  0.5972 -1.2718 -0.5639
15234WAT    EPW62743   7.492   7.429   3.268 -0.0753 -0.2954  0.6180
15235WAT      O62744   7.630   7.646   4.901 -0.0111  0.1389  0.3802
15235WAT     H162745   7.652   7.716   4.962 -1.0772 -0.6260  1.6968
15235WAT     H262746   7.606   7.691   4.820 -1.5577  1.3531  1.4657
15235WAT    EPW62747   7.630   7.661   4.898 -0.3560  0.1984  0.6971
15236WAT      O62748   1.114   0.876   7.082 -1.1050 -0.3695  0.7654
15236WAT     H162749   1.049   0.828   7.030 -0.3633 -2.2052  1.4656
15236WAT     H262750   1.198   0.840   7.055 -0.4559  0.9414  0.9521
15236WAT    EPW62751   1.116   0.865   7.071 -0.9217 -0.4387  0.8821
15237WAT      O62752   0.697   4.355   7.184 -0.7551 -0.2676  0.0394
15237WAT     H162753   0.730   4.294   7.250  2.0245  0.2399 -0.7467
15237WAT     H262754   0.647   4.420   7.234  2.9638  1.3029  2.1003
15237WAT    EPW62755   0.695   4.356   7.199  0.1020  0.0067  0.2074
15238WAT      O62756   8.825   1.140   6.295  0.3429  0.1461  0.2220
15238WAT     H162757   8.866   1.078   6.234 -1.4161  0.5243 -1.4732
15238WAT     H262758   8.895   1.165   6.355  1.8013 -1.3699 -0.7422
15238WAT    EPW62759   8.839   1.135   6.294  0.3033 -0.0040 -0.1287
15239WAT      O62760   5.806   7.743   5.275 -0.3971 -0.5456 -0.2954
15239WAT     H162761   5.814   7.652   5.249 -2.1002 -0.3349 -1.7852
15239WAT     H262762   5.869   7.789   5.220 -0.0322 -0.7423 -0.0418
15239WAT    EPW62763   5.815   7.737   5.264 -0.5739 -0.5438 -0.4580
15240WAT      O62764   5.958   5.534   7.211  0.7568 -0.0782 -0.2546
15240WAT     H162765   6.013   5.471   7.258 -0.6180 -0.2337  1.2649
15240WAT     H262766   5.976   5.519   7.119  1.6523 -1.5865  0.1441
15240WAT    EPW62767   5.968   5.524   7.205  0.6933 -0.2978 -0.0014
15241WAT      O62768   8.280   6.821   7.235  0.4966 -0.6916  0.4165
15241WAT     H162769   8.200   6.768   7.237  0.0884 -0.1372 -0.4039
15241WAT     H262770   8.351   6.757   7.243 -0.0305 -1.1060  2.1641
15241WAT    EPW62771   8.279   6.805   7.236  0.3734 -0.6731  0.5391
15242WAT      O62772   8.084   6.220   6.232  0.3407 -0.2530 -0.2574
15242WAT     H162773   8.140   6.158   6.278  1.4927 -0.1103 -1.4172
15242WAT     H262774   8.137   6.299   6.224 -0.6639  0.4916  0.1099
15242WAT    EPW62775   8.098   6.222   6.237  0.3600 -0.1359 -0.3622
15243WAT      O62776   6.685   8.607   7.707  0.1450  0.3415 -0.1484
15243WAT     H162777   6.617   8.595   7.773  0.8392  2.0441  0.9500
15243WAT     H262778   6.718   8.696   7.723  0.6613  0.6359 -2.5074
15243WAT    EPW62779   6.681   8.617   7.718  0.3045  0.6051 -0.3145
15244WAT      O62780   5.043   5.915   7.925  0.1465  0.0399  0.7983
15244WAT     H162781   5.018   5.880   7.839 -0.9006 -1.8329  1.7988
15244WAT     H262782   5.138   5.920   7.922  0.2197 -1.3077 -0.0211
15244WAT    EPW62783   5.052   5.911   7.913  0.0181 -0.3850  0.8221
15245WAT      O62784  10.826   0.605   7.357 -0.0448  0.1386  0.0243
15245WAT     H162785  10.731   0.596   7.348  0.0975  0.0152 -1.7125
15245WAT     H262786  10.851   0.536   7.419 -0.8840 -0.9851 -0.8521
15245WAT    EPW62787  10.817   0.595   7.364 -0.1364 -0.0259 -0.3204
15246WAT      O62788   5.863   8.882   8.657  0.3751 -0.8494 -0.5496
15246WAT     H162789   5.796   8.867   8.723 -0.2918  0.5152 -0.8822
15246WAT     H262790   5.925   8.941   8.699  1.9914 -2.9188  0.1231
15246WAT    EPW62791   5.862   8.888   8.671  0.5002 -0.9422 -0.5050
15247WAT      O62792   9.266   0.021   7.775  0.4147 -0.1550  0.1190
15247WAT     H162793   9.214   0.077   7.832 -1.5457 -2.3161  0.6381
15247WAT     H262794   9.259   0.060   7.688 -0.8180  0.4499  0.4795
15247WAT    EPW62795   9.258   0.033   7.771 -0.0067 -0.3602  0.2351
15248WAT      O62796   7.634   9.467   7.413 -0.5516 -0.0767  0.5085
15248WAT     H162797   7.551   9.512   7.430 -0.4742  0.7073 -0.9724
15248WAT     H262798   7.609   9.385   7.371 -0.5699  0.2976 -0.2151
15248WAT    EPW62799   7.620   9.462   7.410 -0.5438  0.0758  0.2179
15249WAT      O62800   5.190   9.797   8.914 -0.0655  0.0529  0.9655
15249WAT     H162801   5.232   9.762   8.992  1.1185  0.9200  0.7499
15249WAT     H262802   5.142   9.874   8.945 -0.0213  0.0950  0.9287
15249WAT    EPW62803   5.189   9.803   8.928  0.0966  0.1726  0.9322
15250WAT      O62804   7.430   8.133   8.013 -0.2909 -0.0687  0.3765
15250WAT     H162805   7.403   8.172   8.096 -0.2967  0.4989  0.1146
15250WAT     H262806   7.525   8.127   8.019 -0.2299  0.6120  0.1548
15250WAT    EPW62807   7.439   8.137   8.025 -0.2837  0.0958  0.3128
15251WAT      O62808   0.492   3.536   1.189  0.4987  0.2072 -0.8807
15251WAT     H162809   0.479   3.509   1.098  0.0180  1.6331 -1.2666
15251WAT     H262810   0.404   3.559   1.220  0.9282  1.7963 -0.7667
15251WAT    EPW62811   0.479   3.536   1.181  0.4920  0.6050 -0.9165
15252WAT      O62812   4.166   7.719   8.015 -0.6453  0.4391  0.2364
15252WAT     H162813   4.248   7.674   7.995 -0.9985  0.9301 -2.6635
15252WAT     H262814   4.162   7.718   8.111  2.2004 -0.5230  0.4565
15252WAT    EPW62815   4.176   7.713   8.025 -0.3166  0.3772 -0.1173
15253WAT      O62816   6.059  10.014   4.545 -0.6404  0.4156  0.1832
15253WAT     H162817   6.125   9.953   4.511 -0.2586  0.6948  0.4161
15253WAT     H262818   6.045   9.986   4.636 -0.3411  0.7703  0.3436
15253WAT    EPW62819   6.066  10.002   4.553 -0.5505  0.4997  0.2353
15254WAT      O62820   5.789  10.002   5.180 -0.0595  0.5565  0.2439
15254WAT     H162821   5.794  10.032   5.271  2.2756  0.6538  0.1351
15254WAT     H262822   5.741   9.919   5.185 -0.5272  0.8759  1.4590
15254WAT    EPW62823   5.783   9.995   5.193  0.1869  0.6113  0.3898
15255WAT      O62824   3.857   0.011   1.245 -0.0831  0.7153  0.1808
15255WAT     H162825   3.945   0.045   1.261  0.9492 -0.7854 -1.8913
15255WAT     H262826   3.828  -0.021   1.331  1.1165  1.7398  1.0110
15255WAT    EPW62827   3.865   0.012   1.259  0.2111  0.6525  0.0170
15256WAT      O62828   4.490   9.006   8.215  0.3101 -0.7634  0.2638
15256WAT     H162829   4.498   8.946   8.290 -2.1730 -0.8007  0.5670
15256WAT     H262830   4.397   9.006   8.194  0.6945  0.6618 -1.7028
15256WAT    EPW62831   4.479   8.998   8.222  0.0331 -0.5803  0.0439
15257WAT      O62832   8.503   5.878   5.732 -0.0683 -0.3187  0.5189
15257WAT     H162833   8.540   5.949   5.680 -1.8203  1.4837  1.5826
15257WAT     H262834   8.516   5.799   5.679  1.7530  0.7864 -0.7943
15257WAT    EPW62835   8.510   5.877   5.718 -0.0596  0.0646  0.4861
15258WAT      O62836   8.210   8.993   7.464  0.0193 -0.0117  0.4812
15258WAT     H162837   8.249   8.911   7.434 -2.3691 -0.7650 -0.8810
15258WAT     H262838   8.231   9.056   7.395 -1.5729 -0.5697 -0.5601
15258WAT    EPW62839   8.218   8.991   7.451 -0.5054 -0.1850  0.1640
15259WAT      O62840   5.211   7.738   4.524 -0.2253 -0.1532 -0.1262
15259WAT     H162841   5.138   7.778   4.477 -0.4253  1.3840  1.3662
15259WAT     H262842   5.272   7.811   4.538 -0.3411 -0.4187  2.2279
15259WAT    EPW62843   5.209   7.753   4.520 -0.2668  0.0145  0.3810
15260WAT      O62844   9.247   0.338   4.499 -0.2919 -0.2632  0.2893
15260WAT     H162845   9.207   0.256   4.470 -1.4885  0.1743  0.6486
15260WAT     H262846   9.310   0.360   4.430 -0.6711 -0.9708 -0.2931
15260WAT    EPW62847   9.250   0.330   4.486 -0.4997 -0.2989  0.2599
15261WAT      O62848   7.091   7.720   8.254  0.0238 -0.3276  0.6568
15261WAT     H162849   7.069   7.672   8.174  2.4949 -1.9204  0.8262
15261WAT     H262850   7.006   7.741   8.293 -1.2175 -2.2097 -0.8267
15261WAT    EPW62851   7.077   7.716   8.249  0.1860 -0.7861  0.4835
15262WAT      O62852   8.545   8.640   4.349  0.4232  0.2962 -0.2620
15262WAT     H162853   8.513   8.589   4.423  0.4434 -0.3322 -0.6794
15262WAT     H262854   8.616   8.693   4.386  0.8078 -0.4248  0.0529
15262WAT    EPW62855   8.551   8.640   4.364  0.4759  0.1178 -0.2754
15263WAT      O62856   7.347   6.664   5.283  0.0531 -0.1563 -0.9268
15263WAT     H162857   7.416   6.620   5.332 -1.6521 -1.1725  0.6729
15263WAT     H262858   7.314   6.730   5.344 -0.3707  0.3574 -1.7000
15263WAT    EPW62859   7.352   6.667   5.297 -0.2277 -0.2227 -0.8175
15264WAT      O62860   3.348  10.352   8.963  0.2885 -0.2997 -0.2313
15264WAT     H162861   3.288  10.425   8.948  0.3475 -0.0566  0.6642
15264WAT     H262862   3.436  10.391   8.956  0.3428 -0.5966 -1.2569
15264WAT    EPW62863   3.352  10.367   8.960  0.3036 -0.3071 -0.2484
15265WAT      O62864   4.136   9.673   7.966 -0.3289 -0.0900 -0.3999
15265WAT     H162865   4.213   9.704   7.919 -1.1797  1.9066 -0.5738
15265WAT     H262866   4.170   9.642   8.050  0.8347 -0.7476 -1.0924
15265WAT    EPW62867   4.150   9.673   7.971 -0.2878  0.0863 -0.5143
15266WAT      O62868   6.534   6.626   8.051 -0.7767 -0.2506 -0.1404
15266WAT     H162869   6.588   6.672   7.987 -0.2503 -0.4054  0.1894
15266WAT     H262870   6.471   6.577   7.998 -1.1018  0.5397 -0.5063
15266WAT    EPW62871   6.532   6.626   8.035 -0.7501 -0.1669 -0.1454
15267WAT      O62872   6.580   6.811   7.483  0.0890 -0.1783 -0.0660
15267WAT     H162873   6.536   6.820   7.399 -0.2202  1.2786  0.2277
15267WAT     H262874   6.548   6.885   7.535  0.9027 -0.5837  1.0501
15267WAT    EPW62875   6.570   6.822   7.479  0.1554 -0.0396  0.1194
15268WAT      O62876   9.954   0.565   6.396  0.1106 -0.5698  0.1027
15268WAT     H162877   9.995   0.502   6.337  0.1127  0.1816 -0.7092
15268WAT     H262878  10.018   0.636   6.403  0.2888 -0.8307  1.3381
15268WAT    EPW62879   9.968   0.566   6.389  0.1340 -0.5051  0.1588
15269WAT      O62880   0.088   0.834   6.207  0.2327  0.0385  0.2510
15269WAT     H162881   0.024   0.809   6.140  0.4486  1.3815 -0.4912
15269WAT     H262882   0.157   0.768   6.201  0.8736  0.8174 -1.7580
15269WAT    EPW62883   0.088   0.822   6.197  0.3457  0.3183 -0.1121
15270WAT      O62884   7.715   4.922   5.932 -0.1228 -0.3431 -0.4706
15270WAT     H162885   7.798   4.880   5.950 -0.5075 -1.5154 -1.3016
15270WAT     H262886   7.738   5.012   5.906  0.7653 -0.2540  0.5916
15270WAT    EPW62887   7.729   4.928   5.931 -0.0563 -0.4861 -0.4401
15271WAT      O62888   0.684   5.098   1.914 -0.2662  0.3271 -0.0010
15271WAT     H162889   0.771   5.120   1.880 -1.4884  1.6941 -2.4905
15271WAT     H262890   0.687   5.003   1.928  1.2009  0.1152 -1.4370
15271WAT    EPW62891   0.696   5.088   1.912 -0.2339  0.4795 -0.5187
15272WAT      O62892   7.975   8.075   5.761 -0.5832  0.0838  0.2067
15272WAT     H162893   7.948   7.983   5.763  0.2665 -0.1637  1.5210
15272WAT     H262894   8.042   8.079   5.692  2.5016 -1.2723  2.8804
15272WAT    EPW62895   7.980   8.063   5.752 -0.0644 -0.1278  0.7327
15273WAT      O62896   5.901   7.322   8.555  0.0021 -0.8573  0.0847
15273WAT     H162897   5.812   7.357   8.553 -0.3946 -1.8338 -0.1131
15273WAT     H262898   5.957   7.396   8.530 -0.7733 -0.2951 -0.0160
15273WAT    EPW62899   5.897   7.336   8.552 -0.1523 -0.9120  0.0448
15274WAT      O62900   4.209   7.344   7.865 -0.0070  0.5103 -0.3497
15274WAT     H162901   4.250   7.346   7.779  0.5518 -0.6221 -0.1319
15274WAT     H262902   4.200   7.251   7.886 -1.0680  0.7513  0.3855
15274WAT    EPW62903   4.213   7.332   7.857 -0.0732  0.3927 -0.2241
15275WAT      O62904   0.700   1.656   1.307  0.1817  0.2942 -0.3515
15275WAT     H162905   0.793   1.652   1.287  0.7824  2.1275  1.6675
15275WAT     H262906   0.666   1.728   1.254 -0.3125 -0.8531 -1.6605
15275WAT    EPW62907   0.708   1.665   1.297  0.1957  0.3846 -0.2578
15276WAT      O62908   5.308   8.698   8.174  0.2741  0.5571 -0.0025
15276WAT     H162909   5.294   8.751   8.253 -0.9581  1.7461 -0.9523
15276WAT     H262910   5.391   8.653   8.189 -0.2130  0.2801  2.2108
15276WAT    EPW62911   5.317   8.699   8.187  0.0474  0.6776  0.1640
15277WAT      O62912   7.964   5.522   2.655  0.1176  0.5657  0.3204
15277WAT     H162913   8.038   5.582   2.664 -0.2785  1.2705 -0.8582
15277WAT     H262914   7.941   5.498   2.745  0.2345  2.2400  0.8160
15277WAT    EPW62915   7.971   5.526   2.668  0.0808  0.8793  0.2304
15278WAT      O62916   5.366   8.825   8.436  0.8026 -0.4761  0.2403
15278WAT     H162917   5.370   8.742   8.483 -0.0655  0.0765  1.3225
15278WAT     H262918   5.453   8.864   8.449  0.8220 -0.6793  0.7337
15278WAT    EPW62919   5.378   8.819   8.444  0.6909 -0.4301  0.4482
15279WAT      O62920  10.908   9.724   7.981 -0.2004 -0.5807 -0.2100
15279WAT     H162921  10.843   9.720   8.052 -1.2758 -0.5566 -1.1679
15279WAT     H262922  10.967   9.794   8.007  0.2474 -1.4735  1.3282
15279WAT    EPW62923  10.907   9.732   7.994 -0.2837 -0.6952 -0.1335
15280WAT      O62924   7.747   2.715   0.260  0.8682 -0.2582 -0.4449
15280WAT     H162925   7.664   2.687   0.222  0.4258 -0.8823  0.9258
15280WAT     H262926   7.779   2.638   0.308  0.7923  0.8423  1.4638
15280WAT    EPW62927   7.740   2.701   0.261  0.7999 -0.1954 -0.0124
15281WAT      O62928   5.824   6.810   7.005  0.9377  0.1820  0.1561
15281WAT     H162929   5.915   6.835   6.991  0.9854 -0.7495 -1.4343
15281WAT     H262930   5.817   6.722   6.967 -0.6408  0.2655  0.1818
15281WAT    EPW62931   5.835   6.801   6.998  0.7355  0.0699 -0.0503
15282WAT      O62932   4.328   6.360   3.345 -0.6124 -0.7074 -0.3278
15282WAT     H162933   4.276   6.327   3.272 -1.4013  0.5779 -0.3805
15282WAT     H262934   4.296   6.449   3.358  0.8469 -0.2649  0.3544
15282WAT    EPW62935   4.317   6.367   3.337 -0.5243 -0.4795 -0.2449
15283WAT      O62936   4.142   7.767   0.065 -0.1141  0.0446 -0.0901
15283WAT     H162937   4.095   7.686   0.045  0.4780 -0.0144 -1.3282
15283WAT     H262938   4.232   7.739   0.083  0.4046  0.5097 -1.7850
15283WAT    EPW62939   4.148   7.752   0.064  0.0324  0.0985 -0.4769
15284WAT      O62940   9.010   2.223   6.113 -0.0141 -0.4448  0.2422
15284WAT     H162941   9.096   2.181   6.105 -0.4307 -0.9940 -1.7788
15284WAT     H262942   8.953   2.174   6.055 -0.8751  2.0074 -1.1547
15284WAT    EPW62943   9.014   2.211   6.104 -0.1822 -0.1938 -0.2086
15285WAT      O62944   0.697   4.055   7.126  0.4488 -0.2842  0.1905
15285WAT     H162945   0.708   4.147   7.100 -0.5111  0.0024  0.7471
15285WAT     H262946   0.725   4.005   7.050 -2.2420  0.5088 -1.4238
15285WAT    EPW62947   0.702   4.061   7.113 -0.0327 -0.1416  0.0510
15286WAT      O62948  10.343   0.605   6.565 -0.3783  0.1592 -0.6007
15286WAT     H162949  10.419   0.629   6.513 -1.8072  3.4637 -1.4041
15286WAT     H262950  10.367   0.625   6.655  0.1331 -0.1319 -0.6697
15286WAT    EPW62951  10.356   0.611   6.570 -0.4992  0.5566 -0.7160
15287WAT      O62952   9.517   3.519   7.937 -0.5746 -0.1087 -0.6869
15287WAT     H162953   9.588   3.525   8.001 -1.6075  2.7145  0.3454
15287WAT     H262954   9.547   3.572   7.863 -0.9063 -0.3096 -0.9671
15287WAT    EPW62955   9.530   3.527   7.936 -0.7548  0.2371 -0.5872
15288WAT      O62956   5.249   8.160   0.327 -0.1208  0.8106  0.1669
15288WAT     H162957   5.307   8.152   0.251 -0.3522 -0.6002  0.1125
15288WAT     H262958   5.300   8.212   0.390  1.0657 -0.0919 -0.0092
15288WAT    EPW62959   5.264   8.166   0.325  0.0050  0.5059  0.1365
15289WAT      O62960  10.787   1.277   6.621 -0.1400  0.7608  0.7439
15289WAT     H162961  10.735   1.285   6.701 -1.7421 -2.0808  0.1359
15289WAT     H262962  10.748   1.203   6.575  2.9860 -0.0134 -0.9505
15289WAT    EPW62963  10.775   1.268   6.625  0.0610  0.2839  0.4401
15290WAT      O62964  10.281   3.196   7.177 -0.0010 -0.0526 -0.2962
15290WAT     H162965  10.359   3.219   7.127  1.2351  0.5777  1.8220
15290WAT     H262966  10.285   3.251   7.255 -2.0260 -0.7600  0.3721
15290WAT    EPW62967  10.292   3.206   7.180 -0.1049 -0.0628  0.0713
15291WAT      O62968   9.665   0.162   2.589 -0.3786 -0.3363 -0.0528
15291WAT     H162969   9.570   0.174   2.593 -0.5789 -2.0933  1.4088
15291WAT     H262970   9.677   0.075   2.552  0.7088  0.1847 -0.9827
15291WAT    EPW62971   9.654   0.152   2.585 -0.2613 -0.4993  0.0173
15292WAT      O62972  10.848   1.523   8.232 -0.3917 -0.2385  0.3548
15292WAT     H162973  10.870   1.611   8.201 -0.5072  0.2434  1.5866
15292WAT     H262974  10.911   1.505   8.302  1.5132 -2.3329 -1.6982
15292WAT    EPW62975  10.859   1.532   8.237 -0.1559 -0.4511  0.2465
15293WAT      O62976   9.837   9.434   7.872  0.0329  0.2051  0.6650
15293WAT     H162977   9.747   9.402   7.884  0.1154 -0.1281  0.4011
15293WAT     H262978   9.832   9.527   7.896 -0.0852 -0.1191  1.9771
15293WAT    EPW62979   9.824   9.442   7.877  0.0286  0.1187  0.8032
15294WAT      O62980   5.044   6.033   1.311  0.8521 -0.1253 -0.3912
15294WAT     H162981   5.087   5.948   1.304 -0.6708 -1.3477  2.9583
15294WAT     H262982   5.104   6.094   1.268  2.8652 -2.6109 -1.3214
15294WAT    EPW62983   5.058   6.030   1.304  0.9165 -0.6144 -0.0721
15295WAT      O62984   5.369   5.978   0.566 -0.0022  0.1680  0.3577
15295WAT     H162985   5.431   6.047   0.586 -1.3417  0.5310  3.9638
15295WAT     H262986   5.286   6.023   0.553 -0.4223 -0.5997  0.3176
15295WAT    EPW62987   5.366   5.993   0.567 -0.2341  0.1149  0.8281
15296WAT      O62988   1.658   0.835   7.314 -0.6672  0.1975 -0.7125
15296WAT     H162989   1.635   0.842   7.221 -0.3626  0.8151 -0.7427
15296WAT     H262990   1.581   0.794   7.354 -0.7985 -0.0798 -1.2329
15296WAT    EPW62991   1.644   0.830   7.307 -0.6443  0.2424 -0.7854
15297WAT      O62992   6.382   1.488   7.061  0.0360 -0.0086  0.7896
15297WAT     H162993   6.400   1.486   6.968  0.9813 -0.7758  0.9759
15297WAT     H262994   6.323   1.414   7.075 -3.3671  2.3669  0.2147
15297WAT    EPW62995   6.376   1.478   7.051 -0.2885  0.2035  0.7384
15298WAT      O62996   7.515   8.747   4.954  0.0683 -0.4933 -0.6603
15298WAT     H162997   7.422   8.726   4.958  0.5046 -2.4734  1.9974
15298WAT     H262998   7.555   8.670   4.914  0.6704  0.1211 -1.2872
15298WAT    EPW62999   7.508   8.734   4.949  0.2050 -0.6738 -0.3927
15299WAT      O63000   9.580   9.306   7.910  0.1760  0.0969  0.4266
15299WAT     H163001   9.570   9.296   8.005  1.1188 -0.9294  0.4440
15299WAT     H263002   9.526   9.237   7.873  0.2917  0.1057  0.2403
15299WAT    EPW63003   9.572   9.295   7.918  0.3161 -0.0372  0.4044
15300WAT      O63004  10.619   0.017   6.198 -0.5631  0.8252 -0.6932
15300WAT     H163005  10.598  -0.056   6.140  0.0790  0.9178 -1.0511
15300WAT     H263006  10.577  -0.005   6.281  0.1033 -0.2322 -0.6246
15300WAT    EPW63007  10.610   0.005   6.202 -0.3905  0.6986 -0.7312
15301WAT      O63008   1.830   0.092   5.199 -0.7074 -0.1084  0.0240
15301WAT     H163009   1.743   0.115   5.232 -0.3350  2.6134 -0.6382
15301WAT     H263010   1.826   0.112   5.105  0.6269  0.0907 -0.0056
15301WAT    EPW63011   1.818   0.098   5.191 -0.4823  0.2768 -0.0672
15302WAT      O63012   4.673   7.587   5.882 -0.4263 -0.7301  0.1748
15302WAT     H163013   4.587   7.621   5.859 -0.3386 -0.9112 -0.4590
15302WAT     H263014   4.676   7.589   5.978 -2.5232 -4.0451  0.4571
15302WAT    EPW63015   4.662   7.592   5.892 -0.6914 -1.1914  0.1283
15303WAT      O63016   5.054   5.610   2.050  0.4170  0.3618  0.6150
15303WAT     H163017   5.044   5.570   2.136  1.7260 -1.1855  0.1213
15303WAT     H263018   5.078   5.701   2.067  0.7204  0.0567  1.8811
15303WAT    EPW63019   5.056   5.616   2.063  0.6297  0.1175  0.7169
15304WAT      O63020   6.611   6.438   5.224 -0.0571 -0.2602 -0.5074
15304WAT     H163021   6.562   6.356   5.217 -0.3742 -0.2743  1.4458
15304WAT     H263022   6.560   6.492   5.284  3.1472 -1.0638  3.3801
15304WAT    EPW63023   6.598   6.434   5.231  0.3238 -0.3676  0.2627
15305WAT      O63024   1.678   3.061   7.485 -0.3205  0.0660 -0.4778
15305WAT     H163025   1.728   3.104   7.415 -1.5490  1.1687 -0.7050
15305WAT     H263026   1.732   2.985   7.509  0.5295  0.1288 -2.0385
15305WAT    EPW63027   1.692   3.057   7.479 -0.3704  0.2198 -0.7131
15306WAT      O63028   6.109   3.010   6.390 -0.2348  0.5393  0.1064
15306WAT     H163029   6.025   3.026   6.433 -0.1320  2.6903 -0.3959
15306WAT     H263030   6.093   2.935   6.333 -0.2772 -2.8196  4.0184
15306WAT    EPW63031   6.096   3.002   6.388 -0.2267  0.3800  0.5562
15307WAT      O63032   9.860   0.946   7.588  0.3406 -0.2583 -0.0524
15307WAT     H163033   9.900   0.984   7.510  1.8027 -1.1749  0.2026
15307WAT     H263034   9.929   0.890   7.625 -0.5657 -0.4224  1.4777
15307WAT    EPW63035   9.875   0.944   7.583  0.4139 -0.4008  0.1831
15308WAT      O63036   3.175   8.618   5.958  0.2718  0.1909  0.1823
15308WAT     H163037   3.217   8.695   5.918  1.1835 -0.6402 -0.4909
15308WAT     H263038   3.109   8.655   6.017  2.0969  1.5727  1.4872
15308WAT    EPW63039   3.172   8.633   5.961  0.6328  0.2637  0.2654
15309WAT      O63040  10.906   1.290   8.877  0.1854 -0.2017 -0.4390
15309WAT     H163041  10.908   1.257   8.967 -1.4911  1.4048  0.2399
15309WAT     H263042  10.854   1.225   8.829 -2.2006  0.8003  0.6503
15309WAT    EPW63043  10.899   1.277   8.882 -0.3505  0.1423 -0.2055
15310WAT      O63044   8.693   9.416   6.032  0.1877 -0.2742 -0.4378
15310WAT     H163045   8.666   9.349   6.095  0.5271 -1.1737 -1.2275
15310WAT     H263046   8.719   9.367   5.954  0.4690  0.7795 -1.0289
15310WAT    EPW63047   8.693   9.401   6.030  0.2699 -0.2542 -0.6199
15311WAT      O63048  10.192   1.629   8.070 -0.9071 -0.5384 -0.4402
15311WAT     H163049  10.227   1.600   7.986 -2.5986  3.0281 -2.5689
15311WAT     H263050  10.098   1.616   8.063 -1.2222  1.1537  0.3242
15311WAT    EPW63051  10.184   1.623   8.058 -1.1721  0.1552 -0.6204
15312WAT      O63052   8.786   1.258   8.674 -0.8335  0.2746 -0.4973
15312WAT     H163053   8.763   1.349   8.655  0.6538  0.8544  0.3459
15312WAT     H263054   8.724   1.232   8.743 -2.6645 -0.0952 -2.1838
15312WAT    EPW63055   8.775   1.266   8.681 -0.8788  0.3024 -0.6089
15313WAT      O63056   5.184   6.460   0.232 -0.5501  0.5860  0.8644
15313WAT     H163057   5.137   6.528   0.184  0.2513 -1.2926 -3.0631
15313WAT     H263058   5.273   6.462   0.195 -0.2971 -1.9879  1.1520
15313WAT    EPW63059   5.190   6.469   0.221 -0.4110 -0.0014  0.3843
15314WAT      O63060   1.031   3.766   8.938 -0.2018  0.2830 -0.1582
15314WAT     H163061   1.113   3.772   8.988 -0.5234  0.3797  0.3623
15314WAT     H263062   1.048   3.698   8.873 -0.3696 -1.1699  1.2439
15314WAT    EPW63063   1.044   3.758   8.936 -0.2664  0.1043  0.0954
15315WAT      O63064   6.894   4.977   2.241 -0.0604 -0.0779  0.5886
15315WAT     H163065   6.929   4.889   2.225 -2.1632 -0.7897 -0.4247
15315WAT     H263066   6.866   4.975   2.333 -0.5692 -0.6570  0.4282
15315WAT    EPW63067   6.895   4.965   2.251 -0.4048 -0.2480  0.4338
15316WAT      O63068   1.069   2.065   7.266  0.0019  0.0426 -0.1692
15316WAT     H163069   1.045   2.027   7.350  0.3162 -1.3561 -0.6859
15316WAT     H263070   1.010   2.140   7.255 -0.4162 -0.0965  1.0249
15316WAT    EPW63071   1.058   2.070   7.275 -0.0117 -0.1601 -0.0799
15317WAT      O63072   7.306  10.239   5.448 -0.1260 -0.4311  0.3818
15317WAT     H163073   7.284  10.293   5.372  0.7321 -0.3390  0.1818
15317WAT     H263074   7.351  10.300   5.508 -0.1515 -0.6688  0.6429
15317WAT    EPW63075   7.309  10.255   5.446 -0.0162 -0.4501  0.3898
15318WAT      O63076   9.891   7.583   8.512 -0.6552 -0.1767  0.1843
15318WAT     H163077   9.826   7.648   8.485 -0.5997 -0.0882  0.2648
15318WAT     H263078   9.875   7.508   8.454 -0.8895 -0.1888  0.2637
15318WAT    EPW63079   9.880   7.581   8.500 -0.6790 -0.1667  0.2050
15319WAT      O63080   0.457   0.118   7.241 -0.2353  0.5229 -0.1204
15319WAT     H163081   0.483   0.210   7.250  1.5290  0.1916 -1.2648
15319WAT     H263082   0.534   0.068   7.269 -0.8787 -0.6063 -0.2760
15319WAT    EPW63083   0.471   0.123   7.246 -0.0874  0.3302 -0.2918
15320WAT      O63084  10.638   0.062   5.235  0.4032 -0.8056  0.3977
15320WAT     H163085  10.645   0.020   5.149  1.0084  0.5549 -0.2427
15320WAT     H263086  10.614  -0.009   5.294 -2.8979 -1.3633 -1.3294
15320WAT    EPW63087  10.636   0.047   5.231  0.0477 -0.6997  0.0854
15321WAT      O63088   3.354   1.912   5.839 -0.1302 -0.0795  0.4433
15321WAT     H163089   3.315   1.869   5.763 -1.6794 -0.2435  1.2843
15321WAT     H263090   3.390   1.994   5.804  1.0063 -1.0674 -0.7989
15321WAT    EPW63091   3.353   1.917   5.824 -0.1847 -0.2314  0.3905
15322WAT      O63092   7.068   1.282   4.261 -0.1023 -0.4677 -0.0490
15322WAT     H163093   7.091   1.327   4.180 -2.2325 -0.5328 -0.7478
15322WAT     H263094   7.149   1.281   4.311  0.1505  4.1548  0.0675
15322WAT    EPW63095   7.081   1.288   4.257 -0.3502  0.1334 -0.1256
15323WAT      O63096   8.718   9.459   7.406 -0.0489  0.5022 -0.3101
15323WAT     H163097   8.760   9.541   7.433 -1.2717  1.0929 -0.1384
15323WAT     H263098   8.692   9.417   7.488 -0.7077  0.6437 -0.4423
15323WAT    EPW63099   8.720   9.464   7.420 -0.2980  0.5994 -0.3049
15324WAT      O63100   6.964   3.297   0.189  0.6364  0.1875  0.1377
15324WAT     H163101   6.889   3.352   0.165  1.0400  0.1607 -1.2414
15324WAT     H263102   7.007   3.278   0.106  0.2653 -2.5941  0.5132
15324WAT    EPW63103   6.960   3.302   0.175  0.6404 -0.1829  0.0053
15325WAT      O63104   1.926   6.669   0.418  0.5700 -0.0734  0.2176
15325WAT     H163105   1.839   6.697   0.448 -0.6930 -1.1035 -2.1889
15325WAT     H263106   1.958   6.612   0.488 -0.8482  0.0455  0.9939
15325WAT    EPW63107   1.919   6.665   0.431  0.2163 -0.1934  0.0026
15326WAT      O63108   7.154   8.587   6.099  0.8131  0.2227 -0.2498
15326WAT     H163109   7.189   8.506   6.136  1.0403 -0.9480 -2.8152
15326WAT     H263110   7.222   8.652   6.116  2.7055 -1.1881 -1.9760
15326WAT    EPW63111   7.168   8.585   6.107  1.0927 -0.1178 -0.8159
15327WAT      O63112   2.528   2.137   8.765  0.7365 -0.4406  0.3639
15327WAT     H163113   2.570   2.223   8.765  1.3658 -0.7336  1.0541
15327WAT     H263114   2.434   2.155   8.776  0.4537  0.2879 -2.5204
15327WAT    EPW63115   2.521   2.150   8.767  0.7821 -0.3831  0.0739
15328WAT      O63116  10.905   1.046   7.710 -0.3932 -0.4042 -0.1034
15328WAT     H163117  10.929   1.002   7.792  2.7303 -1.4253 -1.4035
15328WAT     H263118  10.964   1.121   7.706 -1.9739  0.8606 -0.4714
15328WAT    EPW63119  10.916   1.050   7.721 -0.1893 -0.3721 -0.3231
15329WAT      O63120   0.346   4.309   0.337 -1.0575 -0.9828  0.6984
15329WAT     H163121   0.434   4.313   0.301 -0.8202  2.8852  1.2112
15329WAT     H263122   0.288   4.316   0.261 -1.0499 -4.0832  0.3118
15329WAT    EPW63123   0.350   4.311   0.322 -1.0252 -0.8817  0.7150
15330WAT      O63124   8.928   2.136   5.391  0.4383  0.1702  0.2681
15330WAT     H163125   9.009   2.150   5.441  1.5568  0.3092 -1.4819
15330WAT     H263126   8.930   2.043   5.368 -0.7902 -0.2262  1.6137
15330WAT    EPW63127   8.939   2.125   5.395  0.4239  0.1363  0.2148
15331WAT      O63128   3.925   4.145   0.612  0.3898 -0.4595 -0.7468
15331WAT     H163129   3.978   4.082   0.563  1.0664 -1.2036  0.8537
15331WAT     H263130   3.986   4.182   0.676 -0.1696  1.3500 -1.1780
15331WAT    EPW63131   3.940   4.142   0.614  0.4053 -0.3188 -0.5926
15332WAT      O63132  10.310   0.162   6.697  0.1721 -0.0056 -0.3162
15332WAT     H163133  10.402   0.181   6.714  1.3384 -3.3096 -1.9213
15332WAT     H263134  10.273   0.244   6.665  2.2127  1.7024  1.4336
15332WAT    EPW63135  10.317   0.175   6.695  0.5946 -0.2161 -0.2971
15333WAT      O63136   0.688   3.338   0.771  0.1633  0.0299 -0.6333
15333WAT     H163137   0.721   3.343   0.861 -2.4428 -0.0674  0.4203
15333WAT     H263138   0.712   3.250   0.741  0.9052  0.0008  0.0070
15333WAT    EPW63139   0.696   3.327   0.779 -0.0826  0.0131 -0.4098
15334WAT      O63140   0.032   0.484   8.057 -0.0769 -0.7250  0.0991
15334WAT     H163141   0.008   0.485   8.149  0.7047  1.1323  0.3263
15334WAT     H263142  -0.049   0.461   8.011 -0.6357 -0.9888  1.1862
15334WAT    EPW63143   0.018   0.481   8.063 -0.0472 -0.5148  0.2723
15335WAT      O63144  10.093   1.476   5.753  1.1236 -0.3800  0.0368
15335WAT     H163145  10.053   1.460   5.839 -0.0657 -2.2610 -0.8007
15335WAT     H263146  10.019   1.480   5.693  2.0385 -2.6208 -1.3776
15335WAT    EPW63147  10.078   1.474   5.756  1.0872 -0.9236 -0.2601
15336WAT      O63148   1.150   0.489   8.813 -0.2536 -0.3267 -0.5107
15336WAT     H163149   1.245   0.489   8.813 -0.2137  1.3541  0.4511
15336WAT     H263150   1.125   0.501   8.905 -1.4039 -0.8997 -0.7191
15336WAT    EPW63151   1.159   0.491   8.825 -0.4001 -0.1806 -0.4110
15337WAT      O63152   5.416   9.763   8.337  0.6855 -0.5777  0.4744
15337WAT     H163153   5.414   9.709   8.416  2.0130 -0.0330  0.8984
15337WAT     H263154   5.327   9.797   8.330  1.1082  1.4331  3.2165
15337WAT    EPW63155   5.404   9.760   8.347  0.9162 -0.2413  0.8922
15338WAT      O63156   8.874  10.305   7.794  0.1039 -0.3084 -0.1034
15338WAT     H163157   8.897  10.214   7.774  1.1707  0.3261 -2.0554
15338WAT     H263158   8.798  10.299   7.852  0.5511 -2.4335  0.3384
15338WAT    EPW63159   8.867  10.292   7.799  0.3037 -0.5050 -0.3028
15339WAT      O63160   4.119   4.432   1.264  0.5486  0.2878 -0.2527
15339WAT     H163161   4.067   4.376   1.321  2.7714  0.8890  2.6057
15339WAT     H263162   4.065   4.445   1.186 -1.6496 -2.5837  0.6437
15339WAT    EPW63163   4.105   4.426   1.261  0.5519 -0.0112  0.2425
15340WAT      O63164   5.102   8.220   2.511 -0.1722 -0.0456  0.1875
15340WAT     H163165   5.095   8.210   2.416 -0.8434  0.0153  0.2301
15340WAT     H263166   5.147   8.303   2.524  0.7678 -0.4913 -0.0845
15340WAT    EPW63167   5.107   8.229   2.500 -0.1369 -0.0968  0.1572
15341WAT      O63168   0.407   1.361   7.960 -0.4002 -0.2649 -0.9915
15341WAT     H163169   0.322   1.328   7.992 -0.5245  0.6202 -0.3821
15341WAT     H263170   0.406   1.454   7.982  0.4096 -0.0826 -1.6998
15341WAT    EPW63171   0.395   1.369   7.967 -0.3098 -0.1242 -1.0047
15342WAT      O63172   0.123   0.030   5.622 -0.3962  0.3421 -0.7813
15342WAT     H163173   0.201   0.068   5.582  0.0783 -0.4099 -0.5883
15342WAT     H263174   0.136   0.042   5.716 -0.5786  0.3321 -0.7550
15342WAT    EPW63175   0.135   0.037   5.629 -0.3577  0.2416 -0.7524
15343WAT      O63176  10.785   9.878   8.850 -0.5405 -0.6478  0.3531
15343WAT     H163177  10.874   9.861   8.820 -0.0319 -1.8307  2.3669
15343WAT     H263178  10.777   9.973   8.850  1.0801 -0.4887  1.0846
15343WAT    EPW63179  10.795   9.888   8.846 -0.2599 -0.7825  0.7148
15344WAT      O63180   1.146   1.196   3.349  0.5252  0.1402 -0.4182
15344WAT     H163181   1.098   1.177   3.429  0.2035 -0.5828 -0.7708
15344WAT     H263182   1.162   1.290   3.352  1.2169  0.0021  0.8755
15344WAT    EPW63183   1.142   1.206   3.360  0.5740  0.0266 -0.2942
15345WAT      O63184  10.026   2.518   3.911 -0.8505  0.3038 -1.2373
15345WAT     H163185  10.066   2.596   3.950 -1.5349 -0.0806  0.3116
15345WAT     H263186  10.101   2.469   3.876 -0.4482  1.8250 -2.6547
15345WAT    EPW63187  10.041   2.522   3.912 -0.8879  0.4537 -1.2200
15346WAT      O63188   3.937   3.659   0.008 -0.3556 -0.0395 -0.3848
15346WAT     H163189   3.979   3.609   0.078 -1.9316 -4.5081 -2.2544
15346WAT     H263190   4.004   3.664  -0.060  0.1494  1.5072  0.1876
15346WAT    EPW63191   3.951   3.653   0.008 -0.4970 -0.4250 -0.5559
15347WAT      O63192   9.811   1.179   5.742  0.0790  0.1765 -0.4550
15347WAT     H163193   9.840   1.155   5.831  1.0251 -0.7982 -0.9933
15347WAT     H263194   9.876   1.139   5.685  1.6041  3.7901 -1.5249
15347WAT    EPW63195   9.824   1.170   5.746  0.4053  0.5246 -0.6671
15348WAT      O63196  10.081   7.395   4.922 -0.0512 -0.6275  0.6336
15348WAT     H163197  10.010   7.422   4.864  0.1366 -0.7481  0.3441
15348WAT     H263198  10.109   7.310   4.887 -1.4543 -1.8239  2.2457
15348WAT    EPW63199  10.075   7.387   4.909 -0.2112 -0.8011  0.8078
15349WAT      O63200   2.237   0.095   7.232 -0.0088 -0.2096  0.1569
15349WAT     H163201   2.306   0.031   7.220 -0.7004 -1.1687  1.1252
15349WAT     H263202   2.156   0.045   7.222 -0.5772  0.7601 -0.2894
15349WAT    EPW63203   2.235   0.080   7.229 -0.1750 -0.2082  0.2258
15350WAT      O63204   7.498   8.468   5.667  0.2120 -0.0464 -0.3176
15350WAT     H163205   7.522   8.433   5.753  0.4034  0.3599 -0.2035
15350WAT     H263206   7.430   8.409   5.636  0.3570 -0.3773 -0.0207
15350WAT    EPW63207   7.493   8.455   5.675  0.2565 -0.0362 -0.2632
15351WAT      O63208   0.882   0.517   5.275  0.7850  0.2614  0.4287
15351WAT     H163209   0.882   0.612   5.266  0.7333  0.2468  0.2614
15351WAT     H263210   0.953   0.488   5.217 -0.8913  0.0147 -1.6538
15351WAT    EPW63211   0.892   0.526   5.266  0.5571  0.2269  0.1321
15352WAT      O63212  10.112  10.197   8.303 -0.2779 -0.3506  0.1627
15352WAT     H163213  10.058  10.232   8.374  1.8317 -0.1608  1.7804
15352WAT     H263214  10.135  10.109   8.331  0.6080 -0.2625 -0.2352
15352WAT    EPW63215  10.108  10.190   8.317  0.1173 -0.3138  0.3238
15353WAT      O63216   6.578   9.708   7.010 -0.2460 -0.0258 -0.3539
15353WAT     H163217   6.524   9.676   6.937  0.2348 -0.4928 -0.5120
15353WAT     H263218   6.567   9.642   7.078 -2.4525  1.4777  0.8786
15353WAT    EPW63219   6.569   9.695   7.009 -0.4737  0.1116 -0.2120
15354WAT      O63220   9.708   9.871   8.052 -0.0471 -0.9989  0.0440
15354WAT     H163221   9.672   9.810   8.115 -1.7729  1.7785  1.9806
15354WAT     H263222   9.776   9.918   8.100  1.3754 -1.4671 -1.4396
15354WAT    EPW63223   9.712   9.869   8.066 -0.0873 -0.6943  0.1035
15355WAT      O63224   3.106   2.818   7.759  0.0516 -0.2302 -0.0837
15355WAT     H163225   3.142   2.906   7.757 -1.7711  0.5618 -0.1599
15355WAT     H263226   3.181   2.761   7.743  1.3271  1.2708  0.2965
15355WAT    EPW63227   3.120   2.822   7.756 -0.0206  0.0721 -0.0436
15356WAT      O63228   7.282   9.868   7.202 -0.0028 -0.1474  0.6164
15356WAT     H163229   7.211   9.851   7.140 -0.3561 -0.8223  1.2004
15356WAT     H263230   7.297   9.962   7.195 -0.0252 -0.2151 -0.5087
15356WAT    EPW63231   7.275   9.878   7.193 -0.0525 -0.2456  0.5450
15357WAT      O63232   7.534   9.459   3.390 -0.5128 -0.4106  0.9561
15357WAT     H163233   7.550   9.406   3.312  1.4234  0.1849  0.9069
15357WAT     H263234   7.620   9.493   3.414 -1.6148  2.6139  1.0454
15357WAT    EPW63235   7.547   9.457   3.383 -0.4027  0.0672  0.9614
15358WAT      O63236   0.141   2.332   5.199  0.3983  0.2477 -0.1953
15358WAT     H163237   0.148   2.428   5.198 -0.6502  0.3210 -1.1604
15358WAT     H263238   0.165   2.305   5.111 -2.4298 -0.1133 -0.9416
15358WAT    EPW63239   0.145   2.341   5.188 -0.1130  0.2096 -0.4210
15359WAT      O63240   0.697   2.768   5.759  0.7800 -0.7683  0.2327
15359WAT     H163241   0.674   2.678   5.782  0.3300 -0.7788 -0.2312
15359WAT     H263242   0.685   2.818   5.839  1.7088 -1.2417  0.6762
15359WAT    EPW63243   0.692   2.763   5.772  0.8431 -0.8322  0.2301
15360WAT      O63244   9.018   0.968   6.159 -0.2592  0.4056  0.4186
15360WAT     H163245   9.037   0.990   6.068  0.6384  1.6728  0.8864
15360WAT     H263246   9.102   0.976   6.204 -0.9571  1.2763  1.6415
15360WAT    EPW63247   9.032   0.972   6.153 -0.2327  0.6875  0.6416
15361WAT      O63248   1.898   6.531   3.457 -0.3727  0.2567  0.2954
15361WAT     H163249   1.974   6.515   3.402 -1.4293 -0.0951 -1.1341
15361WAT     H263250   1.933   6.544   3.545  1.2588 -0.6214 -0.1973
15361WAT    EPW63251   1.912   6.531   3.462 -0.2969  0.0947  0.0418
15362WAT      O63252   4.292  10.130   8.228  0.6933 -0.2343  0.2988
15362WAT     H163253   4.344  10.088   8.296  2.2233 -1.6850 -1.6428
15362WAT     H263254   4.313  10.223   8.236  2.0810 -0.5691  0.8429
15362WAT    EPW63255   4.302  10.137   8.238  1.0784 -0.4697  0.1144
15363WAT      O63256   4.394   7.470   6.091 -0.0973 -0.0010  0.4838
15363WAT     H163257   4.314   7.519   6.111  0.1663  0.5913  0.1483
15363WAT     H263258   4.464   7.531   6.115  0.2348 -0.1221 -0.1782
15363WAT    EPW63259   4.393   7.485   6.097 -0.0188  0.0613  0.3524
15364WAT      O63260   1.762   2.187   7.676 -0.5621  0.0188  0.4277
15364WAT     H163261   1.676   2.147   7.668 -1.2276  1.4876  0.0883
15364WAT     H263262   1.781   2.184   7.770 -1.8061  1.3252  0.7534
15364WAT    EPW63263   1.753   2.181   7.687 -0.8138  0.3848  0.4256
15365WAT      O63264   8.349   7.022   7.056  0.5222  0.3081  0.0138
15365WAT     H163265   8.336   6.950   7.118  3.7979  1.5977  2.5042
15365WAT     H263266   8.273   7.018   6.998 -1.6933 -2.3506  2.7807
15365WAT    EPW63267   8.338   7.012   7.056  0.6618  0.1276  0.7069
15366WAT      O63268   2.946   0.225   5.379 -0.0844  0.0327 -0.4826
15366WAT     H163269   2.997   0.287   5.326  0.3476 -0.4097 -0.5939
15366WAT     H263270   2.941   0.146   5.325  2.5123 -1.3453  1.0740
15366WAT    EPW63271   2.952   0.223   5.365  0.3152 -0.2074 -0.2918
15367WAT      O63272  10.316   1.303   6.805  0.5425 -0.0859  0.1613
15367WAT     H163273  10.273   1.365   6.747  0.7113  1.2489  1.4031
15367WAT     H263274  10.291   1.217   6.772 -0.5928  0.6491 -0.9509
15367WAT    EPW63275  10.307   1.300   6.793  0.4153  0.1871  0.1783
15368WAT      O63276   4.548   1.716   8.064  0.4336  0.2609  0.4965
15368WAT     H163277   4.549   1.646   8.129 -1.3676  0.6227  0.9586
15368WAT     H263278   4.631   1.763   8.078  1.0842 -1.0057  1.0034
15368WAT    EPW63279   4.559   1.713   8.074  0.2820  0.1416  0.6242
15369WAT      O63280   9.953   3.369   8.637  0.0313  0.7542 -0.3200
15369WAT     H163281   9.956   3.300   8.570 -2.8001 -3.2805  3.1781
15369WAT     H263282  10.038   3.362   8.681 -0.3756 -1.0126  0.2821
15369WAT    EPW63283   9.965   3.359   8.634 -0.3958 -0.0110  0.2213
15370WAT      O63284   6.253   7.415   0.982  0.1682 -0.1905  0.2941
15370WAT     H163285   6.223   7.449   1.066 -0.5409  1.9255 -0.7397
15370WAT     H263286   6.189   7.349   0.958 -0.8976  0.7708  0.4168
15370WAT    EPW63287   6.241   7.411   0.990 -0.0660  0.2155  0.1740
15371WAT      O63288   3.016   6.769   0.444  0.2988  0.2141 -0.5202
15371WAT     H163289   3.039   6.698   0.385 -0.8341 -0.1309 -0.5794
15371WAT     H263290   2.920   6.772   0.441  0.2560  0.7025  0.6861
15371WAT    EPW63291   3.006   6.760   0.436  0.1436  0.2332 -0.3689
15372WAT      O63292   9.905   0.287   8.391 -0.0666 -0.3592 -0.0767
15372WAT     H163293   9.956   0.209   8.369 -0.2139 -0.6952  0.7320
15372WAT     H263294   9.970   0.350   8.421  0.0058 -0.3313 -0.2901
15372WAT    EPW63295   9.921   0.285   8.392 -0.0758 -0.3998  0.0014
15373WAT      O63296   3.095   7.114   0.818 -0.1055 -0.1149  0.0776
15373WAT     H163297   3.079   7.206   0.835  0.5019  0.6275 -2.8240
15373WAT     H263298   3.172   7.113   0.759  0.6168 -2.5342  0.9166
15373WAT    EPW63299   3.103   7.126   0.812  0.0699 -0.3362 -0.1944
15374WAT      O63300   4.649   3.436   1.952 -0.2829  0.0961  0.6711
15374WAT     H163301   4.563   3.469   1.929  0.4840  0.7310 -1.5570
15374WAT     H263302   4.656   3.353   1.905  0.0096 -0.3645  1.5171
15374WAT    EPW63303   4.639   3.430   1.943 -0.1435  0.1191  0.4888
15375WAT      O63304   9.892   2.426   8.554 -0.2287  0.7014  0.3629
15375WAT     H163305   9.878   2.340   8.593  0.5925  0.6562  0.5738
15375WAT     H263306   9.952   2.410   8.481 -1.3674  0.8588 -0.6399
15375WAT    EPW63307   9.898   2.412   8.549 -0.2708  0.7161  0.2589
15376WAT      O63308   5.129   8.644   6.559  0.1238  0.3794  0.8149
15376WAT     H163309   5.034   8.631   6.560  0.1705 -0.0483  0.2945
15376WAT     H263310   5.149   8.684   6.644 -0.4332 -0.1842  1.2183
15376WAT    EPW63311   5.119   8.647   6.571  0.0565  0.2489  0.7997
15377WAT      O63312   7.408   9.614   7.224  0.6513  0.2577 -0.0377
15377WAT     H163313   7.372   9.703   7.233 -2.6994 -0.8167 -1.3773
15377WAT     H263314   7.476   9.622   7.158  1.4611  2.0303  0.9296
15377WAT    EPW63315   7.412   9.627   7.217  0.3159  0.3495 -0.0868
15378WAT      O63316   8.676   9.972   8.008  0.0804  0.3455  0.2333
15378WAT     H163317   8.593   9.973   8.056 -0.1806  1.4579 -0.2004
15378WAT     H263318   8.657   9.924   7.927  1.0127 -3.2641  1.9704
15378WAT    EPW63319   8.663   9.966   8.003  0.1688  0.0162  0.4053
15379WAT      O63320   5.743   9.856   7.431 -1.1060  0.4154 -0.3328
15379WAT     H163321   5.740   9.929   7.370 -2.0470  1.4820  0.9339
15379WAT     H263322   5.681   9.879   7.500  0.2579 -0.4980  1.2883
15379WAT    EPW63323   5.735   9.869   7.432 -1.0502  0.4354  0.0482
15380WAT      O63324   4.342   8.664   4.770 -0.6459 -0.3137 -0.1529
15380WAT     H163325   4.386   8.746   4.790 -0.4508 -0.5346  0.3378
15380WAT     H263326   4.271   8.689   4.710 -0.1626  0.1076 -0.5621
15380WAT    EPW63327   4.338   8.678   4.764 -0.5567 -0.2866 -0.1421
15381WAT      O63328   6.353   9.295   5.170 -1.1177 -0.7492  0.1232
15381WAT     H163329   6.337   9.289   5.265 -0.1190  0.0694  0.3635
15381WAT     H263330   6.380   9.386   5.157  1.4388 -1.5165 -0.5035
15381WAT    EPW63331   6.354   9.306   5.181 -0.6485 -0.7420  0.0722
15382WAT      O63332   5.971   9.060   8.138 -0.1936  0.0881  0.1192
15382WAT     H163333   6.065   9.042   8.133 -0.3810 -0.5718 -1.5438
15382WAT     H263334   5.954   9.074   8.231  1.9263  2.3572  0.2556
15382WAT    EPW63335   5.981   9.060   8.150  0.0615  0.3004 -0.0815
15383WAT      O63336   2.145   2.949   6.675  0.1190  0.2661  0.2325
15383WAT     H163337   2.068   2.926   6.727 -0.8083 -2.3763 -2.0378
15383WAT     H263338   2.200   2.871   6.679  1.5974  1.2614 -0.0828
15383WAT    EPW63339   2.142   2.936   6.683  0.1917  0.0488 -0.1085
15384WAT      O63340   7.135   9.750   7.429  0.5307 -0.1260 -0.3145
15384WAT     H163341   7.174   9.814   7.369  1.3378 -1.4787 -1.2725
15384WAT     H263342   7.061   9.713   7.381 -0.8456  1.0789  0.7899
15384WAT    EPW63343   7.130   9.754   7.415  0.4559 -0.1459 -0.2952
15385WAT      O63344   7.883   9.320   6.233 -0.1780  0.0793 -0.1479
15385WAT     H163345   7.811   9.303   6.172 -0.6319  2.6675 -0.4239
15385WAT     H263346   7.962   9.293   6.185 -0.6744  0.5327 -1.2349
15385WAT    EPW63347   7.884   9.314   6.219 -0.3033  0.4802 -0.3276
15386WAT      O63348   4.661   6.335   1.378 -0.0156 -0.3594 -0.0314
15386WAT     H163349   4.681   6.386   1.456  0.9553 -0.8727  0.0663
15386WAT     H263350   4.567   6.317   1.384  0.2716 -1.5431  1.7350
15386WAT    EPW63351   4.651   6.339   1.389  0.1507 -0.5832  0.2146
15387WAT      O63352   3.440   5.559   1.348  0.3775 -0.0773 -0.0077
15387WAT     H163353   3.387   5.616   1.404  0.8482  1.5789 -1.1463
15387WAT     H263354   3.396   5.563   1.263  1.2576 -0.2024 -0.4775
15387WAT    EPW63355   3.427   5.567   1.344  0.5558  0.1247 -0.2198
15388WAT      O63356   1.549   1.894   4.731  0.4811 -0.2534  0.0721
15388WAT     H163357   1.470   1.840   4.738  1.4791 -1.8190 -0.0670
15388WAT     H263358   1.544   1.931   4.643 -1.3348  1.7942  0.9477
15388WAT    EPW63359   1.538   1.892   4.721  0.3732 -0.1897  0.1695
15389WAT      O63360   2.517   5.868   0.106 -0.0729  0.4456 -0.0312
15389WAT     H163361   2.520   5.778   0.137  0.2762  0.9623  1.5167
15389WAT     H263362   2.428   5.880   0.073  0.0199 -0.5848 -0.7242
15389WAT    EPW63363   2.506   5.858   0.105 -0.0147  0.3779  0.0816
15390WAT      O63364   6.591   8.781   5.808  0.3772  0.4736  0.4644
15390WAT     H163365   6.627   8.853   5.859  3.1308 -2.1604  2.5874
15390WAT     H263366   6.620   8.702   5.853 -0.8371 -2.0598 -2.7594
15390WAT    EPW63367   6.599   8.780   5.820  0.5801 -0.2079  0.3190
15391WAT      O63368   9.313   3.316   5.798 -0.1632  0.3075 -0.5649
15391WAT     H163369   9.370   3.392   5.792 -0.0711  0.4333  1.3850
15391WAT     H263370   9.247   3.340   5.862 -0.7354 -0.8849 -0.6742
15391WAT    EPW63371   9.312   3.329   5.806 -0.2265  0.1669 -0.3223
15392WAT      O63372   0.381   5.808   3.652 -0.5899  0.0047  0.0250
15392WAT     H163373   0.380   5.716   3.678 -0.4689 -0.0711 -0.2343
15392WAT     H263374   0.399   5.856   3.733  0.0602 -0.2430  0.0335
15392WAT    EPW63375   0.383   5.802   3.666 -0.4882 -0.0379 -0.0079
15393WAT      O63376   1.664   1.643   5.901  0.5955  0.1641  0.1172
15393WAT     H163377   1.653   1.606   5.813  0.0100 -1.1002  0.6822
15393WAT     H263378   1.749   1.610   5.930  0.1068 -0.7334  0.5926
15393WAT    EPW63379   1.673   1.634   5.893  0.4538 -0.1211  0.2544
15394WAT      O63380   7.322   6.934   5.733  0.5806  0.2098 -0.3548
15394WAT     H163381   7.343   7.027   5.724 -0.7559  0.5291 -0.4601
15394WAT     H263382   7.360   6.909   5.817 -0.3420  1.2578  0.4041
15394WAT    EPW63383   7.330   6.943   5.743  0.2828  0.3903 -0.2685
15395WAT      O63384   9.192   0.213   8.287  0.6954  0.0953  0.3969
15395WAT     H163385   9.116   0.223   8.344  0.7230 -1.7815  0.8093
15395WAT     H263386   9.263   0.189   8.346  0.5438 -2.7347 -0.4235
15395WAT    EPW63387   9.192   0.211   8.302  0.6790 -0.5255  0.3428
15396WAT      O63388   8.759   3.171   4.009  0.3282  0.3825  0.4565
15396WAT     H163389   8.687   3.122   4.047  0.6960  0.2231  0.9647
15396WAT     H263390   8.729   3.262   4.008 -0.4112  0.1496 -0.6188
15396WAT    EPW63391   8.746   3.177   4.013  0.2799  0.3308  0.3822
15397WAT      O63392   6.942   7.560   3.619 -0.5775  0.6586  0.2561
15397WAT     H163393   7.028   7.517   3.626 -0.1860  1.0691 -1.5015
15397WAT     H263394   6.960   7.640   3.569 -2.0998  0.3297 -0.8949
15397WAT    EPW63395   6.956   7.565   3.613 -0.7267  0.6695 -0.1277
15398WAT      O63396   0.835   0.803   8.399 -0.8114 -0.2007 -0.1356
15398WAT     H163397   0.824   0.803   8.304  0.8374  1.5346 -0.3825
15398WAT     H263398   0.882   0.884   8.418  2.0050 -2.0787  1.7480
15398WAT    EPW63399   0.840   0.814   8.389 -0.2224 -0.2195  0.0806
15399WAT      O63400   4.433   5.736   2.906 -0.1019 -0.3267  0.0167
15399WAT     H163401   4.434   5.729   2.810 -0.1770 -0.2137  0.0074
15399WAT     H263402   4.348   5.776   2.926  0.2350  0.3553  0.0846
15399WAT    EPW63403   4.422   5.740   2.896 -0.0672 -0.2220  0.0244
15400WAT      O63404   8.361   6.490   3.359 -0.3040 -0.2197 -0.2428
15400WAT     H163405   8.295   6.440   3.407 -1.3527  0.4554 -0.9395
15400WAT     H263406   8.320   6.575   3.344  1.1588  0.6141  0.2735
15400WAT    EPW63407   8.347   6.495   3.363 -0.2494 -0.0207 -0.2666
15401WAT      O63408   7.103   8.443   6.505 -0.8178  0.2479 -0.7958
15401WAT     H163409   7.109   8.455   6.600 -2.4662 -2.4211 -0.2469
15401WAT     H263410   7.061   8.523   6.474 -0.8639  0.8922  0.8000
15401WAT    EPW63411   7.098   8.455   6.514 -1.0412 -0.0191 -0.5128
15402WAT      O63412   8.593   9.985   6.256  0.2884  0.3869 -0.0136
15402WAT     H163413   8.581  10.038   6.334 -1.4643 -1.3894  1.0281
15402WAT     H263414   8.647   9.911   6.285 -0.4304 -0.3230 -0.4211
15402WAT    EPW63415   8.599   9.982   6.270 -0.0372  0.0591  0.0701
15403WAT      O63416   4.575   6.056   0.582 -0.1510 -0.7936 -0.3272
15403WAT     H163417   4.644   6.109   0.621  1.0995 -2.3551 -0.2990
15403WAT     H263418   4.496   6.082   0.629  0.3941  0.9981 -0.3187
15403WAT    EPW63419   4.574   6.066   0.593  0.0858 -0.7632 -0.3223
15404WAT      O63420   9.765   0.911   6.131 -0.4927 -0.7551 -0.0162
15404WAT     H163421   9.795   0.933   6.219 -1.8873 -0.1955  0.3439
15404WAT     H263422   9.755   0.815   6.133 -0.1288 -0.7893  0.2982
15404WAT    EPW63423   9.768   0.901   6.143 -0.6285 -0.6858  0.0725
15405WAT      O63424   9.601  10.192   6.974  0.9088 -0.4998 -0.5675
15405WAT     H163425   9.665  10.220   7.039  0.9484 -0.8136 -0.4679
15405WAT     H263426   9.546  10.129   7.021 -0.0423  0.4392 -0.3818
15405WAT    EPW63427   9.602  10.187   6.989  0.7887 -0.4172 -0.5295
15406WAT      O63428   3.714   6.915   5.041  0.2782  0.0970  0.7929
15406WAT     H163429   3.801   6.887   5.070 -0.5067 -2.8315  0.6198
15406WAT     H263430   3.692   6.855   4.970 -1.2243  1.8871 -0.3637
15406WAT    EPW63431   3.723   6.903   5.035 -0.0234 -0.0532  0.6173
15407WAT      O63432   8.781   4.043   7.478 -0.0077 -0.3592  0.0379
15407WAT     H163433   8.707   4.002   7.435  0.3271 -0.0346 -0.8616
15407WAT     H263434   8.756   4.135   7.488  0.0018 -0.3876  0.3648
15407WAT    EPW63435   8.768   4.050   7.474  0.0381 -0.3200 -0.0377
15408WAT      O63436   7.160  10.013   4.199  0.1193  0.7821 -0.2125
15408WAT     H163437   7.249   9.990   4.225 -0.4983  2.1215  3.8080
15408WAT     H263438   7.109   9.935   4.218  0.2792  0.1774 -2.0705
15408WAT    EPW63439   7.165  10.000   4.205  0.0589  0.8788  0.0727
15409WAT      O63440   2.543   0.457   5.421 -0.0625  0.5739  0.3918
15409WAT     H163441   2.480   0.424   5.357  0.5435  1.4384 -0.6808
15409WAT     H263442   2.492   0.470   5.500 -0.7879 -0.7048  0.1669
15409WAT    EPW63443   2.528   0.454   5.423 -0.0782  0.5193  0.2205
15410WAT      O63444   1.839   1.351   7.173  0.3326 -0.6584 -0.3666
15410WAT     H163445   1.871   1.288   7.236 -1.5180 -2.2099 -0.8759
15410WAT     H263446   1.777   1.302   7.118 -1.8523  1.7274 -0.2762
15410WAT    EPW63447   1.835   1.337   7.174 -0.1996 -0.5483 -0.4215
15411WAT      O63448   3.666   6.620   1.418  0.0359  0.6325  0.3456
15411WAT     H163449   3.595   6.586   1.363 -1.4736  1.8507  1.4686
15411WAT     H263450   3.644   6.592   1.506  1.0653  0.8715  0.6939
15411WAT    EPW63451   3.654   6.612   1.422 -0.0274  0.8245  0.5397
15412WAT      O63452   7.113   7.226   1.647  0.1589  0.3303 -0.3091
15412WAT     H163453   7.107   7.247   1.740  0.6690  0.4343 -0.2966
15412WAT     H263454   7.192   7.172   1.640 -0.6394 -0.8330 -0.4769
15412WAT    EPW63455   7.123   7.222   1.659  0.1209  0.1907 -0.3295
15413WAT      O63456   7.612  10.167   4.190 -0.4048 -0.4384 -0.2056
15413WAT     H163457   7.665  10.146   4.113  0.3152  1.4206 -0.2658
15413WAT     H263458   7.673  10.159   4.263 -0.2397  0.8721 -0.1827
15413WAT    EPW63459   7.627  10.163   4.190 -0.2880 -0.0200 -0.2105
15414WAT      O63460   9.901   1.855   4.153 -0.3041  0.1286 -0.6081
15414WAT     H163461   9.984   1.843   4.106 -0.5800 -1.5157 -0.7112
15414WAT     H263462   9.880   1.769   4.187 -2.0694  0.4824 -0.7222
15414WAT    EPW63463   9.910   1.842   4.151 -0.5736 -0.0416 -0.6366
15415WAT      O63464   6.228   9.559   5.983  0.2419 -0.0985 -0.9809
15415WAT     H163465   6.196   9.530   6.068 -0.5663  4.8622  0.7547
15415WAT     H263466   6.160   9.531   5.921 -0.3210 -1.8142  0.3512
15415WAT    EPW63467   6.215   9.552   5.986  0.0610  0.3290 -0.5763
15416WAT      O63468   2.700   0.046   6.361 -0.2743  0.7994  0.0876
15416WAT     H163469   2.700   0.104   6.286 -1.2307 -0.1898 -0.7113
15416WAT     H263470   2.762  -0.023   6.338 -1.0709  0.1307 -0.1129
15416WAT    EPW63471   2.708   0.044   6.348 -0.5054  0.5807 -0.0441
15417WAT      O63472   2.248   2.500   0.485 -0.7512  0.5634  0.1491
15417WAT     H163473   2.334   2.463   0.502 -0.3377  1.4184 -0.0116
15417WAT     H263474   2.200   2.430   0.441  0.7104  0.8921 -2.1166
15417WAT    EPW63475   2.253   2.486   0.482 -0.5039  0.7194 -0.1709
15418WAT      O63476   5.550   8.954   6.521  0.0794 -0.1972  0.7133
15418WAT     H163477   5.627   8.995   6.483  0.4187 -0.2122  1.3711
15418WAT     H263478   5.489   9.026   6.537 -2.0320 -0.5605 -4.0565
15418WAT    EPW63479   5.552   8.969   6.518 -0.1543 -0.2470  0.1709
15419WAT      O63480  10.206   2.377   8.529 -0.5230  0.4731 -0.1311
15419WAT     H163481  10.252   2.318   8.469 -0.1063  1.1680 -0.5085
15419WAT     H263482  10.251   2.366   8.612 -0.7033 -0.0328 -0.0926
15419WAT    EPW63483  10.218   2.368   8.532 -0.4916  0.4981 -0.1755
15420WAT      O63484   7.832   7.281   7.801 -0.2164  0.2636 -0.2320
15420WAT     H163485   7.766   7.346   7.824 -3.6070 -2.9072 -0.0682
15420WAT     H263486   7.812   7.259   7.710  0.3482 -1.0537 -0.0551
15420WAT    EPW63487   7.821   7.287   7.792 -0.5889 -0.3281 -0.1872
15421WAT      O63488  10.849   3.665   5.903  0.0188 -0.1733 -0.4592
15421WAT     H163489  10.781   3.599   5.889 -0.9845  0.4720  1.0898
15421WAT     H263490  10.801   3.745   5.924  1.2453  0.1458  1.3295
15421WAT    EPW63491  10.834   3.667   5.904  0.0482 -0.0460 -0.0188
15422WAT      O63492   0.377   4.548   2.456  0.5226  0.1399 -0.6417
15422WAT     H163493   0.374   4.478   2.522  3.4042 -0.4023 -0.9789
15422WAT     H263494   0.455   4.598   2.478 -0.0611  1.7141 -1.9645
15422WAT    EPW63495   0.387   4.545   2.468  0.8257  0.2761 -0.8607
15423WAT      O63496   0.061  10.138   6.797  0.1310  0.7911  0.5233
15423WAT     H163497   0.077  10.222   6.753 -1.6831  1.3104  0.7331
15423WAT     H263498   0.075  10.158   6.890  2.2590  0.1441  0.3882
15423WAT    EPW63499   0.065  10.152   6.804  0.1724  0.7739  0.5329
15424WAT      O63500   5.231   5.869   1.576  0.8306  0.4881 -0.0582
15424WAT     H163501   5.324   5.862   1.552  0.9827  0.8358  0.4106
15424WAT     H263502   5.206   5.957   1.550  0.5213  0.2561 -0.5473
15424WAT    EPW63503   5.240   5.879   1.569  0.8099  0.5035 -0.0608
15425WAT      O63504   5.540   4.258   2.006  0.0087  0.0585 -0.1178
15425WAT     H163505   5.584   4.223   2.083  0.9510 -0.1690 -0.7424
15425WAT     H263506   5.447   4.248   2.024  0.2363 -0.6256  0.6949
15425WAT    EPW63507   5.533   4.252   2.018  0.1628 -0.0615 -0.0931
15426WAT      O63508   1.605   1.522   7.938 -0.7188  0.6773 -0.3804
15426WAT     H163509   1.687   1.480   7.966 -0.9161  0.8234  0.4429
15426WAT     H263510   1.585   1.482   7.854 -1.5626 -1.8494  0.9221
15426WAT    EPW63511   1.613   1.511   7.931 -0.8562  0.3633 -0.1001
15427WAT      O63512   4.315   8.032   0.704 -0.3782 -0.3317  0.0834
15427WAT     H163513   4.387   8.079   0.745  0.6929 -2.1379  0.3975
15427WAT     H263514   4.242   8.094   0.705  1.4203  1.9830 -1.2477
15427WAT    EPW63515   4.315   8.046   0.710  0.0002 -0.2651 -0.0507
15428WAT      O63516   7.955   9.426   5.702 -1.1907 -0.2078  0.1204
15428WAT     H163517   8.030   9.389   5.748 -0.3360  0.2378 -0.8656
15428WAT     H263518   7.988   9.446   5.614 -2.7670 -1.0593 -0.7108
15428WAT    EPW63519   7.970   9.424   5.696 -1.2860 -0.2608 -0.1192
15429WAT      O63520   6.493   8.791   1.390  0.0585  0.0240 -0.1166
15429WAT     H163521   6.425   8.832   1.338 -2.9746 -1.5221  2.3419
15429WAT     H263522   6.452   8.771   1.474  3.2277 -2.0020  1.1672
15429WAT    EPW63523   6.479   8.793   1.394  0.0763 -0.4468  0.3771
15430WAT      O63524   8.254  10.179   7.125  0.3574 -0.3645  0.1079
15430WAT     H163525   8.283  10.099   7.169  1.3982 -0.8543 -1.4081
15430WAT     H263526   8.324  10.242   7.140 -0.6271  0.4391  1.6191
15430WAT    EPW63527   8.267  10.177   7.133  0.3648 -0.3228  0.1070
15431WAT      O63528   6.512   9.663   4.513 -0.3315  0.2975 -0.8621
15431WAT     H163529   6.600   9.658   4.548 -1.9078 -2.3076  3.6127
15431WAT     H263530   6.497   9.577   4.474 -1.8483 -0.7998  1.8119
15431WAT    EPW63531   6.521   9.651   4.513 -0.7393 -0.1912  0.0808
15432WAT      O63532   3.552   9.465   8.049  0.4868 -0.4747 -0.2036
15432WAT     H163533   3.493   9.437   8.119  1.7134  0.2166  1.1557
15432WAT     H263534   3.566   9.558   8.066  1.9722 -0.6217 -0.4800
15432WAT    EPW63535   3.546   9.474   8.060  0.8446 -0.4029 -0.0606
15433WAT      O63536   6.585   7.554   6.751  0.5610 -0.4480  0.2909
15433WAT     H163537   6.506   7.520   6.709 -0.0273  1.4682 -0.2639
15433WAT     H263538   6.585   7.648   6.730  2.4588 -0.2104  1.1229
15433WAT    EPW63539   6.575   7.562   6.743  0.7339 -0.1640  0.3273
15434WAT      O63540   5.399   2.611   8.055  0.0189 -0.6154  0.4050
15434WAT     H163541   5.313   2.570   8.064  0.1181 -0.4900  2.2068
15434WAT     H263542   5.419   2.646   8.142  1.1785  0.8096 -0.3789
15434WAT    EPW63543   5.391   2.610   8.067  0.1848 -0.4108  0.5393
15435WAT      O63544   0.813   0.394   6.856  0.2127  0.1119 -0.6015
15435WAT     H163545   0.857   0.412   6.773 -0.3178 -0.0216 -0.9249
15435WAT     H263546   0.788   0.480   6.890  2.0612  0.3177  0.3709
15435WAT    EPW63547   0.815   0.407   6.849  0.3865  0.1215 -0.5159
15436WAT      O63548   5.904   8.105   4.256  0.1248  0.0793  0.3571
15436WAT     H163549   5.892   8.179   4.315  0.7716  1.8108 -1.5225
15436WAT     H263550   5.826   8.052   4.267 -0.1823  0.8148  2.0668
15436WAT    EPW63551   5.892   8.108   4.265  0.1695  0.4048  0.3347
15437WAT      O63552   6.978   1.083   5.925 -0.0567  0.6612  0.2645
15437WAT     H163553   6.934   1.119   6.002 -1.8529  0.1258 -0.4607
15437WAT     H263554   7.045   1.026   5.961 -0.1392  1.2600  1.4294
15437WAT    EPW63555   6.981   1.081   5.940 -0.3042  0.6696  0.3223
15438WAT      O63556   3.239   1.976   5.310 -0.4810  0.9956  0.0251
15438WAT     H163557   3.167   1.912   5.311  0.5871 -0.2577  0.2242
15438WAT     H263558   3.196   2.060   5.299 -2.0760  0.4044  1.2769
15438WAT    EPW63559   3.223   1.978   5.309 -0.5505  0.7524  0.2167
15439WAT      O63560   5.471   6.429   1.971  0.0504 -0.4440 -0.2118
15439WAT     H163561   5.550   6.388   1.937 -0.7597 -1.4190 -0.9635
15439WAT     H263562   5.415   6.441   1.895 -0.8686 -0.5498  0.4240
15439WAT    EPW63563   5.474   6.425   1.957 -0.1779 -0.5867 -0.2271
15440WAT      O63564   8.631   0.062   8.160  0.5915 -0.7540  0.3196
15440WAT     H163565   8.707   0.069   8.218 -0.7628 -0.7944  2.1580
15440WAT     H263566   8.622  -0.032   8.143  1.5402 -0.6748 -0.7853
15440WAT    EPW63567   8.640   0.051   8.165  0.5383 -0.7489  0.4158
15441WAT      O63568   2.190   2.728   8.201 -0.8439 -0.1514  0.6532
15441WAT     H163569   2.213   2.697   8.289 -1.5696  1.4650  1.4451
15441WAT     H263570   2.113   2.677   8.177  0.7831 -2.3977 -0.1524
15441WAT    EPW63571   2.183   2.717   8.209 -0.7250 -0.2345  0.6514
15442WAT      O63572   1.762   3.188   5.018 -0.0670  0.0334  0.3068
15442WAT     H163573   1.757   3.283   5.014  0.4370  0.0633  0.3294
15442WAT     H263574   1.676   3.161   5.050 -0.1001  0.5035  0.6320
15442WAT    EPW63575   1.750   3.197   5.022 -0.0049  0.0993  0.3526
15443WAT      O63576   9.976   0.448   8.733 -0.5123  0.1120  0.0187
15443WAT     H163577   9.938   0.361   8.722 -2.3003  0.8097  0.3399
15443WAT     H263578  10.036   0.458   8.658  0.2021 -1.5929  0.3189
15443WAT    EPW63579   9.979   0.438   8.721 -0.6542 -0.0208  0.1006
15444WAT      O63580   0.470   1.556   4.631  0.1408  0.4237  0.0258
15444WAT     H163581   0.394   1.530   4.683  0.5857  0.1485  0.5406
15444WAT     H263582   0.528   1.480   4.632  0.6509  0.8094  0.0588
15444WAT    EPW63583   0.468   1.543   4.638  0.2668  0.4383  0.0982
15445WAT      O63584   8.081   1.909   7.347 -0.1406 -0.5702 -0.0827
15445WAT     H163585   8.029   1.832   7.327  2.1582 -2.4895  0.9296
15445WAT     H263586   8.167   1.891   7.310  0.8890  0.8399  1.4711
15445WAT    EPW63587   8.085   1.897   7.340  0.2985 -0.6373  0.2558
15446WAT      O63588  10.313   2.288   7.635  0.8445 -0.2159 -0.6987
15446WAT     H163589  10.384   2.225   7.625  0.3178 -0.8834 -0.3190
15446WAT     H263590  10.233   2.236   7.629  0.3853  0.4961 -0.9247
15446WAT    EPW63591  10.312   2.273   7.633  0.7143 -0.2100 -0.6783
15447WAT      O63592   0.410   1.256   6.142  0.2408  0.0332  0.1623
15447WAT     H163593   0.359   1.186   6.100  0.1285  0.4220 -0.3639
15447WAT     H263594   0.396   1.243   6.235 -2.0500  0.9983  0.0257
15447WAT    EPW63595   0.401   1.245   6.149 -0.0762  0.2118  0.0751
15448WAT      O63596   8.517   2.275   5.529 -0.4175 -0.2666 -0.3851
15448WAT     H163597   8.512   2.206   5.463 -3.5120  1.4912 -2.2002
15448WAT     H263598   8.516   2.228   5.612 -2.8265 -2.4865 -1.5201
15448WAT    EPW63599   8.516   2.260   5.531 -1.1435 -0.3276 -0.7744
15449WAT      O63600   8.856  10.140   8.486  0.4563 -0.6191  0.0216
15449WAT     H163601   8.774  10.188   8.491  0.3287 -0.6523 -1.2872
15449WAT     H263602   8.830  10.050   8.466  0.7822 -0.7401  0.1396
15449WAT    EPW63603   8.842  10.134   8.484  0.4826 -0.6399 -0.1354
15450WAT      O63604  10.751   0.585   8.245 -0.1892 -0.2769  0.2186
15450WAT     H163605  10.823   0.645   8.265  0.2825 -0.7195 -0.1051
15450WAT     H263606  10.680   0.641   8.215  0.3531  0.1042 -0.3923
15450WAT    EPW63607  10.751   0.600   8.244 -0.0553 -0.2850  0.0954
15451WAT      O63608   1.968   1.678   5.922 -0.3835 -0.1855  0.6103
15451WAT     H163609   2.018   1.634   5.854 -0.5853 -2.6298  1.9230
15451WAT     H263610   1.967   1.616   5.995 -0.8737  1.9499  2.5635
15451WAT    EPW63611   1.975   1.664   5.923 -0.4748 -0.2263  1.0412
15452WAT      O63612   1.012   2.543   7.529  0.1116  0.1655  0.1772
15452WAT     H163613   1.077   2.554   7.598  0.9016  0.3994 -0.5888
15452WAT     H263614   1.061   2.508   7.455 -0.4437  1.2299 -0.7263
15452WAT    EPW63615   1.027   2.540   7.528  0.1426  0.3368 -0.0429
15453WAT      O63616   6.799  10.264   6.394 -0.0319  0.1118  0.0658
15453WAT     H163617   6.818  10.172   6.375  0.5018 -0.2521  2.0905
15453WAT     H263618   6.703  10.270   6.386 -0.0368 -0.5261 -0.4463
15453WAT    EPW63619   6.789  10.252   6.391  0.0377 -0.0205  0.2654
15454WAT      O63620   1.227   2.486   6.833 -0.4974 -0.1521  0.1844
15454WAT     H163621   1.262   2.502   6.921  0.5557  0.5894 -0.3479
15454WAT     H263622   1.135   2.466   6.848 -0.6105  1.0690  1.3838
15454WAT    EPW63623   1.220   2.486   6.847 -0.3734  0.1067  0.2725
15455WAT      O63624   0.390   4.691   7.178  0.1124  0.2499  0.5085
15455WAT     H163625   0.471   4.739   7.160 -0.8775  1.5804 -0.6177
15455WAT     H263626   0.379   4.632   7.104 -0.5066  0.8850  0.0806
15455WAT    EPW63627   0.399   4.690   7.166 -0.0998  0.5093  0.3033
15456WAT      O63628   5.183   5.792   0.392  1.0882  0.5216  0.2728
15456WAT     H163629   5.099   5.808   0.433  1.0085 -2.1485  1.3952
15456WAT     H263630   5.217   5.879   0.371 -0.7003  1.8235  2.3123
15456WAT    EPW63631   5.177   5.805   0.395  0.8416  0.3409  0.6899
15457WAT      O63632   5.230   9.493   8.282 -0.4304  0.0585  0.2880
15457WAT     H163633   5.168   9.469   8.350 -0.5867  2.6802  1.2107
15457WAT     H263634   5.314   9.501   8.327 -0.3636  0.9436  0.0411
15457WAT    EPW63635   5.233   9.491   8.297 -0.4423  0.5212  0.3772
15458WAT      O63636   5.925  10.157   5.594 -0.0005 -0.1797 -0.7384
15458WAT     H163637   5.980  10.165   5.515  1.2988  0.4789  0.1974
15458WAT     H263638   5.907  10.247   5.620  1.2506 -0.3389  0.8150
15458WAT    EPW63639   5.930  10.170   5.587  0.3359 -0.1140 -0.4101
15459WAT      O63640   7.774   8.743   0.027 -0.0239 -0.3641 -0.0432
15459WAT     H163641   7.734   8.816  -0.021 -0.1074 -0.6323 -0.3949
15459WAT     H263642   7.707   8.674   0.024  0.0284 -0.4326  0.3376
15459WAT    EPW63643   7.760   8.743   0.020 -0.0279 -0.4086 -0.0394
15460WAT      O63644   0.910   1.114   8.808 -0.0829 -0.3853 -0.3441
15460WAT     H163645   0.824   1.153   8.821  0.5009  0.3153  1.6390
15460WAT     H263646   0.932   1.135   8.717 -2.5463 -1.7527 -1.3536
15460WAT    EPW63647   0.902   1.122   8.798 -0.3308 -0.4732 -0.2160
15461WAT      O63648   4.525  10.097   7.336 -0.7713  0.4725 -0.1867
15461WAT     H163649   4.607  10.060   7.369 -0.9454 -1.1893 -1.4568
15461WAT     H263650   4.552  10.165   7.275 -0.4343  2.2350  1.8244
15461WAT    EPW63651   4.539  10.101   7.332 -0.7498  0.4849 -0.0889
15462WAT      O63652   8.588   2.977   7.318 -0.4592 -0.5820 -0.6033
15462WAT     H163653   8.673   2.933   7.311  0.3421  1.0795 -2.5929
15462WAT     H263654   8.586   3.011   7.408 -0.0998 -2.5872  0.2213
15462WAT    EPW63655   8.599   2.976   7.329 -0.3057 -0.6273 -0.7570
15463WAT      O63656   4.335   1.605   2.803  0.3182  0.0463 -0.3899
15463WAT     H163657   4.275   1.587   2.875  0.7459  1.7697  0.4540
15463WAT     H263658   4.418   1.628   2.846  1.1265 -0.6867 -1.4901
15463WAT    EPW63659   4.338   1.605   2.818  0.4811  0.1770 -0.4238
15464WAT      O63660   4.532   2.633   4.835 -0.1092  0.5343 -0.1229
15464WAT     H163661   4.608   2.665   4.883 -0.2994  0.3072  0.3428
15464WAT     H263662   4.460   2.689   4.866 -1.0142 -1.9735  2.7840
15464WAT    EPW63663   4.532   2.645   4.846 -0.2537  0.1737  0.3216
15465WAT      O63664   6.777   9.734   5.496  0.1782 -0.3678 -0.3596
15465WAT     H163665   6.710   9.784   5.448 -0.8797 -1.5162 -0.1648
15465WAT     H263666   6.830   9.799   5.540 -2.1426  0.5743  1.2279
15465WAT    EPW63667   6.775   9.749   5.495 -0.2677 -0.3948 -0.1245
15466WAT      O63668   4.545   0.333   4.609  0.4915  0.8018  0.5486
15466WAT     H163669   4.516   0.277   4.681 -2.2782 -1.8005 -2.3295
15466WAT     H263670   4.465   0.366   4.570  1.5000 -0.7921 -3.3976
15466WAT    EPW63671   4.531   0.330   4.614  0.2589  0.2483 -0.3512
15467WAT      O63672   2.843   3.335   8.137  0.2822  0.3258  0.0492
15467WAT     H163673   2.827   3.248   8.175 -1.7175 -0.4555 -2.3065
15467WAT     H263674   2.926   3.324   8.089 -0.6740 -0.8081 -1.4424
15467WAT    EPW63675   2.852   3.322   8.136 -0.1076  0.0731 -0.4587
15468WAT      O63676   9.086   7.902   1.978  0.4763 -0.4030 -0.3153
15468WAT     H163677   9.018   7.863   2.033  0.9792 -0.6156  0.1708
15468WAT     H263678   9.045   7.979   1.938 -0.0296 -0.5059  0.0095
15468WAT    EPW63679   9.072   7.907   1.980  0.4759 -0.4447 -0.2084
15469WAT      O63680   3.349   2.847   4.769 -0.4284  0.1268 -0.3247
15469WAT     H163681   3.336   2.904   4.845  0.4263  1.7214 -1.3208
15469WAT     H263682   3.322   2.760   4.800 -5.2392  1.5286  0.2396
15469WAT    EPW63683   3.344   2.843   4.783 -0.9502  0.5221 -0.3817
15470WAT      O63684   7.153   7.673   2.036 -0.3119 -1.0390  0.4554
15470WAT     H163685   7.204   7.730   2.094  0.6900 -2.2468  0.8217
15470WAT     H263686   7.073   7.655   2.085  0.1865 -1.4241  1.1566
15470WAT    EPW63687   7.149   7.678   2.050 -0.1140 -1.2488  0.5960
15471WAT      O63688   3.834   1.130   1.787 -0.1705  0.9009 -0.0588
15471WAT     H163689   3.867   1.178   1.711 -0.5138 -1.0331 -1.4883
15471WAT     H263690   3.739   1.140   1.782 -0.4268 -1.5624 -1.6095
15471WAT    EPW63691   3.826   1.138   1.776 -0.2496  0.3209 -0.4519
15472WAT      O63692   8.573   9.121   4.029  0.4302 -0.0192 -0.1888
15472WAT     H163693   8.513   9.154   4.097  0.2323 -0.6801 -0.0358
15472WAT     H263694   8.653   9.101   4.076  1.6811  3.0890 -0.7366
15472WAT    EPW63695   8.575   9.123   4.045  0.5693  0.3037 -0.2408
15473WAT      O63696   6.569   8.651   7.268  0.0794  0.4725 -0.4086
15473WAT     H163697   6.645   8.674   7.215  0.7990 -0.5251  0.1837
15473WAT     H263698   6.587   8.563   7.300 -1.0087  0.4975  0.3122
15473WAT    EPW63699   6.581   8.643   7.265  0.0308  0.3438 -0.2353
15474WAT      O63700   1.125  10.277   6.818 -0.0212  0.7598  1.0120
15474WAT     H163701   1.077  10.288   6.736  0.1975  1.1635  0.9351
15474WAT     H263702   1.058  10.251   6.882 -0.1144 -0.0657  0.6008
15474WAT    EPW63703   1.110  10.275   6.815 -0.0046  0.7048  0.9472
15475WAT      O63704   3.179   5.013   1.961 -0.1399  0.4516  0.1311
15475WAT     H163705   3.223   5.069   2.024 -0.1997 -0.1092  0.6872
15475WAT     H263706   3.161   5.069   1.887  2.1152  0.5436 -0.4090
15475WAT    EPW63707   3.182   5.028   1.960  0.1496  0.3898  0.1332
15476WAT      O63708   0.043   8.900   2.484 -0.4206  0.2923 -0.2563
15476WAT     H163709   0.072   8.930   2.398  0.8658  1.0083  0.4136
15476WAT     H263710   0.002   8.977   2.524  0.1526  0.3250  0.2756
15476WAT    EPW63711   0.041   8.914   2.478 -0.1753  0.3910 -0.0978
15477WAT      O63712   3.402   1.613   3.461 -0.1231  0.2651  0.1270
15477WAT     H163713   3.366   1.693   3.423 -1.2943 -1.0760 -1.7689
15477WAT     H263714   3.493   1.612   3.432 -0.6850 -0.1405 -1.7471
15477WAT    EPW63715   3.410   1.624   3.452 -0.3517  0.0347 -0.3701
15478WAT      O63716   1.764   3.107   5.477 -0.5272  0.1421  0.4274
15478WAT     H163717   1.708   3.032   5.461  1.1135 -1.4198  1.6198
15478WAT     H263718   1.802   3.092   5.563  1.1529  1.4696 -0.0073
15478WAT    EPW63719   1.762   3.095   5.486 -0.0892  0.1112  0.5274
15479WAT      O63720   4.225   2.327   4.554 -0.0812 -0.2237  0.6914
15479WAT     H163721   4.299   2.321   4.494 -0.8662 -2.0806 -0.1694
15479WAT     H263722   4.211   2.237   4.584 -2.3949 -0.0583  0.2909
15479WAT    EPW63723   4.233   2.315   4.550 -0.4900 -0.4467  0.5250
15480WAT      O63724   2.429   0.612   4.645  0.2661 -0.0863  0.1366
15480WAT     H163725   2.355   0.574   4.597  0.2614  1.2178 -0.9698
15480WAT     H263726   2.498   0.547   4.638  0.2228  0.0047 -1.5887
15480WAT    EPW63727   2.428   0.598   4.638  0.2598  0.0978 -0.2367
15481WAT      O63728   7.832   6.899   0.598 -0.2245  0.3903  1.0899
15481WAT     H163729   7.916   6.868   0.565  0.1925  1.1283  1.4100
15481WAT     H263730   7.849   6.991   0.622 -0.7978  0.2090  2.2704
15481WAT    EPW63731   7.845   6.907   0.597 -0.2451  0.4637  1.2878
15482WAT      O63732   0.874   3.128   2.237 -0.2533  0.2549  0.0116
15482WAT     H163733   0.922   3.061   2.188  1.1343 -0.1627  1.8406
15482WAT     H263734   0.836   3.081   2.311 -2.3657  0.8616 -0.6216
15482WAT    EPW63735   0.875   3.113   2.240 -0.3489  0.2798  0.1694
15483WAT      O63736   6.113   0.661   5.815  0.2889  0.1049 -0.0010
15483WAT     H163737   6.068   0.649   5.899 -0.9378  0.9961 -0.5054
15483WAT     H263738   6.140   0.573   5.790 -0.9438 -0.4283  0.4578
15483WAT    EPW63739   6.110   0.648   5.823 -0.0353  0.1522 -0.0072
15484WAT      O63740   3.252   1.684   4.841  0.0099 -1.1490 -0.1737
15484WAT     H163741   3.200   1.611   4.808 -0.7545 -1.0645  0.7803
15484WAT     H263742   3.283   1.729   4.763 -0.7991 -1.5968 -0.7644
15484WAT    EPW63743   3.249   1.680   4.826 -0.1976 -1.1970 -0.1259
15485WAT      O63744   8.963   9.342   4.976 -0.0568  0.3892  0.1520
15485WAT     H163745   8.925   9.254   4.974 -0.1069  0.2991 -3.7444
15485WAT     H263746   9.042   9.335   4.922  0.9277  2.3709  1.2449
15485WAT    EPW63747   8.968   9.330   4.968  0.0663  0.6385 -0.2179
15486WAT      O63748   9.651  10.328   8.296  0.1405  0.2861 -0.0956
15486WAT     H163749   9.626  10.325   8.203  0.4252 -0.7056 -0.1507
15486WAT     H263750   9.723  10.391   8.299 -1.0055  1.6460 -0.2568
15486WAT    EPW63751   9.657  10.336   8.284  0.0272  0.3347 -0.1245
15487WAT      O63752   1.557   2.674   2.591 -0.2187 -0.1434  0.0138
15487WAT     H163753   1.465   2.698   2.598  0.0102  1.0545 -0.6353
15487WAT     H263754   1.559   2.579   2.597 -1.3796 -0.1083  1.1003
15487WAT    EPW63755   1.545   2.665   2.592 -0.3417  0.0192  0.0715
15488WAT      O63756   3.252   2.626   7.153 -0.1146  0.2510  0.2611
15488WAT     H163757   3.201   2.630   7.234 -1.4062 -1.2674 -0.4213
15488WAT     H263758   3.187   2.631   7.083  0.9929  1.7340 -0.7259
15488WAT    EPW63759   3.237   2.627   7.154 -0.1390  0.2464  0.0408
15489WAT      O63760   4.187   3.319   7.041  0.3459  0.2267 -0.3389
15489WAT     H163761   4.142   3.374   6.977 -1.2221 -0.7805 -0.1601
15489WAT     H263762   4.241   3.260   6.988  1.2841  1.2563 -0.5688
15489WAT    EPW63763   4.188   3.319   7.026  0.2625  0.2296 -0.3457
15490WAT      O63764  10.441   2.618   3.899  0.1081  0.2689 -0.3194
15490WAT     H163765  10.453   2.680   3.971 -1.3143 -0.8865  1.0029
15490WAT     H263766  10.487   2.539   3.927 -0.9277 -0.3862 -0.3808
15490WAT    EPW63767  10.449   2.616   3.912 -0.2155  0.0299 -0.1532
15491WAT      O63768   2.499   1.393   6.261  0.7380 -0.5406 -0.0340
15491WAT     H163769   2.532   1.394   6.171  2.6407  1.0205  0.6080
15491WAT     H263770   2.471   1.303   6.275  0.7854 -0.9116 -2.0405
15491WAT    EPW63771   2.500   1.381   6.251  0.9952 -0.3837 -0.2139
15492WAT      O63772   9.213   8.572   7.946 -0.4256  0.0874 -0.1382
15492WAT     H163773   9.200   8.489   7.900 -2.3958  0.4605 -0.3588
15492WAT     H263774   9.281   8.553   8.011 -0.8061 -1.6773 -0.1979
15492WAT    EPW63775   9.220   8.559   7.948 -0.7358 -0.0963 -0.1752
15493WAT      O63776   3.379   0.083   8.718  0.1582 -0.0816 -0.1704
15493WAT     H163777   3.458   0.088   8.664  0.6029 -0.5913  0.3999
15493WAT     H263778   3.307   0.087   8.656  0.6211  0.8075 -0.6758
15493WAT    EPW63779   3.380   0.084   8.703  0.2779 -0.0316 -0.1616
15494WAT      O63780   3.162   1.531   6.034  0.2539  0.3490 -0.2803
15494WAT     H163781   3.164   1.450   5.984 -1.9914 -0.0414  0.1697
15494WAT     H263782   3.147   1.503   6.124 -0.3143  1.2602 -0.0859
15494WAT    EPW63783   3.161   1.517   6.040 -0.1171  0.4177 -0.1955
15495WAT      O63784   6.903  10.365   7.502  0.6093 -0.3146 -0.8043
15495WAT     H163785   6.852  10.351   7.582  0.3162  0.0799 -0.9172
15495WAT     H263786   6.843  10.411   7.443  0.8256 -0.5857 -1.2499
15495WAT    EPW63787   6.889  10.369   7.504  0.5994 -0.2983 -0.8783
15496WAT      O63788   1.330   0.830   3.718 -0.2370  0.1088 -0.5825
15496WAT     H163789   1.351   0.787   3.801 -1.5865  1.1209  0.3229
15496WAT     H263790   1.405   0.811   3.661  0.4237 -1.1229  0.6603
15496WAT    EPW63791   1.343   0.822   3.721 -0.3278  0.0799 -0.2991
15497WAT      O63792  10.811   2.599   5.102  0.2245 -0.1369  0.3286
15497WAT     H163793  10.770   2.647   5.030  1.1071 -1.9439 -1.5011
15497WAT     H263794  10.738   2.562   5.151 -0.4230 -0.6495 -0.9526
15497WAT    EPW63795  10.796   2.601   5.099  0.2556 -0.4430 -0.0818
15498WAT      O63796   2.815   0.992   8.769  0.8828 -0.2230 -0.6081
15498WAT     H163797   2.806   1.049   8.694  1.4686  0.0376 -0.4883
15498WAT     H263798   2.749   0.924   8.756 -0.8865  1.2943  0.0094
15498WAT    EPW63799   2.805   0.990   8.758  0.7267  0.0114 -0.5107
15499WAT      O63800   0.649   0.378   5.577 -0.2179 -0.3586  0.3213
15499WAT     H163801   0.594   0.300   5.567 -1.2525  0.5900 -2.4716
15499WAT     H263802   0.588   0.452   5.566  0.6867  0.9082  3.0816
15499WAT    EPW63803   0.634   0.378   5.574 -0.2351 -0.0665  0.3171
15500WAT      O63804   3.693   2.215   3.388 -0.0350  0.5362 -0.4835
15500WAT     H163805   3.696   2.194   3.481  0.9882 -1.4216 -0.9077
15500WAT     H263806   3.782   2.200   3.357 -1.0902 -2.4411 -2.4560
15500WAT    EPW63807   3.705   2.211   3.396 -0.0391 -0.1147 -0.7995
15501WAT      O63808   3.458   2.750   5.917 -0.2159 -0.1506 -0.4765
15501WAT     H163809   3.369   2.770   5.888 -0.6316 -2.4139 -0.9753
15501WAT     H263810   3.446   2.708   6.002  0.4079 -0.0396 -0.3317
15501WAT    EPW63811   3.445   2.747   5.924 -0.1886 -0.4345 -0.5231
15502WAT      O63812   9.497   8.080   8.303  0.8484  0.2671 -0.2120
15502WAT     H163813   9.453   8.008   8.258  2.0009 -0.7426  0.2300
15502WAT     H263814   9.581   8.044   8.332  1.4307  1.7587  0.1026
15502WAT    EPW63815   9.503   8.066   8.301  1.0767  0.3309 -0.1116
15503WAT      O63816   1.913   5.270   2.383  0.0186  0.1250 -0.6329
15503WAT     H163817   1.818   5.259   2.379  0.0114  0.2739 -0.8877
15503WAT     H263818   1.933   5.270   2.477 -0.3996  1.4795 -0.5149
15503WAT    EPW63819   1.903   5.269   2.395 -0.0374  0.3231 -0.6511
15504WAT      O63820   2.626   2.030   2.989 -0.0263 -0.9529 -0.4400
15504WAT     H163821   2.688   2.057   3.056 -1.7342 -0.5674  1.0828
15504WAT     H263822   2.540   2.044   3.029 -1.1953  0.2953 -3.0788
15504WAT    EPW63823   2.623   2.036   3.003 -0.4055 -0.7374 -0.5872
15505WAT      O63824   5.852   1.876   4.938 -0.2833  0.1236  0.7841
15505WAT     H163825   5.917   1.946   4.943  1.0854 -1.1179  1.1659
15505WAT     H263826   5.805   1.893   4.856  2.6908 -0.7115 -1.2696
15505WAT    EPW63827   5.855   1.888   4.928  0.2894 -0.1503  0.5639
15506WAT      O63828   5.814   4.101   8.329  1.2142  0.1170 -0.4293
15506WAT     H163829   5.722   4.104   8.306  1.6064 -1.2143 -2.4466
15506WAT     H263830   5.845   4.016   8.296  3.2037  0.6215 -0.0403
15506WAT    EPW63831   5.806   4.090   8.322  1.5283  0.0081 -0.6442
15507WAT      O63832   2.476   3.693   4.800 -0.1715 -0.1930  0.0556
15507WAT     H163833   2.571   3.697   4.806 -0.1640  1.3481 -0.5812
15507WAT     H263834   2.459   3.623   4.737  0.7275  1.7871 -2.5831
15507WAT    EPW63835   2.486   3.684   4.792 -0.0519  0.2714 -0.3762
15508WAT      O63836   2.729   0.631   3.684  0.0970 -0.0852  0.4061
15508WAT     H163837   2.704   0.680   3.605  0.3086 -0.2726  0.2202
15508WAT     H263838   2.821   0.654   3.697  0.1351 -0.2578  0.4461
15508WAT    EPW63839   2.738   0.641   3.675  0.1299 -0.1327  0.3867
15509WAT      O63840   7.895   7.916   6.341  0.1418 -0.4304  0.1778
15509WAT     H163841   7.853   7.959   6.266  1.1197  1.0967  0.4521
15509WAT     H263842   7.987   7.944   6.335  0.8001 -2.4204  0.4614
15509WAT    EPW63843   7.902   7.926   6.330  0.3576 -0.4914  0.2511
15510WAT      O63844   9.427   0.337   8.000  0.5443  0.5003 -0.2303
15510WAT     H163845   9.400   0.403   8.064  1.8363  1.8459 -0.9841
15510WAT     H263846   9.507   0.300   8.037  1.1182  1.0594 -0.8736
15510WAT    EPW63847   9.434   0.341   8.013  0.7906  0.7515 -0.4148
15511WAT      O63848   5.111   0.733   4.613  0.4550 -0.0837 -0.3157
15511WAT     H163849   5.076   0.712   4.700  0.4763  0.8239 -0.0818
15511WAT     H263850   5.205   0.746   4.629  0.0392  3.1443  0.1461
15511WAT    EPW63851   5.119   0.732   4.627  0.4032  0.4617 -0.2241
15512WAT      O63852   4.068   0.680   2.460 -0.2048  0.3041  0.1865
15512WAT     H163853   4.118   0.745   2.510  1.3014 -0.2900 -0.4688
15512WAT     H263854   4.129   0.607   2.449 -2.0340 -1.4840  1.3650
15512WAT    EPW63855   4.083   0.679   2.465 -0.2472 -0.0101  0.2557
15513WAT      O63856   4.511   0.194   4.189  0.0808 -0.2835  0.5007
15513WAT     H163857   4.556   0.181   4.272  0.0277 -1.1671  0.3984
15513WAT     H263858   4.580   0.180   4.123  0.5182  2.0136  0.4052
15513WAT    EPW63859   4.526   0.190   4.191  0.1316 -0.0970  0.4745
15514WAT      O63860   0.074   8.690   6.238  0.0108 -0.6313  0.2100
15514WAT     H163861   0.105   8.679   6.328 -3.0728  0.3359  1.5138
15514WAT     H263862   0.149   8.728   6.192  0.6978  2.0414  3.2082
15514WAT    EPW63863   0.088   8.693   6.244 -0.3053 -0.1516  0.7775
15515WAT      O63864  10.864   2.653   3.685  0.3462  0.3135  0.7004
15515WAT     H163865  10.818   2.717   3.631  3.4294  0.2831 -2.3083
15515WAT     H263866  10.947   2.695   3.705  1.4495 -1.7892  0.7653
15515WAT    EPW63867  10.869   2.667   3.681  0.8984  0.0322  0.3122
15516WAT      O63868  10.590   9.160   8.007 -0.9638  0.0923  0.4570
15516WAT     H163869  10.583   9.184   8.099 -0.5786  1.7579  0.0887
15516WAT     H263870  10.554   9.236   7.960  0.5781  0.0780 -0.8134
15516WAT    EPW63871  10.584   9.173   8.013 -0.7095  0.3095  0.2408
15517WAT      O63872   0.414   4.531   4.416 -0.5693  0.3136  0.7079
15517WAT     H163873   0.421   4.458   4.477 -1.3497 -1.0334 -0.7300
15517WAT     H263874   0.502   4.568   4.412 -0.5519  0.5847  2.7715
15517WAT    EPW63875   0.427   4.526   4.423 -0.6699  0.1717  0.7901
15518WAT      O63876   9.721   9.163   7.000  0.4742 -0.8092 -0.6548
15518WAT     H163877   9.776   9.085   7.000  2.3802  0.4758 -0.0596
15518WAT     H263878   9.772   9.229   6.954 -1.1240  0.1058 -1.2141
15518WAT    EPW63879   9.735   9.161   6.994  0.5150 -0.5188 -0.6502
15519WAT      O63880   3.823   6.709   1.189 -0.8045 -0.0219 -0.1439
15519WAT     H163881   3.785   6.648   1.253  0.1815 -2.0679 -1.4170
15519WAT     H263882   3.917   6.708   1.208 -0.5006 -0.6627 -1.6066
15519WAT    EPW63883   3.831   6.701   1.200 -0.6344 -0.3765 -0.5047
15520WAT      O63884   1.284   3.733   8.184  0.4147 -0.8123  0.0881
15520WAT     H163885   1.327   3.657   8.145  1.9402  0.5672 -0.9996
15520WAT     H263886   1.339   3.807   8.161 -1.2635  0.7161  0.7605
15520WAT    EPW63887   1.297   3.733   8.176  0.3946 -0.4287  0.0334
15521WAT      O63888   3.072   1.480   4.737  0.4050 -0.2437 -0.3000
15521WAT     H163889   3.116   1.506   4.656 -0.7257  0.4369 -0.7151
15521WAT     H263890   3.044   1.390   4.721  1.1753 -0.5014 -0.2280
15521WAT    EPW63891   3.074   1.471   4.724  0.3575 -0.1879 -0.3452
15522WAT      O63892   8.562  10.209   8.226 -0.1902 -0.4283 -0.5078
15522WAT     H163893   8.518  10.285   8.186  0.1509  0.3776  0.6106
15522WAT     H263894   8.589  10.240   8.312  0.3412 -1.7054 -0.2034
15522WAT    EPW63895   8.559  10.223   8.232 -0.0749 -0.4907 -0.3209
15523WAT      O63896   4.309   1.781   7.822  0.1448  0.3376  0.0446
15523WAT     H163897   4.309   1.876   7.819  3.9386  0.6540  3.0258
15523WAT     H263898   4.380   1.755   7.764 -1.1541 -0.8117 -1.1105
15523WAT    EPW63899   4.318   1.790   7.814  0.4737  0.2277  0.2854
15524WAT      O63900   7.475  10.266   4.953  0.2180 -0.5890  0.8373
15524WAT     H163901   7.524  10.184   4.944  0.9846  0.0107 -0.6028
15524WAT     H263902   7.415  10.249   5.026  0.4687 -2.3699  0.6719
15524WAT    EPW63903   7.473  10.253   4.962  0.3521 -0.7448  0.6256
15525WAT      O63904  10.592   0.162   3.999  0.0194  0.1667  0.2890
15525WAT     H163905  10.620   0.096   4.063  2.0145  0.6582 -0.0214
15525WAT     H263906  10.593   0.116   3.915 -0.6295  0.0584  0.3346
15525WAT    EPW63907  10.596   0.147   3.997  0.1974  0.2172  0.2542
15526WAT      O63908   3.234   1.848   3.167  0.2317 -0.2268  0.2439
15526WAT     H163909   3.216   1.824   3.258  0.8723 -1.7931 -0.0213
15526WAT     H263910   3.322   1.886   3.169  0.5053 -0.8448  0.1975
15526WAT    EPW63911   3.243   1.850   3.179  0.3521 -0.5148  0.2029
15527WAT      O63912   3.358   0.743   5.566 -0.8697 -0.0653 -0.6951
15527WAT     H163913   3.282   0.692   5.540 -2.2205  2.4948 -2.0646
15527WAT     H263914   3.400   0.768   5.484 -0.2797  1.0740 -0.0762
15527WAT    EPW63915   3.354   0.740   5.552 -0.9701  0.4227 -0.7942
15528WAT      O63916   7.485   1.652   4.997  0.1106  0.2973 -0.0790
15528WAT     H163917   7.509   1.579   4.940 -2.0866  1.3745 -2.6070
15528WAT     H263918   7.396   1.676   4.970 -0.8120  1.4112  3.3926
15528WAT    EPW63919   7.477   1.646   4.986 -0.3009  0.5863  0.0455
15529WAT      O63920   0.493   7.930   4.128 -0.2111  0.6531 -0.0966
15529WAT     H163921   0.413   7.917   4.077 -0.0454 -0.3060 -0.1349
15529WAT     H263922   0.497   7.854   4.186  0.5734  0.7870  0.0384
15529WAT    EPW63923   0.483   7.918   4.129 -0.0858  0.5445 -0.0837
15530WAT      O63924   9.431   8.871   8.472  0.2084  0.6950  0.1039
15530WAT     H163925   9.411   8.959   8.438  0.2848  1.1664  1.2501
15530WAT     H263926   9.394   8.870   8.560  0.3307 -0.3850  0.1563
15530WAT    EPW63927   9.424   8.883   8.479  0.2351  0.6146  0.2627
15531WAT      O63928   3.360   0.346   7.579  0.3097 -0.2419  0.2813
15531WAT     H163929   3.349   0.352   7.484 -1.9802  1.4625  0.5514
15531WAT     H263930   3.395   0.431   7.605  0.4202 -0.5041  1.0365
15531WAT    EPW63931   3.363   0.358   7.570  0.0223 -0.0517  0.4163
15532WAT      O63932   2.193   5.241   6.218  0.4038 -0.0671  0.7747
15532WAT     H163933   2.202   5.146   6.223  1.4640 -0.0258  0.0909
15532WAT     H263934   2.206   5.271   6.308  0.9728 -0.5093  0.8456
15532WAT    EPW63935   2.196   5.233   6.230  0.6188 -0.1204  0.6938
15533WAT      O63936   1.076   1.036   5.465 -0.3236 -0.3209 -0.0505
15533WAT     H163937   1.093   0.944   5.482  1.1104 -0.3538 -1.4147
15533WAT     H263938   0.987   1.050   5.496  0.3891 -1.4424  2.8441
15533WAT    EPW63939   1.067   1.026   5.471 -0.0405 -0.4731  0.1514
15534WAT      O63940  10.966   0.115   6.531  0.1250 -0.1585 -0.3867
15534WAT     H163941  10.895   0.176   6.551 -0.3550  0.4940 -3.4683
15534WAT     H263942  11.018   0.111   6.611 -1.9647  1.2976  1.1608
15534WAT    EPW63943  10.964   0.122   6.544 -0.2141  0.1196 -0.5891
15535WAT      O63944   1.724   1.570   3.601  0.6308 -0.6982  0.0991
15535WAT     H163945   1.640   1.569   3.648  0.6879 -0.2318  0.2100
15535WAT     H263946   1.765   1.486   3.624 -0.9106 -2.1424 -1.9853
15535WAT    EPW63947   1.718   1.559   3.610  0.4350 -0.8272 -0.1613
15536WAT      O63948   0.726   1.479   1.887  0.0150  0.7232 -0.9166
15536WAT     H163949   0.669   1.556   1.885  0.5678  1.2194  0.9302
15536WAT     H263950   0.744   1.464   1.979 -0.2406 -1.7902 -1.2089
15536WAT    EPW63951   0.721   1.487   1.899  0.0542  0.4572 -0.7116
15537WAT      O63952   8.138  10.014   7.971 -0.0532 -0.0574 -0.4787
15537WAT     H163953   8.089  10.086   7.932 -1.8262 -0.9098  0.0686
15537WAT     H263954   8.224  10.051   7.989 -0.3990  1.4337 -1.7010
15537WAT    EPW63955   8.143  10.028   7.968 -0.3319  0.0267 -0.5679
15538WAT      O63956  10.148   1.898   7.982 -0.2542  0.0511 -0.7694
15538WAT     H163957  10.067   1.901   7.930 -0.5427 -0.0984 -0.3406
15538WAT     H263958  10.165   1.805   7.993 -0.8141  0.0628  0.3304
15538WAT    EPW63959  10.139   1.886   7.976 -0.3662  0.0330 -0.5682
15539WAT      O63960   0.643   1.202   3.800 -0.1236 -0.2019 -0.3613
15539WAT     H163961   0.720   1.179   3.749 -0.2811 -0.0406 -0.6797
15539WAT     H263962   0.677   1.245   3.879  0.1453 -0.9755 -0.0518
15539WAT    EPW63963   0.657   1.205   3.804 -0.1089 -0.2827 -0.3623
15540WAT      O63964   3.288   2.176   3.075 -0.4439  0.2679 -0.1492
15540WAT     H163965   3.242   2.123   3.010 -0.6863 -0.3088  0.4848
15540WAT     H263966   3.367   2.206   3.029  0.7384 -2.2628  0.0455
15540WAT    EPW63967   3.292   2.173   3.060 -0.3200 -0.1419 -0.0399
15541WAT      O63968   6.757   8.469   6.704  0.1332 -0.0169  0.2545
15541WAT     H163969   6.772   8.561   6.723 -1.0084 -0.2639  2.8442
15541WAT     H263970   6.741   8.465   6.610  0.1688  2.4157  0.1033
15541WAT    EPW63971   6.757   8.480   6.694 -0.0126  0.2718  0.5763
15542WAT      O63972   0.710   2.361   6.834  0.2443  0.3227  0.2707
15542WAT     H163973   0.675   2.291   6.890  0.7717  0.0360  0.2401
15542WAT     H263974   0.643   2.373   6.767  0.8798 -1.3096 -0.7144
15542WAT    EPW63975   0.696   2.353   6.833  0.3977  0.0696  0.1366
15543WAT      O63976   5.806   3.861   1.237  0.3347  0.6158  0.5041
15543WAT     H163977   5.885   3.884   1.188  0.5405  1.6624  1.2891
15543WAT     H263978   5.736   3.910   1.193  0.0425 -0.5236 -0.3622
15543WAT    EPW63979   5.807   3.871   1.225  0.3233  0.6036  0.4933
15544WAT      O63980   6.976   3.104   6.532  0.7968  0.0900 -0.1150
15544WAT     H163981   6.977   3.014   6.500  0.3790  0.0528 -0.0186
15544WAT     H263982   6.904   3.146   6.486  1.5962  0.6529 -0.8994
15544WAT    EPW63983   6.967   3.098   6.522  0.8471  0.1593 -0.2058
15545WAT      O63984   8.095   8.946   7.808  0.6121  1.3068 -0.1618
15545WAT     H163985   8.100   8.922   7.716  1.2062  2.0092 -0.3212
15545WAT     H263986   8.105   8.863   7.855  3.3997  1.2410 -0.6893
15545WAT    EPW63987   8.097   8.932   7.802  1.0581  1.3909 -0.2525
15546WAT      O63988   1.436   0.166   6.704  0.0748 -0.3097 -0.1675
15546WAT     H163989   1.511   0.108   6.698 -1.4294 -2.5551  1.1585
15546WAT     H263990   1.379   0.139   6.632  0.4367  1.3675 -1.1604
15546WAT    EPW63991   1.438   0.155   6.694 -0.0759 -0.3847 -0.1235
15547WAT      O63992   1.218   2.326   3.680 -0.3619  0.1401 -0.0876
15547WAT     H163993   1.176   2.264   3.740  0.7957 -1.6190 -1.0123
15547WAT     H263994   1.263   2.388   3.738 -1.1643 -0.1327  0.8654
15547WAT    EPW63995   1.218   2.326   3.696 -0.3150 -0.1278 -0.0840
15548WAT      O63996  10.558   8.701   3.757  0.5236 -0.3226  0.6962
15548WAT     H163997  10.628   8.690   3.692  0.2565 -1.0837  0.5270
15548WAT     H263998  10.488   8.746   3.709  0.7546  0.1181  0.7676
15548WAT    EPW63999  10.558   8.706   3.742  0.5188 -0.3643  0.6833
15549WAT      O64000  10.912   0.932   6.620  0.5442 -0.4677 -0.4023
15549WAT     H164001  10.936   1.001   6.683 -1.3010  1.4698 -1.6824
15549WAT     H264002  10.819   0.918   6.634  0.4048 -1.0235 -1.7656
15549WAT    EPW64003  10.903   0.939   6.630  0.2823 -0.2855 -0.7508
15550WAT      O64004  10.002   8.333   4.450  0.1557  0.3402 -0.0765
15550WAT     H164005  10.066   8.357   4.384 -1.4236  1.0270 -1.4453
15550WAT     H264006  10.013   8.239   4.462  0.8431  0.3089 -0.8983
15550WAT    EPW64007  10.012   8.324   4.443  0.0381  0.4268 -0.3655
15551WAT      O64008   4.174   1.447   5.273  0.1356  0.8913 -0.0496
15551WAT     H164009   4.243   1.473   5.213 -0.7665  2.1453 -0.5954
15551WAT     H264010   4.131   1.529   5.297 -0.8556  0.1939  0.6624
15551WAT    EPW64011   4.177   1.461   5.269 -0.1142  0.9646 -0.0277
15552WAT      O64012   1.219   0.719   0.042 -0.9812  0.1833 -0.2523
15552WAT     H164013   1.281   0.750   0.108 -0.5342 -0.0136 -0.5732
15552WAT     H264014   1.195   0.631   0.071 -1.3818  0.3929  0.0579
15552WAT    EPW64015   1.224   0.711   0.054 -0.9751  0.1850 -0.2537
15553WAT      O64016   4.315   1.748   5.314  0.1513  0.1700 -0.6908
15553WAT     H164017   4.311   1.832   5.269 -0.2199 -0.0959 -1.1607
15553WAT     H264018   4.353   1.688   5.250 -0.6589 -0.2788 -0.7618
15553WAT    EPW64019   4.320   1.751   5.300 -0.0043  0.0758 -0.7622
15554WAT      O64020   0.052  10.126   8.737 -0.2331  0.6728  0.5233
15554WAT     H164021  -0.006  10.123   8.813 -0.1630 -1.4158  0.5462
15554WAT     H264022  -0.007  10.123   8.662 -0.2992  2.6791  0.4384
15554WAT    EPW64023   0.037  10.125   8.737 -0.2325  0.6623  0.5150
15555WAT      O64024   7.981   5.796   6.311 -0.1150 -0.7482  0.2939
15555WAT     H164025   8.073   5.770   6.301  0.5130  1.0108  1.1037
15555WAT     H264026   7.963   5.850   6.235 -0.3826 -0.8048  0.3163
15555WAT    EPW64027   7.991   5.800   6.300 -0.0677 -0.5238  0.4036
15556WAT      O64028   6.824   1.170   6.396  0.0956  0.0941  0.0097
15556WAT     H164029   6.783   1.107   6.336  0.1988  1.0079 -1.0666
15556WAT     H264030   6.751   1.223   6.427  0.2580  0.8939 -0.8996
15556WAT    EPW64031   6.809   1.169   6.392  0.1307  0.3201 -0.2520
15557WAT      O64032   1.815   0.398   5.790 -0.1287 -0.5021  0.1954
15557WAT     H164033   1.795   0.479   5.744 -1.0505 -0.6789  0.2456
15557WAT     H264034   1.770   0.330   5.740 -1.4418 -0.6563  1.4990
15557WAT    EPW64035   1.806   0.400   5.777 -0.4235 -0.5457  0.3736
15558WAT      O64036  10.129   0.463   8.514  0.0303  0.4793  0.2656
15558WAT     H164037  10.114   0.520   8.438  1.3522 -2.6460 -2.5886
15558WAT     H264038  10.223   0.470   8.530  0.2914 -1.1428 -0.4190
15558WAT    EPW64039  10.140   0.471   8.506  0.2394 -0.1469 -0.2012
15559WAT      O64040   1.218   9.448   3.414  0.2593 -0.2735  0.4038
15559WAT     H164041   1.179   9.444   3.327 -1.3054  1.5908  0.9723
15559WAT     H264042   1.247   9.539   3.423  0.1539 -0.3768  1.9337
15559WAT    EPW64043   1.217   9.459   3.404  0.0390 -0.0410  0.6806
15560WAT      O64044   8.463  10.038   8.625  0.6565  0.1322 -0.3886
15560WAT     H164045   8.409   9.990   8.688 -0.4242  0.5909 -0.9246
15560WAT     H264046   8.426  10.015   8.540  0.6567  1.2440 -0.7051
15560WAT    EPW64047   8.451  10.029   8.622  0.5140  0.3390 -0.5007
15561WAT      O64048  10.087   0.642   7.429 -0.0736 -0.1904 -0.5239
15561WAT     H164049  10.033   0.676   7.500 -0.2345 -0.0058 -0.7353
15561WAT     H264050  10.176   0.669   7.452 -0.0888 -0.3469 -0.2654
15561WAT    EPW64051  10.092   0.650   7.442 -0.0968 -0.1867 -0.5176
15562WAT      O64052   3.504   1.022   5.971 -0.1966  0.8100 -0.1816
15562WAT     H164053   3.463   0.940   5.944  0.5347 -0.0727  1.2954
15562WAT     H264054   3.431   1.085   5.973 -0.6640  0.3917 -1.8983
15562WAT    EPW64055   3.489   1.019   5.968 -0.1618  0.6384 -0.2134
15563WAT      O64056   0.976   9.808   4.653  0.0146 -0.5348 -0.9335
15563WAT     H164057   1.044   9.754   4.612 -0.2075 -0.2177 -1.7249
15563WAT     H264058   0.938   9.751   4.720  1.8868 -0.3228  0.3781
15563WAT    EPW64059   0.980   9.793   4.657  0.2323 -0.4654 -0.8650
15564WAT      O64060  10.082  10.178   4.715 -0.5773 -0.3262 -0.5239
15564WAT     H164061  10.099  10.101   4.660  2.9841 -0.1343  0.0669
15564WAT     H264062   9.990  10.171   4.738 -0.4330 -4.4606 -0.4499
15564WAT    EPW64063  10.072  10.167   4.711 -0.0882 -0.8459 -0.4363
15565WAT      O64064   6.176   0.161   5.621 -0.3714 -0.3762  0.1223
15565WAT     H164065   6.103   0.141   5.679 -1.0484 -2.3452 -1.3152
15565WAT     H264066   6.140   0.153   5.532  0.7940  1.8760 -0.6328
15565WAT    EPW64067   6.162   0.158   5.617 -0.3068 -0.3389 -0.1671
15566WAT      O64068   0.942   0.234   7.292  0.6253  0.3405 -0.0646
15566WAT     H164069   0.886   0.227   7.216 -0.9988  1.2825  0.9816
15566WAT     H264070   0.884   0.221   7.367  2.3898 -1.9718  1.0608
15566WAT    EPW64071   0.927   0.232   7.292  0.6438  0.1597  0.2217
15567WAT      O64072   1.695   0.795   5.132 -0.0901 -0.3896 -0.6866
15567WAT     H164073   1.663   0.830   5.215 -0.7979  1.3173 -1.6262
15567WAT     H264074   1.619   0.750   5.094 -0.1130 -0.1449 -0.9332
15567WAT    EPW64075   1.681   0.794   5.138 -0.1864 -0.1322 -0.8430
15568WAT      O64076   8.084   5.147   5.241  0.5773  0.4967  0.4832
15568WAT     H164077   8.083   5.195   5.159 -1.3040 -0.1512  0.0804
15568WAT     H264078   8.042   5.063   5.221  1.7712 -0.4442  1.6820
15568WAT    EPW64079   8.079   5.142   5.228  0.4869  0.2871  0.5882
15569WAT      O64080   3.185   0.760   4.041  0.9641  0.4090 -0.2486
15569WAT     H164081   3.254   0.693   4.035  0.8409  0.1207  1.2012
15569WAT     H264082   3.103   0.710   4.038  0.8715  0.4655  0.9337
15569WAT    EPW64083   3.183   0.744   4.040  0.9356  0.3784  0.0987
15570WAT      O64084   8.744  10.028   7.192  0.2781  0.2162 -0.2310
15570WAT     H164085   8.718  10.115   7.222  0.0054  0.8968 -2.3067
15570WAT     H264086   8.713  10.023   7.102  1.7241 -1.4168 -0.7007
15570WAT    EPW64087   8.737  10.039   7.184  0.4330  0.0906 -0.5667
15571WAT      O64088   9.977   7.742   4.008  0.0385  0.4758  0.3062
15571WAT     H164089   9.983   7.793   3.928  0.8066  0.2275  0.1992
15571WAT     H264090   9.990   7.651   3.980  0.4127  0.3981  0.7209
15571WAT    EPW64091   9.980   7.737   3.994  0.1893  0.4330  0.3469
15572WAT      O64092   8.173   7.627   3.707 -0.1078 -0.2068 -0.1787
15572WAT     H164093   8.122   7.546   3.700  1.1420 -0.9750 -0.7082
15572WAT     H264094   8.206   7.626   3.797 -1.5722  0.6618  0.4047
15572WAT    EPW64095   8.170   7.616   3.718 -0.1364 -0.1936 -0.1715
15573WAT      O64096   4.895   1.208   7.341  0.1700  0.0162  0.2620
15573WAT     H164097   4.945   1.182   7.263  0.6339 -0.9238  0.8570
15573WAT     H264098   4.944   1.282   7.376  0.9185 -0.6218  0.5939
15573WAT    EPW64099   4.908   1.214   7.335  0.3295 -0.1919  0.3843
15574WAT      O64100   0.317   0.333   5.460  0.1313 -0.1652 -0.4230
15574WAT     H164101   0.329   0.412   5.407  0.4079  0.9835  1.2723
15574WAT     H264102   0.400   0.286   5.450 -0.8344 -1.5245 -3.2968
15574WAT    EPW64103   0.330   0.337   5.452  0.0404 -0.1930 -0.5784
15575WAT      O64104  10.134   9.533   4.040  0.4435  0.1548 -0.6297
15575WAT     H164105  10.051   9.531   4.088  0.5927 -3.3506 -0.3097
15575WAT     H264106  10.112   9.569   3.954 -1.4834 -0.9526 -0.6379
15575WAT    EPW64107  10.120   9.538   4.035  0.2084 -0.4539 -0.5884
15576WAT      O64108   0.699   2.005   4.236 -0.1470 -0.3839  0.0944
15576WAT     H164109   0.608   2.033   4.240  0.6694  3.6553 -3.0082
15576WAT     H264110   0.709   1.967   4.149  1.3207  0.3291 -0.0858
15576WAT    EPW64111   0.688   2.004   4.225  0.1543  0.2428 -0.3388
15577WAT      O64112   7.870  10.316   8.722 -0.0589  0.5852  0.0260
15577WAT     H164113   7.941  10.354   8.774  0.6923  0.0543 -0.5827
15577WAT     H264114   7.793  10.369   8.744  0.4290  0.9053  1.0167
15577WAT    EPW64115   7.869  10.328   8.732  0.1044  0.5579  0.0758
15578WAT      O64116  10.452   4.491   7.039 -0.5971  0.4307  0.5030
15578WAT     H164117  10.409   4.577   7.036  1.1304  1.3316 -2.1135
15578WAT     H264118  10.396   4.434   6.987 -0.9856  0.3301  1.0182
15578WAT    EPW64119  10.439   4.495   7.032 -0.4201  0.5362  0.2260
15579WAT      O64120   0.516   2.359   8.169  0.5335  0.5125  0.1147
15579WAT     H164121   0.585   2.419   8.198  1.2168 -1.0728  1.9374
15579WAT     H264122   0.470   2.408   8.100  0.9380  3.1917  1.5930
15579WAT    EPW64123   0.519   2.373   8.164  0.6769  0.6567  0.5498
15580WAT      O64124   8.135   7.526   4.827 -0.5961  0.7609 -0.2311
15580WAT     H164125   8.072   7.590   4.795 -0.2816 -1.2020 -5.8420
15580WAT     H264126   8.220   7.563   4.806 -0.2047  0.1692  0.2486
15580WAT    EPW64127   8.138   7.539   4.820 -0.5026  0.4241 -0.9079
15581WAT      O64128   3.861   1.278   7.105  0.3899  0.3751  0.7558
15581WAT     H164129   3.934   1.271   7.166  1.2818 -0.2585 -0.3572
15581WAT     H264130   3.900   1.305   7.022 -0.3396 -1.6286 -0.3219
15581WAT    EPW64131   3.875   1.281   7.102  0.4113  0.0272  0.4668
15582WAT      O64132  10.375  10.179   8.183  0.5826 -0.6170 -0.4127
15582WAT     H164133  10.407  10.089   8.181 -0.2101 -0.9815  1.4190
15582WAT     H264134  10.280  10.171   8.175  0.4907  0.0367 -0.0642
15582WAT    EPW64135  10.367  10.166   8.182  0.4663 -0.5784 -0.1259
15583WAT      O64136   2.120   2.528   5.236 -0.3356  0.2385  0.6454
15583WAT     H164137   2.048   2.465   5.232  0.2959 -0.4333 -1.3043
15583WAT     H264138   2.080   2.612   5.216 -1.0651  0.3964  2.5850
15583WAT    EPW64139   2.106   2.531   5.233 -0.3486  0.1706  0.6440
15584WAT      O64140   8.004   8.885   5.570 -0.3858 -0.6301 -0.0805
15584WAT     H164141   7.938   8.821   5.544  0.1620 -1.8625  1.4016
15584WAT     H264142   7.958   8.944   5.630 -0.5471 -0.4410 -0.3850
15584WAT    EPW64143   7.989   8.884   5.574 -0.3345 -0.7677  0.0746
15585WAT      O64144   3.434   0.770   8.681  0.5036 -0.0422  0.5984
15585WAT     H164145   3.526   0.746   8.688  0.7571  0.0133 -1.7409
15585WAT     H264146   3.412   0.807   8.767  2.4019 -0.8164  1.4787
15585WAT    EPW64147   3.443   0.771   8.693  0.7873 -0.1369  0.4063
15586WAT      O64148   7.258   8.100   7.165  0.0154 -0.0295  0.0043
15586WAT     H164149   7.284   8.032   7.227 -0.1618  0.8648  1.0852
15586WAT     H264150   7.172   8.128   7.195  0.7729  1.8111  0.5955
15586WAT    EPW64151   7.250   8.095   7.177  0.0918  0.3309  0.2248
15587WAT      O64152   7.060   7.308   5.847  0.5435  0.6280  0.5734
15587WAT     H164153   6.971   7.280   5.823  1.6538 -1.3934 -1.5696
15587WAT     H264154   7.066   7.397   5.811 -0.8058  1.0716  1.3657
15587WAT    EPW64155   7.049   7.316   5.839  0.5119  0.4199  0.3951
15588WAT      O64156   0.753   0.183   7.054 -0.0120 -0.2392 -0.1500
15588WAT     H164157   0.794   0.252   7.001  0.6768 -1.0372 -0.6903
15588WAT     H264158   0.660   0.205   7.055  0.1444  0.4530 -0.6944
15588WAT    EPW64159   0.746   0.195   7.047  0.0995 -0.2532 -0.2930
15589WAT      O64160   0.019   8.840   2.784 -0.4969  0.2596  0.1872
15589WAT     H164161   0.065   8.920   2.760  0.1197  0.4528  1.8621
15589WAT     H264162   0.087   8.773   2.785 -0.5256  0.2257  1.1374
15589WAT    EPW64163   0.034   8.842   2.781 -0.4194  0.2809  0.5335
15590WAT      O64164   3.886   2.549   5.178 -0.2327  0.2759 -0.8018
15590WAT     H164165   3.863   2.601   5.256  2.1933 -0.3257  0.4164
15590WAT     H264166   3.936   2.610   5.123  0.8655 -0.1541 -0.3160
15590WAT    EPW64167   3.890   2.564   5.181  0.2321  0.1397 -0.5772
15591WAT      O64168   0.828   9.916   0.321  0.5117  0.2141  0.2414
15591WAT     H164169   0.752   9.866   0.290  1.3308 -1.2503  0.5348
15591WAT     H264170   0.848   9.975   0.248 -0.2352 -0.1495 -0.2762
15591WAT    EPW64171   0.820   9.918   0.307  0.5212 -0.0267  0.2118
15592WAT      O64172  10.420   7.679   5.776  0.4019  0.1430 -0.2324
15592WAT     H164173  10.450   7.651   5.862 -0.5487 -1.6867 -0.4393
15592WAT     H264174  10.493   7.728   5.739  1.8693 -1.3987  0.5318
15592WAT    EPW64175  10.434   7.682   5.782  0.4697 -0.3016 -0.1585
15593WAT      O64176   8.869  10.262   2.694  0.3128 -0.2107 -0.3238
15593WAT     H164177   8.858  10.171   2.723  0.1636  0.0681  0.5350
15593WAT     H264178   8.964  10.271   2.681  0.4498 -0.2038  0.6071
15593WAT    EPW64179   8.880  10.251   2.696  0.3109 -0.1731 -0.0877
15594WAT      O64180   1.393   1.026   5.795 -0.0580 -0.4502 -0.1640
15594WAT     H164181   1.426   1.100   5.744  0.7099 -1.8997 -1.8628
15594WAT     H264182   1.471   0.984   5.830 -0.4400 -0.9156  0.1423
15594WAT    EPW64183   1.408   1.030   5.793 -0.0071 -0.7027 -0.3479
15595WAT      O64184   0.240   1.424   8.772  0.2531 -0.0921  0.1623
15595WAT     H164185   0.301   1.389   8.837  1.5597  0.7773 -0.5414
15595WAT     H264186   0.278   1.508   8.747 -2.7161  1.8697  1.7365
15595WAT    EPW64187   0.253   1.430   8.777  0.0338  0.2813  0.2770
15596WAT      O64188   0.607   2.633   0.528 -0.3171 -0.6985 -0.7719
15596WAT     H164189   0.549   2.700   0.494  0.1518  0.0382 -0.1578
15596WAT     H264190   0.674   2.622   0.461 -0.4014 -0.5622 -0.8780
15596WAT    EPW64191   0.609   2.640   0.515 -0.2663 -0.5834 -0.7049
15597WAT      O64192   7.732   8.466   7.148 -0.2892 -0.0277 -0.1638
15597WAT     H164193   7.784   8.412   7.088 -1.5807 -0.9095 -0.5482
15597WAT     H264194   7.655   8.490   7.097 -2.0964 -1.9306  1.4873
15597WAT    EPW64195   7.729   8.462   7.133 -0.6981 -0.3948  0.0036
15598WAT      O64196  10.597   9.949   5.132  0.2959 -0.3215 -0.2221
15598WAT     H164197  10.597  10.044   5.145  1.5804 -0.1564 -1.1206
15598WAT     H264198  10.549   9.936   5.051  0.5887 -0.3769 -0.3888
15598WAT    EPW64199  10.591   9.960   5.123  0.5040 -0.3071 -0.3629
15599WAT      O64200   7.286   6.079   0.417  0.4105 -0.8697  0.0411
15599WAT     H164201   7.252   6.054   0.503  0.6800  1.0699  0.7475
15599WAT     H264202   7.236   6.026   0.355 -1.5991 -0.4676  1.2357
15599WAT    EPW64203   7.275   6.068   0.420  0.1810 -0.5608  0.2918
15600WAT      O64204   1.827   1.937   6.138  1.0929 -0.0795  0.7065
15600WAT     H164205   1.917   1.925   6.169  0.3654 -1.7686  2.3702
15600WAT     H264206   1.817   1.872   6.068  1.1076 -0.0639  0.6900
15600WAT    EPW64207   1.838   1.927   6.133  0.9990 -0.3002  0.9236
15601WAT      O64208   1.439   3.983   5.725  0.7269  0.4110 -0.2308
15601WAT     H164209   1.468   4.029   5.804  1.4112  0.5853 -0.5772
15601WAT     H264210   1.381   3.914   5.758  2.0151 -0.3517  0.5683
15601WAT    EPW64211   1.435   3.980   5.740  0.9871  0.3335 -0.1709
15602WAT      O64212   4.785   3.195   7.714 -0.1215 -0.4144 -0.3245
15602WAT     H164213   4.737   3.125   7.670 -0.0978  0.0775 -1.1455
15602WAT     H264214   4.751   3.275   7.675 -0.6082  0.0790  1.0515
15602WAT    EPW64215   4.774   3.196   7.703 -0.1826 -0.2844 -0.2513
15603WAT      O64216  10.496   0.481   7.896  0.6780  0.2655 -0.5946
15603WAT     H164217  10.506   0.509   7.805  0.8521  1.9384 -0.0898
15603WAT     H264218  10.419   0.529   7.927 -0.0152 -1.0790 -0.1236
15603WAT    EPW64219  10.487   0.491   7.888  0.6094  0.3089 -0.4661
15604WAT      O64220   0.260   6.785   4.614  0.5985 -0.1824  0.1809
15604WAT     H164221   0.331   6.846   4.593 -0.0543  0.6906  0.4552
15604WAT     H264222   0.245   6.798   4.707 -0.2938  0.0451  0.0070
15604WAT    EPW64223   0.268   6.795   4.623  0.3947 -0.0372  0.1941
15605WAT      O64224   1.502   2.556   4.156 -0.2108  0.7398  0.5671
15605WAT     H164225   1.586   2.564   4.110 -0.8620  2.4036 -0.4239
15605WAT     H264226   1.466   2.473   4.124 -0.1871  1.3760 -1.2135
15605WAT    EPW64227   1.508   2.546   4.145 -0.2936  1.0431  0.2017
15606WAT      O64228   8.112   9.746   7.026  0.1885  0.7803  0.2793
15606WAT     H164229   8.071   9.755   7.112  2.6084 -0.8115  1.7115
15606WAT     H264230   8.181   9.812   7.024  1.8640 -0.8634  0.7355
15606WAT    EPW64231   8.115   9.756   7.037  0.7286  0.3538  0.5283
15607WAT      O64232   0.656   9.677   7.799 -0.3007  0.0564  0.2997
15607WAT     H164233   0.628   9.687   7.708  1.9102  1.9463 -0.2746
15607WAT     H264234   0.698   9.591   7.802 -0.0382  0.1445 -0.5802
15607WAT    EPW64235   0.658   9.667   7.787  0.0255  0.3176  0.1080
15608WAT      O64236   8.309   9.332   7.880 -0.4864  0.0221  0.2514
15608WAT     H164237   8.256   9.285   7.944  0.1150 -3.6363 -1.6504
15608WAT     H264238   8.253   9.339   7.803  1.1240 -2.6475 -1.3058
15608WAT    EPW64239   8.295   9.327   7.879 -0.1945 -0.8125 -0.2048
15609WAT      O64240   2.815   2.073   3.224 -0.1472 -0.1341 -0.1448
15609WAT     H164241   2.867   2.055   3.146 -1.7734 -0.1115 -1.2978
15609WAT     H264242   2.823   2.168   3.237 -1.0572  0.1111 -1.2174
15609WAT    EPW64243   2.823   2.083   3.215 -0.4817 -0.0988 -0.4385
15610WAT      O64244   8.981  10.163   7.088  0.4571 -0.6785  0.3809
15610WAT     H164245   8.938  10.242   7.120  2.1598  0.2679  0.4402
15610WAT     H264246   8.947  10.093   7.144  0.7364  0.3907  1.9710
15610WAT    EPW64247   8.971  10.164   7.100  0.7186 -0.4129  0.5987
15611WAT      O64248   8.274  10.018   4.380 -0.3208 -0.3555 -0.7127
15611WAT     H164249   8.303  10.044   4.467  0.6874 -0.7040 -0.9245
15611WAT     H264250   8.218  10.089   4.350 -0.3854 -0.0685  0.0771
15611WAT    EPW64251   8.270  10.031   4.387 -0.1965 -0.3638 -0.6368
15612WAT      O64252   3.570   0.974   6.244  1.2266 -0.0557 -0.5683
15612WAT     H164253   3.546   0.884   6.223 -1.7056  0.6058 -0.3891
15612WAT     H264254   3.567   1.020   6.160 -0.0223  0.4098 -0.2875
15612WAT    EPW64255   3.567   0.969   6.230  0.6751  0.0930 -0.5078
15613WAT      O64256   2.494   1.177   2.120  0.0298  0.4259  0.5896
15613WAT     H164257   2.506   1.085   2.096 -1.5825 -0.2352  2.0811
15613WAT     H264258   2.540   1.226   2.052  2.1575 -1.5056  0.5273
15613WAT    EPW64259   2.501   1.172   2.108  0.0978  0.0840  0.7780
15614WAT      O64260   8.486   6.955   3.090 -0.5029 -0.2051 -0.7591
15614WAT     H164261   8.562   6.945   3.033 -1.3021 -0.2625 -1.8482
15614WAT     H264262   8.450   6.867   3.098 -1.0092 -0.0340 -1.0612
15614WAT    EPW64263   8.491   6.942   3.083 -0.6747 -0.1900 -0.9426
15615WAT      O64264   2.819   0.849   6.553  0.2358  0.4043 -0.1118
15615WAT     H164265   2.810   0.862   6.459 -1.4282 -3.5953 -0.7146
15615WAT     H264266   2.739   0.803   6.579  3.0210 -4.0271  1.9190
15615WAT    EPW64267   2.807   0.844   6.544  0.3839 -0.7076  0.0763
15616WAT      O64268   4.063   3.776   5.372 -0.4713  0.1790 -0.4535
15616WAT     H164269   4.093   3.864   5.393 -0.3362 -0.2032  1.1188
15616WAT     H264270   4.135   3.719   5.398 -0.6104 -0.4173 -1.3336
15616WAT    EPW64271   4.076   3.780   5.378 -0.4718  0.0499 -0.3624
15617WAT      O64272   1.550   0.529   4.659 -0.4561 -0.4241  0.3444
15617WAT     H164273   1.519   0.447   4.697  0.3967 -0.3143  1.3034
15617WAT     H264274   1.644   0.518   4.649 -0.1836  0.7486  1.3284
15617WAT    EPW64275   1.558   0.517   4.662 -0.3076 -0.2550  0.6006
15618WAT      O64276   1.973   2.759   0.482 -0.0926  0.3510  0.5805
15618WAT     H164277   1.940   2.670   0.475 -0.0904  0.4352 -0.6460
15618WAT     H264278   2.066   2.749   0.504  0.0211  0.0421 -0.0329
15618WAT    EPW64279   1.981   2.746   0.484 -0.0773  0.3214  0.3378
15619WAT      O64280  10.203   9.385   3.504 -0.1952 -0.5469 -0.0259
15619WAT     H164281  10.271   9.424   3.559  0.7323 -0.4483 -1.1831
15619WAT     H264282  10.221   9.292   3.505 -3.4806 -1.4470  4.1904
15619WAT    EPW64283  10.214   9.378   3.511 -0.5064 -0.6523  0.3778
15620WAT      O64284   3.160   0.903   3.147 -0.0592  0.6577  0.1731
15620WAT     H164285   3.230   0.851   3.108 -0.3738  0.3321  0.0361
15620WAT     H264286   3.190   0.993   3.139 -0.5135  0.6791 -1.6531
15620WAT    EPW64287   3.173   0.908   3.141 -0.1606  0.6176 -0.0857
15621WAT      O64288   2.963   1.112   5.837  0.1628 -0.6304 -0.4782
15621WAT     H164289   2.953   1.180   5.771 -0.4399 -0.8702 -0.6421
15621WAT     H264290   2.877   1.069   5.840  0.0015 -0.2798  0.8402
15621WAT    EPW64291   2.950   1.115   5.829  0.0621 -0.6158 -0.3262
15622WAT      O64292  10.235  10.220   5.589 -0.6254  0.0634  0.5299
15622WAT     H164293  10.170  10.154   5.615  0.2319 -0.6604  0.9045
15622WAT     H264294  10.274  10.184   5.510  1.1942 -0.8636  1.7887
15622WAT    EPW64295  10.231  10.206   5.582 -0.2728 -0.1545  0.7451
15623WAT      O64296  10.879   9.250   6.232  0.1387 -0.1337 -0.2377
15623WAT     H164297  10.899   9.174   6.178 -0.9529 -0.6392  0.0391
15623WAT     H264298  10.898   9.221   6.322 -4.1538 -1.6432  0.4264
15623WAT    EPW64299  10.884   9.236   6.237 -0.5713 -0.3996 -0.1135
15624WAT      O64300   0.734   1.945   5.218 -0.4523 -0.3667  0.3889
15624WAT     H164301   0.774   2.031   5.233  0.6131 -0.6686 -0.5573
15624WAT     H264302   0.666   1.939   5.285  1.8175 -0.2850  2.9146
15624WAT    EPW64303   0.731   1.956   5.229 -0.0124 -0.3957  0.5972
15625WAT      O64304   7.261   7.736   6.399 -0.2745 -1.2223  0.1283
15625WAT     H164305   7.313   7.657   6.395 -0.0068 -1.2950  2.9551
15625WAT     H264306   7.178   7.709   6.439  0.3221  0.0486  2.4165
15625WAT    EPW64307   7.257   7.722   6.404 -0.1607 -1.0643  0.8028
15626WAT      O64308   0.306   2.294   3.052  1.0108  0.0588 -0.0435
15626WAT     H164309   0.381   2.308   3.109  0.1861  0.3566  0.9976
15626WAT     H264310   0.257   2.376   3.057  1.7915  0.7954 -2.5774
15626WAT    EPW64311   0.310   2.307   3.060  1.0050  0.1951 -0.2404
15627WAT      O64312   4.526   2.147   0.222  0.5832  0.6850 -0.2538
15627WAT     H164313   4.509   2.173   0.312 -0.4976  1.8086 -0.7486
15627WAT     H264314   4.544   2.230   0.177 -0.1815  0.2887 -1.3261
15627WAT    EPW64315   4.526   2.162   0.228  0.3397  0.7809 -0.4605
15628WAT      O64316   8.131   7.516   5.140  0.3742  0.1111 -0.4646
15628WAT     H164317   8.074   7.446   5.169  1.9653 -1.3517 -0.6943
15628WAT     H264318   8.133   7.508   5.044 -0.2459  1.1603 -0.5830
15628WAT    EPW64319   8.124   7.506   5.131  0.5026  0.0565 -0.5105
15629WAT      O64320   3.295   0.008   6.287 -0.2906  0.2662 -0.0996
15629WAT     H164321   3.272   0.052   6.369  0.7130  1.8668 -0.6411
15629WAT     H264322   3.390   0.002   6.289 -0.2323  0.6031 -1.2879
15629WAT    EPW64323   3.304   0.013   6.298 -0.1507  0.5217 -0.3281
15630WAT      O64324   2.910   3.721   3.668  0.2147  0.2908  0.7210
15630WAT     H164325   2.814   3.725   3.666 -0.2284 -4.6131 -0.3122
15630WAT     H264326   2.929   3.666   3.744  1.9560 -1.0810 -0.6361
15630WAT    EPW64327   2.900   3.714   3.678  0.3859 -0.5369  0.4057
15631WAT      O64328   0.413   7.462   5.688  0.0157 -0.0829 -0.1063
15631WAT     H164329   0.504   7.440   5.702  0.5785  1.5357 -0.8465
15631WAT     H264330   0.373   7.382   5.655  0.9596 -1.0384  1.0050
15631WAT    EPW64331   0.420   7.449   5.685  0.2144  0.0045 -0.0572
15632WAT      O64332   9.343   3.974   4.092 -0.0630 -0.9220  0.6168
15632WAT     H164333   9.340   4.021   4.175  0.3214  1.5658 -0.7016
15632WAT     H264334   9.404   3.902   4.108  0.2981 -0.2807  2.3712
15632WAT    EPW64335   9.350   3.971   4.105  0.0353 -0.5091  0.6745
15633WAT      O64336   7.927   9.662   4.047  0.1029  0.6227  0.6241
15633WAT     H164337   7.873   9.590   4.080  1.1270  0.3681  1.8424
15633WAT     H264338   7.881   9.741   4.074 -0.0346  0.4107  1.0225
15633WAT    EPW64339   7.914   9.663   4.055  0.2198  0.5612  0.8371
15634WAT      O64340  10.763   8.449   6.450  0.1255  0.4070 -0.6649
15634WAT     H164341  10.810   8.366   6.453 -0.5266  0.0542  1.7086
15634WAT     H264342  10.701   8.439   6.378 -1.3079 -2.0107  0.7933
15634WAT    EPW64343  10.761   8.437   6.441 -0.1497  0.0410 -0.1597
15635WAT      O64344   1.846   0.459   7.080  0.5722  0.3564 -0.4245
15635WAT     H164345   1.934   0.423   7.089  1.2362  1.9540 -0.2008
15635WAT     H264346   1.837   0.477   6.986 -1.2544 -3.8327 -1.2849
15635WAT    EPW64347   1.856   0.456   7.069  0.4188  0.0146 -0.5085
15636WAT      O64348   1.600   0.063   8.307  0.0312 -0.3186 -0.3750
15636WAT     H164349   1.599  -0.029   8.334  1.2266 -0.7785 -1.8227
15636WAT     H264350   1.558   0.063   8.221 -1.7820  0.8233  0.4460
15636WAT    EPW64351   1.594   0.051   8.300 -0.0501 -0.2284 -0.4578
15637WAT      O64352   3.362   0.382   5.424 -1.0223 -0.4041  1.1206
15637WAT     H164353   3.284   0.420   5.464 -0.5786  0.2354  1.4070
15637WAT     H264354   3.365   0.420   5.336 -0.6256  0.1740  1.3771
15637WAT    EPW64355   3.352   0.392   5.417 -0.9115 -0.2435  1.1926
15638WAT      O64356   5.678   3.302   8.408 -0.3302  0.0125 -0.0885
15638WAT     H164357   5.667   3.208   8.418  1.3896 -0.2746 -0.5780
15638WAT     H264358   5.589   3.336   8.396 -1.0027 -1.4785  0.5636
15638WAT    EPW64359   5.665   3.294   8.408 -0.1922 -0.2220 -0.0672
15639WAT      O64360  10.081   0.958   6.930 -0.4456 -0.8151  0.0549
15639WAT     H164361  10.071   0.999   7.016  0.1067  1.7946 -1.0394
15639WAT     H264362  10.171   0.925   6.929  0.7634  2.2405 -0.6720
15639WAT    EPW64363  10.091   0.959   6.942 -0.2136 -0.0679 -0.1855
15640WAT      O64364   8.715   7.006   2.931 -0.2280  0.1923 -0.1228
15640WAT     H164365   8.734   7.037   2.842  2.0129  2.0400  0.9085
15640WAT     H264366   8.799   6.974   2.964 -0.7330  0.6691  1.7404
15640WAT    EPW64367   8.729   7.006   2.923  0.0010  0.4988  0.2590
15641WAT      O64368   3.748   2.256   0.865  0.3398  0.3937 -0.2993
15641WAT     H164369   3.721   2.197   0.935  3.5402 -1.1065 -0.1206
15641WAT     H264370   3.788   2.331   0.910  1.2386  0.0311 -0.4601
15641WAT    EPW64371   3.750   2.258   0.880  0.8804  0.1479 -0.2970
15642WAT      O64372   9.013   1.717   5.522  0.2525 -0.0648  0.2371
15642WAT     H164373   8.928   1.755   5.544  0.2296 -1.1978  2.4443
15642WAT     H264374   9.001   1.622   5.532  1.4192 -0.3576 -0.8287
15642WAT    EPW64375   9.000   1.709   5.526  0.4034 -0.2528  0.3874
15643WAT      O64376   9.576  10.211   1.966  0.2105  0.1433  0.3014
15643WAT     H164377   9.637  10.139   1.951  0.2848  0.2935 -0.1205
15643WAT     H264378   9.631  10.281   2.002 -0.0226 -0.3315  1.6501
15643WAT    EPW64379   9.591  10.211   1.969  0.1888  0.1001  0.4237
15644WAT      O64380  10.773  10.332   4.409 -0.3070 -0.6195  0.2004
15644WAT     H164381  10.732  10.412   4.443  0.3214  0.0655 -0.6034
15644WAT     H264382  10.724  10.261   4.450 -1.4104  0.1732  0.3145
15644WAT    EPW64383  10.761  10.333   4.419 -0.3700 -0.4244  0.1094
15645WAT      O64384   1.609   0.219   7.025 -0.0320  0.2742  0.4185
15645WAT     H164385   1.629   0.236   6.932  1.8073  0.5849  0.8332
15645WAT     H264386   1.600   0.306   7.063  1.6803  0.2167  1.0060
15645WAT    EPW64387   1.610   0.233   7.017  0.4364  0.3076  0.5503
15646WAT      O64388   1.180   0.014   7.129  0.0289  0.2718  0.4286
15646WAT     H164389   1.235   0.069   7.184  2.5261 -0.9711 -0.6642
15646WAT     H264390   1.203   0.038   7.039 -3.5794  1.9059 -0.2621
15646WAT    EPW64391   1.190   0.024   7.124 -0.1178  0.3233  0.1938
15647WAT      O64392   6.626   9.010   5.617 -0.0188  0.1339 -0.4953
15647WAT     H164393   6.575   9.074   5.666 -1.5987 -0.5385 -1.1733
15647WAT     H264394   6.618   8.929   5.667  2.2635  0.4674  0.5509
15647WAT    EPW64395   6.618   9.008   5.630  0.0737  0.0892 -0.4468
15648WAT      O64396   8.369   8.051   6.752  0.4750  0.1841 -1.0731
15648WAT     H164397   8.378   8.061   6.658  3.1168 -0.3542 -0.9314
15648WAT     H264398   8.337   8.136   6.782  1.1349  0.8791 -2.2908
15648WAT    EPW64399   8.366   8.064   6.744  0.9103  0.2050 -1.2150
15649WAT      O64400   6.094   6.409   0.907  0.0522 -0.3158  0.5397
15649WAT     H164401   6.129   6.378   0.824  0.7256 -0.5477  0.9021
15649WAT     H264402   6.004   6.376   0.910 -1.3320  2.7441 -1.7442
15649WAT    EPW64403   6.087   6.401   0.897 -0.0420  0.0572  0.2863
15650WAT      O64404   3.735   1.233   3.346  0.4311  0.1915 -0.8469
15650WAT     H164405   3.744   1.188   3.262 -1.5442  0.1464 -1.0665
15650WAT     H264406   3.719   1.163   3.409  0.9734  0.3118 -0.5631
15650WAT    EPW64407   3.734   1.218   3.344  0.2422  0.2015 -0.8384
15651WAT      O64408   7.694  10.345   7.649  0.4456  0.5924 -0.1435
15651WAT     H164409   7.771  10.401   7.654  1.8153 -1.2432  0.2627
15651WAT     H264410   7.647  10.361   7.731  1.5297  0.1868  0.5778
15651WAT    EPW64411   7.698  10.354   7.660  0.7691  0.2966  0.0052
15652WAT      O64412   3.066   5.502   4.876 -1.0828  0.0309 -0.3226
15652WAT     H164413   2.972   5.485   4.881 -0.8642 -0.8757  1.4274
15652WAT     H264414   3.076   5.592   4.906 -1.4641  0.4445 -1.4087
15652WAT    EPW64415   3.055   5.511   4.881 -1.1044 -0.0341 -0.2351
15653WAT      O64416   9.423   0.786   3.116  0.5604  0.8117 -0.0877
15653WAT     H164417   9.407   0.833   3.034 -1.6508 -1.5606 -1.1895
15653WAT     H264418   9.517   0.791   3.129  0.9387  1.6479 -2.5559
15653WAT    EPW64419   9.433   0.792   3.107  0.3190  0.6091 -0.5585
15654WAT      O64420   2.381   1.974   1.262 -0.1951 -0.2567  0.3140
15654WAT     H164421   2.440   2.018   1.201  1.2156 -0.2401  1.6270
15654WAT     H264422   2.395   1.881   1.245 -0.4736 -0.2457  0.0128
15654WAT    EPW64423   2.391   1.968   1.252 -0.0458 -0.2531  0.4475
15655WAT      O64424   3.417   1.714   6.719 -0.1029  0.8770  0.7161
15655WAT     H164425   3.482   1.704   6.789  0.7424 -1.3598 -0.2874
15655WAT     H264426   3.371   1.795   6.741 -0.4392 -0.0929  4.2985
15655WAT    EPW64427   3.420   1.724   6.731 -0.0358  0.4541  1.0564
15656WAT      O64428   4.416   0.256   5.661 -0.4146  0.8298  0.2932
15656WAT     H164429   4.405   0.268   5.755 -1.6834  1.9122  0.0284
15656WAT     H264430   4.332   0.224   5.630  0.7234 -2.1329 -0.1550
15656WAT    EPW64431   4.404   0.253   5.669 -0.4323  0.5818  0.1993
15657WAT      O64432   4.097   4.188   6.682  0.1575 -0.0760  0.0340
15657WAT     H164433   4.143   4.113   6.645  0.2743  0.1113 -0.1968
15657WAT     H264434   4.054   4.230   6.607  1.5848  1.1581 -0.1261
15657WAT    EPW64435   4.097   4.183   6.667  0.3612  0.1116 -0.0174
15658WAT      O64436   0.900   1.205   3.645  0.3275 -0.5263  0.6657
15658WAT     H164437   0.858   1.250   3.571  3.9162  0.1240 -1.2270
15658WAT     H264438   0.889   1.265   3.719 -1.1721  0.0185  0.0394
15658WAT    EPW64439   0.893   1.219   3.645  0.6030 -0.3687  0.3334
15659WAT      O64440   1.925   3.431   7.164 -0.2419  0.3712 -0.3191
15659WAT     H164441   2.013   3.414   7.200 -0.5348  1.9874  1.2767
15659WAT     H264442   1.885   3.492   7.226 -1.7177  1.3539 -2.1601
15659WAT    EPW64443   1.932   3.437   7.177 -0.4751  0.7139 -0.3514
15660WAT      O64444   3.786   3.722   0.967  0.0569  0.9740  0.2461
15660WAT     H164445   3.703   3.770   0.973 -0.8114 -0.5674  1.4598
15660WAT     H264446   3.835   3.751   1.044  0.9223  2.2761 -0.7461
15660WAT    EPW64447   3.781   3.732   0.978  0.0565  0.9425  0.2753
15661WAT      O64448   1.392   2.891   6.729  0.2399 -0.2014  0.5092
15661WAT     H164449   1.433   2.829   6.790  1.5516 -2.7793 -2.6853
15661WAT     H264450   1.440   2.973   6.742 -0.8787  0.0297  4.1957
15661WAT    EPW64451   1.404   2.894   6.739  0.2654 -0.5108  0.5741
15662WAT      O64452   3.393   2.073   2.400  0.0828  0.5870  0.5197
15662WAT     H164453   3.309   2.045   2.363 -0.2283  0.3027  1.4166
15662WAT     H264454   3.421   1.999   2.454  1.5508  0.1470 -0.7751
15662WAT    EPW64455   3.386   2.059   2.402  0.2353  0.4916  0.4673
15663WAT      O64456   1.235   0.787   5.793  0.0622  0.2632  0.5076
15663WAT     H164457   1.318   0.745   5.818 -0.0040  0.2653  0.7337
15663WAT     H264458   1.254   0.881   5.797  0.0956  0.2610  0.3981
15663WAT    EPW64459   1.249   0.794   5.797  0.0579  0.2632  0.5231
15664WAT      O64460   3.498   1.265   1.261  0.3582  0.1554  0.2492
15664WAT     H164461   3.477   1.173   1.243 -1.2889  0.7571 -1.1646
15664WAT     H264462   3.580   1.261   1.311  1.5705 -1.9783 -1.7222
15664WAT    EPW64463   3.506   1.252   1.265  0.3008 -0.0467 -0.1973
15665WAT      O64464   0.721   9.647   5.217  0.1620 -0.3130  0.2541
15665WAT     H164465   0.757   9.581   5.276  1.9480  0.9619  0.6583
15665WAT     H264466   0.644   9.680   5.263  0.0232 -1.1626  0.6561
15665WAT    EPW64467   0.716   9.642   5.231  0.3792 -0.2565  0.3603
15666WAT      O64468   2.952   2.590   5.506 -0.2904  0.1804 -0.4590
15666WAT     H164469   2.897   2.638   5.568  2.2556  1.4018  1.0183
15666WAT     H264470   2.945   2.639   5.425  1.6941  2.8218  0.8283
15666WAT    EPW64471   2.944   2.602   5.504  0.3071  0.6900 -0.0944
15667WAT      O64472   6.853   1.754   3.791  0.0311 -0.0985 -0.1430
15667WAT     H164473   6.857   1.820   3.722  1.7911 -0.1647 -0.1339
15667WAT     H264474   6.878   1.800   3.871  0.0479 -0.5003  0.0850
15667WAT    EPW64475   6.857   1.768   3.792  0.2651 -0.1603 -0.1118
15668WAT      O64476   8.474   9.949   6.652 -0.2671  0.1652  0.3486
15668WAT     H164477   8.501   9.972   6.741 -0.6004 -0.4384  0.6118
15668WAT     H264478   8.489  10.029   6.601  1.4290  0.0576  0.6091
15668WAT    EPW64479   8.480   9.962   6.657 -0.0873  0.0715  0.4177
15669WAT      O64480   2.570   1.141   5.148  0.0028  0.3200 -0.1777
15669WAT     H164481   2.578   1.110   5.238 -1.4680  0.2607 -0.0411
15669WAT     H264482   2.601   1.068   5.095  1.7610  0.6841  0.2610
15669WAT    EPW64483   2.575   1.128   5.153  0.0408  0.3602 -0.1018
15670WAT      O64484   1.960   2.434   3.514  0.2661  0.0774  0.0221
15670WAT     H164485   1.951   2.406   3.423  0.0974  3.4380 -1.1319
15670WAT     H264486   2.044   2.480   3.517 -0.7594  2.0315  0.8949
15670WAT    EPW64487   1.970   2.437   3.502  0.1087  0.7783 -0.0149
15671WAT      O64488   3.483   2.833   3.956  0.5239  0.1461  0.2725
15671WAT     H164489   3.473   2.778   4.034 -0.8615  2.7352  2.0827
15671WAT     H264490   3.564   2.883   3.972  0.0678  0.9168  0.2230
15671WAT    EPW64491   3.493   2.833   3.968  0.2810  0.5893  0.5049
15672WAT      O64492  10.057   9.138   8.164  0.3075  0.6234 -0.2468
15672WAT     H164493  10.111   9.146   8.085  1.0246  2.4419  0.3816
15672WAT     H264494   9.985   9.081   8.137  1.7488 -0.7329 -1.5287
15672WAT    EPW64495  10.055   9.131   8.150  0.5922  0.6847 -0.3324
15673WAT      O64496   2.008   2.543   8.125 -0.8100  0.4745 -0.4654
15673WAT     H164497   1.936   2.487   8.096 -0.5920  0.2618 -0.5971
15673WAT     H264498   2.085   2.485   8.127 -0.7879  0.5133  0.4031
15673WAT    EPW64499   2.009   2.528   8.122 -0.7783  0.4514 -0.3681
15674WAT      O64500   3.216   1.584   4.142 -0.2538 -0.1496 -0.3538
15674WAT     H164501   3.279   1.603   4.212 -1.4253 -2.0138  1.2997
15674WAT     H264502   3.151   1.653   4.149 -0.0554  0.0061 -0.0060
15674WAT    EPW64503   3.216   1.596   4.152 -0.3822 -0.3750 -0.0896
15675WAT      O64504   2.177   4.272   2.255 -0.6885  0.6440  0.0648
15675WAT     H164505   2.175   4.178   2.276 -1.2311  0.1260 -2.0934
15675WAT     H264506   2.246   4.280   2.189 -0.3481  1.8671  0.5463
15675WAT    EPW64507   2.186   4.261   2.249 -0.7151  0.7372 -0.1565
15676WAT      O64508   4.377   4.888   4.531  0.1181  0.6922 -1.1804
15676WAT     H164509   4.423   4.848   4.457  0.9370  0.6066 -0.6435
15676WAT     H264510   4.419   4.973   4.541  0.5389  0.3895 -0.3335
15676WAT    EPW64511   4.389   4.894   4.522  0.2816  0.6409 -0.9978
15677WAT      O64512   4.902   1.641   3.635  0.0243 -0.0912  0.2514
15677WAT     H164513   4.955   1.569   3.600 -0.1063 -0.7037  1.2807
15677WAT     H264514   4.862   1.681   3.557  1.8114  0.2681 -0.5381
15677WAT    EPW64515   4.903   1.637   3.620  0.2427 -0.1246  0.2830
15678WAT      O64516   4.315   3.459   4.631  0.0435  0.3952  0.0147
15678WAT     H164517   4.324   3.461   4.536 -1.3374  0.7556 -0.1190
15678WAT     H264518   4.233   3.504   4.649  0.6625  1.0257  1.4457
15678WAT    EPW64519   4.305   3.465   4.621 -0.0570  0.5258  0.1860
15679WAT      O64520   1.608   2.811   5.714 -0.5834  0.5286 -0.7329
15679WAT     H164521   1.627   2.757   5.791 -0.7929  1.0684 -0.2958
15679WAT     H264522   1.514   2.827   5.720 -0.7164  0.0602 -1.4485
15679WAT    EPW64523   1.598   2.806   5.725 -0.6286  0.5380 -0.7696
15680WAT      O64524   1.480   3.208   1.974 -0.2348  0.2485  0.2056
15680WAT     H164525   1.432   3.179   1.897  0.9817 -2.8185  0.4635
15680WAT     H264526   1.413   3.220   2.041 -0.9713 -0.7548 -0.3237
15680WAT    EPW64527   1.465   3.206   1.973 -0.1714 -0.2884  0.1698
15681WAT      O64528   2.087   4.150   6.797  0.2285 -0.0915  0.2798
15681WAT     H164529   2.099   4.187   6.710 -2.3213  1.7851  0.6026
15681WAT     H264530   2.074   4.226   6.854 -1.4505 -1.3455  1.6921
15681WAT    EPW64531   2.087   4.165   6.793 -0.3291 -0.0095  0.5090
15682WAT      O64532   3.868   3.560   6.342  0.5004  0.6942 -0.4745
15682WAT     H164533   3.844   3.468   6.353  1.2634  0.6566  1.2824
15682WAT     H264534   3.908   3.584   6.426  3.8165  1.5603 -2.1344
15682WAT    EPW64535   3.870   3.551   6.355  1.0383  0.8035 -0.4618
15683WAT      O64536   3.020   2.923   6.012  0.0906 -0.3773  0.2607
15683WAT     H164537   3.088   2.966   5.961  0.6400  0.9564  2.0165
15683WAT     H264538   2.938   2.945   5.967  0.7526 -2.4845 -2.2079
15683WAT    EPW64539   3.018   2.931   6.000  0.2505 -0.4793  0.1671
15684WAT      O64540   4.275   2.683   2.972  0.6592 -0.7491 -0.7102
15684WAT     H164541   4.223   2.619   2.924 -0.5399 -0.9055  0.7314
15684WAT     H264542   4.222   2.706   3.048  0.9516  2.1598 -1.2738
15684WAT    EPW64543   4.261   2.677   2.976  0.5395 -0.3861 -0.5944
15685WAT      O64544   1.130   2.152   5.110 -0.4679  0.2359 -0.2261
15685WAT     H164545   1.173   2.226   5.067 -2.4948  2.1478  0.8446
15685WAT     H264546   1.187   2.130   5.183  0.1653  0.7275 -0.5589
15685WAT    EPW64547   1.143   2.159   5.114 -0.6517  0.5529 -0.1287
15686WAT      O64548   7.926   9.353   7.100  0.3239  0.5073 -0.2233
15686WAT     H164549   8.020   9.369   7.092  0.5190  0.7605  2.0970
15686WAT     H264550   7.891   9.435   7.135 -0.3300 -0.4475  1.4317
15686WAT    EPW64551   7.934   9.366   7.103  0.2632  0.4153  0.3009
15687WAT      O64552   0.791   1.572   5.288  0.0925  0.2864  0.3609
15687WAT     H164553   0.822   1.490   5.248 -1.8715  0.8270 -2.6274
15687WAT     H264554   0.844   1.640   5.246  0.0566  0.6879  0.9647
15687WAT    EPW64555   0.802   1.570   5.277 -0.1713  0.4106  0.0463
15688WAT      O64556   2.555   0.062   2.588 -0.7635 -0.3296  0.1793
15688WAT     H164557   2.545   0.128   2.657 -0.4501 -0.9408  0.8153
15688WAT     H264558   2.486  -0.001   2.605 -0.2100 -0.8837  0.3881
15688WAT    EPW64559   2.545   0.062   2.599 -0.6485 -0.4835  0.2906
15689WAT      O64560   6.767   2.586   7.620  0.5834  0.0653  0.6227
15689WAT     H164561   6.700   2.551   7.679  0.9587  1.6078  2.0487
15689WAT     H264562   6.833   2.517   7.616 -0.3284 -0.8250  0.4754
15689WAT    EPW64563   6.767   2.572   7.627  0.5128  0.1514  0.7915
15690WAT      O64564  10.802   8.493   6.933  0.7128  0.0381  0.6248
15690WAT     H164565  10.805   8.588   6.947 -2.1739  0.0581  1.6869
15690WAT     H264566  10.755   8.459   7.008  1.9839 -2.3486  0.4361
15690WAT    EPW64567  10.796   8.501   6.945  0.4992 -0.2737  0.7401
15691WAT      O64568   4.420   4.025   5.713 -0.3953  0.7002  0.1939
15691WAT     H164569   4.480   3.999   5.783 -0.4523 -0.9722 -0.3396
15691WAT     H264570   4.453   3.981   5.635 -2.7941 -1.0592  0.0590
15691WAT    EPW64571   4.432   4.016   5.712 -0.7193  0.2475  0.1056
15692WAT      O64572   2.700   1.562   2.103  0.1520 -0.2802 -0.3542
15692WAT     H164573   2.614   1.558   2.146  0.8357  1.1695  1.2798
15692WAT     H264574   2.708   1.652   2.074  1.0138 -0.4699 -0.7380
15692WAT    EPW64575   2.690   1.573   2.105  0.3557 -0.1141 -0.1894
15693WAT      O64576   9.045   7.044   0.469  0.3399  0.0574 -0.6142
15693WAT     H164577   9.095   6.998   0.402  2.3713  0.8433  0.2642
15693WAT     H264578   9.025   6.978   0.534 -1.7872 -0.7478 -2.0097
15693WAT    EPW64579   9.049   7.029   0.469  0.3271  0.0551 -0.6824
15694WAT      O64580   4.490   1.720   4.030 -0.6795 -0.3583  0.1120
15694WAT     H164581   4.555   1.733   3.961  0.9681 -2.0118  1.2465
15694WAT     H264582   4.541   1.721   4.111 -2.2629 -0.5278  1.1597
15694WAT    EPW64583   4.505   1.722   4.032 -0.6711 -0.5988  0.3998
15695WAT      O64584   3.922   2.686   2.824  0.5476  0.0913  0.3648
15695WAT     H164585   3.954   2.603   2.788 -0.2298 -0.3574  0.6915
15695WAT     H264586   3.955   2.752   2.763  1.8074 -0.3722  0.5054
15695WAT    EPW64587   3.931   2.683   2.811  0.6112 -0.0288  0.4265
15696WAT      O64588   7.122   9.278   7.411 -0.5616  0.7176  0.0946
15696WAT     H164589   7.151   9.316   7.494  0.1692 -0.2135  0.2805
15696WAT     H264590   7.149   9.187   7.416  1.9301  1.1973 -2.2685
15696WAT    EPW64591   7.129   9.271   7.423 -0.1366  0.6585 -0.1924
15697WAT      O64592   5.567   4.503   3.461  0.0082  0.0361 -0.0300
15697WAT     H164593   5.652   4.462   3.447  0.8220  1.9077 -0.9059
15697WAT     H264594   5.586   4.596   3.474 -1.6921  0.1304  2.5632
15697WAT    EPW64595   5.580   4.510   3.461 -0.1087  0.2954  0.1965
15698WAT      O64596   3.062   2.294   3.982 -0.1489  0.0906  0.6576
15698WAT     H164597   3.130   2.341   4.030  0.3699 -0.2583  0.2639
15698WAT     H264598   3.108   2.226   3.933 -0.5324  1.0496 -1.1311
15698WAT    EPW64599   3.077   2.291   3.982 -0.1311  0.1712  0.3697
15699WAT      O64600  10.178   0.640   4.355 -0.1741  0.3413  0.5509
15699WAT     H164601  10.094   0.597   4.371 -0.1791  0.5124  0.9904
15699WAT     H264602  10.185   0.706   4.423  0.0922  0.6645  0.2163
15699WAT    EPW64603  10.168   0.643   4.366 -0.1402  0.4065  0.5648
15700WAT      O64604   2.625   2.739   2.340  0.3588  0.1711 -0.0118
15700WAT     H164605   2.703   2.783   2.305  1.3393 -1.1538  0.4220
15700WAT     H264606   2.624   2.654   2.297 -0.3990 -0.1328  0.5787
15700WAT    EPW64607   2.635   2.734   2.330  0.3883 -0.0437  0.1233
15701WAT      O64608   4.740   0.639   5.483  0.5842 -0.1315 -0.7435
15701WAT     H164609   4.679   0.573   5.515  0.1082  0.1561 -1.0595
15701WAT     H264610   4.809   0.642   5.550 -0.8792  1.1752  0.8033
15701WAT    EPW64611   4.741   0.631   5.496  0.3283  0.0787 -0.5815
15702WAT      O64612   7.742   8.174   0.261  0.4314  0.0761  0.0107
15702WAT     H164613   7.670   8.134   0.212 -0.1607 -0.5020  1.3103
15702WAT     H264614   7.747   8.124   0.342  2.6690 -0.2523 -0.2593
15702WAT    EPW64615   7.733   8.162   0.265  0.6485 -0.0439  0.1465
15703WAT      O64616   2.059   0.569   4.814 -0.1490 -0.4105  0.1761
15703WAT     H164617   2.043   0.613   4.897  3.5102  0.8046  0.4044
15703WAT     H264618   2.073   0.640   4.751 -0.7427 -1.3172 -1.0202
15703WAT    EPW64619   2.058   0.584   4.817  0.2552 -0.3698  0.0484
15704WAT      O64620   3.086   3.974   7.147  0.0926  0.6021 -0.3353
15704WAT     H164621   3.089   4.005   7.057  2.1707  4.1615  0.7589
15704WAT     H264622   3.163   3.917   7.156  0.4201  1.0013 -0.5833
15704WAT    EPW64623   3.096   3.970   7.136  0.4098  1.1241 -0.2236
15705WAT      O64624   0.296   0.917   7.311 -0.4968  0.9606  0.0444
15705WAT     H164625   0.339   0.939   7.394 -0.4233 -0.7171  0.4966
15705WAT     H264626   0.208   0.889   7.337 -1.1055  2.1743 -0.6504
15705WAT    EPW64627   0.290   0.916   7.326 -0.5674  0.8994  0.0124
15706WAT      O64628   0.534   1.950   5.419 -0.2202  0.9246 -0.2491
15706WAT     H164629   0.474   1.881   5.393  0.1231  0.6130 -0.2255
15706WAT     H264630   0.485   2.031   5.407 -0.5814  0.6839 -0.3969
15706WAT    EPW64631   0.520   1.952   5.414 -0.2225  0.8518 -0.2656
15707WAT      O64632   4.217   3.886   5.813 -0.5944 -0.7306 -0.0868
15707WAT     H164633   4.139   3.915   5.767 -0.9018 -0.3811  0.6424
15707WAT     H264634   4.289   3.929   5.768 -0.7482 -1.5506 -1.1681
15707WAT    EPW64635   4.216   3.896   5.801 -0.6552 -0.7927 -0.1333
15708WAT      O64636   4.338   2.109   5.556 -0.1423 -0.1593 -0.2952
15708WAT     H164637   4.398   2.183   5.550  0.2605 -0.5581 -1.3910
15708WAT     H264638   4.251   2.147   5.540  0.1023  0.0242 -1.2410
15708WAT    EPW64639   4.334   2.124   5.553 -0.0570 -0.1876 -0.5646
15709WAT      O64640   2.420   2.155   5.660  0.1750 -0.4767  0.3038
15709WAT     H164641   2.408   2.236   5.611  0.2715 -0.8614 -0.3777
15709WAT     H264642   2.333   2.135   5.695 -0.8049 -2.0128 -2.6343
15709WAT    EPW64643   2.407   2.163   5.658  0.0583 -0.7300 -0.1733
15710WAT      O64644   4.998   3.103   6.034 -0.6155 -0.2939  0.4043
15710WAT     H164645   5.046   3.083   5.953 -1.5017 -0.0860 -0.1910
15710WAT     H264646   5.057   3.161   6.082  0.6788 -1.8176  0.7449
15710WAT    EPW64647   5.012   3.108   6.029 -0.5620 -0.4674  0.3707
15711WAT      O64648   9.722   4.240   3.223 -0.5205 -0.0747  0.5421
15711WAT     H164649   9.649   4.180   3.207  0.0630 -0.3884 -1.1257
15711WAT     H264650   9.690   4.298   3.292 -3.1105  0.9639 -1.3331
15711WAT    EPW64651   9.708   4.240   3.230 -0.7854  0.0207  0.0749
15712WAT      O64652   4.916   2.552   5.543  0.0072 -0.3296 -0.1772
15712WAT     H164653   4.998   2.547   5.592  0.5994 -0.4831 -1.1747
15712WAT     H264654   4.876   2.634   5.574  0.4773 -0.3021  0.3910
15712WAT    EPW64655   4.922   2.562   5.554  0.1473 -0.3461 -0.2339
15713WAT      O64656   2.216   0.137   5.536  0.1298 -0.7229  0.3457
15713WAT     H164657   2.240   0.110   5.624  2.3316 -1.4351 -0.4202
15713WAT     H264658   2.263   0.077   5.478  1.0597  1.4863 -1.3481
15713WAT    EPW64659   2.225   0.126   5.540  0.5429 -0.5255  0.0215
15714WAT      O64660   5.397   2.291   5.839 -0.2746 -0.0610 -0.0051
15714WAT     H164661   5.401   2.373   5.790 -0.4421  0.7919  1.3653
15714WAT     H264662   5.488   2.260   5.840 -0.3421 -0.3722 -1.2706
15714WAT    EPW64663   5.410   2.298   5.832 -0.3057  0.0104  0.0088
15715WAT      O64664  10.723  10.177   5.745 -0.1837 -0.5482  0.2508
15715WAT     H164665  10.675  10.253   5.779  0.2606 -0.1235 -0.0664
15715WAT     H264666  10.722  10.115   5.818  0.8822  0.4090  1.1285
15715WAT    EPW64667  10.716  10.179   5.759  0.0148 -0.3662  0.3245
15716WAT      O64668   6.896   4.646   2.191 -0.4266  0.1888  0.5526
15716WAT     H164669   6.875   4.637   2.284  0.3454  0.7035  0.7908
15716WAT     H264670   6.951   4.569   2.172 -1.2837 -0.3752  0.2953
15716WAT    EPW64671   6.901   4.634   2.201 -0.4375  0.1824  0.5502
15717WAT      O64672   5.075   0.571   6.373 -0.0605  0.4399  0.5094
15717WAT     H164673   5.079   0.666   6.380 -0.7429  0.6997 -1.7365
15717WAT     H264674   5.087   0.553   6.279 -2.4347 -1.4974  0.4674
15717WAT    EPW64675   5.077   0.581   6.361 -0.4637  0.2187  0.2074
15718WAT      O64676   4.143   0.628   3.697 -0.6485  0.0041  0.2735
15718WAT     H164677   4.175   0.644   3.608 -1.6371  0.7173  0.0354
15718WAT     H264678   4.111   0.538   3.695  0.2873 -0.3419  0.2114
15718WAT    EPW64679   4.143   0.618   3.685 -0.6552  0.0525  0.2339
15719WAT      O64680   5.500   1.264   6.985 -1.0617  0.1810  0.4463
15719WAT     H164681   5.473   1.336   6.927 -0.8301  0.6382  0.8983
15719WAT     H264682   5.444   1.274   7.062 -1.9264 -0.9072 -0.0164
15719WAT    EPW64683   5.489   1.275   6.987 -1.1451  0.0978  0.4449
15720WAT      O64684   1.986   2.017   7.595 -0.2820  0.4390  0.1054
15720WAT     H164685   1.936   2.097   7.616  2.3077  1.4127  3.6832
15720WAT     H264686   1.945   1.949   7.648 -0.3241  0.2599 -0.1585
15720WAT    EPW64687   1.974   2.019   7.605  0.0541  0.5440  0.5424
15721WAT      O64688   4.297   6.023   4.759 -0.3523  0.3083 -0.0874
15721WAT     H164689   4.249   5.945   4.791  1.0611 -0.5210  0.0918
15721WAT     H264690   4.269   6.033   4.668 -1.1346  0.0575  0.1192
15721WAT    EPW64691   4.287   6.014   4.751 -0.2694  0.1659 -0.0365
15722WAT      O64692   0.800   1.469   7.734 -0.5255  0.1409  0.1875
15722WAT     H164693   0.892   1.481   7.710 -0.9455  2.7448 -0.4959
15722WAT     H264694   0.757   1.445   7.653 -0.6126  0.0790  0.2521
15722WAT    EPW64695   0.806   1.468   7.720 -0.5924  0.4761  0.1059
15723WAT      O64696   0.427   9.698   5.924 -0.3948  0.3409  0.3509
15723WAT     H164697   0.349   9.670   5.875 -1.0238  1.7366  0.5007
15723WAT     H264698   0.470   9.616   5.949 -0.1217 -0.4443 -2.3592
15723WAT    EPW64699   0.422   9.683   5.921 -0.4417  0.4210  0.0131
15724WAT      O64700   9.671   9.564   7.175 -0.7673 -0.0732  0.4144
15724WAT     H164701   9.643   9.639   7.122 -0.4999 -0.0768  0.2697
15724WAT     H264702   9.624   9.575   7.258 -0.5399  0.3943  0.4853
15724WAT    EPW64703   9.661   9.576   7.179 -0.7024 -0.0119  0.4046
15725WAT      O64704   2.807   2.297   8.477  0.4996  0.2186 -0.2057
15725WAT     H164705   2.824   2.392   8.474  0.8748  0.1542 -0.2331
15725WAT     H264706   2.755   2.279   8.399  0.4327  0.4011 -0.2032
15725WAT    EPW64707   2.803   2.307   8.466  0.5401  0.2342 -0.2093
15726WAT      O64708   3.596   1.847   6.405  0.1434 -0.0088  0.1009
15726WAT     H164709   3.543   1.814   6.332  0.9569 -0.1546 -0.4252
15726WAT     H264710   3.686   1.828   6.381  0.9644  4.5512 -1.3063
15726WAT    EPW64711   3.601   1.840   6.392  0.3589  0.5733 -0.1538
15727WAT      O64712   0.480   0.213   4.757  0.4248  0.9763 -0.3581
15727WAT     H164713   0.491   0.290   4.813 -0.3739  1.7706 -1.2674
15727WAT     H264714   0.390   0.185   4.771  0.8553 -0.1588  0.3764
15727WAT    EPW64715   0.470   0.219   4.766  0.3762  0.9314 -0.3812
15728WAT      O64716   4.887   4.332   5.135 -0.3940 -0.2206 -0.3589
15728WAT     H164717   4.926   4.317   5.049  1.8140  1.7403  0.2065
15728WAT     H264718   4.867   4.425   5.137 -3.1684 -0.7340  0.2661
15728WAT    EPW64719   4.890   4.342   5.124 -0.4687 -0.0298 -0.2019
15729WAT      O64720   3.523   4.482   6.302 -0.1330  0.5899 -0.1070
15729WAT     H164721   3.546   4.400   6.345  1.0220  0.5876 -0.6845
15729WAT     H264722   3.584   4.546   6.340  1.2226  0.5020 -1.9948
15729WAT    EPW64723   3.534   4.480   6.313  0.1981  0.5777 -0.4323
15730WAT      O64724   2.052   1.337   3.219 -0.5813  0.6188  0.2822
15730WAT     H164725   2.141   1.327   3.185 -0.9169 -0.9599 -0.2223
15730WAT     H264726   1.996   1.306   3.147 -1.4208 -0.6165  1.4235
15730WAT    EPW64727   2.056   1.331   3.205 -0.7362  0.2477  0.3663
15731WAT      O64728   2.979   1.819   5.259  0.2011  0.4768 -0.1645
15731WAT     H164729   2.920   1.889   5.230 -1.2599 -0.2548  0.8917
15731WAT     H264730   3.004   1.774   5.179 -2.0088 -0.1665 -0.5700
15731WAT    EPW64731   2.974   1.822   5.245 -0.2830  0.2955 -0.0784
15732WAT      O64732   0.504   9.856   6.379 -0.1111  0.2287  0.1497
15732WAT     H164733   0.427   9.891   6.334  0.3056 -1.8752 -2.4084
15732WAT     H264734   0.564   9.930   6.384 -1.1535  1.1510 -0.4737
15732WAT    EPW64735   0.502   9.871   6.374 -0.1936  0.0725 -0.2699
15733WAT      O64736   3.003   3.966   6.334 -0.8925 -0.4420  0.3617
15733WAT     H164737   3.065   3.922   6.276 -0.6844 -0.0059  0.2485
15733WAT     H264738   2.985   4.050   6.291 -1.3264 -0.4383  0.5462
15733WAT    EPW64739   3.009   3.972   6.321 -0.9223 -0.3840  0.3712
15734WAT      O64740   0.867   2.836   6.228 -0.0407 -0.5704  0.5749
15734WAT     H164741   0.819   2.773   6.281  1.5850 -2.8531 -0.5335
15734WAT     H264742   0.904   2.785   6.156  0.3200  1.8805 -1.1258
15734WAT    EPW64743   0.865   2.821   6.226  0.2212 -0.5482  0.2043
15735WAT      O64744   2.148   3.179   7.283  0.1200  0.3097 -0.6654
15735WAT     H164745   2.071   3.127   7.258  1.8780 -1.4662 -2.8775
15735WAT     H264746   2.205   3.174   7.207  1.9347  2.6093  0.4351
15735WAT    EPW64747   2.145   3.171   7.270  0.5912  0.3787 -0.8121
15736WAT      O64748   1.776   0.537   5.209  0.8726  0.0906  0.7065
15736WAT     H164749   1.872   0.529   5.212  1.1482  2.5853  0.3629
15736WAT     H264750   1.760   0.625   5.176 -1.5766 -0.2913  0.6800
15736WAT    EPW64751   1.787   0.548   5.205  0.5860  0.3693  0.6578
15737WAT      O64752   1.424   0.908   6.206 -0.3094 -0.5698 -0.5195
15737WAT     H164753   1.426   0.830   6.262  2.8722 -0.4295 -0.2985
15737WAT     H264754   1.471   0.883   6.127  0.1960  0.9334 -0.7260
15737WAT    EPW64755   1.430   0.894   6.203  0.1768 -0.3531 -0.5176
15738WAT      O64756   0.345   0.795   8.533  0.1501  0.0626 -0.3369
15738WAT     H164757   0.251   0.789   8.515 -0.2305  0.1767  1.4711
15738WAT     H264758   0.384   0.820   8.449 -1.6813  2.1810 -0.6398
15738WAT    EPW64759   0.338   0.798   8.520 -0.1417  0.3571 -0.1383
15739WAT      O64760   3.927   2.564   4.329 -0.4483 -0.1328  0.4721
15739WAT     H164761   3.931   2.469   4.326  1.1821 -0.1601  1.8868
15739WAT     H264762   3.910   2.585   4.421  4.1406  0.8986  1.3510
15739WAT    EPW64763   3.925   2.554   4.341  0.3721 -0.0005  0.7744
15740WAT      O64764   1.833   1.242   8.229  0.5249  0.3207 -0.7692
15740WAT     H164765   1.742   1.228   8.254  0.4145 -2.1837 -2.2296
15740WAT     H264766   1.829   1.272   8.139  1.1337  0.4692 -0.7523
15740WAT    EPW64767   1.820   1.244   8.220  0.5906  0.0100 -0.9589
15741WAT      O64768   5.504   2.240   6.582  0.3532  0.2561  0.2267
15741WAT     H164769   5.554   2.284   6.513  2.7901 -1.3439  0.8312
15741WAT     H264770   5.522   2.291   6.661  1.4086 -0.5236  0.5140
15741WAT    EPW64771   5.513   2.253   6.583  0.8140 -0.0577  0.3440
15742WAT      O64772   2.815   2.228   1.727 -0.4847 -0.2035 -0.5047
15742WAT     H164773   2.754   2.299   1.744  0.5175  0.3866  0.7294
15742WAT     H264774   2.879   2.265   1.665 -0.5147 -0.3414 -0.6193
15742WAT    EPW64775   2.816   2.242   1.721 -0.3564 -0.1438 -0.3570
15743WAT      O64776   4.247   2.066   3.835  0.1715  0.6961  0.1518
15743WAT     H164777   4.232   1.993   3.895  2.5174 -0.2396 -0.2869
15743WAT     H264778   4.211   2.143   3.880  0.4534 -0.2318  2.0237
15743WAT    EPW64779   4.240   2.067   3.849  0.5181  0.4503  0.3407
15744WAT      O64780   3.581   2.382   2.753 -0.1733  0.2678  0.3571
15744WAT     H164781   3.618   2.295   2.770 -0.6959 -0.0015  0.1196
15744WAT     H264782   3.510   2.366   2.692 -0.6930  0.7837  0.8210
15744WAT    EPW64783   3.577   2.368   2.747 -0.3109  0.3004  0.3872
15745WAT      O64784   4.166   4.101   5.987  0.1462 -0.2401 -0.0849
15745WAT     H164785   4.197   4.035   5.925  0.2299  1.2787 -1.7767
15745WAT     H264786   4.071   4.105   5.971  0.1437  0.0277 -0.0173
15745WAT    EPW64787   4.157   4.093   5.976  0.1566 -0.0045 -0.2992
15746WAT      O64788   3.487   2.158   5.749 -0.1597 -0.1711 -0.5893
15746WAT     H164789   3.476   2.252   5.733 -1.2067  0.0483  1.1211
15746WAT     H264790   3.572   2.137   5.711 -0.4902  1.1684 -2.1975
15746WAT    EPW64791   3.497   2.168   5.742 -0.3413  0.0346 -0.5758
15747WAT      O64792  10.195   0.030   3.991 -0.0644  0.3161  0.1109
15747WAT     H164793  10.242   0.030   4.074 -1.9459 -3.5870  1.4353
15747WAT     H264794  10.211  -0.058   3.955  1.3897  2.0822 -4.2482
15747WAT    EPW64795  10.203   0.018   3.997 -0.1206  0.0342 -0.2893
15748WAT      O64796   2.809   2.290   4.570 -0.4828 -0.5785  0.2135
15748WAT     H164797   2.790   2.217   4.628  1.1426  0.8123  2.6911
15748WAT     H264798   2.724   2.315   4.534 -1.8926 -0.5906  3.2239
15748WAT    EPW64799   2.796   2.284   4.573 -0.4543 -0.3966  0.9375
15749WAT      O64800   5.069   0.724   5.060  0.1917  0.1120 -0.0393
15749WAT     H164801   5.009   0.692   4.993 -0.6152 -0.3600  0.8664
15749WAT     H264802   5.097   0.809   5.029  1.6122 -1.0079 -2.0455
15749WAT    EPW64803   5.065   0.731   5.047  0.2725 -0.0980 -0.1843
15750WAT      O64804   4.213   3.953   6.561 -0.0836  0.3521  0.3427
15750WAT     H164805   4.166   3.927   6.481  0.8505 -0.7636  0.1206
15750WAT     H264806   4.282   4.011   6.529 -0.4812  0.9222  0.5065
15750WAT    EPW64807   4.216   3.957   6.546 -0.0129  0.2800  0.3350
15751WAT      O64808   1.508   1.512   4.753  0.2521 -0.5223  0.2721
15751WAT     H164809   1.485   1.576   4.820  0.0444 -1.0480  0.7179
15751WAT     H264810   1.480   1.428   4.790  0.4302 -0.8585 -0.3391
15751WAT    EPW64811   1.502   1.509   4.767  0.2483 -0.6361  0.2501
15752WAT      O64812   6.183   2.685   5.421  0.5985  0.3215 -0.4612
15752WAT     H164813   6.160   2.600   5.384  2.2462 -0.5345  0.3389
15752WAT     H264814   6.239   2.726   5.354 -0.5311  0.9951 -1.0267
15752WAT    EPW64815   6.187   2.680   5.407  0.6669  0.2975 -0.4303
15753WAT      O64816   2.716   7.474   5.885 -0.3712  0.3289 -0.0640
15753WAT     H164817   2.621   7.478   5.899 -0.4019  2.5685 -0.4173
15753WAT     H264818   2.726   7.436   5.798 -1.1047  1.7917 -0.8361
15753WAT    EPW64819   2.704   7.470   5.876 -0.4721  0.8171 -0.2122
15754WAT      O64820   4.449   4.811   4.813  0.2241 -0.4606  0.2829
15754WAT     H164821   4.404   4.858   4.884  1.1192  0.6207  0.1737
15754WAT     H264822   4.448   4.719   4.841 -2.7077 -0.6417 -0.1067
15754WAT    EPW64823   4.443   4.805   4.826 -0.0446 -0.3419  0.2167
15755WAT      O64824   3.154   3.702   4.399  0.4043  0.0471 -0.1599
15755WAT     H164825   3.196   3.622   4.367  3.4540  0.3261  2.6783
15755WAT     H264826   3.221   3.746   4.451 -1.4941  3.9489 -0.6452
15755WAT    EPW64827   3.168   3.697   4.402  0.5561  0.5985  0.1504
15756WAT      O64828   3.453   1.298   4.139 -0.0529  0.0106  0.2732
15756WAT     H164829   3.386   1.287   4.072 -0.6904 -0.4576  0.9798
15756WAT     H264830   3.413   1.356   4.204  0.7411  0.8705  0.0308
15756WAT    EPW64831   3.439   1.304   4.139 -0.0321  0.0623  0.3340
15757WAT      O64832   2.984   4.203   4.014 -1.1679  0.8604 -0.0265
15757WAT     H164833   2.928   4.161   3.948 -0.3453 -1.4841  0.6702
15757WAT     H264834   2.947   4.176   4.098 -1.6574  3.0641  0.5332
15757WAT    EPW64835   2.972   4.194   4.016 -1.1240  0.8419  0.1392
15758WAT      O64836   2.712   3.132   8.292  0.2829 -0.5534  0.6641
15758WAT     H164837   2.636   3.169   8.338 -0.9471 -0.8713 -1.0359
15758WAT     H264838   2.751   3.072   8.355 -0.6723 -0.1297  1.6948
15758WAT    EPW64839   2.707   3.129   8.306 -0.0052 -0.5394  0.5760
15759WAT      O64840   3.928   1.742   7.294 -0.0857  0.5406 -0.0966
15759WAT     H164841   3.887   1.656   7.298  2.3082 -0.6592  0.5922
15759WAT     H264842   3.884   1.793   7.362 -0.9035 -0.4399  0.1227
15759WAT    EPW64843   3.917   1.738   7.304  0.1223  0.2530  0.0231
15760WAT      O64844   3.021   1.476   3.480  0.2475 -0.8684 -0.3459
15760WAT     H164845   3.027   1.414   3.553 -1.8823 -0.6392  0.0689
15760WAT     H264846   2.928   1.489   3.467  0.5371 -1.1955 -3.3846
15760WAT    EPW64847   3.010   1.469   3.488  0.0048 -0.8813 -0.6920
15761WAT      O64848   4.232   1.169   5.546 -0.3443 -1.1603 -0.0072
15761WAT     H164849   4.152   1.199   5.588 -1.4215 -3.0816 -0.5763
15761WAT     H264850   4.202   1.116   5.472  1.4745 -0.5938 -1.2353
15761WAT    EPW64851   4.217   1.166   5.542 -0.2465 -1.3390 -0.2444
15762WAT      O64852   5.569   2.053   3.171 -0.5519 -0.3321  0.3847
15762WAT     H164853   5.557   2.006   3.253  1.4066 -0.1797  0.8049
15762WAT     H264854   5.614   1.991   3.114  1.8210  0.8431  0.8577
15762WAT    EPW64855   5.573   2.039   3.174  0.0193 -0.1570  0.5025
15763WAT      O64856  10.386   1.955   6.112  0.1041 -0.0233 -0.2203
15763WAT     H164857  10.302   1.912   6.131  0.3608 -0.1155  0.7851
15763WAT     H264858  10.439   1.886   6.071 -0.3212  0.0522 -0.9138
15763WAT    EPW64859  10.382   1.940   6.109  0.0815 -0.0255 -0.1793
15764WAT      O64860   1.986   1.782   6.570 -0.6318 -0.3751  0.0168
15764WAT     H164861   2.013   1.760   6.481  0.2893  1.5115 -0.2183
15764WAT     H264862   1.949   1.700   6.604 -3.4716 -0.5349 -2.9447
15764WAT    EPW64863   1.985   1.768   6.563 -0.8849 -0.1474 -0.4048
15765WAT      O64864   2.494   0.823   6.301 -0.4943 -0.2141  0.0305
15765WAT     H164865   2.531   0.911   6.293 -1.0934 -0.0859 -2.0023
15765WAT     H264866   2.432   0.816   6.227 -1.0932 -2.0336  0.6432
15765WAT    EPW64867   2.491   0.834   6.290 -0.6524 -0.4371 -0.1566
15766WAT      O64868   7.129   2.469   6.738  1.3082 -0.4007  0.4856
15766WAT     H164869   7.143   2.478   6.643  0.0986 -2.4249  0.0659
15766WAT     H264870   7.196   2.407   6.766  2.1440  0.7573  1.1403
15766WAT    EPW64871   7.140   2.462   6.729  1.2586 -0.5149  0.5169
15767WAT      O64872   2.595   3.359   3.650  0.7609 -0.1202  0.1354
15767WAT     H164873   2.591   3.276   3.697  1.2353 -0.4648 -0.4160
15767WAT     H264874   2.626   3.335   3.562  3.4527  0.9012  0.6827
15767WAT    EPW64875   2.599   3.345   3.645  1.1784 -0.0310  0.1348
15768WAT      O64876   2.942   2.318   6.542 -0.1879 -0.3759  0.3812
15768WAT     H164877   3.009   2.329   6.474 -0.1928  0.1756  0.4651
15768WAT     H264878   2.912   2.228   6.531  1.4385 -1.0493  1.1437
15768WAT    EPW64879   2.947   2.308   6.531  0.0260 -0.3920  0.4928
15769WAT      O64880   2.781   2.849   0.253 -0.6963  0.4980  0.1460
15769WAT     H164881   2.861   2.801   0.231  1.0161  3.2277 -0.0801
15769WAT     H264882   2.736   2.793   0.315  0.0504 -2.3197 -1.6809
15769WAT    EPW64883   2.786   2.835   0.258 -0.3719  0.4863 -0.1248
15770WAT      O64884   8.878   2.319   1.698  0.3194 -0.5239 -0.5771
15770WAT     H164885   8.922   2.389   1.747 -1.1009 -0.7673  1.1320
15770WAT     H264886   8.824   2.365   1.634 -1.7706  0.1413  1.5039
15770WAT    EPW64887   8.877   2.334   1.696 -0.1435 -0.4681 -0.0772
15771WAT      O64888   4.891   3.743   4.917 -0.1688 -0.2762 -0.2661
15771WAT     H164889   4.881   3.836   4.939  2.3219 -0.4515  2.0142
15771WAT     H264890   4.847   3.735   4.832 -1.6923  2.6515  0.0864
15771WAT    EPW64891   4.884   3.754   4.909 -0.0412  0.0869  0.0811
15772WAT      O64892  10.946   0.798   7.192  0.4133  0.1228 -0.1407
15772WAT     H164893  10.959   0.878   7.243  1.7060 -0.2788  0.1962
15772WAT     H264894  10.890   0.744   7.247 -0.6534  0.8630 -0.4647
15772WAT    EPW64895  10.941   0.802   7.206  0.4435  0.1675 -0.1390
15773WAT      O64896   3.409   4.175   6.007  0.8878  0.6690 -0.8055
15773WAT     H164897   3.381   4.263   6.028  1.6889  0.7443  0.0074
15773WAT     H264898   3.403   4.170   5.911 -0.8801  0.9923 -0.7311
15773WAT    EPW64899   3.405   4.186   5.997  0.7602  0.7215 -0.6881
15774WAT      O64900   4.989   3.919   6.411  0.3036 -0.5823  0.3087
15774WAT     H164901   5.007   4.006   6.376 -1.1810  0.0554  1.0166
15774WAT     H264902   4.991   3.861   6.335 -2.1943  0.6493 -0.8119
15774WAT    EPW64903   4.991   3.923   6.396 -0.2217 -0.3357  0.2542
15775WAT      O64904   4.231   0.512   6.772  1.1167 -0.8689 -0.1153
15775WAT     H164905   4.293   0.582   6.793  2.0871 -1.5643 -0.5705
15775WAT     H264906   4.236   0.453   6.848  1.6875 -1.3681 -0.5240
15775WAT    EPW64907   4.240   0.513   6.785  1.3199 -1.0265 -0.2294
15776WAT      O64908  10.379  10.073   4.238  0.1717 -0.3122  0.1209
15776WAT     H164909  10.290  10.044   4.257 -0.2698 -0.4542 -1.9416
15776WAT     H264910  10.435  10.002   4.269 -0.3949 -0.1211  1.6371
15776WAT    EPW64911  10.374  10.060   4.244  0.0391 -0.3066  0.0486
15777WAT      O64912   3.172   3.382   4.894 -0.7851 -0.1593  0.2583
15777WAT     H164913   3.199   3.344   4.810  0.4922  1.1982  0.0220
15777WAT     H264914   3.228   3.458   4.906 -1.4231  0.0950  2.0257
15777WAT    EPW64915   3.183   3.387   4.885 -0.7007  0.0534  0.4604
15778WAT      O64916   3.035   3.986   3.633 -0.6165 -0.3061 -0.2786
15778WAT     H164917   3.007   3.895   3.620 -0.1397 -0.3257 -1.2224
15778WAT     H264918   3.115   3.994   3.582 -0.4394  0.5389  0.1244
15778WAT    EPW64919   3.042   3.975   3.625 -0.5302 -0.1972 -0.3501
15779WAT      O64920   3.383   3.589   4.543  0.0347 -0.5449  0.5334
15779WAT     H164921   3.458   3.648   4.551  1.0192 -1.8705  1.4550
15779WAT     H264922   3.411   3.522   4.481 -1.2880  0.1921 -0.9600
15779WAT    EPW64923   3.396   3.588   4.536 -0.0100 -0.6225  0.4582
15780WAT      O64924   7.123   1.943   4.387  0.0577  0.3408 -0.1619
15780WAT     H164925   7.063   2.016   4.375 -0.7732 -0.0172  1.4533
15780WAT     H264926   7.204   1.983   4.418 -0.6808  0.5685  1.6203
15780WAT    EPW64927   7.126   1.958   4.389 -0.1493  0.3237  0.2861
15781WAT      O64928   3.295   4.476   3.885  0.3567 -0.5533  0.0991
15781WAT     H164929   3.294   4.450   3.978  1.3648 -0.1793  0.2325
15781WAT     H264930   3.384   4.507   3.871  0.1082 -0.2861 -0.9187
15781WAT    EPW64931   3.307   4.476   3.896  0.4569 -0.4687 -0.0175
15782WAT      O64932   3.818   5.553   5.460  0.5051 -0.7922  1.0055
15782WAT     H164933   3.807   5.577   5.368 -1.7201  2.5592  1.9422
15782WAT     H264934   3.902   5.508   5.463  1.3293  0.2036 -2.4630
15782WAT    EPW64935   3.828   5.550   5.449  0.3203 -0.2189  0.6714
15783WAT      O64936   3.015   3.161   2.790  0.4902  0.4468  0.1049
15783WAT     H164937   2.977   3.089   2.740  1.7233 -0.7364  0.8089
15783WAT     H264938   2.954   3.173   2.863  0.0623  0.4055 -0.2383
15783WAT    EPW64939   3.002   3.153   2.793  0.5965  0.2851  0.1523
15784WAT      O64940   4.539   2.755   4.555 -0.5879 -0.4693  0.0570
15784WAT     H164941   4.488   2.687   4.510  1.1126 -1.5075 -0.3871
15784WAT     H264942   4.541   2.727   4.646 -1.6102  0.1051  0.2714
15784WAT    EPW64943   4.532   2.742   4.561 -0.4988 -0.5302  0.0267
15785WAT      O64944   3.194   2.776   5.844 -0.1484 -0.4698 -0.0979
15785WAT     H164945   3.110   2.785   5.890  0.0449  1.7164 -0.0905
15785WAT     H264946   3.175   2.714   5.774 -1.5336 -0.7104  0.4456
15785WAT    EPW64947   3.180   2.769   5.841 -0.3057 -0.2133 -0.0255
15786WAT      O64948   4.095   1.521   1.514  0.9624 -0.0948 -0.0268
15786WAT     H164949   4.078   1.610   1.544 -0.6689  0.0232 -1.1552
15786WAT     H264950   4.162   1.488   1.573 -0.1929  1.0151  2.0309
15786WAT    EPW64951   4.101   1.528   1.526  0.5949  0.0671  0.0958
15787WAT      O64952  10.612   0.125   7.039  0.0638  0.1438  0.8580
15787WAT     H164953  10.544   0.058   7.029 -1.6919  1.5194  2.7010
15787WAT     H264954  10.672   0.087   7.103  1.2297 -1.1683 -0.9366
15787WAT    EPW64955  10.611   0.111   7.046 -0.0138  0.1522  0.8643
15788WAT      O64956   3.739   1.904   5.093  0.1213 -0.1233 -0.9372
15788WAT     H164957   3.651   1.939   5.107  0.8104  1.0731  0.6808
15788WAT     H264958   3.752   1.842   5.164  0.3718 -0.7903 -1.5448
15788WAT    EPW64959   3.729   1.901   5.104  0.2452 -0.0536 -0.8039
15789WAT      O64960   2.034   2.546   2.471 -0.1224 -0.4720 -0.0625
15789WAT     H164961   1.979   2.538   2.549 -0.4656  0.0132 -0.2552
15789WAT     H264962   2.039   2.640   2.455  1.3614 -0.4500  0.3792
15789WAT    EPW64963   2.028   2.557   2.479  0.0279 -0.4051 -0.0297
15790WAT      O64964   2.119   1.422   3.697  0.4164  0.5073 -0.1851
15790WAT     H164965   2.107   1.441   3.604 -0.7093 -0.6013 -0.2948
15790WAT     H264966   2.093   1.502   3.742  1.7782  1.3489 -0.8329
15790WAT    EPW64967   2.114   1.435   3.691  0.4474  0.4721 -0.2851
15791WAT      O64968   0.797   9.845   5.484  0.5453 -0.1158 -0.3465
15791WAT     H164969   0.832   9.877   5.400 -2.3839  1.6721 -1.0566
15791WAT     H264970   0.847   9.892   5.550  0.7240  0.9941 -1.2289
15791WAT    EPW64971   0.808   9.855   5.481  0.1825  0.2661 -0.5567
15792WAT      O64972  10.701  10.114   2.182 -0.3053  0.3690  0.4017
15792WAT     H164973  10.628  10.163   2.143 -1.6828 -1.0985  1.0210
15792WAT     H264974  10.690  10.025   2.151  1.8458  0.2750 -0.2718
15792WAT    EPW64975  10.690  10.109   2.173 -0.2036  0.1631  0.3947
15793WAT      O64976  10.954   2.657   5.519 -0.7791 -0.5787  1.1262
15793WAT     H164977  11.010   2.678   5.444 -0.2964  0.1190  1.6553
15793WAT     H264978  10.954   2.562   5.524 -0.0008 -0.6030  0.8323
15793WAT    EPW64979  10.962   2.648   5.510 -0.6128 -0.4898  1.1575
15794WAT      O64980   2.440   1.377   4.352  1.0199  0.3896  0.5587
15794WAT     H164981   2.431   1.351   4.260  0.0466  1.0932  0.4462
15794WAT     H264982   2.353   1.362   4.390  0.7519  2.3147  0.7855
15794WAT    EPW64983   2.428   1.371   4.345  0.8562  0.7363  0.5734
15795WAT      O64984   3.215   2.610   2.574  0.8095  0.2177 -0.4673
15795WAT     H164985   3.305   2.635   2.550  0.3600 -0.5079 -3.2517
15795WAT     H264986   3.218   2.597   2.669  4.0928 -1.4799 -0.6716
15795WAT    EPW64987   3.227   2.611   2.583  1.1834 -0.1019 -0.8615
15796WAT      O64988   3.446   2.960   3.177  0.4637  0.1775 -0.1105
15796WAT     H164989   3.366   2.979   3.129 -0.1913 -1.1741  0.3934
15796WAT     H264990   3.434   2.871   3.210  2.3547 -0.2215 -0.3656
15796WAT    EPW64991   3.434   2.951   3.175  0.6268 -0.0535 -0.0777
15797WAT      O64992   1.008   1.306   4.380  0.5356  0.4574 -0.3431
15797WAT     H164993   0.930   1.250   4.390 -1.3667  3.2672  2.6934
15797WAT     H264994   1.081   1.245   4.382 -1.4273 -2.0686  1.1822
15797WAT    EPW64995   1.007   1.290   4.382  0.0258  0.4949  0.2587
15798WAT      O64996   1.801   3.938   3.997 -0.0341  0.4135 -0.4251
15798WAT     H164997   1.820   3.880   3.923 -2.0839 -0.7301 -0.1490
15798WAT     H264998   1.810   4.026   3.962  0.3322 -0.0951 -1.6739
15798WAT    EPW64999   1.805   3.942   3.983 -0.2562  0.1955 -0.5533
15799WAT      O65000   0.202   2.367   3.840 -0.2061 -0.2899 -0.4106
15799WAT     H165001   0.150   2.438   3.877 -0.4946 -2.0150  2.8424
15799WAT     H265002   0.264   2.343   3.909 -1.6447 -4.6523 -0.3102
15799WAT    EPW65003   0.204   2.373   3.854 -0.4339 -1.0928  0.0317
15800WAT      O65004   6.334   2.770   6.769  0.0181  0.2856  0.0918
15800WAT     H165005   6.405   2.735   6.714 -0.6766 -0.0136 -0.6252
15800WAT     H265006   6.379   2.827   6.832  0.8930  0.1467 -0.3880
15800WAT    EPW65007   6.349   2.773   6.770  0.0417  0.2278 -0.0660
15801WAT      O65008   3.018   2.563   6.157 -0.5408  0.1882  0.6884
15801WAT     H165009   2.961   2.634   6.126 -0.5465  0.1280  0.5603
15801WAT     H265010   2.980   2.536   6.241 -0.4581  0.4313  0.8055
15801WAT    EPW65011   3.005   2.569   6.164 -0.5307  0.2123  0.6869
15802WAT      O65012   3.637   3.307   1.671  0.2007 -0.1524 -0.1665
15802WAT     H165013   3.581   3.280   1.598  0.2854  1.0913 -0.7105
15802WAT     H265014   3.651   3.226   1.720 -0.9297 -0.7671 -0.7876
15802WAT    EPW65015   3.631   3.293   1.668  0.0628 -0.0695 -0.3202
15803WAT      O65016   0.658   1.423   6.434 -0.8301  0.0022  0.4539
15803WAT     H165017   0.726   1.367   6.396  0.7862  1.9416  0.2869
15803WAT     H265018   0.658   1.400   6.527  0.0836 -0.0586  0.4541
15803WAT    EPW65019   0.667   1.413   6.441 -0.4964  0.2500  0.4320
15804WAT      O65020   5.258   1.127   6.884  0.5514  0.9855 -0.0083
15804WAT     H165021   5.258   1.189   6.811  3.8155 -1.1250 -2.1127
15804WAT     H265022   5.341   1.143   6.929 -0.7048  1.1898  2.3807
15804WAT    EPW65023   5.269   1.137   6.880  0.8163  0.7342  0.0293
15805WAT      O65024   3.904   3.452   4.546 -0.0754 -0.3110  0.3976
15805WAT     H165025   3.934   3.543   4.556 -1.1312  0.0612  0.2732
15805WAT     H265026   3.835   3.442   4.612  0.7409 -1.3601  1.1368
15805WAT    EPW65027   3.899   3.463   4.556 -0.1070 -0.4003  0.4787
15806WAT      O65028   4.748   2.169   6.377 -0.0309  0.1690 -0.1746
15806WAT     H165029   4.771   2.104   6.310 -0.5392  1.2354 -1.4480
15806WAT     H265030   4.819   2.164   6.441  0.7438 -0.5569 -1.0608
15806WAT    EPW65031   4.761   2.160   6.376  0.0043  0.2139 -0.4594
15807WAT      O65032   0.303   3.976   4.534 -0.1565  0.2752  0.0674
15807WAT     H165033   0.228   3.959   4.477  0.1461 -1.2555  0.0716
15807WAT     H265034   0.377   3.985   4.474 -0.1647  0.7088  0.1201
15807WAT    EPW65035   0.303   3.975   4.518 -0.1177  0.1305  0.0749
15808WAT      O65036   3.089   4.878   4.027  0.0569  0.4350  0.0886
15808WAT     H165037   3.159   4.813   4.031 -0.4110 -0.1370 -0.7634
15808WAT     H265038   3.064   4.892   4.118  0.5071 -0.1977  0.3150
15808WAT    EPW65039   3.095   4.871   4.039  0.0545  0.2763  0.0060
15809WAT      O65040   0.212   1.199   6.801 -0.2626  0.5425 -0.2476
15809WAT     H165041   0.241   1.162   6.884 -0.3902  1.5055  0.2424
15809WAT     H265042   0.262   1.152   6.735 -1.4628 -1.5221  0.2283
15809WAT    EPW65043   0.222   1.188   6.803 -0.4377  0.3972 -0.1202
15810WAT      O65044   3.672   1.106   5.702 -0.0210 -0.1705 -0.3573
15810WAT     H165045   3.588   1.148   5.681 -1.8432 -2.6595  1.2292
15810WAT     H265046   3.675   1.106   5.798  2.1600  0.4118 -0.3847
15810WAT    EPW65047   3.661   1.111   5.712  0.0263 -0.4219 -0.1516
15811WAT      O65048   1.616   3.961   3.265 -0.4754  0.4380  0.0497
15811WAT     H165049   1.575   3.879   3.294 -0.5278  0.1572 -0.7845
15811WAT     H265050   1.574   4.028   3.318 -0.6298 -0.0456  0.5574
15811WAT    EPW65051   1.605   3.959   3.276 -0.5026  0.3371  0.0067
15812WAT      O65052   5.372   2.954   1.408 -0.1449 -0.2462 -0.6078
15812WAT     H165053   5.414   3.027   1.454 -1.3066  0.3491 -0.4493
15812WAT     H265054   5.444   2.900   1.377  0.7716  1.3263 -1.3022
15812WAT    EPW65055   5.387   2.957   1.410 -0.1774  0.0396 -0.6785
15813WAT      O65056  10.199   2.602   6.578  0.2491 -0.0919 -0.6079
15813WAT     H165057  10.233   2.677   6.627 -1.1764  0.1445  0.0782
15813WAT     H265058  10.169   2.639   6.495  1.6690 -0.3111 -1.2385
15813WAT    EPW65059  10.200   2.617   6.574  0.2484 -0.0898 -0.6008
15814WAT      O65060   3.037   1.782   4.971  0.2655  0.3339  0.2870
15814WAT     H165061   2.964   1.761   4.913 -0.9073  1.5615  1.2472
15814WAT     H265062   3.115   1.762   4.920 -0.6897  2.3784 -2.1972
15814WAT    EPW65063   3.038   1.777   4.957 -0.0151  0.7655  0.0861
15815WAT      O65064   4.829   1.828   5.711 -0.1216 -0.2806  0.3395
15815WAT     H165065   4.907   1.854   5.662 -0.0968  2.4224  1.6553
15815WAT     H265066   4.863   1.802   5.797 -0.5482 -0.5185  0.4359
15815WAT    EPW65067   4.844   1.828   5.716 -0.1743  0.0446  0.5257
15816WAT      O65068   6.984   3.148   5.909 -0.3468 -0.7750 -0.1157
15816WAT     H165069   6.968   3.072   5.966 -2.1831 -0.6150 -0.3357
15816WAT     H265070   7.018   3.215   5.968  0.1625 -1.3996  0.3089
15816WAT    EPW65071   6.986   3.147   5.925 -0.5219 -0.8363 -0.0889
15817WAT      O65072   4.302   1.885   3.070  0.5499 -0.0442 -0.0160
15817WAT     H165073   4.261   1.891   3.157  1.4310  0.7261  0.3592
15817WAT     H265074   4.228   1.887   3.009  0.0122  1.9485  0.6157
15817WAT    EPW65075   4.287   1.886   3.073  0.5951  0.3202  0.1168
15818WAT      O65076   3.423   2.558   3.037  0.8840  0.0418 -0.2701
15818WAT     H165077   3.363   2.499   3.084  1.0398 -1.1484 -1.5140
15818WAT     H265078   3.445   2.626   3.101  1.5202 -1.8041  1.5693
15818WAT    EPW65079   3.418   2.559   3.052  0.9886 -0.3587 -0.1916
15819WAT      O65080   2.559   2.231   5.862  0.4538 -0.0510  0.2025
15819WAT     H165081   2.645   2.197   5.837  0.6463  0.2936  0.3913
15819WAT     H265082   2.503   2.212   5.787  0.1193 -2.3261  0.9305
15819WAT    EPW65083   2.563   2.224   5.849  0.4351 -0.3057  0.3231
15820WAT      O65084  10.854   1.644   5.342 -0.0136  0.6119 -0.6384
15820WAT     H165085  10.785   1.623   5.404 -0.1500 -0.1154 -1.0243
15820WAT     H265086  10.807   1.671   5.263  0.0850 -1.3019 -1.4038
15820WAT    EPW65087  10.839   1.645   5.339 -0.0186  0.2636 -0.7904
15821WAT      O65088   4.227   4.229   2.412 -0.2521 -0.4203  0.2514
15821WAT     H165089   4.185   4.143   2.410 -2.7016  0.6386 -3.5006
15821WAT     H265090   4.192   4.270   2.491 -1.1299 -1.9232  0.6953
15821WAT    EPW65091   4.217   4.223   2.422 -0.6909 -0.4787 -0.1849
15822WAT      O65092   1.522   4.062   5.468  0.3052 -0.4750 -0.9897
15822WAT     H165093   1.504   4.042   5.559 -0.7172  1.5224 -0.6933
15822WAT     H265094   1.439   4.044   5.422 -0.1697  1.4354 -0.9539
15822WAT    EPW65095   1.509   4.057   5.474  0.1077  0.0405 -0.9456
15823WAT      O65096   0.105   2.707   6.357 -0.1592 -0.1192 -0.1902
15823WAT     H165097   0.172   2.641   6.373 -0.9350 -1.0981 -0.7950
15823WAT     H265098   0.094   2.752   6.441  2.1455  0.9646 -0.4117
15823WAT    EPW65099   0.112   2.704   6.370  0.0425 -0.1053 -0.2995
15824WAT      O65100   2.998   1.494   7.715  0.2932 -0.4876  0.0111
15824WAT     H165101   2.975   1.587   7.710 -2.0443 -0.9071  1.3793
15824WAT     H265102   3.004   1.466   7.623  0.7681  0.9438 -0.4216
15824WAT    EPW65103   2.995   1.503   7.702  0.0476 -0.3541  0.1342
15825WAT      O65104   5.211   3.439   3.436  0.2657 -0.1935 -0.3553
15825WAT     H165105   5.230   3.533   3.440 -0.6738 -0.0324  2.6647
15825WAT     H265106   5.134   3.428   3.492  0.6440 -2.8215 -0.2434
15825WAT    EPW65107   5.203   3.450   3.444  0.1915 -0.5190  0.0577
15826WAT      O65108   4.902   0.507   5.135  0.4103 -0.5116  0.2443
15826WAT     H165109   4.977   0.560   5.108  0.2773  0.0115  0.8657
15826WAT     H265110   4.937   0.418   5.144  0.4298 -0.7539 -1.7336
15826WAT    EPW65111   4.917   0.502   5.133  0.3958 -0.4746  0.0653
15827WAT      O65112   3.722   8.522   8.073 -0.0326  0.2429 -0.5039
15827WAT     H165113   3.773   8.464   8.015 -0.4118 -1.0337  0.3941
15827WAT     H265114   3.710   8.471   8.153 -1.8838  0.8855 -0.3245
15827WAT    EPW65115   3.727   8.508   8.076 -0.3268  0.1593 -0.3619
15828WAT      O65116   8.980   8.665   4.272  0.2638  0.1717  0.0112
15828WAT     H165117   8.964   8.624   4.187 -0.6990 -1.4839  0.9424
15828WAT     H265118   8.915   8.735   4.278  1.8016  1.8455 -1.5128
15828WAT    EPW65119   8.969   8.669   4.262  0.3400  0.1745 -0.0670
15829WAT      O65120   3.300   4.127   3.515  0.6533 -0.5145 -0.1025
15829WAT     H165121   3.382   4.147   3.469  0.8505 -1.3989 -0.1542
15829WAT     H265122   3.281   4.206   3.566  2.1134 -0.6577  0.7319
15829WAT    EPW65123   3.308   4.140   3.516  0.8719 -0.6499  0.0006
15830WAT      O65124   5.606   2.844   7.028  0.6086 -0.2912 -0.1083
15830WAT     H165125   5.661   2.921   7.012  1.3684 -0.9911 -0.9958
15830WAT     H265126   5.660   2.770   6.998 -0.3293 -1.1086  0.1886
15830WAT    EPW65127   5.621   2.844   7.022  0.5851 -0.4915 -0.1864
15831WAT      O65128   7.475   8.451   0.988 -0.5006 -0.0069 -0.1870
15831WAT     H165129   7.501   8.464   1.079  1.0440  2.3712 -0.8604
15831WAT     H265130   7.543   8.395   0.952  0.3002  1.0708 -0.4196
15831WAT    EPW65131   7.487   8.446   0.995 -0.1912  0.4492 -0.3065
15832WAT      O65132   5.096   1.826   4.517 -0.0962 -0.3446 -0.8730
15832WAT     H165133   5.176   1.780   4.494  0.0288 -0.9070  0.5800
15832WAT     H265134   5.103   1.842   4.611 -0.3219  2.3153 -1.2188
15832WAT    EPW65135   5.107   1.822   4.526 -0.1094 -0.0680 -0.7267
15833WAT      O65136   3.247   0.223   5.132 -0.3904 -0.1857  0.4441
15833WAT     H165137   3.198   0.283   5.188  0.1779  1.2505 -0.5541
15833WAT     H265138   3.309   0.278   5.084 -0.1147 -1.4984 -0.8134
15833WAT    EPW65139   3.249   0.238   5.133 -0.2791 -0.1694  0.1466
15834WAT      O65140   3.713   4.448   5.474 -0.6022 -0.4831  0.1197
15834WAT     H165141   3.768   4.437   5.552 -2.3033 -2.4934  1.1260
15834WAT     H265142   3.760   4.400   5.405  0.3073  0.2886  0.1737
15834WAT    EPW65143   3.727   4.440   5.475 -0.7067 -0.6466  0.2596
15835WAT      O65144   1.691  10.190   6.217  0.8480 -0.1842 -0.1465
15835WAT     H165145   1.774  10.146   6.200  2.1785  1.2126  2.2065
15835WAT     H265146   1.663  10.225   6.132  3.2809  0.3377 -0.7906
15835WAT    EPW65147   1.698  10.189   6.204  1.3444  0.0687  0.0789
15836WAT      O65148   1.891   1.207   8.843 -0.1076 -0.7615  0.8060
15836WAT     H165149   1.973   1.235   8.802 -2.0119  3.5652 -0.5934
15836WAT     H265150   1.885   1.259   8.923 -3.1287  2.3641 -1.1472
15836WAT    EPW65151   1.901   1.218   8.848 -0.7573  0.2215  0.3638
15837WAT      O65152   4.330   2.504   8.046  0.9446 -0.0211 -0.2940
15837WAT     H165153   4.352   2.411   8.056  0.8729  0.0377  0.4891
15837WAT     H265154   4.343   2.541   8.134 -0.3385  0.4200 -0.2729
15837WAT    EPW65155   4.335   2.497   8.059  0.7660  0.0447 -0.1884
15838WAT      O65156   2.921   3.570   3.338 -0.5529 -0.2153 -0.1646
15838WAT     H165157   2.982   3.540   3.406 -1.8737  2.0018  2.1917
15838WAT     H265158   2.942   3.663   3.327 -1.4339 -0.1610 -1.6827
15838WAT    EPW65159   2.932   3.578   3.346 -0.8434  0.0844 -0.0540
15839WAT      O65160   1.792   0.481   6.816  0.9632  0.0219  0.0912
15839WAT     H165161   1.883   0.472   6.788  0.0839 -1.5249 -2.6413
15839WAT     H265162   1.742   0.487   6.735 -1.6832 -2.7320  1.2993
15839WAT    EPW65163   1.797   0.480   6.802  0.4982 -0.5454 -0.1099
15840WAT      O65164   5.305   2.531   2.678  0.0834 -0.2866  0.1582
15840WAT     H165165   5.309   2.602   2.615 -0.7838 -0.1889  0.2041
15840WAT     H265166   5.328   2.452   2.628 -0.9089 -0.2572 -0.3603
15840WAT    EPW65167   5.309   2.530   2.663 -0.1619 -0.2699  0.0958
15841WAT      O65168   4.407   4.372   2.659  0.1496  0.4029 -0.4102
15841WAT     H165169   4.311   4.378   2.659  0.0666  0.4838 -3.4772
15841WAT     H265170   4.426   4.298   2.718 -2.0228 -1.4912 -1.9270
15841WAT    EPW65171   4.397   4.363   2.667 -0.1478  0.1636 -1.0148
15842WAT      O65172   4.368   4.356   4.815 -0.4333 -0.0394 -0.2854
15842WAT     H165173   4.352   4.278   4.868 -0.3573  0.9060  1.1906
15842WAT     H265174   4.282   4.384   4.784 -0.5223 -0.3875 -0.3472
15842WAT    EPW65175   4.355   4.350   4.818 -0.4351  0.0396 -0.0992
15843WAT      O65176   2.707   2.259   3.455 -0.3463 -0.4561 -0.5705
15843WAT     H165177   2.793   2.301   3.458 -0.5238 -0.1203  0.6234
15843WAT     H265178   2.645   2.331   3.468 -1.0509 -0.1947 -4.3718
15843WAT    EPW65179   2.710   2.274   3.457 -0.4627 -0.3775 -0.9145
15844WAT      O65180   3.598   1.202   6.824  0.0364  0.7414 -0.2386
15844WAT     H165181   3.669   1.160   6.874  0.2142  2.1921  0.8012
15844WAT     H265182   3.641   1.236   6.746  0.3125  0.8013 -0.0624
15844WAT    EPW65183   3.613   1.201   6.821  0.0962  0.9406 -0.0782
15845WAT      O65184  10.975   2.916   5.088  0.6611 -0.4242 -0.9887
15845WAT     H165185  10.990   2.971   5.165 -0.9246 -0.6495 -0.4784
15845WAT     H265186  11.056   2.923   5.037  0.3308  2.9688 -1.3226
15845WAT    EPW65187  10.987   2.924   5.091  0.4082 -0.0064 -0.9656
15846WAT      O65188   4.585   2.819   3.989 -0.1659  0.1652 -0.1214
15846WAT     H165189   4.549   2.735   4.018  0.8675 -0.2185  0.0975
15846WAT     H265190   4.508   2.869   3.959 -0.5908 -1.6953 -2.4502
15846WAT    EPW65191   4.570   2.814   3.989 -0.0854 -0.1309 -0.3996
15847WAT      O65192  10.165  10.152   5.928 -0.0647  0.0799 -0.1249
15847WAT     H165193  10.183  10.243   5.951  0.9670 -0.6819  2.4210
15847WAT     H265194  10.171  10.105   6.011 -3.6309 -1.9189 -0.8236
15847WAT    EPW65195  10.168  10.158   5.942 -0.3986 -0.2837  0.1187
15848WAT      O65196   1.677   4.040   8.314  0.5637 -0.8143  0.4335
15848WAT     H165197   1.755   4.082   8.350  0.2605  2.7198 -2.4293
15848WAT     H265198   1.607   4.103   8.327 -1.1785 -2.6174  0.2830
15848WAT    EPW65199   1.678   4.054   8.320  0.2940 -0.5863  0.0358
15849WAT      O65200   3.490   5.721   5.378 -0.2633  0.0474 -0.1233
15849WAT     H165201   3.520   5.630   5.392  0.4997  0.4379  0.9907
15849WAT     H265202   3.407   5.712   5.331 -0.3250 -1.2426  0.1801
15849WAT    EPW65203   3.483   5.708   5.374 -0.1708 -0.0710  0.0634
15850WAT      O65204   0.562   2.285   6.424 -0.3761  0.6568  0.7239
15850WAT     H165205   0.620   2.356   6.399  0.3183  0.3319  1.3412
15850WAT     H265206   0.568   2.282   6.520  1.1928 -1.4885  0.6325
15850WAT    EPW65207   0.571   2.294   6.434 -0.0776  0.3309  0.7932
15851WAT      O65208   3.987   0.696   5.266 -0.1613  0.1858 -0.0235
15851WAT     H165209   4.013   0.758   5.198  0.6366  0.1907  0.2781
15851WAT     H265210   4.040   0.721   5.342  1.5263 -1.9736 -0.3952
15851WAT    EPW65211   3.997   0.708   5.267  0.1664 -0.0983 -0.0327
15852WAT      O65212   1.408  10.304   4.608 -0.5565 -0.2763 -0.4261
15852WAT     H165213   1.357  10.320   4.529 -1.9865  0.0361  0.5250
15852WAT     H265214   1.386  10.215   4.634 -1.4751  0.2126  0.5607
15852WAT    EPW65215   1.398  10.294   4.601 -0.8662 -0.1702 -0.1705
15853WAT      O65216   0.865   0.782   5.809 -0.8309  0.2389  0.4644
15853WAT     H165217   0.942   0.831   5.782 -1.1449  0.1177 -0.7007
15853WAT     H265218   0.864   0.705   5.752 -2.3546  0.7393 -0.2257
15853WAT    EPW65219   0.875   0.778   5.798 -1.0733  0.2890  0.2198
15854WAT      O65220   3.986   6.258   3.887 -0.1128  0.1151 -0.4600
15854WAT     H165221   3.903   6.294   3.918  0.1030  0.9717 -0.8549
15854WAT     H265222   3.961   6.194   3.820 -0.4364  1.1181 -1.3323
15854WAT    EPW65223   3.972   6.255   3.882 -0.1270  0.3603 -0.6272
15855WAT      O65224   0.777   2.014   7.873  0.3884  0.3736  0.0878
15855WAT     H165225   0.838   1.941   7.858 -0.7263 -0.7749  0.9912
15855WAT     H265226   0.834   2.091   7.882  1.5853 -0.3531 -0.9326
15855WAT    EPW65227   0.793   2.015   7.872  0.3992  0.1262  0.0725
15856WAT      O65228   3.968   0.617   6.068  0.0950  0.2468  0.1460
15856WAT     H165229   3.960   0.632   6.162  2.5528 -1.7297  0.7880
15856WAT     H265230   4.060   0.634   6.049 -0.5211  1.4394 -2.1295
15856WAT    EPW65231   3.979   0.621   6.077  0.3378  0.1434 -0.0696
15857WAT      O65232   1.682   1.164   2.347 -0.3322  0.8012 -0.6737
15857WAT     H165233   1.725   1.086   2.311  2.4592  1.1463  1.5296
15857WAT     H265234   1.642   1.134   2.428 -0.9470  1.3016 -0.7841
15857WAT    EPW65235   1.682   1.149   2.353 -0.0451  0.9128 -0.3977
15858WAT      O65236   3.500   2.512   3.840 -0.5643  0.7191  0.1905
15858WAT     H165237   3.585   2.540   3.876 -0.5211  1.4652 -0.4726
15858WAT     H265238   3.514   2.510   3.746 -1.8079  2.6664 -0.0784
15858WAT    EPW65239   3.513   2.515   3.833 -0.7226  1.0742  0.0676
15859WAT      O65240   5.226   0.274   6.627 -1.1622  0.1383  0.1551
15859WAT     H165241   5.298   0.250   6.568 -0.6246  1.4822  0.2325
15859WAT     H265242   5.162   0.203   6.616  0.0235 -0.9294 -0.1452
15859WAT    EPW65243   5.227   0.261   6.618 -0.9348  0.1747  0.1259
15860WAT      O65244   5.407   2.354   4.474 -0.3288 -0.8336 -0.2401
15860WAT     H165245   5.391   2.260   4.472  1.7683 -1.2377 -0.7368
15860WAT     H265246   5.502   2.362   4.461 -0.1626  1.2736  1.6519
15860WAT    EPW65247   5.417   2.343   4.472 -0.0305 -0.6089 -0.0558
15861WAT      O65248  10.435   9.377   5.608  0.1974 -0.0994  0.0140
15861WAT     H165249  10.347   9.368   5.645  0.4917 -1.8827  0.3326
15861WAT     H265250  10.491   9.327   5.667  1.3953  0.7646 -0.3563
15861WAT    EPW65251  10.431   9.370   5.621  0.3943 -0.2208  0.0069
15862WAT      O65252   2.745   1.638   3.186  0.4983 -0.4137  0.0916
15862WAT     H165253   2.807   1.674   3.250 -0.0446  1.2880 -0.2819
15862WAT     H265254   2.753   1.696   3.110  0.3279 -1.7444 -0.9761
15862WAT    EPW65255   2.755   1.650   3.185  0.4042 -0.3647 -0.0985
15863WAT      O65256   5.716   2.516   5.922  0.1410 -0.4026 -0.4315
15863WAT     H165257   5.664   2.565   5.985  1.4509  2.1274 -1.1925
15863WAT     H265258   5.675   2.429   5.919 -2.0913  0.5136  1.2309
15863WAT    EPW65259   5.704   2.511   5.930  0.0193  0.0520 -0.3128
15864WAT      O65260   4.372   4.273   4.323 -0.2541  0.4423 -1.0421
15864WAT     H165261   4.417   4.206   4.272 -0.5942 -0.8058  0.2293
15864WAT     H265262   4.285   4.236   4.340 -0.0540  0.6820  0.6602
15864WAT    EPW65263   4.366   4.259   4.318 -0.2728  0.3095 -0.6497
15865WAT      O65264   5.695   4.327   5.107  0.2486  0.4684 -0.7113
15865WAT     H165265   5.758   4.255   5.109  0.2907  0.5190  0.4600
15865WAT     H265266   5.612   4.286   5.082  0.8600  0.5402 -3.1612
15865WAT    EPW65267   5.692   4.312   5.104  0.3347  0.4845 -0.8800
15866WAT      O65268   1.379   3.931   5.061  0.3548  0.6293 -0.0993
15866WAT     H165269   1.472   3.911   5.071  0.0630  0.4218  3.6524
15866WAT     H265270   1.373   4.025   5.075 -0.0057  0.5853  0.0696
15866WAT    EPW65271   1.391   3.940   5.065  0.2688  0.5962  0.4179
15867WAT      O65272   3.892   4.640   6.246 -0.1995  0.1645  0.2425
15867WAT     H165273   3.833   4.647   6.321 -3.1185 -0.0892 -1.8668
15867WAT     H265274   3.953   4.570   6.271 -1.7257 -0.6452  1.9874
15867WAT    EPW65275   3.892   4.631   6.260 -0.7859  0.0241  0.1943
15868WAT      O65276   6.055   3.311   6.254 -0.6849 -0.0967 -0.2201
15868WAT     H165277   6.013   3.269   6.178  1.7591 -2.2158 -0.5135
15868WAT     H265278   6.043   3.249   6.325 -0.0039  0.3171  0.2602
15868WAT    EPW65279   6.048   3.297   6.253 -0.2728 -0.3215 -0.1955
15869WAT      O65280   3.010   4.697   4.250  0.0459 -0.0747 -0.3574
15869WAT     H165281   2.947   4.762   4.283  0.4134  0.4983 -0.7556
15869WAT     H265282   2.972   4.613   4.273 -0.3620  0.2833  0.3373
15869WAT    EPW65283   2.997   4.695   4.258  0.0407  0.0479 -0.3183
15870WAT      O65284   4.314   4.346   3.870 -0.2800  0.2460 -0.2138
15870WAT     H165285   4.314   4.350   3.774  1.4303  2.6159 -0.2158
15870WAT     H265286   4.267   4.425   3.896 -2.1128 -1.1672  0.9722
15870WAT    EPW65287   4.308   4.357   3.861 -0.2964  0.3724 -0.0576
15871WAT      O65288   8.718   9.081   0.202 -0.5780  0.4382 -0.0121
15871WAT     H165289   8.650   9.053   0.142 -0.7733 -1.2038  0.9232
15871WAT     H265290   8.795   9.096   0.146 -0.8854 -0.5690 -0.7227
15871WAT    EPW65291   8.720   9.079   0.187 -0.6447  0.0887  0.0175
15872WAT      O65292   5.384   1.121   3.519  0.1853 -0.1231 -0.3724
15872WAT     H165293   5.460   1.079   3.559  0.7592 -0.3548 -1.6445
15872WAT     H265294   5.384   1.090   3.428 -1.6428 -0.4089 -0.3137
15872WAT    EPW65295   5.394   1.112   3.512  0.0198 -0.1915 -0.5324
15873WAT      O65296   2.274   0.647   8.878  0.1363  0.4639  0.1996
15873WAT     H165297   2.200   0.690   8.835 -0.9858 -1.3074  0.2706
15873WAT     H265298   2.283   0.563   8.833  1.2472  0.0813  1.0891
15873WAT    EPW65299   2.266   0.642   8.866  0.1348  0.1798  0.3266
15874WAT      O65300   4.355   4.047   3.966 -0.1223  0.1510 -0.0517
15874WAT     H165301   4.415   4.046   4.040  1.1954  0.6978 -1.0686
15874WAT     H265302   4.352   4.139   3.939 -1.6862  0.1945  0.1628
15874WAT    EPW65303   4.362   4.059   3.972 -0.1547  0.2291 -0.1575
15875WAT      O65304   1.762   2.691   1.929  0.6984  0.5286  0.3662
15875WAT     H165305   1.744   2.735   2.013  0.8543 -1.6206  1.6008
15875WAT     H265306   1.840   2.638   1.946 -0.0202 -0.9457 -0.7343
15875WAT    EPW65307   1.770   2.690   1.943  0.6241  0.0507  0.3839
15876WAT      O65308   5.359   4.142   5.371  0.2171 -0.9898  0.3007
15876WAT     H165309   5.378   4.136   5.465 -0.9741 -2.9176  0.4587
15876WAT     H265310   5.420   4.080   5.331 -0.3893 -1.3787 -0.0195
15876WAT    EPW65311   5.370   4.133   5.378 -0.0203 -1.2951  0.2794
15877WAT      O65312   5.494   0.778   5.182  0.2925 -0.1930 -0.4345
15877WAT     H165313   5.454   0.692   5.189 -1.9015  0.7002 -1.0704
15877WAT     H265314   5.537   0.792   5.266 -1.9053 -0.7171  0.8352
15877WAT    EPW65315   5.494   0.769   5.194 -0.2868 -0.1443 -0.3510
15878WAT      O65316   8.781   9.326   0.678  0.0593 -0.0163  0.4917
15878WAT     H165317   8.717   9.397   0.683 -1.5088 -1.4490  1.7644
15878WAT     H265318   8.756   9.276   0.601 -1.0004 -1.0854  1.4729
15878WAT    EPW65319   8.769   9.329   0.669 -0.2871 -0.3462  0.7890
15879WAT      O65320   3.280   5.459   6.936 -0.1692 -0.1354 -0.0522
15879WAT     H165321   3.373   5.480   6.948  0.0845 -0.6782 -0.9525
15879WAT     H265322   3.243   5.462   7.024  0.3563  1.6274  0.1312
15879WAT    EPW65323   3.287   5.462   6.949 -0.0665  0.0253 -0.1466
15880WAT      O65324   3.013   5.195   4.198 -0.4575 -0.5030 -0.5947
15880WAT     H165325   2.991   5.114   4.243 -2.7125  1.1527  1.6103
15880WAT     H265326   3.063   5.168   4.122 -0.2911 -3.8525  0.5496
15880WAT    EPW65327   3.016   5.181   4.194 -0.7329 -0.7265 -0.1531
15881WAT      O65328   4.752   3.656   5.607 -0.2414 -0.1403  0.9705
15881WAT     H165329   4.837   3.645   5.565  0.4888  1.2447  2.0099
15881WAT     H265330   4.740   3.576   5.658 -1.8427 -2.5739 -2.8665
15881WAT    EPW65331   4.761   3.644   5.608 -0.3562 -0.2786  0.6013
15882WAT      O65332   5.021   2.632   3.407 -1.2075  0.2701  0.0371
15882WAT     H165333   5.113   2.650   3.421 -0.3031 -2.7877 -1.1139
15882WAT     H265334   5.007   2.546   3.446 -3.5652  0.5691  0.0170
15882WAT    EPW65335   5.031   2.623   3.414 -1.3993 -0.0937 -0.1172
15883WAT      O65336   6.077   2.942   6.996 -0.2470 -0.3318 -0.1304
15883WAT     H165337   6.146   2.906   7.051  0.3593 -0.2024 -0.7944
15883WAT     H265338   6.090   3.036   6.997 -2.4054  0.0550  2.3692
15883WAT    EPW65339   6.088   2.949   7.003 -0.4518 -0.2638  0.1116
15884WAT      O65340   4.918   3.656   6.537 -0.7440 -0.1671  0.4127
15884WAT     H165341   4.959   3.598   6.602 -2.1945 -1.7313 -0.0021
15884WAT     H265342   4.986   3.667   6.469 -0.1252 -0.6371  0.9426
15884WAT    EPW65343   4.933   3.649   6.536 -0.8538 -0.4355  0.4275
15885WAT      O65344   4.828   3.849   4.443  0.0961 -0.3703  0.7333
15885WAT     H165345   4.752   3.832   4.388  0.5210 -0.0716  0.0323
15885WAT     H265346   4.812   3.799   4.523 -0.1786 -1.4434  0.0281
15885WAT    EPW65347   4.816   3.840   4.446  0.1159 -0.4725  0.5479
15886WAT      O65348   4.107   1.848   3.425  0.0281 -0.2466  0.5810
15886WAT     H165349   4.138   1.934   3.455 -1.3325  1.1547 -1.7261
15886WAT     H265350   4.063   1.867   3.342 -0.3357 -3.2073  0.0135
15886WAT    EPW65351   4.105   1.862   3.418 -0.1991 -0.4523  0.2018
15887WAT      O65352   4.044   2.725   7.247  0.1963 -1.4364 -0.4343
15887WAT     H165353   4.027   2.657   7.181  1.6652 -1.8515 -0.4153
15887WAT     H265354   4.135   2.750   7.232 -0.0279 -0.1831  0.2295
15887WAT    EPW65355   4.054   2.719   7.236  0.3605 -1.3258 -0.3443
15888WAT      O65356   4.847   5.660   6.564  0.2270  0.3822  0.1634
15888WAT     H165357   4.755   5.675   6.585 -0.5749 -0.1755 -2.5238
15888WAT     H265358   4.886   5.747   6.559  0.0581  0.5970  1.9262
15888WAT    EPW65359   4.840   5.673   6.566  0.0992  0.3371  0.0415
15889WAT      O65360   3.327   4.854   5.611 -0.2348 -0.4687  0.6971
15889WAT     H165361   3.374   4.900   5.680 -2.1823  1.0528  1.0819
15889WAT     H265362   3.257   4.808   5.656 -1.5798  0.6098 -0.2237
15889WAT    EPW65363   3.324   4.854   5.626 -0.6690 -0.1256  0.6263
15890WAT      O65364   5.208   4.143   4.958  0.1436  0.6558 -0.4829
15890WAT     H165365   5.116   4.162   4.978  0.4522  0.2714  1.4619
15890WAT     H265366   5.209   4.131   4.863 -2.6539 -3.6048 -0.2393
15890WAT    EPW65367   5.196   4.144   4.948 -0.1850  0.0434 -0.1941
15891WAT      O65368   5.080   5.547   3.468 -0.5273 -0.0753 -0.2360
15891WAT     H165369   5.136   5.531   3.391 -0.4451 -1.9558  0.1493
15891WAT     H265370   4.992   5.552   3.433 -0.2535  1.8217 -0.7303
15891WAT    EPW65371   5.076   5.545   3.453 -0.4807 -0.0734 -0.2505
15892WAT      O65372   4.111   4.198   4.362  0.3401 -0.1846 -0.0403
15892WAT     H165373   4.080   4.281   4.325 -0.9787 -0.7149 -0.2000
15892WAT     H265374   4.115   4.138   4.288  1.5882 -0.1915  0.0226
15892WAT    EPW65375   4.107   4.201   4.348  0.3307 -0.2553 -0.0534
15893WAT      O65376   3.917   3.746   4.926 -0.1101  0.3662 -0.5786
15893WAT     H165377   3.900   3.773   5.017 -1.2530  1.1603 -1.0053
15893WAT     H265378   3.879   3.816   4.873 -0.7321 -0.7848 -1.6967
15893WAT    EPW65379   3.910   3.759   4.931 -0.3430  0.3191 -0.7823
15894WAT      O65380   4.672   4.457   6.141 -1.0574 -0.5459 -0.6879
15894WAT     H165381   4.762   4.433   6.121  0.2631  3.3863 -0.1834
15894WAT     H265382   4.631   4.472   6.056 -0.8544 -0.9940 -0.8686
15894WAT    EPW65383   4.678   4.455   6.127 -0.8564 -0.0861 -0.6454
15895WAT      O65384   4.275   4.628   3.966  0.7864 -0.3269 -0.2707
15895WAT     H165385   4.223   4.639   4.045 -0.5920  0.8796 -1.2926
15895WAT     H265386   4.359   4.593   3.997  0.2524  0.0144  1.6895
15895WAT    EPW65387   4.279   4.625   3.980  0.5341 -0.1225 -0.1469
15896WAT      O65388   2.767   7.168   5.864  0.0988 -0.0275  0.0439
15896WAT     H165389   2.810   7.252   5.879 -0.1851  0.0142  0.6754
15896WAT     H265390   2.708   7.158   5.939  0.6945 -1.1475  0.3889
15896WAT    EPW65391   2.765   7.178   5.876  0.1398 -0.1698  0.1726
15897WAT      O65392   6.083   3.946   6.362 -0.0463  0.1696  0.1255
15897WAT     H165393   6.083   3.965   6.456  2.7329 -2.1705  0.7394
15897WAT     H265394   6.067   4.031   6.321 -1.4899  1.2558  2.6640
15897WAT    EPW65395   6.081   3.960   6.369  0.1299  0.0042  0.5410
15898WAT      O65396   1.693   5.517   5.322 -0.0566  0.7363  0.2356
15898WAT     H165397   1.663   5.579   5.256 -1.0703 -0.3994 -0.3990
15898WAT     H265398   1.749   5.569   5.380 -1.5062  2.4190  0.1881
15898WAT    EPW65399   1.696   5.532   5.321 -0.3816  0.8085  0.1457
15899WAT      O65400   9.877  10.086   3.731 -0.0824 -0.0487  0.5295
15899WAT     H165401   9.802  10.026   3.724  0.3959 -0.7806  1.4429
15899WAT     H265402   9.844  10.160   3.781 -0.3182 -0.1656  0.5486
15899WAT    EPW65403   9.863  10.088   3.736 -0.0501 -0.1607  0.6526
15900WAT      O65404   0.103   4.540   3.584  0.1246  0.0240  0.5804
15900WAT     H165405   0.066   4.611   3.532  1.9312  1.0134  0.5882
15900WAT     H265406   0.195   4.535   3.557  0.4807 -1.0915  1.8848
15900WAT    EPW65407   0.110   4.549   3.574  0.4099  0.0076  0.7535
15901WAT      O65408   3.766   3.708   3.634 -0.4838 -0.7069 -0.5101
15901WAT     H165409   3.708   3.634   3.653 -1.8410  0.9718  2.8770
15901WAT     H265410   3.847   3.687   3.680 -1.0640  0.0468  0.9269
15901WAT    EPW65411   3.769   3.696   3.643 -0.7393 -0.3861  0.1261
15902WAT      O65412   7.045   3.243   6.765  0.1933 -0.4476  0.1711
15902WAT     H165413   7.026   3.179   6.696  0.3788 -1.5447  1.1047
15902WAT     H265414   6.965   3.296   6.771 -0.9465 -2.1545  1.0050
15902WAT    EPW65415   7.032   3.241   6.757  0.0675 -0.8173  0.4044
15903WAT      O65416   2.587   3.764   6.309  0.1244 -0.4436 -0.2143
15903WAT     H165417   2.557   3.753   6.219 -0.5084  1.0418 -0.2217
15903WAT     H265418   2.540   3.841   6.341  0.6637 -0.6765  1.2514
15903WAT    EPW65419   2.577   3.773   6.302  0.1119 -0.2785 -0.0219
15904WAT      O65420   4.361   2.375   7.667  0.2186  0.4550 -0.2113
15904WAT     H165421   4.334   2.352   7.755  0.0369 -2.7102 -0.9873
15904WAT     H265422   4.457   2.375   7.670  0.2371 -0.9686 -0.2641
15904WAT    EPW65423   4.370   2.372   7.679  0.1967 -0.1502 -0.3204
15905WAT      O65424   3.063   4.787   3.113  0.3096 -0.6743 -0.6152
15905WAT     H165425   3.011   4.737   3.050  0.4078 -2.5328  0.6878
15905WAT     H265426   3.014   4.869   3.124  1.7136  1.0737 -5.1198
15905WAT    EPW65427   3.049   4.791   3.106  0.5077 -0.6888 -1.0376
15906WAT      O65428   3.786   4.630   5.933 -0.5834  0.1135 -0.0260
15906WAT     H165429   3.800   4.623   6.027 -1.5717  1.5201  0.2617
15906WAT     H265430   3.734   4.710   5.922 -0.6094 -0.0917 -1.7536
15906WAT    EPW65431   3.781   4.640   5.944 -0.7173  0.2718 -0.2160
15907WAT      O65432   4.944   3.370   6.919 -0.4076 -0.0317 -0.2400
15907WAT     H165433   4.998   3.421   6.979  0.5994  1.1304 -2.0717
15907WAT     H265434   4.980   3.281   6.924  0.3172  0.2753  0.1203
15907WAT    EPW65435   4.956   3.365   6.928 -0.1793  0.1620 -0.4342
15908WAT      O65436   4.105   4.451   4.851  0.4297  0.7737 -0.6770
15908WAT     H165437   4.135   4.472   4.940  0.9554  2.1069 -1.1313
15908WAT     H265438   4.116   4.357   4.843  1.6903  0.8114  0.2239
15908WAT    EPW65439   4.111   4.442   4.862  0.6654  0.9544 -0.6182
15909WAT      O65440   0.855   1.942   2.673  0.1948 -0.3272  0.4871
15909WAT     H165441   0.764   1.960   2.650 -0.9431 -3.4938  1.9246
15909WAT     H265442   0.904   1.961   2.593 -1.4320  2.8327  0.1005
15909WAT    EPW65443   0.849   1.947   2.659 -0.1698 -0.3281  0.6256
15910WAT      O65444   1.172   7.782   5.692 -0.3760  0.5503 -0.3320
15910WAT     H165445   1.227   7.710   5.661  0.1385 -0.1076  1.8960
15910WAT     H265446   1.235   7.852   5.712 -0.4982  0.3591  0.7521
15910WAT    EPW65447   1.188   7.782   5.691 -0.3243  0.4385  0.1049
15911WAT      O65448   0.401   3.093   6.699  0.1714  0.7554  0.8632
15911WAT     H165449   0.348   3.173   6.693  0.6058  0.9228 -3.0608
15911WAT     H265450   0.491   3.125   6.705  0.3679  0.6335 -1.0032
15911WAT    EPW65451   0.406   3.108   6.699  0.2546  0.7615  0.0994
15912WAT      O65452   4.435   2.902   3.505  0.7815  0.3845 -0.7858
15912WAT     H165453   4.482   2.974   3.462  1.9757 -0.5080 -1.0520
15912WAT     H265454   4.485   2.885   3.585 -1.2451  1.8289  0.8844
15912WAT    EPW65455   4.448   2.909   3.510  0.6716  0.4573 -0.6006
15913WAT      O65456   5.401   4.761   5.308 -0.0484 -0.4231  0.4374
15913WAT     H165457   5.397   4.838   5.364  0.7435  0.0516 -0.1501
15913WAT     H265458   5.491   4.729   5.316 -0.2978 -1.1513  0.4825
15913WAT    EPW65459   5.412   4.767   5.317  0.0231 -0.4563  0.3657
15914WAT      O65460   4.509   2.223   4.126  0.3115  0.0169  0.1887
15914WAT     H165461   4.456   2.148   4.101 -1.0067  0.7962  0.5611
15914WAT     H265462   4.491   2.236   4.219  0.7802  0.6000  0.2057
15914WAT    EPW65463   4.500   2.215   4.135  0.1993  0.1965  0.2398
15915WAT      O65464   5.752   3.825   6.932  0.0416 -0.2907 -0.2048
15915WAT     H165465   5.811   3.879   6.986 -1.7557  0.0397  1.5913
15915WAT     H265466   5.783   3.837   6.843  1.1417  1.8824  0.3933
15915WAT    EPW65467   5.763   3.834   6.928 -0.0505  0.0395  0.1109
15916WAT      O65468   5.277   2.197   6.434 -0.1207 -0.3729  0.1127
15916WAT     H165469   5.345   2.190   6.501 -0.1719 -1.8941  0.0381
15916WAT     H265470   5.295   2.281   6.391 -1.9461  2.2945  3.9509
15916WAT    EPW65471   5.288   2.208   6.437 -0.3679 -0.2218  0.6092
15917WAT      O65472   6.065   2.898   8.805 -0.8170 -0.0521 -0.2247
15917WAT     H165473   6.009   2.828   8.839 -0.8929 -1.4438 -2.9234
15917WAT     H265474   6.090   2.868   8.717  2.5808  1.4133  0.0742
15917WAT    EPW65475   6.061   2.884   8.798 -0.3788 -0.0423 -0.5407
15918WAT      O65476   2.085   4.224   4.388  0.2589  0.2149 -0.0876
15918WAT     H165477   2.093   4.129   4.398  3.0835  0.4386  0.6317
15918WAT     H265478   2.040   4.253   4.468 -0.1958 -0.4695 -0.0912
15918WAT    EPW65479   2.080   4.215   4.400  0.5714  0.1538  0.0067
15919WAT      O65480   2.850   3.731   6.161 -0.2908  0.3631 -0.2009
15919WAT     H165481   2.853   3.730   6.257  0.1569  0.5403 -0.2105
15919WAT     H265482   2.939   3.755   6.135 -0.4341  0.3967 -0.6592
15919WAT    EPW65483   2.862   3.734   6.171 -0.2507  0.3910 -0.2625
15920WAT      O65484   2.481   4.103   4.497  0.1381 -0.7988 -0.6817
15920WAT     H165485   2.413   4.049   4.537  0.2056  0.3493  1.1113
15920WAT     H265486   2.559   4.048   4.495  1.2378  0.0952  4.4396
15920WAT    EPW65487   2.482   4.089   4.502  0.2922 -0.5295  0.2301
15921WAT      O65488   2.974   7.362   7.210 -0.0291  0.1896 -0.4200
15921WAT     H165489   3.000   7.312   7.288 -1.9137 -0.6036 -0.2274
15921WAT     H265490   2.928   7.297   7.156  1.5523  0.6315 -2.4039
15921WAT    EPW65491   2.971   7.347   7.213 -0.0690  0.1433 -0.6559
15922WAT      O65492   3.390   3.705   6.169  0.4077 -0.6220 -0.4256
15922WAT     H165493   3.385   3.609   6.170 -3.0883 -0.6615  3.0448
15922WAT     H265494   3.439   3.727   6.249 -1.3042  0.3785  0.4030
15922WAT    EPW65495   3.396   3.695   6.180 -0.2792 -0.4953  0.1411
15923WAT      O65496   2.461   1.637   6.472 -0.1189  0.0002  0.2053
15923WAT     H165497   2.488   1.620   6.382 -2.8185 -1.4183 -0.4706
15923WAT     H265498   2.451   1.732   6.477  0.1300  0.1025 -0.9964
15923WAT    EPW65499   2.463   1.647   6.461 -0.4421 -0.1734 -0.0424
15924WAT      O65500   4.550   3.035   6.992  0.4678  0.3389 -0.5139
15924WAT     H165501   4.597   3.108   7.032  1.4297  0.1476 -1.2554
15924WAT     H265502   4.612   2.962   6.996  0.3256  0.1357 -1.7134
15924WAT    EPW65503   4.564   3.035   6.998  0.5760  0.2868 -0.7699
15925WAT      O65504   2.744   4.989   2.608  0.5709  0.5950  0.5161
15925WAT     H165505   2.817   4.934   2.635  0.3920 -0.9443 -1.8432
15925WAT     H265506   2.692   5.000   2.687  3.4068  1.9869  2.3516
15925WAT    EPW65507   2.747   4.983   2.622  0.9212  0.5755  0.4469
15926WAT      O65508   2.607   4.179   7.058  0.0707  0.1596 -0.7340
15926WAT     H165509   2.619   4.150   6.968  0.8518 -4.1740  0.5641
15926WAT     H265510   2.586   4.100   7.107  3.2197  1.5347  3.4996
15926WAT    EPW65511   2.606   4.165   7.052  0.5891 -0.2308 -0.0045
15927WAT      O65512   4.203   3.907   4.675  0.5064  0.9048 -0.4347
15927WAT     H165513   4.275   3.896   4.612  1.0905 -0.8125  0.4719
15927WAT     H265514   4.127   3.927   4.620  1.1297  0.1303 -1.6353
15927WAT    EPW65515   4.203   3.908   4.659  0.6657  0.5761 -0.4735
15928WAT      O65516   3.043   1.095   8.628  0.1710  0.2330  0.4766
15928WAT     H165517   3.049   1.031   8.700 -0.2982  0.5399  0.7944
15928WAT     H265518   2.976   1.060   8.570  0.2147  0.2219  0.4334
15928WAT    EPW65519   3.035   1.082   8.630  0.1150  0.2720  0.5126
15929WAT      O65520   2.923   2.952   5.383 -0.1203 -0.6144 -0.2673
15929WAT     H165521   3.008   2.917   5.356  0.7331 -0.0334  1.5299
15929WAT     H265522   2.932   3.047   5.376 -1.1292 -0.5711 -1.3995
15929WAT    EPW65523   2.936   2.960   5.378 -0.1408 -0.5320 -0.1798
15930WAT      O65524   4.482   4.180   6.036  0.2604 -0.1501 -0.1255
15930WAT     H165525   4.560   4.189   6.091  0.2322 -0.9653  0.0618
15930WAT     H265526   4.439   4.100   6.068  0.9037 -1.3894 -2.1309
15930WAT    EPW65527   4.486   4.170   6.047  0.3417 -0.4210 -0.3655
15931WAT      O65528   6.322   1.094   5.642 -0.6012 -0.4995  0.8345
15931WAT     H165529   6.245   1.150   5.632  0.9764  1.5164 -0.9144
15931WAT     H265530   6.396   1.153   5.633  1.1970 -2.7075  0.0971
15931WAT    EPW65531   6.321   1.109   5.640 -0.1557 -0.5249  0.5064
15932WAT      O65532   7.008   3.346   3.816  0.3711  0.1809 -0.4030
15932WAT     H165533   7.005   3.398   3.736  0.0416  0.6769 -0.0772
15932WAT     H265534   7.081   3.383   3.866 -0.5971  1.1493  0.3571
15932WAT    EPW65535   7.017   3.358   3.812  0.1998  0.3740 -0.2599
15933WAT      O65536   4.945   3.816   5.731 -0.3930 -0.3724  0.7145
15933WAT     H165537   4.863   3.769   5.724  1.0815 -3.0111 -0.1381
15933WAT     H265538   4.929   3.899   5.686 -2.0186 -1.6425 -1.1956
15933WAT    EPW65539   4.932   3.821   5.724 -0.4129 -0.8881  0.3502
15934WAT      O65540   2.247   2.140   6.393  0.3881 -0.1029 -0.0504
15934WAT     H165541   2.250   2.112   6.484  1.0900 -0.2904 -0.1298
15934WAT     H265542   2.266   2.061   6.342 -4.6917 -1.3048 -0.6613
15934WAT    EPW65543   2.250   2.126   6.398 -0.1893 -0.2861 -0.1414
15935WAT      O65544   2.445   5.244   5.698 -0.4444 -1.2539  0.1748
15935WAT     H165545   2.532   5.216   5.724 -0.1924 -2.1608 -1.5097
15935WAT     H265546   2.436   5.333   5.733 -0.5399 -2.6233  4.0685
15935WAT    EPW65547   2.455   5.252   5.706 -0.4238 -1.5543  0.4661
15936WAT      O65548   4.766   4.196   5.413 -0.8779 -0.1564 -0.8915
15936WAT     H165549   4.740   4.174   5.323 -1.5785 -1.9340 -0.3186
15936WAT     H265550   4.683   4.220   5.456 -0.9065 -1.3988 -0.2070
15936WAT    EPW65551   4.751   4.196   5.407 -0.9744 -0.5548 -0.7257
15937WAT      O65552   1.978   7.912   2.524  1.0957  0.1881  0.3921
15937WAT     H165553   2.034   7.882   2.452  2.6199  1.9317  0.7550
15937WAT     H265554   2.037   7.962   2.581 -0.6155  1.1742  1.3943
15937WAT    EPW65555   1.993   7.915   2.522  1.0710  0.5481  0.5721
15938WAT      O65556   3.496   2.334   5.043 -0.1343 -0.1898 -0.0910
15938WAT     H165557   3.407   2.366   5.026 -0.7479 -1.7879 -0.0706
15938WAT     H265558   3.537   2.404   5.094 -0.8861  1.2020 -1.3388
15938WAT    EPW65559   3.490   2.348   5.048 -0.3145 -0.2171 -0.2530
15939WAT      O65560   5.347   3.482   8.863  0.3957 -0.5991  0.4347
15939WAT     H165561   5.379   3.571   8.849  1.1040 -0.6046  1.8687
15939WAT     H265562   5.303   3.459   8.781  2.2595  0.1922 -0.8521
15939WAT    EPW65563   5.345   3.491   8.850  0.7350 -0.4956  0.4539
15940WAT      O65564   4.773   4.018   3.319 -0.1802  0.0095 -0.5611
15940WAT     H165565   4.817   3.973   3.247  0.7284  2.2060 -1.4400
15940WAT     H265566   4.742   4.100   3.282 -0.3082  0.9025  1.3814
15940WAT    EPW65567   4.775   4.023   3.305 -0.0775  0.4170 -0.4209
15941WAT      O65568   2.123   3.571   2.963 -0.0828 -0.2772  0.5596
15941WAT     H165569   2.213   3.562   2.934 -0.2967 -2.4229  0.3903
15941WAT     H265570   2.116   3.661   2.995  1.4635  0.6764 -1.5716
15941WAT    EPW65571   2.134   3.581   2.964  0.0930 -0.4344  0.2563
15942WAT      O65572   2.444   2.901   6.485  0.1841  0.0747  0.6014
15942WAT     H165573   2.502   2.976   6.500  2.1820 -1.3123  0.1899
15942WAT     H265574   2.478   2.860   6.405 -2.5772  0.2514 -0.8023
15942WAT    EPW65575   2.456   2.906   6.476  0.0834 -0.0850  0.3622
15943WAT      O65576   3.787   3.942   4.754 -0.0937  0.4201 -0.1347
15943WAT     H165577   3.791   3.999   4.678 -0.7125  1.0193  0.2777
15943WAT     H265578   3.741   3.863   4.723  1.0495 -0.0108 -0.7867
15943WAT    EPW65579   3.781   3.939   4.740 -0.0247  0.4423 -0.1662
15944WAT      O65580   4.047   4.743   5.031  0.0677 -0.1993 -0.2515
15944WAT     H165581   4.062   4.742   4.936  0.6688  2.0494 -0.2228
15944WAT     H265582   4.118   4.796   5.066  0.1812 -1.4734  1.5620
15944WAT    EPW65583   4.058   4.750   5.023  0.1621 -0.0710 -0.0086
15945WAT      O65584   4.687   4.311   4.925  0.2005  0.3236  0.2388
15945WAT     H165585   4.602   4.271   4.907 -0.1387  0.5317  1.3034
15945WAT     H265586   4.723   4.259   4.997  1.4875 -0.4641 -0.9375
15945WAT    EPW65587   4.680   4.299   4.932  0.3252  0.2472  0.2244
15946WAT      O65588   4.632   4.708   6.265 -0.6986  0.0668 -0.6912
15946WAT     H165589   4.539   4.728   6.252 -0.2461  2.0291 -1.2009
15946WAT     H265590   4.644   4.623   6.224 -2.5288 -0.8633  0.5552
15946WAT    EPW65591   4.621   4.700   6.258 -0.8802  0.2027 -0.5941
15947WAT      O65592   3.248   2.556   1.962 -0.1840  0.3286  0.2465
15947WAT     H165593   3.340   2.564   1.936 -0.0626  1.3247  0.9192
15947WAT     H265594   3.208   2.505   1.893  0.9315 -0.3366  0.0663
15947WAT    EPW65595   3.255   2.551   1.950 -0.0207  0.3722  0.3116
15948WAT      O65596   3.188   0.895   3.433 -0.2854 -0.2974  0.8033
15948WAT     H165597   3.274   0.856   3.449  0.3367  1.0475  0.9002
15948WAT     H265598   3.168   0.873   3.342 -0.0396 -0.9852  0.9147
15948WAT    EPW65599   3.197   0.887   3.423 -0.1708 -0.2107  0.8308
15949WAT      O65600   3.404   4.102   4.171 -0.1333 -0.0868 -0.1644
15949WAT     H165601   3.331   4.059   4.127 -0.7592  1.0224 -0.2451
15949WAT     H265602   3.390   4.085   4.264 -0.9535  0.8076 -0.1190
15949WAT    EPW65603   3.393   4.094   4.177 -0.3240  0.1776 -0.1693
15950WAT      O65604   5.526   5.546   5.737  0.2520  0.0724 -0.0361
15950WAT     H165605   5.519   5.605   5.812  1.3734  1.1391 -0.7504
15950WAT     H265606   5.467   5.583   5.672  0.7390  0.2449 -0.3819
15950WAT    EPW65607   5.517   5.559   5.739  0.4640  0.2356 -0.1757
15951WAT      O65608   1.739   4.311   7.596 -0.1445 -0.4721  0.2182
15951WAT     H165609   1.832   4.314   7.577 -0.0216 -1.2912  0.6907
15951WAT     H265610   1.701   4.259   7.525 -0.5864  1.6884 -1.2344
15951WAT    EPW65611   1.746   4.305   7.584 -0.1866 -0.2952  0.0892
15952WAT      O65612   5.125   3.447   8.170  0.5877 -0.4146 -0.1090
15952WAT     H165613   5.178   3.390   8.224  0.3131 -0.5714 -0.0009
15952WAT     H265614   5.057   3.480   8.229  0.6286 -0.1322 -0.2178
15952WAT    EPW65615   5.123   3.444   8.185  0.5569 -0.3982 -0.1092
15953WAT      O65616   3.937   3.313   4.967  0.9510 -0.0573 -0.1874
15953WAT     H165617   3.883   3.251   4.918  0.5329  1.3585 -1.6011
15953WAT     H265618   3.882   3.390   4.977  1.5217  0.1744  1.3969
15953WAT    EPW65619   3.923   3.315   4.962  0.9712  0.1600 -0.1647
15954WAT      O65620   2.681   6.197   8.676  0.2375  0.5710 -0.6380
15954WAT     H165621   2.671   6.221   8.583 -2.2065 -0.4700 -0.7287
15954WAT     H265622   2.630   6.263   8.723 -2.1984 -1.2459 -0.4853
15954WAT    EPW65623   2.673   6.209   8.670 -0.4061  0.1941 -0.6304
15955WAT      O65624   3.264   5.475   6.523  1.4570 -0.2963 -0.3127
15955WAT     H165625   3.338   5.534   6.534  1.0646  0.2868 -0.7381
15955WAT     H265626   3.288   5.397   6.572  1.2462  0.8462  1.7176
15955WAT    EPW65627   3.277   5.472   6.531  1.3775 -0.0687 -0.1013
15956WAT      O65628   4.829   4.596   4.617  0.6952  0.5000 -0.2401
15956WAT     H165629   4.790   4.683   4.622 -1.2319 -0.2913 -0.3490
15956WAT     H265630   4.796   4.560   4.535 -0.1918 -1.0181  0.7161
15956WAT    EPW65631   4.819   4.602   4.607  0.3238  0.1953 -0.1283
15957WAT      O65632   5.350   2.851   7.925 -0.3996  0.0776  0.5310
15957WAT     H165633   5.389   2.784   7.981 -2.4774 -1.1028  0.6483
15957WAT     H265634   5.403   2.850   7.845 -0.0059 -1.2389  0.7980
15957WAT    EPW65635   5.362   2.842   7.921 -0.6220 -0.2518  0.5817
15958WAT      O65636   4.394   6.658   4.801  0.2547 -1.0276  0.1952
15958WAT     H165637   4.329   6.711   4.755  0.6767  0.7349  1.5281
15958WAT     H265638   4.477   6.681   4.759  0.2927 -1.6411 -0.0747
15958WAT    EPW65639   4.396   6.668   4.789  0.3152 -0.8762  0.3355
15959WAT      O65640   0.380   1.546   6.530  0.3845 -0.0697 -0.0724
15959WAT     H165641   0.348   1.493   6.457 -2.1726  0.8905  0.2661
15959WAT     H265642   0.474   1.527   6.534  0.1183 -2.1366 -1.9289
15959WAT    EPW65643   0.388   1.536   6.521  0.0121 -0.2157 -0.2728
15960WAT      O65644   1.136   1.487   6.446  0.2921  0.1002 -0.3807
15960WAT     H165645   1.191   1.561   6.471  1.2392 -0.3553 -1.0784
15960WAT     H265646   1.050   1.526   6.428 -0.0822  0.6401  2.1246
15960WAT    EPW65647   1.132   1.502   6.447  0.3676  0.1113 -0.1423
15961WAT      O65648   5.060   3.738   5.187  0.1024  0.2158  0.2289
15961WAT     H165649   5.114   3.784   5.123 -1.4327  0.4801 -0.9370
15961WAT     H265650   5.061   3.647   5.157  2.4706 -0.4761  2.0688
15961WAT    EPW65651   5.068   3.732   5.175  0.2122  0.1595  0.3178
15962WAT      O65652   6.333   2.714   6.436  0.0421  0.3527 -0.6963
15962WAT     H165653   6.333   2.619   6.427 -0.4311  0.4474 -1.9388
15962WAT     H265654   6.250   2.734   6.481  0.2648  0.1676 -0.1975
15962WAT    EPW65655   6.322   2.704   6.441  0.0091  0.3408 -0.7946
15963WAT      O65656   5.291   0.795   6.540 -0.2378  0.1124  0.2398
15963WAT     H165657   5.305   0.797   6.635 -1.8478 -1.5245  0.5716
15963WAT     H265658   5.336   0.715   6.512 -0.5059  0.1332 -0.2505
15963WAT    EPW65659   5.299   0.784   6.549 -0.4859 -0.1008  0.2186
15964WAT      O65660   4.382   4.374   6.364  0.1961 -0.2779  0.3283
15964WAT     H165661   4.465   4.391   6.320  0.7226 -0.3475  1.2665
15964WAT     H265662   4.354   4.459   6.397 -0.0851 -0.2626  0.0554
15964WAT    EPW65663   4.389   4.388   6.362  0.2282 -0.2849  0.4160
15965WAT      O65664   3.702   3.519   5.091  0.2073  0.4717 -0.6076
15965WAT     H165665   3.668   3.541   5.178  2.0502 -0.3941  0.3820
15965WAT     H265666   3.683   3.426   5.081  4.3290 -0.7994  1.1397
15965WAT    EPW65667   3.695   3.510   5.101  0.9938  0.1897 -0.2463
15966WAT      O65668   3.560   4.830   5.013  0.0274  0.1015  0.2672
15966WAT     H165669   3.580   4.904   5.071  2.7427 -0.1086 -0.2752
15966WAT     H265670   3.601   4.853   4.930  1.2873 -2.1569  0.1995
15966WAT    EPW65671   3.568   4.843   5.010  0.5517 -0.2244  0.1869
15967WAT      O65672   4.236   2.912   4.337  0.4587  0.6420 -0.6102
15967WAT     H165673   4.225   2.965   4.258 -2.6252  0.1407 -0.6258
15967WAT     H265674   4.228   2.822   4.307  0.6694  0.3891  0.0863
15967WAT    EPW65675   4.233   2.907   4.323  0.0796  0.5424 -0.5202
15968WAT      O65676   3.801   4.149   3.596  0.6658  0.0495  1.1728
15968WAT     H165677   3.723   4.169   3.544  0.7527 -3.2326 -0.5218
15968WAT     H265678   3.868   4.206   3.561 -0.2590  0.7687  0.5147
15968WAT    EPW65679   3.799   4.159   3.584  0.5553 -0.2887  0.8626
15969WAT      O65680   5.542   4.379   5.397 -0.4647  0.4022  0.7508
15969WAT     H165681   5.555   4.364   5.491  2.8293 -0.5394  0.2410
15969WAT     H265682   5.484   4.308   5.370  0.2878 -0.5925  1.6851
15969WAT    EPW65683   5.536   4.368   5.406  0.0691  0.1466  0.8068
15970WAT      O65684   8.682   9.786   1.731 -0.5193  0.0353 -0.1850
15970WAT     H165685   8.740   9.715   1.759 -2.3875 -1.7128 -0.5336
15970WAT     H265686   8.722   9.818   1.650  0.2489 -0.7335 -0.1275
15970WAT    EPW65687   8.695   9.781   1.724 -0.6642 -0.2966 -0.2235
15971WAT      O65688   6.238   3.668   7.109  0.1648 -0.2639  0.0587
15971WAT     H165689   6.201   3.680   7.196 -2.3706  0.3919 -1.0262
15971WAT     H265690   6.310   3.730   7.105 -0.9861  1.1981  0.9944
15971WAT    EPW65691   6.243   3.678   7.120 -0.3214  0.0153  0.0389
15972WAT      O65692   3.886   1.272   4.590  0.1114  0.2023  0.9064
15972WAT     H165693   3.849   1.259   4.502 -2.3603  0.2859  1.8572
15972WAT     H265694   3.876   1.366   4.606  3.0501  0.7135  0.3155
15972WAT    EPW65695   3.880   1.283   4.580  0.1731  0.2808  0.9537
15973WAT      O65696   5.397   5.432   4.999  0.1683 -0.5346 -0.3914
15973WAT     H165697   5.323   5.427   4.937 -0.3244  1.5091 -0.0288
15973WAT     H265698   5.358   5.461   5.081  0.7812 -3.4312  1.0545
15973WAT    EPW65699   5.382   5.435   5.001  0.1841 -0.6473 -0.1528
15974WAT      O65700   8.535   9.605   0.384  0.2034 -0.2049  0.1359
15974WAT     H165701   8.500   9.551   0.456  0.5531 -1.7128 -0.7709
15974WAT     H265702   8.629   9.586   0.383  0.5910  1.5038  0.6453
15974WAT    EPW65703   8.543   9.595   0.393  0.2999 -0.1788  0.0835
15975WAT      O65704   1.509   5.046   7.181  0.1860  0.3032  0.0930
15975WAT     H165705   1.510   5.102   7.103  1.3250  0.9161  0.5324
15975WAT     H265706   1.527   5.106   7.253  2.3792 -0.7564  0.4803
15975WAT    EPW65707   1.511   5.061   7.180  0.6254  0.2444  0.2019
15976WAT      O65708   4.934   2.286   5.929  0.7009 -0.9476 -0.4233
15976WAT     H165709   4.908   2.370   5.891 -0.0956  0.0857  2.2020
15976WAT     H265710   4.860   2.228   5.914  1.3145 -1.3053 -2.3846
15976WAT    EPW65711   4.921   2.289   5.922  0.6771 -0.8587 -0.3357
15977WAT      O65712   3.996   6.764   4.752 -0.1639 -0.4136 -0.1344
15977WAT     H165713   4.077   6.816   4.742 -1.1196  1.6089  1.8874
15977WAT     H265714   3.926   6.828   4.741 -1.6103 -2.2732 -2.6228
15977WAT    EPW65715   3.998   6.780   4.749 -0.4808 -0.3922 -0.1960
15978WAT      O65716   3.387   5.256   6.645 -0.2595 -0.8162  0.7914
15978WAT     H165717   3.332   5.217   6.713 -2.0954  3.7223  2.3639
15978WAT     H265718   3.449   5.311   6.693 -0.0528  0.7320 -1.1167
15978WAT    EPW65719   3.388   5.258   6.660 -0.4743 -0.0131  0.7472
15979WAT      O65720   2.542   6.353   4.617  0.2493 -0.4820  0.4366
15979WAT     H165721   2.619   6.398   4.583  0.8900 -1.5705  0.4093
15979WAT     H265722   2.568   6.261   4.624 -1.3788 -1.0646 -0.5766
15979WAT    EPW65723   2.556   6.347   4.614  0.1192 -0.7024  0.2992
15980WAT      O65724   6.190   3.890   7.961  0.6061 -0.5662 -0.4596
15980WAT     H165725   6.146   3.811   7.993  2.2288 -0.4924  2.3727
15980WAT     H265726   6.130   3.962   7.982  0.9286 -0.6963  1.0168
15980WAT    EPW65727   6.177   3.889   7.968  0.8626 -0.5736  0.1087
15981WAT      O65728   1.851   1.391   5.642  0.0018  0.3416 -0.5168
15981WAT     H165729   1.865   1.355   5.555 -0.9879  1.1624 -1.0371
15981WAT     H265730   1.798   1.325   5.687  0.9873 -0.3391 -0.3308
15981WAT    EPW65731   1.846   1.378   5.637  0.0013  0.3601 -0.5610
15982WAT      O65732   1.264   0.877   7.764 -0.2036 -0.2587 -0.2515
15982WAT     H165733   1.259   0.923   7.681  0.9362 -0.7022 -0.5717
15982WAT     H265734   1.354   0.889   7.794 -0.0383 -1.7567 -0.0497
15982WAT    EPW65735   1.275   0.885   7.757 -0.0315 -0.5148 -0.2673
15983WAT      O65736   5.732   0.212   3.711  0.3035 -0.7643  0.2386
15983WAT     H165737   5.821   0.179   3.715  0.0234 -1.5878 -0.1819
15983WAT     H265738   5.684   0.147   3.660 -0.2859  0.2528 -0.5409
15983WAT    EPW65739   5.737   0.199   3.705  0.1888 -0.7387  0.0805
15984WAT      O65740   5.143   6.619   5.133 -0.1004  0.1565  0.6144
15984WAT     H165741   5.163   6.534   5.094 -0.6820  0.3105 -0.0344
15984WAT     H265742   5.167   6.609   5.225 -0.9294 -0.9783  0.7209
15984WAT    EPW65743   5.149   6.607   5.140 -0.2861  0.0269  0.5429
15985WAT      O65744   4.273   3.030   2.385 -0.3074 -0.2372  0.1417
15985WAT     H165745   4.349   3.080   2.356  0.9544  1.1492  4.9231
15985WAT     H265746   4.309   2.965   2.445 -2.6981 -1.1251  0.7161
15985WAT    EPW65747   4.287   3.028   2.389 -0.4563 -0.1715  0.8481
15986WAT      O65748   0.226   7.714   3.540  0.3333  0.2689  0.0425
15986WAT     H165749   0.287   7.677   3.604  0.1293  0.5784  0.4187
15986WAT     H265750   0.195   7.795   3.581  1.4207  1.3212 -1.1198
15986WAT    EPW65751   0.230   7.720   3.554  0.4498  0.4485 -0.0612
15987WAT      O65752   4.669   4.828   4.614  0.5867  0.2578 -0.3183
15987WAT     H165753   4.579   4.817   4.647  1.4659 -1.2908  1.7749
15987WAT     H265754   4.660   4.815   4.519 -1.2426 -1.2565 -0.0184
15987WAT    EPW65755   4.656   4.825   4.606  0.4613 -0.1459 -0.0029
15988WAT      O65756   3.672   4.171   5.364  0.0697  0.2648 -0.3320
15988WAT     H165757   3.611   4.218   5.308  0.6352  1.6236  0.1640
15988WAT     H265758   3.750   4.159   5.310  0.2846  0.7770 -0.1395
15988WAT    EPW65759   3.675   4.176   5.349  0.1726  0.5119 -0.2413
15989WAT      O65760   3.500   5.425   5.915  0.4478 -0.1548 -0.3331
15989WAT     H165761   3.464   5.403   5.829 -3.1241  0.9180  0.7055
15989WAT     H265762   3.528   5.516   5.907 -2.0156  0.7124  0.1194
15989WAT    EPW65763   3.499   5.434   5.903 -0.3483  0.1011 -0.1364
15990WAT      O65764   3.542   4.239   2.184  0.6071 -0.9329  0.4380
15990WAT     H165765   3.527   4.243   2.278 -0.7784 -0.7760  0.2275
15990WAT     H265766   3.628   4.279   2.172  0.5021 -0.3218  1.5701
15990WAT    EPW65767   3.551   4.245   2.195  0.4104 -0.8316  0.5594
15991WAT      O65768   4.356   4.656   6.113 -0.9095 -0.1121  0.3251
15991WAT     H165769   4.336   4.667   6.206  0.1744  1.7882  0.3883
15991WAT     H265770   4.361   4.745   6.079  0.0026 -0.7310 -1.2660
15991WAT    EPW65771   4.354   4.669   6.121 -0.6461  0.0572  0.1237
15992WAT      O65772   4.071   3.849   6.339 -0.1919  0.3822  0.4350
15992WAT     H165773   4.071   3.833   6.244 -2.1780 -3.7711  0.8946
15992WAT     H265774   3.984   3.885   6.356 -1.5057 -2.7164  0.9454
15992WAT    EPW65775   4.059   3.851   6.329 -0.6268 -0.5744  0.5629
15993WAT      O65776   0.955   3.517   7.670  0.4740  0.4284  0.5773
15993WAT     H165777   1.040   3.541   7.634 -0.0413  0.3344 -0.7368
15993WAT     H265778   0.976   3.474   7.753  1.8927 -1.9055 -0.8917
15993WAT    EPW65779   0.969   3.514   7.677  0.5932  0.1081  0.2105
15994WAT      O65780   3.129   3.662   5.037 -0.0172 -0.5421  0.0173
15994WAT     H165781   3.057   3.599   5.026 -1.0913  0.5123  0.7428
15994WAT     H265782   3.154   3.685   4.947 -0.6023 -0.9177 -0.2494
15994WAT    EPW65783   3.123   3.657   5.023 -0.2360 -0.4526  0.0775
15995WAT      O65784   8.556   4.433   4.171  0.4222 -0.5261  0.6339
15995WAT     H165785   8.572   4.515   4.217 -0.1374 -0.0752  0.0497
15995WAT     H265786   8.544   4.368   4.240 -0.4136  0.1324  1.1224
15995WAT    EPW65787   8.556   4.435   4.186  0.2384 -0.3798  0.6211
15996WAT      O65788   6.103   6.081   5.240 -0.3222 -0.4993  0.0321
15996WAT     H165789   6.132   5.992   5.224 -1.3048 -0.9108  0.5021
15996WAT     H265790   6.142   6.104   5.324 -0.4545 -0.6615  0.1390
15996WAT    EPW65791   6.112   6.073   5.249 -0.4692 -0.5751  0.1080
15997WAT      O65792   5.927   5.246   5.119 -0.2633  0.0135 -0.2280
15997WAT     H165793   5.842   5.264   5.077  0.4606  1.5547 -1.1092
15997WAT     H265794   5.991   5.274   5.054  0.9382 -1.0651  0.4661
15997WAT    EPW65795   5.924   5.252   5.105 -0.0093  0.0749 -0.2527
15998WAT      O65796   3.432   5.980   5.069 -0.6801  0.3235 -0.1475
15998WAT     H165797   3.434   5.938   4.983 -1.8477 -0.0389 -0.0040
15998WAT     H265798   3.477   6.064   5.055 -3.2121  1.5208 -1.8070
15998WAT    EPW65799   3.439   5.985   5.056 -1.1681  0.4337 -0.3471
15999WAT      O65800   4.831   5.257   6.168 -0.5826  0.3247 -0.1762
15999WAT     H165801   4.912   5.300   6.198 -1.6276  0.8506  2.0896
15999WAT     H265802   4.819   5.291   6.079  2.6370 -1.2294 -1.3838
15999WAT    EPW65803   4.840   5.267   6.160 -0.2959  0.1891 -0.0367
16000WAT      O65804   6.817   6.133   5.328 -0.0733  0.1576  0.2643
16000WAT     H165805   6.772   6.080   5.393  0.7572 -2.3452 -1.0565
16000WAT     H265806   6.766   6.122   5.248  0.2607  1.1610 -0.1016
16000WAT    EPW65807   6.805   6.124   5.326  0.0803 -0.0403  0.0422
16001WAT      O65808   8.114   6.295   4.385 -0.4731  0.5674 -0.4923
16001WAT     H165809   8.204   6.281   4.357 -1.5830 -0.7292 -3.8959
16001WAT     H265810   8.077   6.354   4.319 -3.4320 -2.9672 -2.3124
16001WAT    EPW65811   8.121   6.301   4.373 -1.0104 -0.0696 -1.1814
16002WAT      O65812  10.140   5.269   6.343  0.6200 -0.4166  0.8133
16002WAT     H165813  10.133   5.340   6.279  0.7868  0.1422  1.3977
16002WAT     H265814  10.113   5.190   6.295  0.5680  0.0171  0.1141
16002WAT    EPW65815  10.136   5.268   6.328  0.6356 -0.2859  0.7980
16003WAT      O65816   6.113   5.364   6.341 -0.0106 -0.2158  0.0750
16003WAT     H165817   6.072   5.353   6.426  1.3720 -2.8767  0.5015
16003WAT     H265818   6.207   5.366   6.359  0.3005 -0.4994 -1.3459
16003WAT    EPW65819   6.120   5.363   6.354  0.2127 -0.6042 -0.0563
16004WAT      O65820   7.093   2.600   7.744  0.0671 -0.1494 -0.3489
16004WAT     H165821   7.102   2.583   7.837  0.8022 -0.6699 -0.5008
16004WAT     H265822   7.055   2.519   7.709  2.4647 -1.1323 -0.9013
16004WAT    EPW65823   7.090   2.587   7.751  0.4804 -0.3479 -0.4416
16005WAT      O65824   7.133   4.012   3.622  0.6122 -0.3034 -0.9771
16005WAT     H165825   7.184   4.087   3.655 -1.6557 -0.3788  3.4601
16005WAT     H265826   7.051   4.051   3.591 -0.6546 -0.7683  1.5258
16005WAT    EPW65827   7.129   4.027   3.623  0.1459 -0.3748 -0.0618
16006WAT      O65828   6.498   6.020   6.134 -0.3526 -0.2258 -0.2675
16006WAT     H165829   6.574   6.043   6.080  0.0965  1.0525  0.8671
16006WAT     H265830   6.504   5.925   6.144  0.6907 -0.2292 -0.7972
16006WAT    EPW65831   6.509   6.010   6.128 -0.1562 -0.0577 -0.1881
16007WAT      O65832   7.518   3.779   5.759  0.0056 -0.3327 -0.2591
16007WAT     H165833   7.606   3.748   5.779  1.2940  2.7626 -0.5011
16007WAT     H265834   7.501   3.846   5.824 -1.0076  1.0006 -1.8108
16007WAT    EPW65835   7.528   3.784   5.770  0.0420  0.2514 -0.4957
16008WAT      O65836   4.926   4.747   5.062 -0.3992  0.2670 -0.2650
16008WAT     H165837   4.995   4.813   5.050 -1.3743  1.0664 -1.8485
16008WAT     H265838   4.926   4.697   4.980 -0.1212 -1.3209  0.6510
16008WAT    EPW65839   4.935   4.749   5.049 -0.4911  0.1628 -0.3533
16009WAT      O65840   5.853   5.484   5.755  0.6139 -0.4266 -0.0607
16009WAT     H165841   5.912   5.547   5.715  0.0315  1.6010  2.0553
16009WAT     H265842   5.784   5.537   5.794 -1.3616 -2.5765 -0.4408
16009WAT    EPW65843   5.852   5.499   5.755  0.2763 -0.4427  0.1681
16010WAT      O65844   5.560   3.895   5.055  0.3957 -0.4263  0.8531
16010WAT     H165845   5.587   3.807   5.083  2.6791 -0.4657 -1.1520
16010WAT     H265846   5.569   3.949   5.133 -1.0458 -1.9103  2.1344
16010WAT    EPW65847   5.565   3.890   5.069  0.5066 -0.6273  0.7577
16011WAT      O65848   6.903   3.288   5.129 -0.9556 -0.2296  0.0354
16011WAT     H165849   6.836   3.311   5.064  1.1728  0.1873 -2.1860
16011WAT     H265850   6.887   3.345   5.203 -1.8791  1.2696 -1.2646
16011WAT    EPW65851   6.892   3.298   5.130 -0.7966  0.0231 -0.4292
16012WAT      O65852   6.233   3.789   6.793 -0.2962 -0.3618 -0.0262
16012WAT     H165853   6.316   3.818   6.830 -0.1467 -0.1588 -0.5124
16012WAT     H265854   6.198   3.728   6.858 -1.4500  2.1250  1.8534
16012WAT    EPW65855   6.239   3.784   6.807 -0.4284 -0.0070  0.1574
16013WAT      O65856   4.852   6.534   5.724 -0.5024 -0.0036  0.9274
16013WAT     H165857   4.943   6.527   5.694 -1.2854 -1.1718 -1.4098
16013WAT     H265858   4.809   6.587   5.657 -1.9900 -1.3422  0.7581
16013WAT    EPW65859   4.858   6.540   5.711 -0.8020 -0.3343  0.5968
16014WAT      O65860   3.175   1.029   4.099 -0.2644  0.0443  0.4531
16014WAT     H165861   3.167   0.936   4.078  0.6293 -0.3424  1.7129
16014WAT     H265862   3.219   1.067   4.023  0.9921 -0.9094  0.6782
16014WAT    EPW65863   3.180   1.022   4.086  0.0191 -0.1325  0.6490
16015WAT      O65864   5.106   4.130   7.176 -0.2340 -0.7147 -0.1910
16015WAT     H165865   5.151   4.193   7.232 -0.1072  0.1369 -1.2239
16015WAT     H265866   5.047   4.182   7.123 -1.1762 -1.6371 -0.0831
16015WAT    EPW65867   5.104   4.145   7.177 -0.3414 -0.7241 -0.3128
16016WAT      O65868   9.928   5.481   3.642 -1.0317 -0.0795 -0.3586
16016WAT     H165869   9.977   5.471   3.561 -3.1133 -0.6399 -1.6456
16016WAT     H265870   9.902   5.573   3.644  2.0232  0.9125  1.6420
16016WAT    EPW65871   9.931   5.492   3.632 -0.9031 -0.0226 -0.2645
16017WAT      O65872   8.252   5.610   6.706 -0.1657 -0.3400 -0.4456
16017WAT     H165873   8.308   5.601   6.629  2.4346  0.3996  1.2378
16017WAT     H265874   8.177   5.660   6.675  2.1212  2.4420 -1.9918
16017WAT    EPW65875   8.250   5.615   6.692  0.4797  0.1247 -0.4275
16018WAT      O65876   7.337   6.817   6.964 -0.7263  0.6000 -0.0854
16018WAT     H165877   7.331   6.749   6.898 -0.7028 -1.0684  1.5581
16018WAT     H265878   7.276   6.885   6.935 -1.1549 -0.3478 -1.4672
16018WAT    EPW65879   7.328   6.817   6.951 -0.7801  0.2551 -0.0510
16019WAT      O65880   5.150   7.275   7.599 -0.0705  0.5992 -0.2468
16019WAT     H165881   5.078   7.277   7.661  0.1991 -1.5765  0.2006
16019WAT     H265882   5.109   7.255   7.515  0.0307 -1.3852  0.1351
16019WAT    EPW65883   5.135   7.273   7.596 -0.0215  0.0505 -0.1376
16020WAT      O65884   5.211   5.322   3.237  0.2753 -0.2673  0.1432
16020WAT     H165885   5.278   5.351   3.298  2.9457 -2.3870 -1.5407
16020WAT     H265886   5.218   5.383   3.163 -2.4300  1.8314  1.4341
16020WAT    EPW65887   5.221   5.334   3.235  0.2706 -0.2699  0.0914
16021WAT      O65888   7.030   5.990   6.364  0.5152 -1.3916  0.1679
16021WAT     H165889   6.998   6.063   6.417  0.3644  0.1747 -1.9102
16021WAT     H265890   6.951   5.940   6.343  0.0991 -0.3190 -0.9483
16021WAT    EPW65891   7.015   5.993   6.368  0.4404 -1.0436 -0.2534
16022WAT      O65892   2.956   9.885   4.888 -0.1784  0.2199  0.2676
16022WAT     H165893   2.954   9.909   4.796  0.0586  0.6711  0.3800
16022WAT     H265894   3.038   9.922   4.921 -0.4845  0.4578  0.7666
16022WAT    EPW65895   2.967   9.893   4.880 -0.1875  0.3109  0.3483
16023WAT      O65896   8.505   5.917   6.483  0.2369  0.4775  0.2149
16023WAT     H165897   8.593   5.878   6.490  0.9097  1.7445 -0.7120
16023WAT     H265898   8.514   6.003   6.524 -0.4809  0.7684 -0.2273
16023WAT    EPW65899   8.518   5.923   6.490  0.2313  0.6831  0.0341
16024WAT      O65900   8.700   6.496   7.176 -0.0642  0.7807  0.1022
16024WAT     H165901   8.652   6.413   7.179  1.9692 -0.5338 -1.5431
16024WAT     H265902   8.695   6.529   7.266 -2.1413 -0.3436  0.4740
16024WAT    EPW65903   8.693   6.489   7.189 -0.0701  0.4590 -0.0658
16025WAT      O65904   4.708   1.767   0.741  0.7195 -0.6006  0.1956
16025WAT     H165905   4.715   1.861   0.759 -0.9527  0.1578 -2.6008
16025WAT     H265906   4.794   1.742   0.708  0.0410  1.0595 -3.2125
16025WAT    EPW65907   4.720   1.776   0.739  0.4094 -0.2816 -0.6227
16026WAT      O65908   8.632   4.626   4.368  0.0830 -0.2234 -1.0147
16026WAT     H165909   8.567   4.578   4.419  1.2152 -0.6584  0.0599
16026WAT     H265910   8.599   4.716   4.367  0.2105 -0.1285  0.8072
16026WAT    EPW65911   8.619   4.632   4.375  0.2489 -0.2682 -0.6328
16027WAT      O65912   7.607   5.533   8.771 -0.3153  0.4700  0.3995
16027WAT     H165913   7.695   5.498   8.781  0.7147  1.9183 -2.4276
16027WAT     H265914   7.608   5.615   8.821  1.0338  1.9915 -1.9313
16027WAT    EPW65915   7.618   5.540   8.779 -0.0014  0.8619 -0.2809
16028WAT      O65916   5.043   8.548   5.803 -0.4009 -0.2240 -0.4579
16028WAT     H165917   4.983   8.531   5.876  0.9073 -0.2909  0.6372
16028WAT     H265918   5.126   8.510   5.832  0.2570  0.1564 -1.8047
16028WAT    EPW65919   5.046   8.541   5.817 -0.1416 -0.1826 -0.4914
16029WAT      O65920   8.614   8.285   3.325 -0.7417 -0.1082  0.2222
16029WAT     H165921   8.679   8.329   3.381 -0.9865  0.2395  0.2393
16029WAT     H265922   8.618   8.193   3.352  3.4077 -1.2580 -3.1835
16029WAT    EPW65923   8.623   8.279   3.336 -0.2265 -0.2141 -0.2249
16030WAT      O65924   1.916   2.840   0.038 -0.1357  0.8020  0.4170
16030WAT     H165925   1.999   2.799   0.063 -0.1198  0.1095 -0.7010
16030WAT     H265926   1.854   2.811   0.105 -0.1124 -1.0582 -0.2957
16030WAT    EPW65927   1.918   2.831   0.050 -0.1306  0.4654  0.1755
16031WAT      O65928   0.308   2.323   1.216  0.2472 -0.5886  0.3545
16031WAT     H165929   0.404   2.323   1.208  0.2127 -0.9782 -0.0892
16031WAT     H265930   0.291   2.379   1.293  0.8142 -0.3262  0.2996
16031WAT    EPW65931   0.318   2.331   1.225  0.3175 -0.6055  0.2887
16032WAT      O65932   5.130   5.137   7.176 -0.5364  0.3314  0.1537
16032WAT     H165933   5.077   5.096   7.244  0.0731 -0.2613  0.2836
16032WAT     H265934   5.148   5.067   7.113  0.4840  0.3892  0.3544
16032WAT    EPW65935   5.126   5.122   7.176 -0.3214  0.2608  0.1974
16033WAT      O65936   8.783   9.651   7.885 -0.1448 -0.2363 -0.2701
16033WAT     H165937   8.877   9.668   7.879 -0.5392  1.7872 -1.3101
16033WAT     H265938   8.744   9.709   7.821 -2.2178 -0.2547  0.9027
16033WAT    EPW65939   8.790   9.661   7.876 -0.4702  0.0286 -0.2525
16034WAT      O65940   4.511   5.107   0.023 -0.1247 -0.1473 -0.4965
16034WAT     H165941   4.528   5.123   0.116  0.0430 -0.8558 -0.3982
16034WAT     H265942   4.429   5.058   0.021  0.9026 -1.9706 -0.5511
16034WAT    EPW65943   4.503   5.102   0.035  0.0329 -0.4814 -0.4907
16035WAT      O65944   6.296   7.864   6.629  0.2763  0.2678 -0.2443
16035WAT     H165945   6.230   7.829   6.690  1.7445  0.1837  1.3641
16035WAT     H265946   6.281   7.815   6.549 -0.9659 -0.4817  0.4026
16035WAT    EPW65947   6.285   7.853   6.627  0.3061  0.1581  0.0529
16036WAT      O65948   1.021   2.749   0.300  0.0859  0.4133 -0.1340
16036WAT     H165949   1.078   2.689   0.349 -0.2010  0.4107  0.2013
16036WAT     H265950   1.070   2.831   0.297 -0.2405  0.6659  0.8919
16036WAT    EPW65951   1.035   2.752   0.306  0.0051  0.4462  0.0455
16037WAT      O65952   7.673   7.033   5.478  0.9066  0.0112 -0.0762
16037WAT     H165953   7.682   7.095   5.406  2.6196  0.4005  0.4279
16037WAT     H265954   7.763   7.017   5.507  0.4331 -1.9821  0.4233
16037WAT    EPW65955   7.686   7.039   5.472  1.0703 -0.2005  0.0565
16038WAT      O65956   6.036   7.788   5.686  1.0767  0.6467  0.7516
16038WAT     H165957   5.942   7.801   5.676  1.2633  1.4346 -0.1755
16038WAT     H265958   6.052   7.700   5.651  0.9655  1.3691 -1.2878
16038WAT    EPW65959   6.026   7.778   5.680  1.0865  0.8459  0.3605
16039WAT      O65960   1.132   7.067   1.331 -0.8393  0.7999  0.3733
16039WAT     H165961   1.162   7.118   1.256  0.5030  0.4372  0.6360
16039WAT     H265962   1.097   7.132   1.392  1.5112  1.5632  1.0161
16039WAT    EPW65963   1.132   7.082   1.329 -0.3521  0.8526  0.4928
16040WAT      O65964   4.727   8.496   5.256 -0.7569 -0.4971 -0.0960
16040WAT     H165965   4.806   8.530   5.214 -0.8519  1.9594  1.4930
16040WAT     H265966   4.655   8.531   5.204 -0.8017 -0.3195  0.0785
16040WAT    EPW65967   4.728   8.505   5.244 -0.7753 -0.1502  0.1366
16041WAT      O65968   5.582   4.394   7.812  0.4902  0.0663 -0.0239
16041WAT     H165969   5.487   4.399   7.799  0.4439  2.2252  0.8635
16041WAT     H265970   5.595   4.307   7.851 -1.3628  0.4222  1.5906
16041WAT    EPW65971   5.571   4.383   7.815  0.2398  0.3979  0.3061
16042WAT      O65972   4.730   8.115   6.269  0.4787 -0.6938 -0.5465
16042WAT     H165973   4.642   8.116   6.305  1.2320 -0.2507  1.4276
16042WAT     H265974   4.768   8.033   6.299  1.1058 -0.3524 -0.3787
16042WAT    EPW65975   4.724   8.105   6.278  0.6607 -0.5903 -0.2639
16043WAT      O65976   6.291   6.005   4.475  0.3083  0.0967  0.2321
16043WAT     H165977   6.287   5.937   4.407 -3.1139  2.1863 -1.9875
16043WAT     H265978   6.330   5.961   4.551 -0.3542 -3.8890 -1.4773
16043WAT    EPW65979   6.296   5.990   4.476 -0.2306 -0.1533 -0.2861
16044WAT      O65980   7.154   6.409   2.331 -0.6553 -0.5678  0.6098
16044WAT     H165981   7.079   6.352   2.315  0.6454 -2.6495  1.4704
16044WAT     H265982   7.230   6.351   2.325  1.1955  1.9009 -2.7119
16044WAT    EPW65983   7.154   6.394   2.328 -0.2398 -0.5167  0.2851
16045WAT      O65984   8.770   5.200   6.322 -0.6263 -0.1068  0.0085
16045WAT     H165985   8.839   5.241   6.375  0.4732  1.2977 -2.3208
16045WAT     H265986   8.714   5.156   6.385  0.7045  1.2603  2.2845
16045WAT    EPW65987   8.772   5.199   6.337 -0.3057  0.2587  0.0012
16046WAT      O65988   6.459   8.272   7.046  0.3299 -0.0937  0.1280
16046WAT     H165989   6.383   8.238   7.000  0.4400  0.7930 -0.7632
16046WAT     H265990   6.484   8.351   6.996  1.6544 -0.2112  0.5488
16046WAT    EPW65991   6.452   8.278   7.033  0.5193  0.0081  0.0658
16047WAT      O65992   5.014   7.801   6.037  0.2991  0.3990  0.0328
16047WAT     H165993   5.108   7.814   6.030  0.4513  1.3686  2.6159
16047WAT     H265994   4.977   7.845   5.960  1.9201  0.4063 -0.7679
16047WAT    EPW65995   5.021   7.809   6.026  0.5331  0.5279  0.2677
16048WAT      O65996  10.377  10.184   0.888  0.0589  1.1066  0.0776
16048WAT     H165997  10.453  10.127   0.898 -1.9481 -2.2089 -1.8359
16048WAT     H265998  10.406  10.254   0.830  1.5557 -0.4027 -1.0916
16048WAT    EPW65999  10.391  10.186   0.882 -0.0086  0.4706 -0.3290
16049WAT      O66000   4.731   8.534   5.674 -0.3286 -0.2602  0.2742
16049WAT     H166001   4.716   8.444   5.645 -0.5969  0.2484 -1.2719
16049WAT     H266002   4.707   8.587   5.599 -0.6115  1.1428  1.3203
16049WAT    EPW66003   4.726   8.529   5.660 -0.4013 -0.0081  0.2081
16050WAT      O66004   5.299   6.782   4.752  0.1306  0.3613 -0.2560
16050WAT     H166005   5.346   6.835   4.815  0.5102  0.3417 -0.5190
16050WAT     H266006   5.367   6.736   4.703 -0.1917 -0.5044  0.0841
16050WAT    EPW66007   5.314   6.783   4.754  0.1380  0.2444 -0.2458
16051WAT      O66008   5.070   9.146   8.307 -0.2167  0.6814  0.7510
16051WAT     H166009   5.014   9.223   8.295  0.1189  0.6806 -0.9698
16051WAT     H266010   5.150   9.167   8.261 -1.5862 -2.2156 -3.5042
16051WAT    EPW66011   5.073   9.159   8.300 -0.3533  0.2995 -0.0367
16052WAT      O66012   8.430   9.627   5.349 -0.6306  0.7943 -0.4759
16052WAT     H166013   8.456   9.617   5.440  0.9595 -2.1100 -1.1237
16052WAT     H266014   8.511   9.648   5.303 -1.4851  2.6747 -1.2404
16052WAT    EPW66015   8.444   9.629   5.355 -0.5336  0.6590 -0.6623
16053WAT      O66016   7.882   5.891   5.505 -0.4627 -0.4002  0.8686
16053WAT     H166017   7.802   5.942   5.511 -0.2512 -0.1568  1.6826
16053WAT     H266018   7.937   5.922   5.577  0.8735  0.3323 -0.3978
16053WAT    EPW66019   7.879   5.902   5.515 -0.2587 -0.2713  0.8090
16054WAT      O66020   6.086   7.665   5.346 -0.0880 -0.2377  0.1169
16054WAT     H166021   6.027   7.654   5.420 -0.2758 -1.0304 -0.1515
16054WAT     H266022   6.170   7.688   5.386 -0.4558  0.4498  0.5150
16054WAT    EPW66023   6.090   7.667   5.361 -0.1614 -0.2513  0.1340
16055WAT      O66024   7.063   6.845   7.289  0.1678  0.3240  0.2581
16055WAT     H166025   7.032   6.757   7.266 -2.0564  1.5983 -2.1438
16055WAT     H266026   7.000   6.875   7.355  0.8611  0.2000  0.9934
16055WAT    EPW66027   7.050   6.837   7.294 -0.0341  0.4756  0.0386
16056WAT      O66028   4.466   6.841   5.451  0.1507 -0.3951 -0.2101
16056WAT     H166029   4.495   6.751   5.436 -2.3423 -1.1785 -0.9407
16056WAT     H266030   4.384   6.832   5.499  1.2710  1.6592  2.3613
16056WAT    EPW66031   4.459   6.828   5.455 -0.0303 -0.2277  0.0327
16057WAT      O66032  10.455   6.925   2.995  0.1222 -0.7877  0.1897
16057WAT     H166033  10.483   6.985   3.064  0.2726  0.4030 -0.8767
16057WAT     H266034  10.365   6.951   2.976  0.1169 -1.0343 -0.1319
16057WAT    EPW66035  10.447   6.936   3.002  0.1411 -0.6630  0.0067
16058WAT      O66036   3.335   8.929   8.610  0.5027  0.1785  0.8025
16058WAT     H166037   3.426   8.902   8.602  0.8425  1.4104  0.3850
16058WAT     H266038   3.285   8.851   8.586  1.4122 -0.8009  1.9085
16058WAT    EPW66039   3.340   8.915   8.606  0.6675  0.2122  0.8936
16059WAT      O66040   6.516   7.125   7.994  0.2122 -1.2249  0.4931
16059WAT     H166041   6.465   7.202   7.969  1.2527 -0.0296  1.8343
16059WAT     H266042   6.454   7.053   7.994 -0.5930 -0.5871 -1.7427
16059WAT    EPW66043   6.501   7.126   7.991  0.2434 -0.9832  0.3750
16060WAT      O66044   9.003   8.513   3.722  0.0260  0.4424  0.7471
16060WAT     H166045   8.958   8.429   3.713  3.0354 -1.2358 -0.0251
16060WAT     H266046   9.039   8.512   3.811 -0.6034  1.3058  1.0231
16060WAT    EPW66047   9.002   8.502   3.733  0.3395  0.3347  0.6815
16061WAT      O66048   7.802   4.278   6.487  0.7073  1.0997  0.6267
16061WAT     H166049   7.733   4.290   6.421 -2.3724 -4.5147  2.1886
16061WAT     H266050   7.872   4.232   6.440  1.1470  2.1515  0.2009
16061WAT    EPW66051   7.802   4.274   6.472  0.3588  0.4978  0.7765
16062WAT      O66052   7.984   4.617   6.765 -0.3065 -0.1926  0.1096
16062WAT     H166053   7.892   4.625   6.791 -0.6154 -0.9334 -0.7057
16062WAT     H266054   8.033   4.643   6.843 -1.2041  0.4455  0.4781
16062WAT    EPW66055   7.979   4.621   6.778 -0.4656 -0.2058  0.0505
16063WAT      O66056   6.554   5.075   5.300  0.3838  0.2044 -0.5415
16063WAT     H166057   6.568   4.996   5.353  1.9910  1.1905  0.6008
16063WAT     H266058   6.618   5.067   5.229  0.7477  0.6007 -0.2627
16063WAT    EPW66059   6.564   5.063   5.298  0.6440  0.3867 -0.3541
16064WAT      O66060   8.834   7.978   5.305 -0.6107  0.7779  0.6134
16064WAT     H166061   8.911   8.010   5.257  1.2042 -2.3776  1.1464
16064WAT     H266062   8.831   8.033   5.384  0.5788  1.5167  0.1885
16064WAT    EPW66063   8.844   7.990   5.309 -0.2141  0.4590  0.6280
16065WAT      O66064   7.631   7.374   5.477 -0.4351  0.6710  0.0128
16065WAT     H166065   7.652   7.430   5.551 -0.4209 -0.3682  0.8292
16065WAT     H266066   7.541   7.397   5.453 -0.8639  0.2195  1.1289
16065WAT    EPW66067   7.622   7.384   5.483 -0.4897  0.4745  0.2682
16066WAT      O66068   6.906   7.088   5.194 -0.0983  0.4831  0.0721
16066WAT     H166069   6.867   7.142   5.127  0.5841  1.1456  0.1970
16066WAT     H266070   6.832   7.047   5.239 -0.5621  0.0861 -1.0178
16066WAT    EPW66071   6.891   7.089   5.191 -0.0691  0.5178 -0.0553
16067WAT      O66072   5.403   5.075   7.195 -0.2891  0.6778 -0.4655
16067WAT     H166073   5.497   5.077   7.178 -0.1181 -2.9609 -0.7204
16067WAT     H266074   5.365   5.038   7.115 -1.9115  1.6953 -0.2014
16067WAT    EPW66075   5.410   5.070   7.182 -0.4804  0.3321 -0.4642
16068WAT      O66076   7.506   4.566   6.241 -0.0474  0.0210 -0.3091
16068WAT     H166077   7.526   4.474   6.256  0.4592 -0.2811 -2.4433
16068WAT     H266078   7.566   4.614   6.298 -0.3051 -0.9502  0.8133
16068WAT    EPW66079   7.516   4.560   6.250 -0.0143 -0.1466 -0.4425
16069WAT      O66080   5.776   6.513   6.771  0.2313 -0.2752  0.2570
16069WAT     H166081   5.867   6.541   6.768 -0.3631  1.7141 -1.5032
16069WAT     H266082   5.770   6.459   6.850  2.6411  0.5135  1.0515
16069WAT    EPW66083   5.787   6.509   6.781  0.4711  0.0913  0.1297
16070WAT      O66084   5.894   7.357   4.027  0.1611 -0.2290 -0.0164
16070WAT     H166085   5.879   7.421   3.957  1.5948  1.0498  0.7794
16070WAT     H266086   5.829   7.379   4.094  1.0554  0.8267  0.5205
16070WAT    EPW66087   5.883   7.368   4.027  0.4683  0.0787  0.1593
16071WAT      O66088   3.686   8.876   8.078 -0.0198  0.8478  0.3428
16071WAT     H166089   3.689   8.952   8.020  0.4055  1.3184  0.9830
16071WAT     H266090   3.777   8.859   8.100 -0.3027  1.9446  2.5349
16071WAT    EPW66091   3.698   8.884   8.073 -0.0011  1.0548  0.7162
16072WAT      O66092   5.606   5.523   5.228 -0.3283 -0.2774 -1.0189
16072WAT     H166093   5.646   5.488   5.148  2.9725 -0.9203  0.7451
16072WAT     H266094   5.563   5.604   5.199  0.2157 -0.7798 -3.5140
16072WAT    EPW66095   5.605   5.529   5.214  0.1791 -0.4284 -1.1153
16073WAT      O66096   8.922   3.206   8.248  0.1040 -0.3203 -1.0061
16073WAT     H166097   8.898   3.177   8.336 -0.8708  3.4773  0.1868
16073WAT     H266098   9.016   3.189   8.241  0.0095 -1.5625  0.3353
16073WAT    EPW66099   8.931   3.200   8.259 -0.0367  0.0167 -0.6719
16074WAT      O66100   6.078   7.433   6.010  0.3124  0.2779  0.7339
16074WAT     H166101   6.121   7.395   5.934  0.5509  0.9481  0.5296
16074WAT     H266102   6.125   7.395   6.085 -0.0220 -0.4985  0.5628
16074WAT    EPW66103   6.090   7.423   6.010  0.2997  0.2639  0.6845
16075WAT      O66104   6.173   4.528   7.156  0.1395  0.0150 -0.9501
16075WAT     H166105   6.079   4.546   7.144  0.1562  0.4328 -0.4963
16075WAT     H266106   6.202   4.594   7.219  0.3095 -1.3649  0.4689
16075WAT    EPW66107   6.164   4.539   7.163  0.1640 -0.1121 -0.7031
16076WAT      O66108   4.717   5.443   5.975 -0.2118  0.1167 -0.0970
16076WAT     H166109   4.805   5.463   5.943 -0.3612 -0.2546 -0.7492
16076WAT     H266110   4.688   5.525   6.015 -0.5682  1.0791 -2.1637
16076WAT    EPW66111   4.725   5.457   5.976 -0.2787  0.1943 -0.4556
16077WAT      O66112   6.608   5.874   6.465 -0.4518 -0.0078 -0.2418
16077WAT     H166113   6.530   5.842   6.419  0.1948 -1.2572 -0.5158
16077WAT     H266114   6.681   5.832   6.420  0.2881 -0.1786  1.0695
16077WAT    EPW66115   6.607   5.864   6.453 -0.2692 -0.1950 -0.1051
16078WAT      O66116   7.561   7.783   5.641  0.4955 -0.0331  0.6294
16078WAT     H166117   7.593   7.855   5.695 -2.0396  1.0640  0.7933
16078WAT     H266118   7.490   7.744   5.692  2.0579 -3.0115  0.7431
16078WAT    EPW66119   7.556   7.787   5.655  0.3672 -0.2813  0.6659
16079WAT      O66120   5.302   7.808   6.015  0.2804 -1.1789 -0.1118
16079WAT     H166121   5.388   7.832   6.048  0.1473 -0.6999 -0.1073
16079WAT     H266122   5.281   7.725   6.058  0.3203 -0.8142  0.6210
16079WAT    EPW66123   5.310   7.800   6.025  0.2680 -1.0676 -0.0148
16080WAT      O66124   4.698   9.465   6.386 -0.7658 -0.0534 -0.1272
16080WAT     H166125   4.708   9.554   6.351 -1.8863  0.3880  0.6387
16080WAT     H266126   4.740   9.409   6.320 -1.9667  0.8367 -1.7235
16080WAT    EPW66127   4.705   9.469   6.372 -1.0722  0.1225 -0.2367
16081WAT      O66128   8.075   5.590   4.337  0.7462 -0.5924 -0.3197
16081WAT     H166129   8.081   5.648   4.414  0.3572 -1.3294  0.2787
16081WAT     H266130   7.996   5.620   4.291  1.6771  0.6783 -1.1488
16081WAT    EPW66131   8.065   5.602   4.341  0.8178 -0.5219 -0.3502
16082WAT      O66132   7.757   4.994   5.016 -0.5160  0.1234  0.4061
16082WAT     H166133   7.679   4.942   5.036 -0.6299 -0.3217 -1.0570
16082WAT     H266134   7.827   4.951   5.065 -0.9329 -0.3440  0.6080
16082WAT    EPW66135   7.756   4.981   5.025 -0.5860  0.0031  0.2398
16083WAT      O66136   5.786   4.199   6.208  0.0143 -0.0250  0.5198
16083WAT     H166137   5.763   4.130   6.270  1.2120  0.6331  1.7551
16083WAT     H266138   5.733   4.181   6.131 -2.3991 -0.2678  2.1149
16083WAT    EPW66139   5.776   4.188   6.206 -0.1464  0.0298  0.8929
16084WAT      O66140   6.511   5.999   8.252  0.0520 -0.0607 -0.1663
16084WAT     H166141   6.558   6.013   8.170 -1.9028  0.3156 -1.2769
16084WAT     H266142   6.506   5.903   8.261 -1.2390 -0.1582 -1.4631
16084WAT    EPW66143   6.517   5.988   8.242 -0.3765 -0.0241 -0.4835
16085WAT      O66144   5.280   7.043   4.589 -0.2613  0.4486 -0.7434
16085WAT     H166145   5.288   6.952   4.617 -0.9039  0.8740  0.9904
16085WAT     H266146   5.247   7.088   4.667  0.3216  2.2140 -1.4787
16085WAT    EPW66147   5.277   7.037   4.603 -0.2694  0.7372 -0.6115
16086WAT      O66148   5.493   7.126   6.952  0.1959  0.1302 -0.4869
16086WAT     H166149   5.500   7.036   6.983  0.9611 -0.4275 -2.1722
16086WAT     H266150   5.555   7.175   7.006  1.2525 -0.7407 -0.8790
16086WAT    EPW66151   5.502   7.120   6.963  0.4363 -0.0579 -0.7608
16087WAT      O66152   5.116   8.131   8.388  0.4409 -0.6053 -0.2656
16087WAT     H166153   5.032   8.101   8.352 -0.2181 -0.3902  1.0226
16087WAT     H266154   5.122   8.086   8.473  0.1051  1.7461  1.0765
16087WAT    EPW66155   5.105   8.121   8.395  0.3097 -0.2666  0.0811
16088WAT      O66156   1.663   0.256   4.484 -0.1676  0.1195  0.4329
16088WAT     H166157   1.742   0.287   4.528 -0.5035 -0.1197  1.2403
16088WAT     H266158   1.695   0.205   4.410  0.4182  0.6026  0.3509
16088WAT    EPW66159   1.677   0.253   4.480 -0.1346  0.1517  0.5283
16089WAT      O66160   8.103   7.218   2.501  0.6766 -0.1504 -0.4413
16089WAT     H166161   8.094   7.123   2.490  1.0417 -0.3858  1.0953
16089WAT     H266162   8.161   7.245   2.430  0.6069 -1.0809 -0.8631
16089WAT    EPW66163   8.109   7.209   2.490  0.7157 -0.3042 -0.2944
16090WAT      O66164   5.159   6.306   6.942  0.3232  0.2410  0.1850
16090WAT     H166165   5.144   6.323   6.849 -2.9914 -1.2916  0.3047
16090WAT     H266166   5.249   6.335   6.957  1.6342 -0.9997 -3.8737
16090WAT    EPW66167   5.169   6.312   6.932  0.0589 -0.1247 -0.3343
16091WAT      O66168   8.113   4.543   7.255 -0.3971 -0.4314 -0.1455
16091WAT     H166169   8.178   4.576   7.317  0.3275 -1.7003 -0.1991
16091WAT     H266170   8.163   4.490   7.194 -1.1092  0.7294 -1.8160
16091WAT    EPW66171   8.128   4.541   7.255 -0.3958 -0.4458 -0.3729
16092WAT      O66172   4.822   7.221   6.118 -0.1705  0.5537 -0.0984
16092WAT     H166173   4.911   7.190   6.131 -0.5742 -0.1646  1.1768
16092WAT     H266174   4.827   7.278   6.041  1.4867  1.0002  0.2993
16092WAT    EPW66175   4.834   7.224   6.109 -0.0052  0.5178  0.1223
16093WAT      O66176   8.130   5.222   6.212 -0.3083  0.1168 -0.0368
16093WAT     H166177   8.216   5.196   6.243 -0.2449 -0.3748 -0.6108
16093WAT     H266178   8.098   5.284   6.278 -0.0823 -0.7065  0.8669
16093WAT    EPW66179   8.137   5.227   6.225 -0.2699 -0.0565  0.0064
16094WAT      O66180   7.459   8.131   5.750  0.3078  0.0843 -0.1438
16094WAT     H166181   7.391   8.147   5.684 -0.6634 -0.1176  0.7797
16094WAT     H266182   7.434   8.186   5.824 -1.6979 -3.5705  2.1468
16094WAT    EPW66183   7.447   8.140   5.751 -0.0849 -0.4234  0.2804
16095WAT      O66184   5.273   6.230   5.853 -0.1749  0.3380 -0.6749
16095WAT     H166185   5.339   6.288   5.893  0.2403 -0.1803 -0.5965
16095WAT     H266186   5.220   6.200   5.927  0.8366 -0.9312 -0.4319
16095WAT    EPW66187   5.275   6.234   5.868  0.0131  0.1020 -0.6328
16096WAT      O66188   7.051   6.629   6.987  0.3745  0.2916  0.5743
16096WAT     H166189   7.075   6.709   6.942  3.6658 -1.1964 -0.6376
16096WAT     H266190   7.093   6.636   7.073 -0.0095  0.1588  0.7807
16096WAT    EPW66191   7.059   6.640   6.993  0.7579  0.0780  0.4418
16097WAT      O66192   6.318   9.371   6.713  0.1416 -0.5758  0.1142
16097WAT     H166193   6.316   9.296   6.772 -1.5107 -1.9449 -1.5507
16097WAT     H266194   6.248   9.428   6.744  0.9012 -0.0453  0.9183
16097WAT    EPW66195   6.308   9.368   6.725  0.0236 -0.6866  0.0007
16098WAT      O66196   4.439   7.822   6.025  0.0975  0.7699 -0.9003
16098WAT     H166197   4.417   7.914   6.010 -0.0596  0.8750 -0.0425
16098WAT     H266198   4.358   7.775   6.005 -0.3445  0.9807  0.3289
16098WAT    EPW66199   4.425   7.828   6.020  0.0186  0.8116 -0.6249
16099WAT      O66200   5.304   6.132   6.580 -0.6507 -0.6006  0.2636
16099WAT     H166201   5.359   6.209   6.564 -2.7858  1.6475  2.7499
16099WAT     H266202   5.215   6.167   6.584 -2.3766 -3.9384 -2.8111
16099WAT    EPW66203   5.299   6.147   6.578 -1.1597 -0.7443  0.1857
16100WAT      O66204   9.649   4.518   5.724 -0.6610 -0.0750 -0.1215
16100WAT     H166205   9.719   4.493   5.784 -2.3088 -1.0719  1.5216
16100WAT     H266206   9.639   4.613   5.737  1.0570  0.3081 -1.2256
16100WAT    EPW66207   9.657   4.527   5.734 -0.6518 -0.1559 -0.0505
16101WAT      O66208   5.000   6.743   7.894  0.4065 -0.4644 -0.6082
16101WAT     H166209   4.914   6.703   7.886 -0.8525  2.1608 -1.3348
16101WAT     H266210   4.992   6.803   7.969  1.5400 -0.0596 -0.7871
16101WAT    EPW66211   4.988   6.746   7.903  0.3898 -0.0646 -0.7274
16102WAT      O66212   5.777   7.895   6.410 -0.5845 -0.0997 -0.0725
16102WAT     H166213   5.734   7.824   6.362 -0.7928  1.7890 -2.9209
16102WAT     H266214   5.709   7.931   6.466 -0.6129 -1.7308  1.0199
16102WAT    EPW66215   5.763   7.890   6.411 -0.6158 -0.0656 -0.3042
16103WAT      O66216   7.054   7.618   4.424 -0.3163 -0.8771 -0.2904
16103WAT     H166217   7.011   7.552   4.479  0.9430 -2.4774 -1.1763
16103WAT     H266218   6.988   7.642   4.359 -1.2420 -0.2045  0.8505
16103WAT    EPW66219   7.039   7.613   4.423 -0.2725 -0.9995 -0.2568
16104WAT      O66220   4.773   7.342   5.339 -0.7063  0.8822  0.4351
16104WAT     H166221   4.688   7.305   5.360 -1.1706 -0.8157 -3.4907
16104WAT     H266222   4.807   7.286   5.269  0.8257  4.9439 -2.5085
16104WAT    EPW66223   4.766   7.330   5.332 -0.5655  1.1938 -0.4706
16105WAT      O66224   6.014   5.641   5.620  0.5216 -0.4730 -0.5503
16105WAT     H166225   6.092   5.624   5.674 -0.2491 -0.4188  0.6135
16105WAT     H266226   6.025   5.583   5.545  1.6877 -0.4761 -0.4019
16105WAT    EPW66227   6.026   5.631   5.618  0.5739 -0.4661 -0.3772
16106WAT      O66228  10.353   6.241   3.780  0.8255 -0.1543  0.3025
16106WAT     H166229  10.298   6.170   3.813  2.7181 -3.0441 -2.1919
16106WAT     H266230  10.385   6.285   3.859 -1.1833 -1.4320  1.9197
16106WAT    EPW66231  10.350   6.237   3.795  0.8097 -0.7041  0.1868
16107WAT      O66232   6.079   6.193   5.957 -0.0632 -0.6234  0.0171
16107WAT     H166233   6.049   6.137   5.886 -1.3425  0.6480 -0.5141
16107WAT     H266234   6.019   6.174   6.029 -1.5272  1.0723 -0.6625
16107WAT    EPW66235   6.067   6.183   5.957 -0.4249 -0.2322 -0.1426
16108WAT      O66236  10.148   5.858   3.175 -0.8016  0.0012 -0.6982
16108WAT     H166237  10.107   5.928   3.125  0.6654  0.7030 -0.9716
16108WAT     H266238  10.157   5.785   3.113 -1.2691 -0.0280 -0.7362
16108WAT    EPW66239  10.144   5.857   3.161 -0.6700  0.0899 -0.7393
16109WAT      O66240  10.298   5.326   3.488 -0.1666 -0.1656 -0.2231
16109WAT     H166241  10.297   5.298   3.579  0.5558 -0.6407 -0.3566
16109WAT     H266242  10.387   5.308   3.457 -0.1127  0.9102 -0.7456
16109WAT    EPW66243  10.309   5.320   3.496 -0.0639 -0.0865 -0.3097
16110WAT      O66244   6.809   4.447   6.170 -0.0574 -0.3173  0.1509
16110WAT     H166245   6.827   4.540   6.180 -0.3876 -0.1144 -1.0552
16110WAT     H266246   6.879   4.404   6.220  0.1433  0.5655  0.6460
16110WAT    EPW66247   6.821   4.454   6.178 -0.0744 -0.1743  0.0572
16111WAT      O66248   5.316   5.376   5.867  0.3774 -0.1057  0.0305
16111WAT     H166249   5.399   5.399   5.826 -0.1131  1.7370 -0.0166
16111WAT     H266250   5.268   5.326   5.800  0.0896  1.7808 -1.2558
16111WAT    EPW66251   5.320   5.373   5.853  0.2749  0.3862 -0.1452
16112WAT      O66252   6.075   7.710   6.819 -0.3129  0.1191 -0.2042
16112WAT     H166253   6.060   7.737   6.728  4.0497  1.6430 -0.6884
16112WAT     H266254   6.087   7.615   6.814 -1.6561 -0.0425 -0.8985
16112WAT    EPW66255   6.074   7.701   6.806  0.0854  0.2985 -0.3598
16113WAT      O66256   5.893   6.787   5.464 -0.0135  0.3224  0.0442
16113WAT     H166257   5.972   6.795   5.518  0.7194  0.5928 -1.0402
16113WAT     H266258   5.833   6.737   5.518  1.0082 -0.1665  0.7722
16113WAT    EPW66259   5.896   6.782   5.478  0.2182  0.2935 -0.0029
16114WAT      O66260   6.239   5.488   7.177  0.2992 -0.0168  0.4972
16114WAT     H166261   6.290   5.443   7.245  0.3803  0.1197  0.5270
16114WAT     H266262   6.209   5.418   7.120 -1.5489 -0.4027  1.8478
16114WAT    EPW66263   6.242   5.473   7.179  0.0660 -0.0498  0.6795
16115WAT      O66264   6.935   4.193   5.674  0.1556 -0.4600  0.5075
16115WAT     H166265   6.979   4.277   5.666 -1.5616  0.2912 -3.0939
16115WAT     H266266   6.842   4.214   5.674 -0.2985 -2.2833  0.3549
16115WAT    EPW66267   6.928   4.207   5.673 -0.1307 -0.6015  0.0126
16116WAT      O66268   6.241   4.969   6.211 -0.1785  0.3418  0.3207
16116WAT     H166269   6.300   5.001   6.142  0.5875  0.8729  1.1989
16116WAT     H266270   6.161   4.945   6.165  1.1304 -1.6387 -1.1086
16116WAT    EPW66271   6.238   4.970   6.196  0.0951  0.1507  0.2480
16117WAT      O66272   5.616   7.261   5.122  0.2638  0.4580  0.0456
16117WAT     H166273   5.622   7.245   5.028 -1.0718  1.5534 -0.2648
16117WAT     H266274   5.684   7.206   5.161 -0.7646 -1.8889 -1.3251
16117WAT    EPW66275   5.626   7.252   5.115 -0.0479  0.2928 -0.1757
16118WAT      O66276   4.592   6.556   7.511 -0.7258  0.5659 -0.1456
16118WAT     H166277   4.547   6.622   7.458 -0.1197  0.6643 -0.5539
16118WAT     H266278   4.566   6.473   7.472  0.9283  0.6786 -1.6509
16118WAT    EPW66279   4.583   6.554   7.499 -0.4277  0.5939 -0.3979
16119WAT      O66280   6.817   0.644   0.661  0.3496 -0.0453  0.2813
16119WAT     H166281   6.743   0.690   0.621 -0.0692 -1.4785 -0.6850
16119WAT     H266282   6.884   0.712   0.672 -0.7273  1.0738  0.2244
16119WAT    EPW66283   6.816   0.659   0.657  0.1526 -0.0867  0.1463
16120WAT      O66284   8.235   4.892   6.310  0.3261 -0.1566 -0.7727
16120WAT     H166285   8.304   4.957   6.324 -1.5960  2.0882 -1.0742
16120WAT     H266286   8.281   4.808   6.311  3.3989  1.2759 -2.9812
16120WAT    EPW66287   8.250   4.890   6.312  0.4778  0.3283 -1.1039
16121WAT      O66288   5.188   7.803   6.456  0.2707 -0.0377  0.2536
16121WAT     H166289   5.247   7.766   6.390  0.2522 -1.2034  0.8689
16121WAT     H266290   5.236   7.878   6.491  1.1053 -0.5655  0.2675
16121WAT    EPW66291   5.202   7.808   6.452  0.3784 -0.2611  0.3366
16122WAT      O66292   4.893   6.972   6.892  0.7000  0.1816 -0.0062
16122WAT     H166293   4.873   6.885   6.856 -3.2244  0.3590  1.2723
16122WAT     H266294   4.822   7.028   6.861  1.4631  2.2163  1.6445
16122WAT    EPW66295   4.881   6.968   6.883  0.2830  0.4733  0.3800
16123WAT      O66296   7.611   7.692   4.629 -0.5140 -0.3483 -0.2038
16123WAT     H166297   7.689   7.646   4.598  2.0178  2.2689  1.6490
16123WAT     H266298   7.599   7.764   4.567 -1.1727 -0.4718 -0.2231
16123WAT    EPW66299   7.620   7.695   4.617 -0.2670 -0.0191  0.0384
16124WAT      O66300   4.351   5.718   7.288  0.1766 -0.1093  0.5565
16124WAT     H166301   4.293   5.762   7.226  0.2282  1.9941  1.8953
16124WAT     H266302   4.437   5.722   7.248 -0.2473 -1.6421 -0.6205
16124WAT    EPW66303   4.355   5.724   7.275  0.1276 -0.0343  0.5777
16125WAT      O66304   5.707   5.207   5.492 -0.5819 -0.0319  0.2668
16125WAT     H166305   5.741   5.186   5.405 -0.3173 -0.3086  0.4322
16125WAT     H266306   5.748   5.141   5.549 -1.7993 -0.6928  0.4001
16125WAT    EPW66307   5.717   5.195   5.488 -0.7074 -0.1554  0.3064
16126WAT      O66308   6.788   6.119   5.747  0.5389 -0.4555 -0.1719
16126WAT     H166309   6.836   6.189   5.792 -0.8412  1.3643 -1.3437
16126WAT     H266310   6.777   6.051   5.813  2.3013  0.2426  0.9200
16126WAT    EPW66311   6.793   6.119   5.762  0.5891 -0.1235 -0.1824
16127WAT      O66312   2.107   1.120   0.977 -0.3614 -0.8733 -0.2199
16127WAT     H166313   2.032   1.179   0.970  0.1193 -0.2547 -0.2657
16127WAT     H266314   2.088   1.051   0.914 -1.1766 -1.0528  0.2044
16127WAT    EPW66315   2.095   1.119   0.968 -0.4055 -0.8154 -0.1700
16128WAT      O66316   8.548   4.022   7.260 -0.3622  0.7983 -0.4719
16128WAT     H166317   8.484   4.037   7.329 -0.5419  1.7283 -0.8226
16128WAT     H266318   8.505   3.960   7.201  0.0511 -0.5130  0.5659
16128WAT    EPW66319   8.534   4.016   7.261 -0.3314  0.7479 -0.3815
16129WAT      O66320   2.819   9.795   6.438  0.5946 -0.3157 -0.4098
16129WAT     H166321   2.895   9.785   6.381 -0.2450  0.7217 -1.7503
16129WAT     H266322   2.848   9.758   6.522  1.5471 -2.7509 -1.7115
16129WAT    EPW66323   2.833   9.789   6.442  0.6095 -0.4997 -0.7584
16130WAT      O66324   5.768   7.156   6.081 -0.4695  0.1142 -0.3462
16130WAT     H166325   5.844   7.103   6.054  1.7336  3.5441 -1.6794
16130WAT     H266326   5.694   7.117   6.035  0.6693 -2.5882 -0.0790
16130WAT    EPW66327   5.769   7.144   6.071 -0.0288  0.2103 -0.4869
16131WAT      O66328   7.574   6.467   5.363  0.0190 -0.2991 -0.1007
16131WAT     H166329   7.555   6.421   5.280 -0.2495 -1.3610  0.5266
16131WAT     H266330   7.657   6.512   5.347 -0.1566 -0.2768 -1.0285
16131WAT    EPW66331   7.582   6.467   5.350 -0.0396 -0.4361 -0.1402
16132WAT      O66332   5.716   9.824   4.305  0.0962 -0.4607  0.5813
16132WAT     H166333   5.659   9.899   4.318  0.6794  0.5334 -1.9319
16132WAT     H266334   5.665   9.749   4.336 -1.3581  0.7152  1.1532
16132WAT    EPW66335   5.702   9.824   4.311 -0.0186 -0.1745  0.3254
16133WAT      O66336  10.404   8.983   3.936  0.1549 -0.2709  0.0509
16133WAT     H166337  10.489   9.027   3.946 -0.6750  1.8940 -1.6169
16133WAT     H266338  10.373   8.971   4.026  2.4333 -1.6696  0.7256
16133WAT    EPW66339  10.411   8.987   3.949  0.3457 -0.1693 -0.0801
16134WAT      O66340   7.199   6.743   4.843  0.8454  0.4649 -0.0366
16134WAT     H166341   7.126   6.739   4.781  1.1436 -1.4063 -0.3426
16134WAT     H266342   7.264   6.798   4.801  0.6449  0.0194 -0.9443
16134WAT    EPW66343   7.198   6.749   4.830  0.8583  0.1595 -0.1965
16135WAT      O66344  10.489   2.569   5.062  0.2234 -0.0819 -0.3084
16135WAT     H166345  10.414   2.518   5.092  1.4121 -1.3414  0.6676
16135WAT     H266346  10.555   2.504   5.040  1.2942  0.9997 -0.4313
16135WAT    EPW66347  10.488   2.554   5.063  0.5212 -0.1054 -0.1957
16136WAT      O66348   4.521   7.419   4.609 -0.0372  0.6503 -0.3972
16136WAT     H166349   4.433   7.400   4.577 -0.4095  2.7451 -0.8086
16136WAT     H266350   4.578   7.405   4.533  0.1310 -1.3246  0.0363
16136WAT    EPW66351   4.517   7.415   4.595 -0.0641  0.6664 -0.3941
16137WAT      O66352   4.658   7.621   7.868  0.3172  0.3236 -0.1975
16137WAT     H166353   4.675   7.593   7.957  0.3611  0.3973 -0.1827
16137WAT     H266354   4.667   7.542   7.815  1.5576  0.5126 -0.3018
16137WAT    EPW66355   4.662   7.607   7.872  0.4866  0.3581 -0.2093
16138WAT      O66356   7.824   9.580   6.602 -0.0819 -0.0645  0.3925
16138WAT     H166357   7.825   9.674   6.619  3.1783 -0.1885  1.6926
16138WAT     H266358   7.897   9.565   6.542 -0.7224 -1.7254 -0.0296
16138WAT    EPW66359   7.834   9.590   6.596  0.2639 -0.2999  0.5085
16139WAT      O66360   3.800   8.911   8.387 -0.2630 -0.7647 -0.2166
16139WAT     H166361   3.894   8.893   8.390  0.1334  1.2321  0.7841
16139WAT     H266362   3.794   9.004   8.368 -1.9720 -0.4882  1.3937
16139WAT    EPW66363   3.812   8.921   8.385 -0.4361 -0.4649  0.1283
16140WAT      O66364   7.625   8.134   4.067 -0.0180  0.4082 -0.3088
16140WAT     H166365   7.657   8.092   4.146 -2.9528  1.6750  1.7367
16140WAT     H266366   7.665   8.220   4.067 -0.1637  0.4762 -0.0818
16140WAT    EPW66367   7.634   8.140   4.077 -0.4244  0.5846 -0.0093
16141WAT      O66368   5.571   8.239   5.267  0.6829 -0.0415 -0.2552
16141WAT     H166369   5.478   8.250   5.245  0.3942 -1.0238  0.3961
16141WAT     H266370   5.617   8.259   5.186  0.0617  2.5261 -0.0462
16141WAT    EPW66371   5.565   8.243   5.253  0.5631  0.1674 -0.1414
16142WAT      O66372   6.110   5.918   4.808 -0.4820  0.4639  0.5645
16142WAT     H166373   6.106   5.828   4.775 -2.5754  0.6784  0.0658
16142WAT     H266374   6.062   5.969   4.743  0.4060  1.9221  0.9930
16142WAT    EPW66375   6.103   5.913   4.795 -0.6409  0.6843  0.5553
16143WAT      O66376   8.953   4.173   3.694  0.7049 -0.0627 -0.1682
16143WAT     H166377   8.881   4.149   3.753  2.1851 -0.6816  1.5072
16143WAT     H266378   8.926   4.139   3.609 -1.0858 -0.0569  0.3493
16143WAT    EPW66379   8.940   4.165   3.691  0.6647 -0.1433  0.1210
16144WAT      O66380   9.319   9.905   0.168  0.4011 -0.4881  0.2147
16144WAT     H166381   9.361   9.845   0.106  1.4938 -0.2910  0.7347
16144WAT     H266382   9.386   9.971   0.186  0.0744 -0.4794  1.5166
16144WAT    EPW66383   9.333   9.906   0.162  0.5016 -0.4616  0.4550
16145WAT      O66384   6.658   7.023   5.317 -0.4901  0.0570  0.2297
16145WAT     H166385   6.578   7.017   5.370 -0.8272 -0.4189 -0.3190
16145WAT     H266386   6.643   6.963   5.244  0.9025 -1.0430  0.7968
16145WAT    EPW66387   6.645   7.014   5.314 -0.3507 -0.1507  0.2322
16146WAT      O66388   6.795   7.886   5.367 -0.0303  0.1597  0.7053
16146WAT     H166389   6.783   7.837   5.449  1.7327 -0.1321  0.8345
16146WAT     H266390   6.890   7.891   5.357 -0.2116  1.4243 -0.6040
16146WAT    EPW66391   6.806   7.881   5.377  0.1783  0.2880  0.5498
16147WAT      O66392   6.264   5.340   8.929 -0.1729  0.6222  0.0317
16147WAT     H166393   6.345   5.385   8.904 -0.1749  1.4094  1.3345
16147WAT     H266394   6.290   5.282   9.000 -0.1117 -1.7909 -1.8370
16147WAT    EPW66395   6.278   5.338   8.935 -0.1650  0.4079 -0.0434
16148WAT      O66396   8.358   6.685   6.949 -0.3201 -0.2271 -0.6795
16148WAT     H166397   8.363   6.618   6.881 -0.1011 -1.0355  0.0949
16148WAT     H266398   8.264   6.700   6.961 -0.4788 -1.7502  0.3687
16148WAT    EPW66399   8.346   6.678   6.942 -0.3128 -0.5348 -0.4392
16149WAT      O66400   4.485   0.169   6.924  0.0731 -0.7699 -0.6919
16149WAT     H166401   4.543   0.238   6.892 -0.0898 -0.4748 -0.3605
16149WAT     H266402   4.447   0.130   6.845  1.7193 -1.8594 -0.9918
16149WAT    EPW66403   4.487   0.173   6.910  0.2689 -0.8747 -0.6876
16150WAT      O66404   3.638   7.882   6.488  0.0372 -0.7375  0.0150
16150WAT     H166405   3.688   7.801   6.478 -0.1348 -0.6392 -1.8203
16150WAT     H266406   3.645   7.926   6.404  0.4051  1.3479  1.0621
16150WAT    EPW66407   3.646   7.877   6.476  0.0632 -0.4497 -0.0889
16151WAT      O66408   8.095   7.241   6.140  0.1927 -0.2093 -0.1712
16151WAT     H166409   8.114   7.184   6.065  0.1544  0.3557 -0.6150
16151WAT     H266410   8.115   7.329   6.109  0.4221  0.0039  0.5697
16151WAT    EPW66411   8.100   7.245   6.126  0.2179 -0.1066 -0.1323
16152WAT      O66412   6.114   5.019   5.822  0.0744 -0.3346 -0.2810
16152WAT     H166413   6.134   5.112   5.809  2.8869 -0.8542 -0.3101
16152WAT     H266414   6.052   4.998   5.752 -1.1977  1.6342  0.1698
16152WAT    EPW66415   6.109   5.028   5.811  0.2770 -0.1435 -0.2255
16153WAT      O66416   3.067   3.394   1.390 -0.2025  0.4177 -0.0788
16153WAT     H166417   3.041   3.343   1.467  0.9174  0.3825  0.2973
16153WAT     H266418   3.111   3.331   1.333 -2.4664  0.0613 -1.5562
16153WAT    EPW66419   3.070   3.379   1.393 -0.3535  0.3662 -0.2240
16154WAT      O66420   4.738   5.567   6.839 -0.3090 -0.5594  0.3958
16154WAT     H166421   4.763   5.497   6.899  1.1082  0.0583  0.5708
16154WAT     H266422   4.818   5.587   6.791 -1.3935 -1.0307 -1.7302
16154WAT    EPW66423   4.752   5.560   6.841 -0.2651 -0.5403  0.1385
16155WAT      O66424   6.580   7.643   8.266 -0.5305  0.3049  0.3280
16155WAT     H166425   6.652   7.680   8.318  0.5936  0.1937 -1.0939
16155WAT     H266426   6.615   7.560   8.234 -1.7789 -0.3640  0.6547
16155WAT    EPW66427   6.594   7.637   8.269 -0.5469  0.2022  0.1841
16156WAT      O66428   4.333   5.716   6.360 -0.3249 -0.1978  0.7736
16156WAT     H166429   4.314   5.744   6.449 -2.0852  1.0956  0.0606
16156WAT     H266430   4.256   5.744   6.309  0.9983 -0.0996 -1.3009
16156WAT    EPW66431   4.320   5.724   6.365 -0.3824 -0.0141  0.4063
16157WAT      O66432   1.837   6.908   4.753  0.1739 -0.1099 -0.2177
16157WAT     H166433   1.794   6.904   4.668 -0.9020  0.6844  0.2766
16157WAT     H266434   1.822   6.822   4.792 -0.2599 -0.1079 -0.3840
16157WAT    EPW66435   1.829   6.896   4.747 -0.0253 -0.0050 -0.1743
16158WAT      O66436   4.295   6.435   7.332  0.0991 -0.7027 -0.1854
16158WAT     H166437   4.263   6.423   7.242  1.1554 -0.4224 -0.6077
16158WAT     H266438   4.216   6.455   7.382 -0.5220 -0.9614 -1.0271
16158WAT    EPW66439   4.280   6.436   7.327  0.1564 -0.7000 -0.3521
16159WAT      O66440   8.971  10.289   0.340 -0.0380  0.0458 -0.5274
16159WAT     H166441   8.923  10.371   0.356 -0.3939 -0.1053 -0.8112
16159WAT     H266442   9.057  10.305   0.378 -0.3935  0.2211  0.2306
16159WAT    EPW66443   8.976  10.302   0.347 -0.1316  0.0486 -0.4649
16160WAT      O66444   5.576   7.516   5.453 -0.9686  0.1541  0.1587
16160WAT     H166445   5.609   7.597   5.494 -1.4633  0.6632 -0.4364
16160WAT     H266446   5.654   7.460   5.445  0.1470  1.8877 -2.5622
16160WAT    EPW66447   5.591   7.519   5.458 -0.8869  0.4499 -0.2787
16161WAT      O66448   8.192   7.721   8.350 -0.3295 -0.1621 -0.0287
16161WAT     H166449   8.242   7.762   8.279  1.9540 -0.5428  1.2342
16161WAT     H266450   8.260   7.687   8.409 -1.9469  2.7104  3.8999
16161WAT    EPW66451   8.208   7.722   8.348 -0.2418  0.1664  0.6561
16162WAT      O66452   3.858   2.119   0.437 -0.0714  0.3138  0.3975
16162WAT     H166453   3.939   2.089   0.397  0.2596  1.6250  0.0413
16162WAT     H266454   3.862   2.085   0.527 -0.0059 -1.1689 -0.1386
16162WAT    EPW66455   3.869   2.111   0.444 -0.0191  0.2911  0.2798
16163WAT      O66456   6.051   8.093   3.873 -0.2112  0.5094 -0.0292
16163WAT     H166457   5.989   8.104   3.800 -0.3203  1.0126  0.1363
16163WAT     H266458   6.137   8.106   3.833 -0.0277 -2.1222 -0.6750
16163WAT    EPW66459   6.054   8.096   3.858 -0.2012  0.2289 -0.0925
16164WAT      O66460   6.958   5.697   6.666  0.5290  0.0684  0.1990
16164WAT     H166461   6.878   5.671   6.621  1.0119 -0.3777 -0.4219
16164WAT     H266462   6.928   5.746   6.742 -0.3288  3.4848 -2.1010
16164WAT    EPW66463   6.944   5.700   6.670  0.4797  0.4601 -0.1864
16165WAT      O66464   7.031   5.622   4.881 -0.7205 -0.1737  0.2476
16165WAT     H166465   7.040   5.716   4.894  0.7540 -0.0438 -1.3245
16165WAT     H266466   6.942   5.610   4.849 -0.0849  1.1088 -2.2949
16165WAT    EPW66467   7.020   5.632   4.878 -0.4423  0.0126 -0.2952
16166WAT      O66468   5.375   5.698   8.171 -0.0458 -0.4693  0.1296
16166WAT     H166469   5.419   5.656   8.097 -0.6540 -0.4580 -0.2537
16166WAT     H266470   5.307   5.636   8.196 -0.1907 -0.2339  0.3276
16166WAT    EPW66471   5.372   5.684   8.164 -0.1452 -0.4368  0.1049
16167WAT      O66472   6.471   9.526   2.940 -0.4928 -0.0105 -0.5924
16167WAT     H166473   6.478   9.611   2.984  0.5273 -0.9632  1.1413
16167WAT     H266474   6.390   9.488   2.975 -1.2847  0.4498 -1.8300
16167WAT    EPW66475   6.461   9.532   2.950 -0.4630 -0.0749 -0.5270
16168WAT      O66476   7.599   6.988   6.454  0.0510 -0.5283  0.0778
16168WAT     H166477   7.546   6.945   6.386  0.1357 -1.4158  0.5496
16168WAT     H266478   7.677   7.019   6.408  0.4353 -1.7399 -0.1331
16168WAT    EPW66479   7.602   6.986   6.439  0.1130 -0.8054  0.1125
16169WAT      O66480   4.977   7.091   7.249 -0.4611  0.4826 -0.1343
16169WAT     H166481   5.015   7.122   7.167 -1.1031  0.2359 -0.5341
16169WAT     H266482   4.911   7.027   7.222 -0.6406  0.3600  0.5793
16169WAT    EPW66483   4.973   7.086   7.235 -0.5693  0.4342 -0.0927
16170WAT      O66484   7.721   6.389   4.425  0.2636 -0.0238 -0.0793
16170WAT     H166485   7.816   6.381   4.438  0.7608  0.4234 -2.7918
16170WAT     H266486   7.710   6.391   4.329 -2.4421  0.5583  0.1634
16170WAT    EPW66487   7.732   6.388   4.414 -0.0277  0.1121 -0.4051
16171WAT      O66488   8.770   7.046   7.954  0.5316  0.6443  0.0698
16171WAT     H166489   8.752   7.132   7.918 -1.6285  0.8300  1.3984
16171WAT     H266490   8.855   7.055   7.997  0.5208  1.9949 -0.1606
16171WAT    EPW66491   8.779   7.058   7.955  0.2451  0.8469  0.2146
16172WAT      O66492   9.740   7.201   1.692 -0.0714 -0.1746 -0.5000
16172WAT     H166493   9.726   7.134   1.759  1.6865  1.3056  1.4660
16172WAT     H266494   9.671   7.265   1.708 -0.1286 -0.2031 -0.6324
16172WAT    EPW66495   9.729   7.201   1.703  0.1526  0.0169 -0.2581
16173WAT      O66496   8.355   6.654   6.071  0.0908  0.5002 -0.2351
16173WAT     H166497   8.299   6.576   6.076  0.4262  0.2910  0.2527
16173WAT     H266498   8.391   6.664   6.159 -2.9116  3.4467  0.8786
16173WAT    EPW66499   8.352   6.645   6.083 -0.2608  0.8612 -0.0238
16174WAT      O66500   8.987   2.132   2.566  0.0739 -0.3493  0.2744
16174WAT     H166501   9.048   2.200   2.594  1.1510 -0.6628 -1.2015
16174WAT     H266502   8.925   2.178   2.509  0.8021 -0.5867 -0.7231
16174WAT    EPW66503   8.987   2.147   2.562  0.3119 -0.4218 -0.0519
16175WAT      O66504   6.836   5.218   3.781 -0.2657  0.1515 -0.1711
16175WAT     H166505   6.864   5.140   3.829  1.3326  1.2461  0.8008
16175WAT     H266506   6.889   5.218   3.702 -1.3786 -0.5256 -0.9480
16175WAT    EPW66507   6.847   5.208   3.777 -0.2015  0.2065 -0.1454
16176WAT      O66508   6.907  10.174   2.446 -0.3306  0.5044 -0.2866
16176WAT     H166509   6.851  10.184   2.523 -1.4384 -0.5351 -0.9252
16176WAT     H266510   6.993  10.152   2.482 -0.7580  0.3412  0.6720
16176WAT    EPW66511   6.911  10.172   2.461 -0.5333  0.3457 -0.2445
16177WAT      O66512   4.237   7.092   2.785 -0.4270 -0.3559  0.5128
16177WAT     H166513   4.185   7.164   2.749 -0.8150 -1.3019 -0.9203
16177WAT     H266514   4.181   7.052   2.851 -2.2467 -2.2659 -2.0035
16177WAT    EPW66515   4.223   7.097   2.789 -0.7184 -0.7322 -0.0081
16178WAT      O66516   5.738   5.281   7.519  0.9571  0.0040 -0.0963
16178WAT     H166517   5.688   5.228   7.581  0.8458  1.1016  0.8034
16178WAT     H266518   5.677   5.349   7.491  0.7494 -0.9348 -2.0946
16178WAT    EPW66519   5.723   5.283   7.524  0.9153  0.0250 -0.2410
16179WAT      O66520   6.883   8.278   6.484 -0.3566  0.2944  0.1420
16179WAT     H166521   6.964   8.325   6.468 -0.3845  0.8541  1.5121
16179WAT     H266522   6.910   8.193   6.520 -0.2994 -0.8925 -2.5053
16179WAT    EPW66523   6.897   8.273   6.487 -0.3529  0.2112 -0.0262
16180WAT      O66524   6.996   7.511   5.388  0.2131 -0.5758  0.1554
16180WAT     H166525   7.059   7.494   5.458 -0.3112 -1.4571  0.4336
16180WAT     H266526   7.021   7.451   5.319  0.6628  0.2190 -0.3916
16180WAT    EPW66527   7.007   7.501   5.388  0.2034 -0.5875  0.1199
16181WAT      O66528   7.864   5.282   5.380  0.6990 -0.3857  0.3936
16181WAT     H166529   7.936   5.221   5.364  0.9320 -0.5066  1.7938
16181WAT     H266530   7.887   5.359   5.328 -0.3110 -1.9228 -2.5531
16181WAT    EPW66531   7.877   5.284   5.371  0.5963 -0.6042  0.1895
16182WAT      O66532   5.787   6.136   7.474  0.1396 -0.3851 -0.0278
16182WAT     H166533   5.799   6.226   7.502  0.7639 -0.8913  1.4392
16182WAT     H266534   5.736   6.142   7.393 -0.1279  1.2448  0.2391
16182WAT    EPW66535   5.782   6.149   7.467  0.1869 -0.2367  0.2007
16183WAT      O66536   7.124   7.660   7.078 -0.1428  0.3542  0.3191
16183WAT     H166537   7.133   7.735   7.138 -1.6963 -0.0743  1.1531
16183WAT     H266538   7.074   7.596   7.128  0.0834 -0.7546 -0.8324
16183WAT    EPW66539   7.119   7.661   7.093 -0.3178  0.1516  0.2773
16184WAT      O66540   6.133   5.640   4.729 -0.5834 -0.5291 -0.5370
16184WAT     H166541   6.218   5.642   4.773 -1.1661 -0.2965  0.6167
16184WAT     H266542   6.149   5.590   4.649  0.7148 -0.1923 -0.5105
16184WAT    EPW66543   6.146   5.633   4.724 -0.4890 -0.4544 -0.3815
16185WAT      O66544   9.658   7.040   2.202 -0.4863  0.0166  0.3387
16185WAT     H166545   9.731   7.044   2.141 -1.5931 -1.8622 -1.2337
16185WAT     H266546   9.664   6.954   2.243 -0.5030  0.7551  1.9713
16185WAT    EPW66547   9.668   7.029   2.199 -0.6347 -0.1340  0.3467
16186WAT      O66548   8.384   7.306   5.690 -0.0385  0.4152 -0.0809
16186WAT     H166549   8.334   7.295   5.609  0.4148 -1.0555 -0.2042
16186WAT     H266550   8.469   7.340   5.661  0.5917 -1.3182 -0.4317
16186WAT    EPW66551   8.389   7.309   5.675  0.1040 -0.0072 -0.1433
16187WAT      O66552   6.858   6.029   4.663  0.1162  1.0881  0.8801
16187WAT     H166553   6.834   5.992   4.577  0.6724  0.6617  0.8998
16187WAT     H266554   6.813   5.972   4.726  0.0706  1.1251  0.8802
16187WAT    EPW66555   6.849   6.016   4.660  0.1833  1.0369  0.8826
16188WAT      O66556  10.091   0.112   3.479  0.1733 -0.0637  0.2650
16188WAT     H166557  10.090   0.169   3.556 -2.4770  0.3790 -0.0168
16188WAT     H266558  10.043   0.160   3.413  1.1262 -1.0758 -1.2203
16188WAT    EPW66559  10.084   0.126   3.481 -0.0501 -0.1388  0.0318
16189WAT      O66560   5.581   9.824   5.111  0.3759  0.6290  0.1157
16189WAT     H166561   5.514   9.803   5.045 -0.7467  0.5481  1.2380
16189WAT     H266562   5.531   9.834   5.192  1.5874  1.8927  0.7380
16189WAT    EPW66563   5.565   9.823   5.113  0.3877  0.7849  0.3459
16190WAT      O66564   6.273   6.390   5.614 -0.2684 -0.2030  0.6410
16190WAT     H166565   6.181   6.369   5.632 -0.6368  0.7281 -0.0580
16190WAT     H266566   6.322   6.339   5.678 -1.3585  0.8509  2.4140
16190WAT    EPW66567   6.267   6.380   5.625 -0.4609  0.0589  0.7825
16191WAT      O66568   7.690   8.230   7.859  0.9469 -0.0288  0.3972
16191WAT     H166569   7.654   8.217   7.772  0.9376 -0.9627  0.5215
16191WAT     H266570   7.655   8.313   7.888 -1.7615 -1.2149  0.8024
16191WAT    EPW66571   7.681   8.239   7.852  0.5884 -0.3080  0.4671
16192WAT      O66572   4.571   7.741   7.571 -0.8096 -0.3960 -0.7097
16192WAT     H166573   4.513   7.815   7.591  0.7456  1.3606 -2.2007
16192WAT     H266574   4.600   7.709   7.656 -4.4696 -1.8920  0.1308
16192WAT    EPW66575   4.567   7.747   7.585 -1.0872 -0.3617 -0.7954
16193WAT      O66576   5.113  10.365   6.546  1.0621  0.2791 -0.0624
16193WAT     H166577   5.131  10.412   6.627 -0.1672 -0.6115  0.7821
16193WAT     H266578   5.077  10.431   6.487 -0.6488  0.4526  1.0993
16193WAT    EPW66579   5.110  10.380   6.549  0.6742  0.1845  0.2022
16194WAT      O66580   6.019   6.400   5.214 -0.9185 -0.2857 -0.3956
16194WAT     H166581   5.999   6.385   5.306 -2.5572 -1.1603 -0.8432
16194WAT     H266582   6.098   6.454   5.214 -1.6291  0.8409  1.5383
16194WAT    EPW66583   6.027   6.405   5.226 -1.2283 -0.2525 -0.1993
16195WAT      O66584   3.843   9.356   5.281 -0.0508  0.2175 -0.0616
16195WAT     H166585   3.846   9.381   5.189  1.0978  2.0064  0.4016
16195WAT     H266586   3.768   9.403   5.317 -1.4384 -1.6676 -0.3417
16195WAT    EPW66587   3.834   9.366   5.274 -0.0823  0.2046 -0.0374
16196WAT      O66588   8.999   8.465   4.942  0.3484  0.2854  0.1885
16196WAT     H166589   9.053   8.395   4.905  2.0855  0.6894  1.8327
16196WAT     H266590   9.005   8.536   4.877  0.3923 -0.2755 -0.4371
16196WAT    EPW66591   9.007   8.465   4.928  0.5827  0.2642  0.3228
16197WAT      O66592   6.184  10.003   7.482  0.0048  0.1176 -0.3406
16197WAT     H166593   6.182  10.073   7.547 -2.3536  1.1865 -1.4576
16197WAT     H266594   6.187  10.048   7.398 -1.1735 -1.1081 -1.0754
16197WAT    EPW66595   6.184  10.018   7.479 -0.4618  0.0973 -0.5851
16198WAT      O66596   6.477   8.069   5.724 -0.1978  0.4010  0.4437
16198WAT     H166597   6.513   8.059   5.812  1.2759  1.0515 -0.0695
16198WAT     H266598   6.433   8.154   5.726  2.1166  1.6875 -0.1655
16198WAT    EPW66599   6.476   8.079   5.736  0.3016  0.6561  0.2959
16199WAT      O66600   8.418   7.635   7.562 -0.6152  0.3222  0.0057
16199WAT     H166601   8.387   7.550   7.592 -0.3697  0.3962  0.4794
16199WAT     H266602   8.485   7.660   7.626 -0.1767  0.5443 -0.5345
16199WAT    EPW66603   8.423   7.627   7.575 -0.5255  0.3614 -0.0033
16200WAT      O66604   7.830   9.373   7.619 -0.4500 -0.1650 -0.0372
16200WAT     H166605   7.821   9.411   7.706 -2.3652 -1.1456  0.2469
16200WAT     H266606   7.766   9.420   7.565  0.9756  0.6920 -1.0547
16200WAT    EPW66607   7.820   9.384   7.623 -0.5147 -0.1817 -0.1340
16201WAT      O66608   5.509   7.425   6.382 -1.2001  0.1223  0.1333
16201WAT     H166609   5.518   7.509   6.427 -0.7305  1.0999 -1.6459
16201WAT     H266610   5.593   7.381   6.398 -1.5604 -0.1645  1.3226
16201WAT    EPW66611   5.522   7.430   6.390 -1.1859  0.2136  0.0553
16202WAT      O66612   8.515  10.161   4.945 -0.4952  0.5825  0.0835
16202WAT     H166613   8.585  10.097   4.959 -1.1620  0.3541  2.8495
16202WAT     H266614   8.472  10.131   4.865  2.9476  1.1717 -2.2154
16202WAT    EPW66615   8.519  10.148   4.936 -0.1287  0.6299  0.1450
16203WAT      O66616   6.971   8.333   5.163 -0.3916 -0.6114  0.0631
16203WAT     H166617   6.988   8.332   5.257  0.0234  0.1106 -0.0011
16203WAT     H266618   6.937   8.421   5.146 -0.0960 -0.6106 -0.5238
16203WAT    EPW66619   6.968   8.344   5.173 -0.2980 -0.5159 -0.0231
16204WAT      O66620   3.118   4.971   0.419 -0.5972  0.1061  0.0565
16204WAT     H166621   3.046   4.990   0.360  1.6995  0.2368 -2.9517
16204WAT     H266622   3.115   4.876   0.430 -0.5653 -0.0409 -1.0535
16204WAT    EPW66623   3.108   4.961   0.413 -0.2902  0.1042 -0.4867
16205WAT      O66624   8.095   8.146   3.848 -0.8706 -0.9902  0.0686
16205WAT     H166625   8.010   8.141   3.803 -1.7061 -2.8385  1.6725
16205WAT     H266626   8.102   8.062   3.893  0.6925  0.1070  1.9919
16205WAT    EPW66627   8.085   8.134   3.848 -0.7749 -1.0891  0.5339
16206WAT      O66628   6.657   9.660   2.752 -0.4405 -0.2666 -0.0275
16206WAT     H166629   6.708   9.607   2.691 -0.1650  0.0202 -0.0449
16206WAT     H266630   6.603   9.597   2.800  1.8686 -0.9125  1.9210
16206WAT    EPW66631   6.656   9.645   2.751 -0.0997 -0.3128  0.2273
16207WAT      O66632   8.524   0.238   8.001  0.1654 -0.1190  1.0888
16207WAT     H166633   8.578   0.178   8.054 -1.0961 -0.8304  1.6052
16207WAT     H266634   8.562   0.233   7.914  1.7964  0.4617  1.7177
16207WAT    EPW66635   8.536   0.230   7.997  0.2151 -0.1362  1.2398
16208WAT      O66636   7.729   8.837   4.377  0.3834 -0.1530  0.2195
16208WAT     H166637   7.651   8.881   4.412  0.3725  0.5546 -0.6602
16208WAT     H266638   7.753   8.888   4.300 -0.2328 -2.2415 -1.4681
16208WAT    EPW66639   7.722   8.849   4.372  0.3009 -0.3347 -0.1192
16209WAT      O66640  10.909   7.629   8.475  0.8228 -0.2794 -0.3800
16209WAT     H166641  10.965   7.704   8.498 -3.1773  3.2748 -0.9125
16209WAT     H266642  10.882   7.646   8.385 -1.1143 -1.7810 -0.1415
16209WAT    EPW66643  10.913   7.641   8.467  0.0401 -0.0088 -0.4187
16210WAT      O66644   4.438   7.238   8.037 -0.2851 -0.7053 -0.2469
16210WAT     H166645   4.532   7.222   8.027 -0.5625 -3.0945  0.2343
16210WAT     H266646   4.415   7.297   7.964  1.8123  1.2118  0.5494
16210WAT    EPW66647   4.447   7.243   8.026 -0.0451 -0.7675 -0.0792
16211WAT      O66648  10.142   9.864   5.609 -0.1229  0.3731 -0.2219
16211WAT     H166649  10.065   9.889   5.661  0.1273 -0.2065  0.4435
16211WAT     H266650  10.208   9.841   5.674  0.8094  1.3822 -0.7686
16211WAT    EPW66651  10.140   9.864   5.625  0.0329  0.4292 -0.2065
16212WAT      O66652   5.912   9.542   6.000  0.0393 -1.0341 -0.0474
16212WAT     H166653   5.856   9.614   6.031  0.4722 -0.8510  0.3211
16212WAT     H266654   5.850   9.474   5.973 -0.3698 -0.6665 -0.0543
16212WAT    EPW66655   5.896   9.543   6.001  0.0422 -0.9608  0.0002
16213WAT      O66656   4.657   0.468   0.678 -0.2895  0.4094  0.8393
16213WAT     H166657   4.600   0.543   0.692 -0.8746  0.3473 -0.9234
16213WAT     H266658   4.625   0.429   0.596  1.4738 -0.3825  0.4858
16213WAT    EPW66659   4.645   0.473   0.669 -0.1342  0.2968  0.5603
16214WAT      O66660   8.143   9.413   0.812 -0.1667 -0.1219 -0.2563
16214WAT     H166661   8.054   9.449   0.811  0.4830  1.6247  0.4467
16214WAT     H266662   8.193   9.474   0.866  1.1409 -1.9222  0.6977
16214WAT    EPW66663   8.138   9.426   0.819  0.0920 -0.1287 -0.0378
16215WAT      O66664   8.508   0.924   7.822 -0.5604 -0.0912  0.3954
16215WAT     H166665   8.576   0.858   7.814 -1.1336 -0.6390 -0.1230
16215WAT     H266666   8.511   0.972   7.740 -0.7093 -0.0342  0.4224
16215WAT    EPW66667   8.517   0.921   7.810 -0.6557 -0.1560  0.3304
16216WAT      O66668   2.926  10.331   1.034  0.3810  0.1559  0.2441
16216WAT     H166669   2.886  10.415   1.015 -0.1537 -0.4800 -1.7597
16216WAT     H266670   2.955  10.337   1.125 -1.9662  1.5530  0.9726
16216WAT    EPW66671   2.924  10.343   1.043  0.0008  0.2565  0.0759
16217WAT      O66672   0.660   1.339   4.693  0.3556  0.9569 -0.2640
16217WAT     H166673   0.681   1.360   4.602 -1.0754  0.0599 -0.8338
16217WAT     H266674   0.630   1.248   4.690  0.1167  0.9722  1.0777
16217WAT    EPW66675   0.659   1.329   4.680  0.1354  0.8405 -0.1621
16218WAT      O66676   8.501   1.487   5.318  0.1464 -0.4125 -0.1306
16218WAT     H166677   8.571   1.457   5.259  1.3850 -1.6780  1.8706
16218WAT     H266678   8.481   1.411   5.373 -2.6199  0.0132 -0.3824
16218WAT    EPW66679   8.507   1.473   5.317 -0.0548 -0.5233  0.1001
16219WAT      O66680   6.745   8.742   6.250 -0.3083 -1.0420 -0.3990
16219WAT     H166681   6.710   8.707   6.168 -1.0373  0.3186 -0.6950
16219WAT     H266682   6.730   8.836   6.245  1.9461 -0.5911  0.2043
16219WAT    EPW66683   6.739   8.750   6.239 -0.1070 -0.8035 -0.3586
16220WAT      O66684   2.565   4.316   1.927  0.0444  0.6944  0.0672
16220WAT     H166685   2.549   4.409   1.944  0.1549  0.7417 -0.0864
16220WAT     H266686   2.587   4.312   1.834 -0.1240  0.4910  0.0358
16220WAT    EPW66687   2.566   4.328   1.917  0.0368  0.6738  0.0428
16221WAT      O66688   5.127   2.845   1.518 -0.3283 -0.3983  0.0110
16221WAT     H166689   5.113   2.939   1.509 -1.6125 -0.7059 -1.7624
16221WAT     H266690   5.217   2.831   1.488 -0.3200  0.2096 -0.2546
16221WAT    EPW66691   5.137   2.855   1.513 -0.4966 -0.3587 -0.2580
16222WAT      O66692   5.402   7.608   4.346  0.0629 -0.0756  0.5390
16222WAT     H166693   5.317   7.623   4.388 -1.1966 -1.0537 -1.4797
16222WAT     H266694   5.381   7.601   4.253  2.3209 -0.8681  0.0317
16222WAT    EPW66695   5.388   7.609   4.339  0.1945 -0.3090  0.2058
16223WAT      O66696   7.089   6.064   7.626  0.4217 -0.1208 -0.1738
16223WAT     H166697   7.143   6.013   7.687  1.6464  0.5519 -0.6647
16223WAT     H266698   7.127   6.152   7.628 -1.6937  0.8434  0.7074
16223WAT    EPW66699   7.101   6.069   7.635  0.3042  0.0951 -0.1221
16224WAT      O66700   4.107   7.794   8.281 -0.1487 -0.0144  0.9889
16224WAT     H166701   4.184   7.791   8.337 -0.3354  0.1705  1.2544
16224WAT     H266702   4.060   7.874   8.307 -1.2624 -0.9424  1.9279
16224WAT    EPW66703   4.111   7.804   8.292 -0.3202 -0.1123  1.1473
16225WAT      O66704   8.812   7.884   5.746 -0.1663 -0.6638  0.4439
16225WAT     H166705   8.722   7.855   5.757 -0.9425  0.3032 -2.4917
16225WAT     H266706   8.825   7.950   5.815 -1.5833 -0.9918  1.0651
16225WAT    EPW66707   8.802   7.889   5.757 -0.4554 -0.5794  0.1385
16226WAT      O66708   7.245   6.404   5.011 -0.2048  0.4662  0.2088
16226WAT     H166709   7.330   6.375   5.044  0.1481  1.3096  0.0625
16226WAT     H266710   7.234   6.358   4.928 -0.4567 -0.5803  0.7993
16226WAT    EPW66711   7.255   6.394   5.004 -0.1912  0.4394  0.2675
16227WAT      O66712   5.570   6.838   5.554 -0.2351 -0.2022  0.0362
16227WAT     H166713   5.485   6.811   5.589 -1.2795 -0.5049 -2.4858
16227WAT     H266714   5.602   6.761   5.508 -1.9073  1.5876 -4.8079
16227WAT    EPW66715   5.563   6.825   5.553 -0.5934 -0.0062 -0.9353
16228WAT      O66716   4.469   7.875   6.957  0.1991 -0.0421  0.4305
16228WAT     H166717   4.443   7.936   7.026 -0.1800  0.0213  0.2364
16228WAT     H266718   4.536   7.923   6.907 -1.9613  1.3335 -1.3630
16228WAT    EPW66719   4.474   7.890   6.960 -0.1359  0.1476  0.1683
16229WAT      O66720   7.699   6.022   7.898  0.0499  0.2405 -0.0028
16229WAT     H166721   7.699   6.105   7.850 -0.6437  0.3485  0.1677
16229WAT     H266722   7.700   5.955   7.829  3.4204  0.2945 -0.1840
16229WAT    EPW66723   7.699   6.024   7.882  0.4029  0.2618 -0.0041
16230WAT      O66724   6.353   9.791   7.358 -0.5241 -0.1501  0.0428
16230WAT     H166725   6.430   9.842   7.333 -0.4650 -0.7915 -1.1391
16230WAT     H266726   6.294   9.855   7.396  0.6241  0.3431  1.0876
16230WAT    EPW66727   6.356   9.806   7.360 -0.3650 -0.1698  0.0248
16231WAT      O66728   9.089   7.384   7.226  0.7748  0.0656  0.3421
16231WAT     H166729   9.078   7.307   7.281  5.1020 -1.9589 -1.2098
16231WAT     H266730   9.053   7.359   7.141  1.0462  0.2338  0.1733
16231WAT    EPW66731   9.083   7.371   7.222  1.3814 -0.1793  0.1149
16232WAT      O66732   6.485   7.741   6.977 -0.4412  0.3838  0.0465
16232WAT     H166733   6.525   7.783   7.053 -1.2463  2.4835 -0.5892
16232WAT     H266734   6.531   7.779   6.902 -0.5111 -0.6726 -0.5402
16232WAT    EPW66735   6.496   7.752   6.977 -0.5565  0.5214 -0.1147
16233WAT      O66736  10.751   7.527   2.524  0.1074  0.1571 -0.7692
16233WAT     H166737  10.768   7.618   2.501 -0.9365  0.7368  0.5936
16233WAT     H266738  10.772   7.478   2.445  3.1507  1.2541 -0.7720
16233WAT    EPW66739  10.756   7.532   2.511  0.3710  0.3781 -0.5898
16234WAT      O66740   0.725   2.274   0.978 -0.0883 -0.5256  0.2464
16234WAT     H166741   0.653   2.211   0.968  1.8146 -2.9711  0.8735
16234WAT     H266742   0.738   2.310   0.890 -0.4186 -1.9921 -0.4344
16234WAT    EPW66743   0.717   2.270   0.965  0.1191 -1.0415  0.2393
16235WAT      O66744   6.464   9.974   6.002  0.1096  0.3310 -1.1993
16235WAT     H166745   6.482   9.956   5.910  4.4962 -0.7853 -0.3124
16235WAT     H266746   6.527  10.042   6.026  2.4804 -2.6313  1.9476
16235WAT    EPW66747   6.474   9.981   5.993  1.0009 -0.2065 -0.6673
16236WAT      O66748   5.682   8.978   5.324  0.7538 -0.0972  0.3158
16236WAT     H166749   5.709   9.007   5.411  0.3348 -1.5226  0.9530
16236WAT     H266750   5.726   9.037   5.264  1.0058  0.9555  1.4973
16236WAT    EPW66751   5.691   8.989   5.328  0.7317 -0.1464  0.5555
16237WAT      O66752   5.211   9.459   5.449 -0.4509 -0.0051  0.4410
16237WAT     H166753   5.129   9.421   5.482 -0.3447 -1.3000 -0.6643
16237WAT     H266754   5.267   9.467   5.526 -0.2991 -2.6544  0.7043
16237WAT    EPW66755   5.207   9.455   5.463 -0.4168 -0.5250  0.3300
16238WAT      O66756   5.201   7.690   7.373  0.5283  0.1345  0.0324
16238WAT     H166757   5.287   7.728   7.389  0.7792 -0.7399  0.8287
16238WAT     H266758   5.157   7.753   7.317  0.8516  1.7250  1.4793
16238WAT    EPW66759   5.206   7.703   7.368  0.6042  0.2289  0.3283
16239WAT      O66760   9.407   3.781   7.275  0.6093  0.6366  0.3330
16239WAT     H166761   9.431   3.723   7.347 -0.3736 -2.1587 -1.4413
16239WAT     H266762   9.376   3.861   7.319 -1.1078 -1.3577  3.1039
16239WAT    EPW66763   9.406   3.784   7.291  0.2532  0.0050  0.4642
16240WAT      O66764   7.981   9.381   6.727 -0.4458  0.0379 -0.2985
16240WAT     H166765   7.989   9.322   6.652 -0.0370  2.6268 -2.4555
16240WAT     H266766   7.902   9.432   6.709 -1.1972 -0.2755  1.8510
16240WAT    EPW66767   7.972   9.380   6.715 -0.4911  0.3381 -0.2997
16241WAT      O66768   7.431   6.903   4.843  0.1326  0.2073  0.2401
16241WAT     H166769   7.494   6.850   4.795  0.5724  1.8671 -1.1392
16241WAT     H266770   7.419   6.857   4.926  0.5441 -1.9443 -0.8150
16241WAT    EPW66771   7.437   6.890   4.848  0.2449  0.1426 -0.0808
16242WAT      O66772   5.197   9.060   5.615 -0.4610 -0.2920 -0.0861
16242WAT     H166773   5.253   9.082   5.540 -1.4656 -1.6553 -1.3026
16242WAT     H266774   5.258   9.038   5.685  0.5126  1.5897 -0.2762
16242WAT    EPW66775   5.213   9.060   5.614 -0.4652 -0.2241 -0.2718
16243WAT      O66776  10.208   5.292   4.078  0.3423 -0.1776 -0.3330
16243WAT     H166777  10.253   5.286   4.162  1.4795  1.9918 -0.7303
16243WAT     H266778  10.119   5.261   4.096  0.0993  1.7073  2.0666
16243WAT    EPW66779  10.202   5.287   4.091  0.4606  0.3572 -0.0689
16244WAT      O66780   5.266   6.894   7.513 -0.1527  1.3406  0.3122
16244WAT     H166781   5.288   6.806   7.545 -3.8018 -0.9724 -2.6066
16244WAT     H266782   5.217   6.934   7.584 -0.2365  0.1323  0.9582
16244WAT    EPW66783   5.262   6.887   7.527 -0.6452  0.8762  0.0124
16245WAT      O66784   0.795   7.159   3.613 -0.1370  0.2860  0.2558
16245WAT     H166785   0.707   7.122   3.623 -0.0577 -0.0696 -0.2664
16245WAT     H266786   0.845   7.089   3.570  0.4749  0.3841  0.7980
16245WAT    EPW66787   0.790   7.145   3.609 -0.0458  0.2522  0.2584
16246WAT      O66788   1.569   3.014   0.266 -0.4753 -0.6509  0.0964
16246WAT     H166789   1.645   2.957   0.278  1.3201  1.1791 -1.8237
16246WAT     H266790   1.570   3.070   0.344  0.3525 -0.4238 -0.0681
16246WAT    EPW66791   1.579   3.014   0.278 -0.1292 -0.3797 -0.1786
16247WAT      O66792  10.485   8.778   5.874 -0.2201 -0.0529 -0.8511
16247WAT     H166793  10.540   8.799   5.949  0.6728  1.6689 -1.9232
16247WAT     H266794  10.416   8.722   5.910  1.1547 -0.7336  0.8924
16247WAT    EPW66795  10.484   8.773   5.889  0.0792  0.0844 -0.7627
16248WAT      O66796   9.260   6.438   5.499  0.3342  0.1368  0.0120
16248WAT     H166797   9.187   6.444   5.438 -0.1318 -1.5314  0.3507
16248WAT     H266798   9.307   6.359   5.473  1.5332  0.7123  0.3441
16248WAT    EPW66799   9.257   6.429   5.488  0.4306 -0.0074  0.1009
16249WAT      O66800   9.879   5.279   0.422 -0.1176  0.2618  0.0756
16249WAT     H166801   9.798   5.270   0.472 -0.5722  2.1356 -0.2365
16249WAT     H266802   9.943   5.309   0.486 -0.0155  0.0843  0.0565
16249WAT    EPW66803   9.877   5.282   0.437 -0.1645  0.4854  0.0319
16250WAT      O66804   7.843   0.161   6.270 -0.3432 -1.2139  0.0033
16250WAT     H166805   7.762   0.112   6.281  0.3020 -2.4035 -0.3410
16250WAT     H266806   7.911   0.102   6.303  0.4876 -0.6706 -0.7036
16250WAT    EPW66807   7.841   0.147   6.276 -0.1483 -1.2991 -0.1352
16251WAT      O66808   7.746   8.362   4.947 -0.3419 -0.5884  0.1133
16251WAT     H166809   7.685   8.298   4.983 -1.5438  1.2911  1.6056
16251WAT     H266810   7.692   8.420   4.893  0.7759 -0.9701 -1.4899
16251WAT    EPW66811   7.731   8.361   4.944 -0.3531 -0.3910  0.0987
16252WAT      O66812   8.826   7.102   8.673  0.1451  0.3656  0.6471
16252WAT     H166813   8.906   7.076   8.718  0.6266  0.0352 -0.3639
16252WAT     H266814   8.762   7.114   8.743  0.1271 -2.6600  1.2878
16252WAT    EPW66815   8.828   7.100   8.688  0.2060 -0.0772  0.5980
16253WAT      O66816   4.994   8.990   7.993 -0.3434 -0.2057  0.6200
16253WAT     H166817   4.910   8.971   8.034 -0.2534 -2.5616 -0.1318
16253WAT     H266818   5.041   8.907   7.997  1.3663  0.6823 -0.3092
16253WAT    EPW66819   4.989   8.977   7.999 -0.1061 -0.3996  0.3984
16254WAT      O66820   5.110  10.039   6.929 -0.0787  0.7573 -0.3662
16254WAT     H166821   5.111  10.095   7.007  0.6966  0.1839  0.0510
16254WAT     H266822   5.059   9.962   6.955 -0.1992  0.7633 -0.5793
16254WAT    EPW66823   5.103  10.036   6.942  0.0081  0.6828 -0.3395
16255WAT      O66824   7.297  10.027   0.575  0.2900  0.6387  0.4554
16255WAT     H166825   7.233  10.049   0.642 -0.0652 -0.5966  0.5377
16255WAT     H266826   7.334  10.111   0.548  0.3478  1.1683  2.1045
16255WAT    EPW66827   7.294  10.041   0.580  0.2511  0.5455  0.6838
16256WAT      O66828   8.009   8.271   8.660  0.4694 -0.4913  1.0346
16256WAT     H166829   7.920   8.292   8.632  0.2066 -0.2733  1.9728
16256WAT     H266830   8.066   8.302   8.590 -0.0355  1.6234  1.5099
16256WAT    EPW66831   8.005   8.278   8.647  0.3681 -0.1836  1.2207
16257WAT      O66832   6.826   6.186   7.647 -0.0284 -0.3837 -0.7840
16257WAT     H166833   6.898   6.126   7.667  1.2622  0.6593 -2.1207
16257WAT     H266834   6.748   6.139   7.675  1.2413 -0.9178  2.1795
16257WAT    EPW66835   6.825   6.171   7.653  0.3095 -0.3169 -0.5693
16258WAT      O66836   6.855   5.821   5.095 -0.5615 -0.7395  0.2833
16258WAT     H166837   6.805   5.851   5.170 -0.5939 -0.2163  0.0530
16258WAT     H266838   6.909   5.749   5.129 -0.6199 -0.5431  0.7902
16258WAT    EPW66839   6.856   5.815   5.109 -0.5734 -0.6444  0.3197
16259WAT      O66840   7.805   9.056   5.910 -0.3264 -0.3482  0.4324
16259WAT     H166841   7.813   9.068   5.815  0.2262  1.0920  0.6377
16259WAT     H266842   7.880   9.102   5.946 -1.9770  1.4794  1.7111
16259WAT    EPW66843   7.816   9.064   5.902 -0.4709  0.0830  0.6280
16260WAT      O66844   0.073   4.927   0.367  0.1302 -0.0889  0.7852
16260WAT     H166845   0.015   5.001   0.383 -1.4925 -1.3383  0.8981
16260WAT     H266846   0.074   4.879   0.450 -0.3520 -1.1965  0.1692
16260WAT    EPW66847   0.066   4.931   0.380 -0.1474 -0.3996  0.7189
16261WAT      O66848   5.487   7.352   8.262 -0.1361 -0.4287  0.2167
16261WAT     H166849   5.405   7.399   8.278  0.5417  0.6737  0.6184
16261WAT     H266850   5.552   7.399   8.315  0.7773 -1.1927 -0.1955
16261WAT    EPW66851   5.485   7.365   8.271  0.0737 -0.3841  0.2151
16262WAT      O66852   5.068  10.171   8.411 -0.7557  0.0533  0.2988
16262WAT     H166853   5.044  10.243   8.354  0.2982 -1.3667 -2.0977
16262WAT     H266854   5.009  10.179   8.486 -0.4717  3.4924  0.2808
16262WAT    EPW66855   5.057  10.181   8.414 -0.5794  0.3190 -0.0196
16263WAT      O66856   7.212   8.242   4.220  0.0424  0.4864 -0.0436
16263WAT     H166857   7.261   8.181   4.166 -0.2930 -1.9494  2.1745
16263WAT     H266858   7.121   8.232   4.192  0.0060  0.0390  0.2218
16263WAT    EPW66859   7.206   8.233   4.209 -0.0069  0.1059  0.2840
16264WAT      O66860   6.911   6.344   5.880  0.1608 -0.1430 -0.7000
16264WAT     H166861   6.857   6.422   5.890  2.0922  1.2586 -0.6568
16264WAT     H266862   6.957   6.337   5.964  1.9601  0.2605 -1.6068
16264WAT    EPW66863   6.910   6.353   5.892  0.6526  0.0949 -0.8140
16265WAT      O66864   6.965   7.580   6.824 -0.3746  0.6187  0.3736
16265WAT     H166865   6.919   7.635   6.761  0.0159  0.6105  0.0779
16265WAT     H266866   6.982   7.638   6.898  0.2362  0.9601 -0.0297
16265WAT    EPW66867   6.961   7.595   6.826 -0.2429  0.6626  0.2813
16266WAT      O66868   6.964   6.164   7.010 -0.4637 -0.5395  0.0202
16266WAT     H166869   6.881   6.186   6.969 -2.4013 -0.1795  3.6494
16266WAT     H266870   6.981   6.237   7.070  0.8798 -1.9549  1.4567
16266WAT    EPW66871   6.955   6.176   7.013 -0.5419 -0.6788  0.6886
16267WAT      O66872   7.237   9.473   6.592 -0.0911 -0.0726  0.8301
16267WAT     H166873   7.299   9.421   6.541  0.0028 -0.4904  1.3640
16267WAT     H266874   7.212   9.416   6.665 -0.4594  0.4029  1.0803
16267WAT    EPW66875   7.242   9.459   6.595 -0.1273 -0.0658  0.9336
16268WAT      O66876   6.715  10.051   5.268  0.4978  0.9002  0.1453
16268WAT     H166877   6.785  10.048   5.332  0.6346  0.5756 -0.0140
16268WAT     H266878   6.759  10.071   5.185  0.1683  2.6602  0.3578
16268WAT    EPW66879   6.730  10.053   5.265  0.4728  1.0896  0.1521
16269WAT      O66880   8.404   9.840   7.307  0.3051 -0.2704  0.2634
16269WAT     H166881   8.366   9.805   7.227 -0.8103 -1.1978  1.1605
16269WAT     H266882   8.352   9.801   7.378 -0.3658  2.3649  1.3829
16269WAT    EPW66883   8.392   9.830   7.306  0.0691 -0.0448  0.5295
16270WAT      O66884  10.563   1.215   4.370  0.1830 -0.1992  0.0506
16270WAT     H166885  10.496   1.276   4.399 -1.3782 -1.8140  0.0804
16270WAT     H266886  10.552   1.212   4.275  1.6249  1.0270 -0.1923
16270WAT    EPW66887  10.552   1.222   4.361  0.1669 -0.2505  0.0222
16271WAT      O66888   0.031   0.417   4.076  0.0659 -0.4257  0.0675
16271WAT     H166889   0.118   0.436   4.112  0.8841  2.6791 -2.9532
16271WAT     H266890  -0.023   0.491   4.104  0.1023  0.7923 -2.7701
16271WAT    EPW66891   0.035   0.429   4.085  0.1786  0.1444 -0.7052
16272WAT      O66892   5.631   9.394   4.946  0.2190  0.7879 -0.3064
16272WAT     H166893   5.565   9.358   5.005 -1.3845  0.6127 -2.0826
16272WAT     H266894   5.601   9.484   4.930 -0.7314  0.1333 -2.5803
16272WAT    EPW66895   5.618   9.401   4.952 -0.1180  0.6781 -0.8404
16273WAT      O66896   5.796   7.541   3.858 -0.0232 -0.2907 -0.2452
16273WAT     H166897   5.706   7.508   3.865  0.4861 -2.0450 -1.3731
16273WAT     H266898   5.787   7.627   3.818 -1.2036 -0.3537 -0.1587
16273WAT    EPW66899   5.783   7.548   3.854 -0.1118 -0.5307 -0.3827
16274WAT      O66900   3.195   0.858   5.316  0.0363  0.2899  0.9565
16274WAT     H166901   3.127   0.904   5.266  2.3819  1.6262 -1.1894
16274WAT     H266902   3.202   0.773   5.274 -1.7645 -0.7883  2.6360
16274WAT    EPW66903   3.187   0.853   5.304  0.1082  0.3240  0.8950
16275WAT      O66904   6.829   8.283   8.680  0.8119 -0.5793 -0.4931
16275WAT     H166905   6.887   8.239   8.742  0.7350  0.7237  0.5444
16275WAT     H266906   6.741   8.250   8.701  0.8662 -0.6270 -0.3401
16275WAT    EPW66907   6.825   8.273   8.691  0.8090 -0.4134 -0.3362
16276WAT      O66908   8.072   1.598   4.710  0.3679  0.1945 -0.0016
16276WAT     H166909   8.136   1.545   4.662 -0.2588  0.0928 -0.7681
16276WAT     H266910   8.104   1.600   4.800  0.0186 -2.1920  0.2622
16276WAT    EPW66911   8.084   1.591   4.715  0.2389 -0.1336 -0.0677
16277WAT      O66912   5.487   8.746   4.583  0.0597  0.4260  0.1499
16277WAT     H166913   5.543   8.742   4.661  1.4532 -0.9721 -0.8739
16277WAT     H266914   5.546   8.773   4.513 -1.0191  0.9211 -0.5965
16277WAT    EPW66915   5.502   8.749   4.584  0.1011  0.3071 -0.0837
16278WAT      O66916   8.898   8.888   7.291  0.1090  0.1216  0.4157
16278WAT     H166917   8.963   8.943   7.246 -0.1664  2.4011  2.5892
16278WAT     H266918   8.834   8.950   7.326 -2.3799 -1.9164 -0.1826
16278WAT    EPW66919   8.898   8.903   7.289 -0.2556  0.1535  0.6232
16279WAT      O66920   6.695   6.519   8.261 -0.1499  0.0890  0.0911
16279WAT     H166921   6.622   6.540   8.203 -2.6524 -0.9869  2.6152
16279WAT     H266922   6.747   6.456   8.212 -0.0459  1.8619 -2.2955
16279WAT    EPW66923   6.692   6.514   8.247 -0.4661  0.1810  0.1097
16280WAT      O66924   2.273   2.202   1.722 -0.1957  0.1590  0.1732
16280WAT     H166925   2.255   2.290   1.690  1.7863  0.0613 -1.4043
16280WAT     H266926   2.246   2.144   1.651 -1.9464 -0.6117  1.3874
16280WAT    EPW66927   2.267   2.206   1.708 -0.1653  0.0443  0.1253
16281WAT      O66928   2.967   9.596   6.901  0.8484  0.0901 -0.2267
16281WAT     H166929   2.913   9.610   6.823  1.9011  3.0392 -0.5541
16281WAT     H266930   2.906   9.602   6.974  0.3770  1.1757 -0.6905
16281WAT    EPW66931   2.952   9.599   6.900  0.9251  0.6227 -0.3312
16282WAT      O66932   6.242   7.606   4.646  0.2250 -0.2447  0.3094
16282WAT     H166933   6.189   7.568   4.717 -2.9350  0.4781 -1.4909
16282WAT     H266934   6.215   7.697   4.642  2.1106  0.3305 -0.3466
16282WAT    EPW66935   6.231   7.613   4.655  0.0567 -0.0737 -0.0143
16283WAT      O66936   0.886   0.443   8.783 -0.2512  0.2996  0.9103
16283WAT     H166937   0.978   0.467   8.794 -0.6218  1.5873  1.2791
16283WAT     H266938   0.859   0.486   8.702 -0.7754  0.7076  1.2941
16283WAT    EPW66939   0.894   0.452   8.774 -0.3692  0.5232  1.0095
16284WAT      O66940   7.586   8.511   4.799 -0.0643 -0.3212 -0.0288
16284WAT     H166941   7.657   8.570   4.771 -0.4677  0.3864  0.4173
16284WAT     H266942   7.532   8.501   4.721 -0.5369  0.7063  0.1423
16284WAT    EPW66943   7.588   8.518   4.785 -0.1798 -0.0920  0.0527
16285WAT      O66944   9.906   0.709   2.778 -0.1888  0.2740  0.4618
16285WAT     H166945   9.985   0.740   2.733 -1.9419  1.4752 -1.9934
16285WAT     H266946   9.927   0.619   2.802  1.9931  0.6103  0.0830
16285WAT    EPW66947   9.919   0.701   2.775 -0.1321  0.4768  0.0881
16286WAT      O66948   6.810  10.084   7.477 -0.7754 -0.0742 -0.0757
16286WAT     H166949   6.812  10.070   7.383  0.5449  1.2048 -0.2670
16286WAT     H266950   6.859  10.165   7.491 -1.6802  0.2285  1.6384
16286WAT    EPW66951   6.817  10.093   7.467 -0.7205  0.1340  0.1254
16287WAT      O66952   5.143   7.692   5.788  0.8671 -0.0439 -0.1606
16287WAT     H166953   5.115   7.755   5.722  2.2577  1.0832  0.2575
16287WAT     H266954   5.069   7.632   5.798 -0.8602  1.9889 -0.0167
16287WAT    EPW66955   5.130   7.693   5.781  0.8225  0.3726 -0.0865
16288WAT      O66956   2.308   9.192   5.260  0.2138  0.5664 -0.4453
16288WAT     H166957   2.283   9.198   5.168 -1.3235 -2.8869 -0.4179
16288WAT     H266958   2.374   9.261   5.272 -1.1408  2.6220 -3.4895
16288WAT    EPW66959   2.313   9.202   5.250 -0.1677  0.3824 -0.8430
16289WAT      O66960   6.669   4.186   6.085  0.4313 -0.3867 -0.5047
16289WAT     H166961   6.703   4.276   6.085 -2.6010  0.9118  1.1292
16289WAT     H266962   6.604   4.185   6.015 -1.2420 -0.4996  0.9767
16289WAT    EPW66963   6.665   4.198   6.076 -0.1893 -0.2301 -0.0937
16290WAT      O66964   6.387   6.779   8.261 -1.1226 -0.1819  0.2646
16290WAT     H166965   6.429   6.717   8.201 -1.0151  0.1106  0.0369
16290WAT     H266966   6.449   6.852   8.268 -1.3176 -0.0294  0.4099
16290WAT    EPW66967   6.401   6.780   8.254 -1.1339 -0.1230  0.2537
16291WAT      O66968   5.635   8.172   4.359 -0.4172 -0.3138  0.2214
16291WAT     H166969   5.555   8.129   4.327 -0.5887  0.4357 -0.3984
16291WAT     H266970   5.643   8.144   4.450 -0.4533 -1.7498 -0.1902
16291WAT    EPW66971   5.626   8.163   4.367 -0.4447 -0.4044  0.0856
16292WAT      O66972  10.838   6.054   5.310 -0.3095 -0.0886 -0.1349
16292WAT     H166973  10.800   5.997   5.376 -0.8681  0.2174 -0.1805
16292WAT     H266974  10.791   6.032   5.230  1.4999 -1.6290 -0.8327
16292WAT    EPW66975  10.827   6.044   5.308 -0.1445 -0.2513 -0.2327
16293WAT      O66976   6.054   6.475   6.842 -0.0806  0.1854  0.2497
16293WAT     H166977   6.000   6.399   6.822 -0.6452  0.7857 -0.6045
16293WAT     H266978   6.113   6.482   6.767  0.2628  0.3335  0.5298
16293WAT    EPW66979   6.055   6.466   6.829 -0.1097  0.2840  0.1743
16294WAT      O66980   9.600   8.396   8.932 -0.8466 -0.0824  0.7013
16294WAT     H166981   9.534   8.404   8.863 -2.1847 -2.3623  1.5974
16294WAT     H266982   9.612   8.301   8.943 -0.1028  0.2119  3.0278
16294WAT    EPW66983   9.593   8.384   8.924 -0.9251 -0.3438  1.1268
16295WAT      O66984   7.189   9.027   7.795  0.2774  0.1312  0.5006
16295WAT     H166985   7.154   8.977   7.722  0.0679  0.3045  0.4811
16295WAT     H266986   7.245   8.965   7.842  0.0215 -0.1209  0.4783
16295WAT    EPW66987   7.192   9.012   7.791  0.2160  0.1211  0.4952
16296WAT      O66988   7.487   7.170   5.659  0.0822  0.2129 -0.0147
16296WAT     H166989   7.465   7.245   5.605 -1.3999 -1.0611 -1.2616
16296WAT     H266990   7.547   7.118   5.605 -0.0579 -0.2201  0.2388
16296WAT    EPW66991   7.492   7.173   5.645 -0.1318 -0.0122 -0.1457
16297WAT      O66992   1.282   3.459   0.135  0.4729 -0.0732 -0.5133
16297WAT     H166993   1.314   3.534   0.085 -0.7569  1.6646  1.1556
16297WAT     H266994   1.224   3.413   0.075 -0.9295  1.9259 -0.7705
16297WAT    EPW66995   1.279   3.463   0.121  0.1257  0.4196 -0.3271
16298WAT      O66996   8.315   9.058   3.451  0.3809 -0.3637 -0.4183
16298WAT     H166997   8.278   9.114   3.383  1.7549  0.7088 -0.3339
16298WAT     H266998   8.399   9.099   3.472  0.5767 -1.4256  0.9881
16298WAT    EPW66999   8.322   9.071   3.444  0.5879 -0.3619 -0.2217
16299WAT      O67000   9.489   0.113   4.881 -0.0066 -0.1789  0.2492
16299WAT     H167001   9.567   0.128   4.935  1.8453 -2.2381 -1.6112
16299WAT     H267002   9.501   0.171   4.806  0.2012 -1.0540 -0.4212
16299WAT    EPW67003   9.501   0.122   4.878  0.2651 -0.5659 -0.0842
16300WAT      O67004   9.685   7.403   8.715  0.7104 -0.0649 -0.7400
16300WAT     H167005   9.749   7.474   8.711 -0.4390  1.1825  1.2738
16300WAT     H267006   9.660   7.398   8.807  0.9146 -3.3181 -0.7649
16300WAT    EPW67007   9.690   7.412   8.727  0.5856 -0.3293 -0.4778
16301WAT      O67008  10.550   8.510   6.769 -0.6003 -0.3935 -0.3669
16301WAT     H167009  10.522   8.419   6.774 -2.0897  0.0450 -0.0969
16301WAT     H267010  10.643   8.509   6.794  0.7250 -2.3704 -4.5254
16301WAT    EPW67011  10.559   8.498   6.773 -0.6218 -0.5965 -0.8798
16302WAT      O67012   5.582   2.606   1.463  0.1448 -0.6303  0.3756
16302WAT     H167013   5.624   2.541   1.407  1.2195  0.1098  0.3044
16302WAT     H267014   5.519   2.650   1.406  1.0827 -0.0260 -0.2097
16302WAT    EPW67015   5.579   2.603   1.448  0.4106 -0.4529  0.2890
16303WAT      O67016   8.307   8.442   3.673 -0.4401  0.0063 -0.4109
16303WAT     H167017   8.301   8.373   3.607  3.3274  2.0183 -3.3283
16303WAT     H267018   8.257   8.515   3.636  0.3332  0.6217 -0.2785
16303WAT    EPW67019   8.300   8.442   3.659  0.1588  0.3533 -0.7782
16304WAT      O67020   6.274   4.264   0.010  0.0758  0.2035 -0.3410
16304WAT     H167021   6.268   4.344   0.064  0.5411 -1.7316  2.8534
16304WAT     H267022   6.198   4.268  -0.047 -1.1474  1.9046  1.2779
16304WAT    EPW67023   6.263   4.275   0.010 -0.0243  0.1726  0.2937
16305WAT      O67024  10.014   8.576   3.652 -0.2556 -0.0447 -0.9502
16305WAT     H167025  10.039   8.624   3.572 -1.3832 -2.3496 -2.7929
16305WAT     H267026  10.098   8.551   3.691  0.3229  1.2344 -1.3011
16305WAT    EPW67027  10.029   8.579   3.647 -0.3281 -0.1802 -1.2395
16306WAT      O67028   5.587   7.680   5.021  0.5351 -0.6229  0.1688
16306WAT     H167029   5.503   7.692   4.977  0.0419  2.0358  1.5818
16306WAT     H267030   5.572   7.607   5.082 -1.8721  1.6036  2.5376
16306WAT    EPW67031   5.574   7.672   5.023  0.1526  0.0210  0.6678
16307WAT      O67032   5.774   9.736   6.159  0.0194  0.1185  0.4510
16307WAT     H167033   5.799   9.824   6.131  2.2820 -1.0201 -1.5720
16307WAT     H267034   5.815   9.726   6.245 -0.1950  1.0068  0.6649
16307WAT    EPW67035   5.783   9.746   6.167  0.2894  0.0854  0.2124
16308WAT      O67036   8.566   8.488   5.556  0.3307 -0.8116  0.9329
16308WAT     H167037   8.589   8.467   5.647  4.0721 -0.4498  0.2012
16308WAT     H267038   8.537   8.405   5.519 -0.3003 -1.1657  2.1454
16308WAT    EPW67039   8.565   8.475   5.563  0.7410 -0.8106  0.9964
16309WAT      O67040   7.886   4.825   4.286  1.0788 -0.0191 -0.0964
16309WAT     H167041   7.905   4.894   4.349  0.3578  1.0382 -1.0017
16309WAT     H267042   7.898   4.866   4.200 -1.4560 -0.3544 -0.6958
16309WAT    EPW67043   7.890   4.839   4.283  0.6495  0.0763 -0.2949
16310WAT      O67044   7.515   8.398   6.975  0.6994  0.7279 -0.3987
16310WAT     H167045   7.562   8.394   6.891  3.1569 -0.5587  0.9076
16310WAT     H267046   7.429   8.361   6.956  1.2216  0.3649 -2.3265
16310WAT    EPW67047   7.510   8.393   6.961  1.0922  0.5097 -0.4809
16311WAT      O67048   8.252   0.111   5.748 -0.4780 -1.0313  0.3698
16311WAT     H167049   8.235   0.022   5.717 -2.6401 -0.5961  0.1134
16311WAT     H267050   8.201   0.167   5.690  0.1605  0.3153  1.0531
16311WAT    EPW67051   8.243   0.107   5.736 -0.6795 -0.7963  0.4261
16312WAT      O67052   8.859   9.465   6.928  0.1821  0.0750 -0.4662
16312WAT     H167053   8.901   9.546   6.897  3.4384 -0.5546  1.7955
16312WAT     H267054   8.838   9.483   7.019 -0.6745 -1.0887 -0.4236
16312WAT    EPW67055   8.862   9.478   6.936  0.4983 -0.1612 -0.1624
16313WAT      O67056   5.266   8.175   6.359 -0.0855 -0.3107 -0.3998
16313WAT     H167057   5.307   8.096   6.395 -1.4198 -1.3430 -1.0455
16313WAT     H267058   5.325   8.203   6.289  1.1463  0.1492  0.7886
16313WAT    EPW67059   5.279   8.168   6.355 -0.0989 -0.3862 -0.3281
16314WAT      O67060   7.611   0.463   4.644  0.1178 -0.0380  0.3964
16314WAT     H167061   7.541   0.486   4.705  1.4352  0.1430  1.9070
16314WAT     H267062   7.597   0.371   4.624 -0.6043  0.0254  0.5733
16314WAT    EPW67063   7.600   0.454   4.649  0.1962 -0.0057  0.6189
16315WAT      O67064   2.140   2.935   0.851  0.2452 -0.5455  0.7459
16315WAT     H167065   2.065   2.928   0.793  0.4882  1.2641  0.1361
16315WAT     H267066   2.167   2.845   0.867 -0.5839 -1.1356 -0.9600
16315WAT    EPW67067   2.134   2.923   0.846  0.1678 -0.3846  0.4405
16316WAT      O67068   5.829   2.366   0.425 -0.1898  0.5212  0.1734
16316WAT     H167069   5.865   2.311   0.495  0.1158  0.7489  0.1973
16316WAT     H267070   5.901   2.373   0.361 -0.0896  1.2137  0.3550
16316WAT    EPW67071   5.844   2.360   0.426 -0.1364  0.6425  0.2005
16317WAT      O67072   5.524   3.284   0.093  0.0248 -0.1594  0.0400
16317WAT     H167073   5.474   3.212   0.055  0.8627 -1.5661  1.4630
16317WAT     H267074   5.483   3.363   0.057 -3.0174 -1.2096  0.8765
16317WAT    EPW67075   5.512   3.285   0.083 -0.2661 -0.4834  0.3380
16318WAT      O67076   1.371   0.789   6.949  0.0271  0.7656  0.4860
16318WAT     H167077   1.394   0.697   6.959 -1.6943  0.2295 -0.2406
16318WAT     H267078   1.378   0.806   6.855 -0.5138  1.1315  0.5084
16318WAT    EPW67079   1.375   0.779   6.938 -0.2713  0.7431  0.3929
16319WAT      O67080   5.551   0.651   0.996  0.0035 -0.2788 -0.4231
16319WAT     H167081   5.516   0.626   1.081  2.3732  1.7417  1.2873
16319WAT     H267082   5.646   0.649   1.007  0.3955  2.0733 -2.3148
16319WAT    EPW67083   5.559   0.648   1.009  0.3676  0.2979 -0.4470
16320WAT      O67084   4.471   6.661   7.261  0.0954 -0.2460 -0.2245
16320WAT     H167085   4.438   6.750   7.259  0.3808 -0.0657  1.4313
16320WAT     H267086   4.395   6.607   7.283  0.4125 -0.0605  1.5209
16320WAT    EPW67087   4.457   6.665   7.264  0.1748 -0.1976  0.2241
16321WAT      O67088   3.439   8.966   5.648 -0.1627  0.1756 -0.7805
16321WAT     H167089   3.424   8.947   5.555 -1.4821  1.3798 -0.8619
16321WAT     H267090   3.533   8.979   5.655 -0.0546  0.1622 -1.9784
16321WAT    EPW67091   3.449   8.966   5.637 -0.3225  0.3324 -0.9491
16322WAT      O67092   6.350   7.332   7.969  0.3593  0.2580 -0.2252
16322WAT     H167093   6.347   7.318   7.874  0.8073  0.0346 -0.2112
16322WAT     H267094   6.272   7.288   8.002  0.1626  0.3985 -0.4994
16322WAT    EPW67095   6.340   7.324   7.960  0.3927  0.2470 -0.2596
16323WAT      O67096   7.475   7.533   7.714 -0.4087  0.5311  0.0261
16323WAT     H167097   7.404   7.557   7.772 -0.2541 -1.9091  1.3634
16323WAT     H267098   7.439   7.465   7.657 -0.0403  1.6097 -1.5854
16323WAT    EPW67099   7.461   7.527   7.714 -0.3400  0.3514 -0.0100
16324WAT      O67100   7.819   7.892   8.251 -0.5202  0.5118  0.7047
16324WAT     H167101   7.848   7.971   8.296  1.0690  0.2457  0.2335
16324WAT     H267102   7.788   7.923   8.166 -0.4003  0.6861  0.7251
16324WAT    EPW67103   7.819   7.906   8.245 -0.2947  0.4997  0.6452
16325WAT      O67104   1.948   7.539   0.319 -0.4344  0.4423  0.7155
16325WAT     H167105   1.946   7.544   0.415  0.0475  2.3502  0.6747
16325WAT     H267106   1.893   7.464   0.298 -2.4319  1.3130  2.4335
16325WAT    EPW67107   1.940   7.530   0.329 -0.6343  0.8087  0.9367
16326WAT      O67108   5.583   8.309   7.827 -0.4505 -0.0119  0.5503
16326WAT     H167109   5.509   8.288   7.884 -2.0075 -0.7903 -1.6147
16326WAT     H267110   5.610   8.396   7.854 -0.3495 -0.7659  3.1775
16326WAT    EPW67111   5.577   8.317   7.838 -0.6425 -0.2136  0.6113
16327WAT      O67112   6.616   7.822   6.699  0.6958  0.1599 -0.4571
16327WAT     H167113   6.622   7.899   6.755  0.4898 -0.0927 -0.0865
16327WAT     H267114   6.567   7.852   6.623  2.1360  0.8687 -1.1459
16327WAT    EPW67115   6.610   7.836   6.696  0.8588  0.2203 -0.4990
16328WAT      O67116   4.902   9.920   6.554 -0.5775  1.0260 -0.3193
16328WAT     H167117   4.896   9.925   6.459  1.3076 -1.2918 -0.6539
16328WAT     H267118   4.993   9.897   6.572 -1.1929  0.0033  1.9536
16328WAT    EPW67119   4.913   9.917   6.544 -0.4098  0.5856 -0.0634
16329WAT      O67120   8.442   4.399   6.370  0.0156 -0.0452 -0.2215
16329WAT     H167121   8.487   4.433   6.447 -2.6133 -1.1607  1.9410
16329WAT     H267122   8.390   4.326   6.402 -2.1897  0.2446 -2.7817
16329WAT    EPW67123   8.441   4.394   6.384 -0.6223 -0.1540 -0.2737
16330WAT      O67124   9.303   9.810   4.324 -0.4857  0.2997 -0.3802
16330WAT     H167125   9.373   9.872   4.344 -1.5093  1.5374 -0.5188
16330WAT     H267126   9.255   9.851   4.252 -0.9711 -0.8394 -0.7284
16330WAT    EPW67127   9.306   9.823   4.317 -0.6852  0.3123 -0.4447
16331WAT      O67128   1.221   1.453   1.897  0.6413  0.0345 -0.2460
16331WAT     H167129   1.291   1.493   1.948 -0.0687  0.7505  0.1840
16331WAT     H267130   1.211   1.365   1.933  1.0677  0.0584 -0.0676
16331WAT    EPW67131   1.229   1.447   1.908  0.6039  0.1321 -0.1656
16332WAT      O67132   9.690   0.776   6.957  0.1153  0.5783 -0.6799
16332WAT     H167133   9.632   0.702   6.939  0.0843  0.8375 -1.6890
16332WAT     H267134   9.775   0.748   6.925  0.3951  0.4755  0.1475
16332WAT    EPW67135   9.693   0.762   6.950  0.1483  0.5989 -0.7038
16333WAT      O67136   9.044  10.149   5.801  0.3232 -0.5993 -0.8467
16333WAT     H167137   9.088  10.071   5.766  2.4393 -0.1240  0.6474
16333WAT     H267138   8.964  10.114   5.841  0.6813 -1.8575 -1.1696
16333WAT    EPW67139   9.039  10.134   5.801  0.6495 -0.7029 -0.6924
16334WAT      O67140   5.315   9.171   6.838  0.4074  0.3444  0.0960
16334WAT     H167141   5.223   9.157   6.858  0.5802  0.3430  0.9225
16334WAT     H267142   5.346   9.085   6.807 -0.4731  0.9666 -2.7736
16334WAT    EPW67143   5.307   9.158   6.837  0.3140  0.4268 -0.1731
16335WAT      O67144   8.923   1.091   5.725 -0.2264 -0.2953 -0.2870
16335WAT     H167145   8.849   1.111   5.668  0.7807  2.0819 -0.8655
16335WAT     H267146   8.888   1.105   5.814 -0.9045 -0.8428 -0.4555
16335WAT    EPW67147   8.909   1.095   5.729 -0.1831 -0.0539 -0.3855
16336WAT      O67148   5.494   2.568   0.428 -0.3349  0.3002 -0.3505
16336WAT     H167149   5.564   2.582   0.364  0.4356  0.3043  0.4760
16336WAT     H267150   5.413   2.572   0.376  0.1349  2.2060 -1.0506
16336WAT    EPW67151   5.492   2.571   0.413 -0.1714  0.5521 -0.3338
16337WAT      O67152  10.251   7.801   3.310  0.0713  0.0382  0.4276
16337WAT     H167153  10.282   7.731   3.368 -0.1903 -0.0209  0.4973
16337WAT     H267154  10.184   7.759   3.256  1.7019 -0.4546 -1.3348
16337WAT    EPW67155  10.246   7.786   3.311  0.2518 -0.0343  0.2043
16338WAT      O67156  10.107   9.024   5.471 -0.1377 -0.0651 -0.1957
16338WAT     H167157  10.033   9.078   5.500  0.5056  0.9904 -0.4430
16338WAT     H267158  10.149   9.077   5.403  0.3912 -0.9905 -0.6005
16338WAT    EPW67159  10.103   9.038   5.466  0.0172 -0.0477 -0.2818
16339WAT      O67160   7.766   7.568   6.199  0.2724 -0.1013 -0.6037
16339WAT     H167161   7.769   7.477   6.169 -0.1582 -0.7490  1.2022
16339WAT     H267162   7.730   7.617   6.125  0.5461 -1.3793 -1.6124
16339WAT    EPW67163   7.762   7.563   6.185  0.2518 -0.3550 -0.4985
16340WAT      O67164  10.986   4.497   4.634  0.2736  0.4341 -0.2523
16340WAT     H167165  11.025   4.537   4.556  0.4540 -1.2706 -1.0946
16340WAT     H267166  10.893   4.516   4.628 -0.0378 -1.2898 -1.9911
16340WAT    EPW67167  10.979   4.505   4.623  0.2561 -0.0184 -0.5927
16341WAT      O67168   5.280   5.491   1.072  0.2466  0.7749 -0.2544
16341WAT     H167169   5.257   5.424   1.137  2.3022 -1.0965 -1.3293
16341WAT     H267170   5.201   5.501   1.019 -0.4791  0.0953  0.6634
16341WAT    EPW67171   5.267   5.483   1.074  0.4220  0.4387 -0.2752
16342WAT      O67172   8.445   7.389   6.267 -0.4674  0.0160  0.0168
16342WAT     H167173   8.422   7.410   6.176 -2.0315  0.5716  0.4990
16342WAT     H267174   8.471   7.297   6.264 -1.2287 -0.1900 -0.8987
16342WAT    EPW67175   8.445   7.380   6.255 -0.7744  0.0622 -0.0401
16343WAT      O67176   8.261   7.189   3.563 -0.8898 -0.5599 -0.5631
16343WAT     H167177   8.345   7.145   3.552 -0.4691  0.6853 -3.3067
16343WAT     H267178   8.206   7.153   3.492 -2.4460 -0.7993  0.7097
16343WAT    EPW67179   8.264   7.178   3.552 -1.0405 -0.4270 -0.7571
16344WAT      O67180   7.768   7.286   7.025  0.1020  0.1856  0.7666
16344WAT     H167181   7.810   7.271   7.109  0.2980  1.1904  0.8547
16344WAT     H267182   7.819   7.356   6.984  1.1208 -1.4734 -0.9777
16344WAT    EPW67183   7.780   7.293   7.031  0.2623  0.0997  0.5481
16345WAT      O67184   5.588   5.123   7.764 -0.3441  0.0617  0.9041
16345WAT     H167185   5.621   5.034   7.775  0.1813 -0.1627 -1.8746
16345WAT     H267186   5.495   5.116   7.786  0.2847 -0.4136  3.7828
16345WAT    EPW67187   5.580   5.110   7.769 -0.1917 -0.0305  0.9174
16346WAT      O67188   6.475   9.321   6.974 -0.8761  0.3134 -0.7007
16346WAT     H167189   6.483   9.405   7.019 -0.4809  0.1825 -0.5284
16346WAT     H267190   6.387   9.290   6.998 -0.1371 -0.4379  1.1687
16346WAT    EPW67191   6.464   9.328   6.983 -0.7267  0.1974 -0.4313
16347WAT      O67192   9.525   9.965   8.407 -0.0930  0.5979 -0.6465
16347WAT     H167193   9.495  10.039   8.460 -1.7671  0.7749 -1.7670
16347WAT     H267194   9.590  10.004   8.348  0.5701  0.7262  0.1440
16347WAT    EPW67195   9.530   9.980   8.406 -0.2265  0.6385 -0.6900
16348WAT      O67196   6.212   9.276   7.106  0.1936  0.3582 -0.2490
16348WAT     H167197   6.135   9.299   7.052  1.9293  2.1079 -2.1851
16348WAT     H267198   6.186   9.298   7.195 -2.0315 -0.4784 -0.6202
16348WAT    EPW67199   6.198   9.282   7.110  0.1290  0.4787 -0.5534
16349WAT      O67200   7.071   6.981   5.981 -0.0537 -0.2940 -0.0740
16349WAT     H167201   7.066   7.066   6.026  0.9456 -1.7472  3.0072
16349WAT     H267202   7.086   7.005   5.889  1.5147  2.8846  0.8345
16349WAT    EPW67203   7.072   6.996   5.975  0.2849 -0.0665  0.4523
16350WAT      O67204   9.705   9.855   7.526 -0.5624  0.2312  0.2474
16350WAT     H167205   9.639   9.794   7.558  1.4451 -2.7314 -0.7898
16350WAT     H267206   9.771   9.799   7.486  2.2170  3.0354  0.5287
16350WAT    EPW67207   9.705   9.839   7.525  0.0691  0.2108  0.1478
16351WAT      O67208   5.718   7.580   7.331 -1.2444  0.2659 -0.3399
16351WAT     H167209   5.659   7.653   7.348 -0.9589  0.5464 -0.5448
16351WAT     H267210   5.666   7.519   7.279 -1.9089 -0.2951  0.9451
16351WAT    EPW67211   5.703   7.582   7.326 -1.2941  0.2289 -0.1974
16352WAT      O67212   2.827   8.735   3.700  0.1241  0.3573 -0.4306
16352WAT     H167213   2.800   8.826   3.705 -1.8699 -0.0932 -1.6869
16352WAT     H267214   2.917   8.738   3.667  0.3821  1.8619  0.3194
16352WAT    EPW67215   2.835   8.747   3.696 -0.1049  0.4964 -0.4972
16353WAT      O67216   9.859  10.065   7.660 -0.3184 -0.3055 -0.3064
16353WAT     H167217   9.815   9.995   7.613 -0.1524  0.2760 -1.3715
16353WAT     H267218   9.952  10.044   7.653 -0.3389 -1.3923  1.7167
16353WAT    EPW67219   9.866  10.053   7.653 -0.2985 -0.3715 -0.1800
16354WAT      O67220   1.318   8.670   5.882  0.0744  0.6099  0.0635
16354WAT     H167221   1.334   8.723   5.804  0.2993 -1.2515 -1.2268
16354WAT     H267222   1.223   8.655   5.882  0.3338 -1.3288 -1.2457
16354WAT    EPW67223   1.307   8.675   5.872  0.1382  0.1087 -0.2794
16355WAT      O67224   7.935   4.840   1.677  0.3656  0.8798  0.2830
16355WAT     H167225   8.009   4.890   1.712  0.7910  0.0989  0.5195
16355WAT     H267226   7.974   4.786   1.608  0.1100  0.1364  0.7058
16355WAT    EPW67227   7.950   4.840   1.672  0.3879  0.6788  0.3698
16356WAT      O67228   4.558   7.967   8.522 -0.3140  0.5545  0.1036
16356WAT     H167229   4.644   7.999   8.552 -0.4846  1.3017 -0.1855
16356WAT     H267230   4.547   8.007   8.436 -0.3174 -0.7018 -0.5058
16356WAT    EPW67231   4.568   7.976   8.515 -0.3369  0.4876 -0.0153
16357WAT      O67232   8.294   9.713   3.313 -0.0044  0.4581  0.3181
16357WAT     H167233   8.334   9.627   3.299  1.3301  1.3387 -1.8825
16357WAT     H267234   8.341   9.750   3.387 -1.0954 -0.9306  1.7748
16357WAT    EPW67235   8.305   9.707   3.321  0.0277  0.3910  0.2199
16358WAT      O67236  10.605   7.850   5.681 -0.3869  0.1256  0.2845
16358WAT     H167237  10.637   7.811   5.599  0.4858 -3.1769  2.0163
16358WAT     H267238  10.633   7.941   5.676 -0.2769  0.0443 -3.0058
16358WAT    EPW67239  10.613   7.857   5.669 -0.2570 -0.3209  0.0789
16359WAT      O67240   7.900   7.918   7.698 -0.0470 -0.3178  0.2103
16359WAT     H167241   7.970   7.910   7.634 -0.1453  0.0357  0.0554
16359WAT     H267242   7.875   8.011   7.696  1.3728  0.1753  2.2687
16359WAT    EPW67243   7.906   7.929   7.689  0.1273 -0.2062  0.4616
16360WAT      O67244   9.441   6.597   4.773  0.0763 -0.5046  0.4686
16360WAT     H167245   9.483   6.675   4.810  0.4942 -0.4694 -0.0599
16360WAT     H267246   9.503   6.567   4.706  0.2716 -1.7257  1.1714
16360WAT    EPW67247   9.455   6.604   4.769  0.1574 -0.6609  0.4911
16361WAT      O67248   8.104   8.719   3.137  0.8685 -0.7560 -0.4158
16361WAT     H167249   8.177   8.735   3.197  0.5139  0.3821 -0.2530
16361WAT     H267250   8.141   8.736   3.051  1.2449 -1.9002 -0.4980
16361WAT    EPW67251   8.119   8.724   3.134  0.8717 -0.7567 -0.4051
16362WAT      O67252   6.259   6.027   7.089  0.0969 -0.1230 -0.3978
16362WAT     H167253   6.193   6.097   7.082 -0.3305 -0.4776  0.0168
16362WAT     H267254   6.208   5.946   7.082  0.5014 -0.3994 -0.1544
16362WAT    EPW67255   6.243   6.026   7.087  0.0937 -0.2062 -0.3109
16363WAT      O67256   7.245   9.052   6.623 -0.5623  0.6844 -0.0587
16363WAT     H167257   7.227   8.985   6.557  1.7676 -0.2333  0.1507
16363WAT     H267258   7.291   9.120   6.574 -1.1051  1.2093  0.1480
16363WAT    EPW67259   7.248   9.052   6.608 -0.3264  0.6323 -0.0041
16364WAT      O67260   6.375   6.202   6.809 -0.4341 -0.0274  0.8608
16364WAT     H167261   6.394   6.142   6.882 -0.4386 -0.8227  0.2182
16364WAT     H267262   6.440   6.180   6.742  1.0931  2.2570  1.4572
16364WAT    EPW67263   6.386   6.191   6.810 -0.2329  0.1693  0.8550
16365WAT      O67264   9.910  10.047   1.248  0.1622  0.0268 -0.1531
16365WAT     H167265   9.968   9.971   1.245  0.0167 -0.2063  1.6204
16365WAT     H267266   9.838  10.026   1.189  0.1971 -1.1639  0.2086
16365WAT    EPW67267   9.908  10.034   1.240  0.1473 -0.1607  0.1285
16366WAT      O67268   4.845   8.387   6.527  0.4789 -0.0955  1.0686
16366WAT     H167269   4.790   8.429   6.460  0.8054 -3.6194 -1.7131
16366WAT     H267270   4.935   8.404   6.497  0.8245  1.2780  2.7247
16366WAT    EPW67271   4.850   8.395   6.514  0.5677 -0.3791  0.9198
16367WAT      O67272   5.041   8.068   5.185  0.1246  0.0733  0.4395
16367WAT     H167273   4.958   8.083   5.230 -2.3921 -0.3748 -3.5735
16367WAT     H267274   5.087   8.005   5.241 -3.7513 -2.3301  1.3190
16367WAT    EPW67275   5.036   8.062   5.198 -0.7186 -0.3028  0.0260
16368WAT      O67276   4.332   8.345   7.036 -0.0823 -0.5973  0.2731
16368WAT     H167277   4.238   8.345   7.055 -0.2411  0.4375 -0.4781
16368WAT     H267278   4.357   8.252   7.042 -0.9569 -0.7816  1.3606
16368WAT    EPW67279   4.323   8.332   7.039 -0.2189 -0.4845  0.3176
16369WAT      O67280   9.876   0.239   4.797 -1.1071 -0.1320  0.0353
16369WAT     H167281   9.850   0.150   4.771 -1.7591  0.3162 -0.8861
16369WAT     H267282   9.931   0.270   4.725  0.8184 -0.4961  1.2562
16369WAT    EPW67283   9.880   0.231   4.784 -0.9389 -0.1209  0.0751
16370WAT      O67284   5.965   8.826   7.263 -0.2357  0.0731  0.8331
16370WAT     H167285   5.880   8.868   7.247 -0.5074 -0.9699 -0.7587
16370WAT     H267286   5.950   8.734   7.240  0.1925 -1.0964  4.6036
16370WAT    EPW67287   5.952   8.819   7.258 -0.2151 -0.2189  1.1206
16371WAT      O67288   6.755   8.093   7.369  0.1490 -0.6130  0.9000
16371WAT     H167289   6.683   8.066   7.313  0.2143  2.1433 -0.7171
16371WAT     H267290   6.832   8.091   7.313  0.4316  1.0393  1.1644
16371WAT    EPW67291   6.756   8.089   7.354  0.1948 -0.0315  0.7217
16372WAT      O67292   6.523   7.807   5.616  0.1092  0.9206 -0.5577
16372WAT     H167293   6.574   7.793   5.696 -1.7741 -1.8076  0.3001
16372WAT     H267294   6.488   7.896   5.625  0.1588  0.7692  1.5219
16372WAT    EPW67295   6.525   7.817   5.628 -0.1328  0.5407 -0.1698
16373WAT      O67296   5.053   6.279   7.504  0.0602  0.6999  0.1446
16373WAT     H167297   5.018   6.198   7.542  0.1548  0.7516  0.3469
16373WAT     H267298   5.036   6.346   7.571  1.7387  0.4691  0.8424
16373WAT    EPW67299   5.046   6.277   7.518  0.2942  0.6762  0.2632
16374WAT      O67300   4.902   7.984   6.999  0.5859  0.0505 -0.4821
16374WAT     H167301   4.973   8.037   6.964 -0.0559  0.0770 -1.7966
16374WAT     H267302   4.898   7.907   6.942  0.4863 -0.6601  0.4527
16374WAT    EPW67303   4.910   7.981   6.987  0.4880 -0.0398 -0.5322
16375WAT      O67304   6.571   9.275   5.417  0.3231 -0.2744  0.8425
16375WAT     H167305   6.625   9.353   5.403 -2.5648  1.5184 -1.2249
16375WAT     H267306   6.629   9.202   5.392  1.4952  1.6127 -2.7629
16375WAT    EPW67307   6.586   9.276   5.411  0.0970  0.2112  0.0942
16376WAT      O67308   4.768   9.079   6.656  0.4897  0.7650  0.0493
16376WAT     H167309   4.843   9.021   6.670  0.9245  1.5987  1.3570
16376WAT     H267310   4.747   9.112   6.744 -0.5240  1.6314 -0.4966
16376WAT    EPW67311   4.775   9.075   6.670  0.4137  0.9890  0.1497
16377WAT      O67312   4.523   4.611   0.155  0.9062  0.3294 -0.0266
16377WAT     H167313   4.468   4.557   0.098  2.1373 -1.4288  0.3846
16377WAT     H267314   4.612   4.588   0.130  1.5134 -0.9540  2.9458
16377WAT    EPW67315   4.527   4.601   0.144  1.1487 -0.0718  0.4197
16378WAT      O67316   7.066   7.099   2.886 -0.5972  0.8994 -0.7864
16378WAT     H167317   6.989   7.151   2.909 -0.6520  0.9682 -1.1104
16378WAT     H267318   7.060   7.021   2.941 -2.5246 -0.5336 -2.8412
16378WAT    EPW67319   7.055   7.095   2.896 -0.8585  0.7195 -1.1002
16379WAT      O67320   6.978   9.854   4.614  0.0266 -0.0611  0.6916
16379WAT     H167321   6.945   9.935   4.574  0.5287  0.1534  0.7010
16379WAT     H267322   6.949   9.785   4.556 -1.3196  0.0262  1.2381
16379WAT    EPW67323   6.970   9.856   4.601 -0.0849 -0.0210  0.7651
16380WAT      O67324   4.652   8.857   3.594  0.5586 -0.3550 -0.0431
16380WAT     H167325   4.569   8.813   3.607 -0.1074  0.1223 -2.2395
16380WAT     H267326   4.663   8.911   3.672 -0.7195 -1.1221  0.7018
16380WAT    EPW67327   4.643   8.859   3.606  0.3023 -0.3929 -0.2345
16381WAT      O67328   8.044   7.087   5.344  0.2254 -0.5993 -0.2997
16381WAT     H167329   8.031   7.071   5.251  1.7585 -0.2383 -0.6045
16381WAT     H267330   8.022   7.180   5.355 -1.0921 -0.9220 -0.0521
16381WAT    EPW67331   8.040   7.097   5.333  0.2542 -0.5941 -0.3071
16382WAT      O67332   9.229   5.934   7.093 -0.4249 -0.5803  0.6391
16382WAT     H167333   9.183   6.017   7.095 -2.3949 -1.4498 -2.1564
16382WAT     H267334   9.205   5.890   7.174 -0.1705  1.1018  1.6706
16382WAT    EPW67335   9.220   5.939   7.104 -0.6509 -0.4733  0.4060
16383WAT      O67336   5.635   9.838   5.661  0.3189 -0.2831  0.2498
16383WAT     H167337   5.695   9.764   5.668  0.0862 -0.8695 -2.6463
16383WAT     H267338   5.552   9.804   5.695 -0.2650 -2.1015 -2.6052
16383WAT    EPW67339   5.632   9.824   5.666  0.2112 -0.5999 -0.5085
16384WAT      O67340   6.263   8.492   4.441 -0.2266  0.2819 -0.7174
16384WAT     H167341   6.263   8.531   4.528  1.3802  0.7364 -0.8763
16384WAT     H267342   6.342   8.438   4.439  0.0117  0.6485 -2.0306
16384WAT    EPW67343   6.273   8.490   4.452  0.0167  0.3905 -0.9115
16385WAT      O67344   4.128  10.174   6.054  0.0515 -0.2183 -0.1307
16385WAT     H167345   4.053  10.136   6.009  0.1922 -0.2725 -0.3214
16385WAT     H267346   4.092  10.208   6.136 -0.0481 -0.9016  0.1150
16385WAT    EPW67347   4.113  10.173   6.059  0.0570 -0.3157 -0.1233
16386WAT      O67348   5.156   6.101   7.157 -0.1945  0.4250 -0.2127
16386WAT     H167349   5.140   6.053   7.075  4.0354 -0.2428 -0.8841
16386WAT     H267350   5.174   6.191   7.129  0.1450  0.4622  0.1231
16386WAT    EPW67351   5.156   6.107   7.142  0.4079  0.3417 -0.2573
16387WAT      O67352   9.862   8.359   3.375  0.5018 -0.5616  0.1498
16387WAT     H167353   9.908   8.346   3.293  1.3106 -1.5451  0.7307
16387WAT     H267354   9.906   8.300   3.437 -2.4434 -2.7346  0.3959
16387WAT    EPW67355   9.874   8.350   3.373  0.2198 -0.9775  0.2588
16388WAT      O67356   8.120   9.976   5.433  0.1149  0.1174 -0.4332
16388WAT     H167357   8.118   9.979   5.338  0.8402 -1.6085 -0.5392
16388WAT     H267358   8.185   9.909   5.454  0.4348  0.8994  1.2975
16388WAT    EPW67359   8.128   9.968   5.423  0.2527 -0.0076 -0.2189
16389WAT      O67360   6.554   7.912   7.980 -0.0869  0.7373 -0.4239
16389WAT     H167361   6.565   7.825   7.942 -0.8665  0.7122 -0.6205
16389WAT     H267362   6.467   7.940   7.949  1.4048  2.9393 -3.1068
16389WAT    EPW67363   6.544   7.904   7.971  0.0069  1.0245 -0.8037
16390WAT      O67364   4.419  10.132   6.792 -0.0551  0.1441  0.0825
16390WAT     H167365   4.412  10.199   6.860 -0.2025  2.2471 -1.8816
16390WAT     H267366   4.330  10.100   6.780 -0.3336  0.9770 -0.2044
16390WAT    EPW67367   4.407  10.137   6.799 -0.1111  0.5312 -0.2143
16391WAT      O67368   5.665   9.446   6.261  0.0741  0.2449 -0.0603
16391WAT     H167369   5.759   9.444   6.278  0.2267  2.1688 -0.4446
16391WAT     H267370   5.657   9.480   6.172 -0.9916  0.6652  0.1711
16391WAT    EPW67371   5.676   9.450   6.252 -0.0465  0.5541 -0.0803
16392WAT      O67372   8.694  10.137   4.654  0.1493 -0.0428 -0.9510
16392WAT     H167373   8.752  10.208   4.681  0.0719 -0.7271  1.1931
16392WAT     H267374   8.740  10.057   4.680 -0.5802 -0.7151 -1.6646
16392WAT    EPW67375   8.707  10.136   4.661  0.0424 -0.2217 -0.7622
16393WAT      O67376   6.144   9.996   3.818  0.0672 -0.6634 -0.4550
16393WAT     H167377   6.062  10.035   3.789  0.0843 -0.1558  0.1792
16393WAT     H267378   6.130   9.901   3.809 -0.7739 -0.6019  0.1606
16393WAT    EPW67379   6.131   9.988   3.813 -0.0415 -0.5884 -0.2900
16394WAT      O67380   9.904   0.237   2.250 -0.9952  0.0503  0.1037
16394WAT     H167381   9.877   0.236   2.159  0.5313  0.2258 -0.3895
16394WAT     H267382  10.000   0.242   2.246 -0.9220  0.5300  1.7105
16394WAT    EPW67383   9.913   0.238   2.238 -0.7839  0.1367  0.2507
16395WAT      O67384   5.727   9.846   7.033 -0.7616  0.2941  0.1673
16395WAT     H167385   5.771   9.931   7.029 -0.7864  0.2632 -1.1407
16395WAT     H267386   5.750   9.804   6.951  0.7162 -1.7226  1.5039
16395WAT    EPW67387   5.736   9.852   7.022 -0.5698  0.0234  0.1709
16396WAT      O67388   5.114   9.226   6.211  0.3395  0.0301 -0.4312
16396WAT     H167389   5.136   9.250   6.121  0.3078 -0.3167 -0.5321
16396WAT     H267390   5.099   9.132   6.208 -4.2681  0.5709 -1.0135
16396WAT    EPW67391   5.115   9.217   6.199 -0.2723  0.0558 -0.5212
16397WAT      O67392   7.006   9.598   8.413  0.1838 -0.8048 -0.0372
16397WAT     H167393   6.953   9.538   8.465 -0.8310 -0.1034 -0.2225
16397WAT     H267394   6.991   9.572   8.322 -0.3026 -0.2464 -0.1204
16397WAT    EPW67395   6.997   9.587   8.408 -0.0145 -0.6390 -0.0725
16398WAT      O67396   7.851   7.545   5.043 -0.2784  0.0483 -0.5483
16398WAT     H167397   7.769   7.579   5.006  0.4890  2.8280  0.0339
16398WAT     H267398   7.856   7.585   5.130  1.1471 -1.0087 -0.1108
16398WAT    EPW67399   7.841   7.555   5.050  0.0110  0.2759 -0.4139
16399WAT      O67400   8.643   7.028   1.801 -0.8893  0.1343  0.1037
16399WAT     H167401   8.737   7.041   1.788 -0.9377 -0.4980 -1.0142
16399WAT     H267402   8.633   6.934   1.812 -1.5771 -0.0779 -1.8251
16399WAT    EPW67403   8.654   7.017   1.801 -0.9866  0.0229 -0.2982
16400WAT      O67404   5.346   3.696   1.216  0.1733  0.7772 -0.2877
16400WAT     H167405   5.419   3.750   1.247  0.7020  1.3326 -2.4050
16400WAT     H267406   5.381   3.646   1.143 -1.4940  0.8255 -1.1728
16400WAT    EPW67407   5.360   3.696   1.211  0.0231  0.8568 -0.6837
16401WAT      O67408  10.719   8.057   5.186 -0.3219 -0.1317  0.4815
16401WAT     H167409  10.702   8.023   5.274  0.2571  0.1351  0.7006
16401WAT     H267410  10.694   8.149   5.191 -0.6793 -0.2144  0.2485
16401WAT    EPW67411  10.713   8.065   5.198 -0.2928 -0.1073  0.4795
16402WAT      O67412   9.054   9.673   7.454  0.2846 -0.1894  0.1067
16402WAT     H167413   9.057   9.653   7.361  0.0371  1.9283 -0.4086
16402WAT     H267414   9.051   9.769   7.458  1.3504 -0.1788  2.3105
16402WAT    EPW67415   9.054   9.683   7.442  0.3929  0.0911  0.3295
16403WAT      O67416   5.401   8.634   6.539  0.0478 -0.3146  0.0485
16403WAT     H167417   5.430   8.543   6.533  0.2482 -0.2410 -0.0795
16403WAT     H267418   5.306   8.627   6.547  0.1017 -0.5538  0.5251
16403WAT    EPW67419   5.392   8.621   6.539  0.0811 -0.3366  0.0947
16404WAT      O67420   9.586   9.618   5.364 -0.0253  0.1143 -0.1449
16404WAT     H167421   9.613   9.596   5.275 -0.4120  0.1646 -0.2806
16404WAT     H267422   9.491   9.630   5.357 -0.1965 -0.8461  0.4766
16404WAT    EPW67423   9.577   9.617   5.351 -0.0987 -0.0057 -0.0808
16405WAT      O67424   8.423   9.868   4.815 -0.0449 -0.4033  0.4181
16405WAT     H167425   8.509   9.825   4.821 -0.0178 -0.5001 -0.5130
16405WAT     H267426   8.362   9.796   4.799 -0.6219 -0.5970  3.0131
16405WAT    EPW67427   8.427   9.853   4.814 -0.1173 -0.4420  0.6375
16406WAT      O67428   6.871   9.777   7.623  0.7734 -0.1620  0.1898
16406WAT     H167429   6.949   9.768   7.569  1.8424 -0.3833  1.6890
16406WAT     H267430   6.880   9.864   7.663 -0.2894  0.2405 -0.3981
16406WAT    EPW67431   6.882   9.788   7.621  0.7741 -0.1383  0.3099
16407WAT      O67432   3.979   1.366   5.976 -0.5335 -0.1431 -0.0853
16407WAT     H167433   3.991   1.345   6.069  0.1609 -2.3960 -0.6117
16407WAT     H267434   4.018   1.452   5.965 -0.9504  0.3217  1.7630
16407WAT    EPW67435   3.985   1.374   5.987 -0.4969 -0.3789  0.0892
16408WAT      O67436   0.004   1.937   6.482  0.1163  0.1889  0.8982
16408WAT     H167437   0.096   1.960   6.493 -0.1058  0.8753  1.4624
16408WAT     H267438  -0.007   1.924   6.388  0.5133  1.3827  0.6737
16408WAT    EPW67439   0.015   1.939   6.471  0.1394  0.4369  0.9429
16409WAT      O67440  10.818   5.061   5.089  0.0642 -0.0449  0.0700
16409WAT     H167441  10.879   4.988   5.079 -0.0124 -0.2486  1.0596
16409WAT     H267442  10.862   5.134   5.044  2.0350  0.3714  2.4293
16409WAT    EPW67443  10.832   5.061   5.082  0.3142 -0.0169  0.5119
16410WAT      O67444   5.763   9.567   1.737  0.1190  0.5680 -0.1971
16410WAT     H167445   5.690   9.505   1.729  0.2514  0.5781 -1.6761
16410WAT     H267446   5.829   9.520   1.787  0.0737 -0.3717 -0.9885
16410WAT    EPW67447   5.762   9.553   1.743  0.1304  0.4454 -0.4966
16411WAT      O67448   9.471   9.751   6.781  0.9566 -0.2249  0.3454
16411WAT     H167449   9.502   9.781   6.695 -1.9530 -1.1511 -1.1648
16411WAT     H267450   9.385   9.791   6.790  1.0062 -0.5370  2.6950
16411WAT    EPW67451   9.464   9.760   6.771  0.5789 -0.3886  0.4563
16412WAT      O67452   9.913   9.352   5.765 -0.4651 -0.3016 -0.3571
16412WAT     H167453   9.935   9.293   5.693 -0.1790 -0.2450 -0.3174
16412WAT     H267454   9.989   9.410   5.773  0.6270 -1.8332  1.5589
16412WAT    EPW67455   9.926   9.352   5.757 -0.2832 -0.4964 -0.0992
16413WAT      O67456   4.060   0.371   5.724  0.3700 -0.3858 -0.2341
16413WAT     H167457   4.094   0.310   5.658 -0.0706 -0.0809 -0.7495
16413WAT     H267458   4.135   0.426   5.747  0.3666 -0.0562 -0.9815
16413WAT    EPW67459   4.075   0.370   5.719  0.3114 -0.3021 -0.4005
16414WAT      O67460   9.761   8.347   5.009 -0.1292 -0.0746 -0.0456
16414WAT     H167461   9.679   8.387   5.039 -0.6838 -0.2399 -1.2792
16414WAT     H267462   9.736   8.292   4.935  0.8153 -1.7359  0.8089
16414WAT    EPW67463   9.747   8.345   5.003 -0.0777 -0.3152 -0.0956
16415WAT      O67464  10.057   8.374   1.318  0.2515 -0.6488  0.4924
16415WAT     H167465  10.045   8.286   1.355  0.4580 -0.5240  0.8685
16415WAT     H267466   9.986   8.425   1.357  0.8334 -0.3683  1.2078
16415WAT    EPW67467  10.046   8.369   1.328  0.3557 -0.5956  0.6364
16416WAT      O67468   7.426   6.526   6.336  0.0287  0.6674  1.2495
16416WAT     H167469   7.513   6.497   6.309 -1.3175 -1.2995 -1.3678
16416WAT     H267470   7.420   6.616   6.305  0.1984 -0.0704 -1.0849
16416WAT    EPW67471   7.437   6.534   6.328 -0.1266  0.3107  0.5963
16417WAT      O67472   3.178   1.501   6.333  0.0191  0.4409  0.1376
16417WAT     H167473   3.084   1.495   6.314 -0.1169  2.0179  0.1957
16417WAT     H267474   3.209   1.411   6.327 -1.3236  0.0091 -0.8217
16417WAT    EPW67475   3.169   1.488   6.329 -0.1760  0.5920  0.0186
16418WAT      O67476   9.389   8.684   2.899 -0.4853 -0.6619 -0.2212
16418WAT     H167477   9.457   8.633   2.855  1.4274  1.7059 -0.1537
16418WAT     H267478   9.421   8.773   2.900 -1.9112 -0.0097  3.1074
16418WAT    EPW67479   9.402   8.689   2.893 -0.4215 -0.2632  0.2267
16419WAT      O67480  10.188   1.061   7.609  0.0559 -0.4427  0.4603
16419WAT     H167481  10.242   1.046   7.531  0.7619 -2.4765  1.2861
16419WAT     H267482  10.110   1.105   7.575  0.1000 -1.7390 -1.5047
16419WAT    EPW67483  10.185   1.065   7.594  0.1545 -0.8820  0.3099
16420WAT      O67484  10.328   8.841   6.216  0.2564 -0.5179 -0.5482
16420WAT     H167485  10.258   8.892   6.175 -2.2350 -3.0661  0.2044
16420WAT     H267486  10.333   8.760   6.165 -0.0390 -1.9850  1.6086
16420WAT    EPW67487  10.320   8.837   6.204 -0.1116 -1.0476 -0.1643
16421WAT      O67488   1.939   0.113   5.486  0.0129 -0.0108  0.1472
16421WAT     H167489   1.942   0.075   5.398 -0.4529  0.2186  0.0257
16421WAT     H267490   2.030   0.130   5.508  0.0473  1.3605 -0.9356
16421WAT    EPW67491   1.951   0.110   5.477 -0.0440  0.2003 -0.0117
16422WAT      O67492   4.986  10.356   7.109 -0.0079  0.2603  0.5115
16422WAT     H167493   4.921  10.344   7.040  1.2096 -0.2119 -0.6050
16422WAT     H267494   5.008  10.267   7.136  1.0172  0.3459  0.0213
16422WAT    EPW67495   4.981  10.343   7.103  0.2880  0.2093  0.2997
16423WAT      O67496   2.993   0.253   5.781 -1.1745  0.2482 -0.1826
16423WAT     H167497   2.915   0.201   5.762 -1.2653  0.1826  0.3594
16423WAT     H267498   2.979   0.286   5.870 -0.4672  0.0138  0.0227
16423WAT    EPW67499   2.981   0.251   5.790 -1.0931  0.2087 -0.0837
16424WAT      O67500   1.845   1.330   3.719 -0.3808 -0.3784 -0.0481
16424WAT     H167501   1.834   1.236   3.704 -1.3495  0.0486 -2.4709
16424WAT     H267502   1.940   1.343   3.717 -0.1985 -1.3788  1.0225
16424WAT    EPW67503   1.856   1.319   3.716 -0.4845 -0.4540 -0.2265
16425WAT      O67504   8.120   9.452   5.454 -0.3706 -0.4480  0.5090
16425WAT     H167505   8.120   9.524   5.391 -0.7941 -0.7175  0.1913
16425WAT     H267506   8.162   9.379   5.408  1.3288 -0.0164  1.3080
16425WAT    EPW67507   8.126   9.452   5.439 -0.2022 -0.4268  0.5724
16426WAT      O67508   6.442   3.300   1.065 -0.4234  0.0217  0.0073
16426WAT     H167509   6.429   3.386   1.024 -0.7805 -0.0207  0.0219
16426WAT     H267510   6.380   3.243   1.019 -0.8854 -0.0084  0.6483
16426WAT    EPW67511   6.432   3.304   1.054 -0.5312  0.0122  0.0936
16427WAT      O67512   7.678   6.722   7.573  0.3728  0.9730 -0.2208
16427WAT     H167513   7.585   6.731   7.554  0.1104 -1.0567 -0.0723
16427WAT     H267514   7.685   6.739   7.667 -0.2549 -1.1102  0.2561
16427WAT    EPW67515   7.667   6.726   7.583  0.2553  0.4306 -0.1380
16428WAT      O67516  10.454   9.268   6.977 -0.2618  0.3729  0.6195
16428WAT     H167517  10.384   9.334   6.973 -0.7481 -0.0334  1.7918
16428WAT     H267518  10.487   9.274   7.067  1.4485  0.7671  0.0050
16428WAT    EPW67519  10.449   9.278   6.988 -0.1006  0.3715  0.6933
16429WAT      O67520   5.785   7.455   4.271 -0.1666  0.2407  0.2491
16429WAT     H167521   5.868   7.409   4.258 -0.2425  0.1075  0.2342
16429WAT     H267522   5.811   7.544   4.294 -0.0196  0.2478  0.0623
16429WAT    EPW67523   5.800   7.461   4.272 -0.1574  0.2244  0.2227
16430WAT      O67524   9.135   9.606   3.063 -0.1494  0.5086 -0.3438
16430WAT     H167525   9.167   9.581   3.150 -1.2948  0.2219  0.0109
16430WAT     H267526   9.145   9.526   3.010 -2.3702 -0.3298  0.3837
16430WAT    EPW67527   9.141   9.592   3.067 -0.5932  0.3605 -0.2011
16431WAT      O67528   6.914   2.803   2.958 -0.1942  0.1018 -0.1068
16431WAT     H167529   6.836   2.857   2.943 -2.4650 -2.1493  2.3835
16431WAT     H267530   6.913   2.786   3.053  1.5196 -2.5878 -0.4677
16431WAT    EPW67531   6.903   2.808   2.969 -0.2677 -0.5498  0.1740
16432WAT      O67532   5.411   9.608   5.771  0.1104 -0.0844 -0.3552
16432WAT     H167533   5.352   9.655   5.712 -0.0651 -1.0527 -0.9535
16432WAT     H267534   5.465   9.554   5.714  1.8431  1.0301  0.1409
16432WAT    EPW67535   5.410   9.607   5.756  0.3157 -0.0653 -0.3688
16433WAT      O67536   3.547   8.406   8.576 -0.0652  0.2268  0.8446
16433WAT     H167537   3.594   8.363   8.647 -1.2847  0.1739  1.6592
16433WAT     H267538   3.559   8.349   8.500  7.3155  3.4973 -1.3510
16433WAT    EPW67539   3.555   8.393   8.575  0.7474  0.6514  0.6618
16434WAT      O67540   9.009   7.865   8.495 -0.5233  0.5839 -0.3745
16434WAT     H167541   8.913   7.860   8.493 -0.5673  1.2870 -0.2325
16434WAT     H267542   9.028   7.951   8.531  0.1711 -0.1187  0.9903
16434WAT    EPW67543   8.999   7.876   8.499 -0.4373  0.5839 -0.1755
16435WAT      O67544   9.705   7.852   8.591  0.0312  0.1326 -0.0827
16435WAT     H167545   9.735   7.942   8.602 -2.2195  0.7083  2.0763
16435WAT     H267546   9.614   7.852   8.620 -0.3937 -2.6269 -1.0655
16435WAT    EPW67547   9.697   7.864   8.596 -0.3214 -0.1550  0.0725
16436WAT      O67548   1.109   9.333   7.051  0.2871 -0.3043 -0.6222
16436WAT     H167549   1.027   9.360   7.093  1.4776  1.0372  0.9764
16436WAT     H267550   1.156   9.415   7.034  1.8300 -1.0858 -0.3338
16436WAT    EPW67551   1.105   9.347   7.054  0.6475 -0.2303 -0.3734
16437WAT      O67552   5.856   7.805   4.338 -0.4040 -0.0383 -0.2361
16437WAT     H167553   5.767   7.839   4.344  0.0382  1.1030  0.3102
16437WAT     H267554   5.874   7.800   4.244 -0.3238  1.8308 -0.3699
16437WAT    EPW67555   5.847   7.809   4.326 -0.3350  0.3586 -0.1814
16438WAT      O67556   8.183   8.343   8.443  0.0254 -0.6694 -0.0585
16438WAT     H167557   8.187   8.252   8.413 -2.0049 -0.6731 -0.4374
16438WAT     H267558   8.107   8.380   8.398  0.9566  1.3154 -0.1188
16438WAT    EPW67559   8.174   8.336   8.433 -0.1197 -0.4082 -0.1168
16439WAT      O67560   6.286   9.002   6.563  0.2990 -0.4935 -0.1438
16439WAT     H167561   6.270   9.055   6.641  0.0113  0.4996 -0.8707
16439WAT     H267562   6.286   9.064   6.490  0.0694 -1.4721 -1.0024
16439WAT    EPW67563   6.284   9.017   6.564  0.2310 -0.4916 -0.3531
16440WAT      O67564   6.316   8.857   5.957 -0.1987 -0.3091  0.0028
16440WAT     H167565   6.296   8.766   5.935 -0.2466 -0.3667  0.2773
16440WAT     H267566   6.408   8.868   5.933  0.2470 -0.8650  1.3407
16440WAT    EPW67567   6.325   8.846   5.951 -0.1464 -0.3896  0.2153
16441WAT      O67568   8.056   9.344   2.782  0.4696  0.4162  0.0191
16441WAT     H167569   8.058   9.394   2.700  1.6066  0.2447 -0.0716
16441WAT     H267570   7.980   9.286   2.772  1.2296 -0.4124 -1.4272
16441WAT    EPW67571   8.046   9.343   2.770  0.7195  0.2847 -0.1836
16442WAT      O67572  10.706   9.242   3.510 -0.2873  0.1173  0.3760
16442WAT     H167573  10.708   9.156   3.553  1.8425 -0.0885 -0.0646
16442WAT     H267574  10.697   9.304   3.583 -0.8702 -0.4035  0.7666
16442WAT    EPW67575  10.705   9.239   3.526 -0.0834  0.0215  0.3693
16443WAT      O67576   3.019   1.946   3.037 -0.2239 -0.1512 -0.9799
16443WAT     H167577   3.098   1.906   3.072 -0.0864  0.1774 -0.9038
16443WAT     H267578   2.955   1.875   3.032 -0.6051 -0.0204  0.9578
16443WAT    EPW67579   3.021   1.932   3.041 -0.2559 -0.0907 -0.7143
16444WAT      O67580   9.108   8.322   2.685  0.4594 -0.0673  0.2208
16444WAT     H167581   9.159   8.243   2.666  3.2711  1.0346  2.3939
16444WAT     H267582   9.123   8.379   2.609  0.1009 -0.8150 -0.4273
16444WAT    EPW67583   9.117   8.319   2.672  0.7825 -0.0205  0.4220
16445WAT      O67584   0.636   1.237   8.876 -0.0691 -0.0212 -0.5574
16445WAT     H167585   0.685   1.319   8.865 -1.2894  0.5626 -1.8528
16445WAT     H267586   0.567   1.259   8.939  2.3539 -1.3638  2.8874
16445WAT    EPW67587   0.633   1.251   8.883  0.0895 -0.1214 -0.2732
16446WAT      O67588   9.499   8.909   2.474  0.2847  0.4956  0.4619
16446WAT     H167589   9.510   8.993   2.428  1.2654 -1.1796 -2.6696
16446WAT     H267590   9.431   8.863   2.424  1.3083 -1.4215  0.7310
16446WAT    EPW67591   9.491   8.914   2.461  0.5493  0.0219  0.0843
16447WAT      O67592   9.986   3.206   7.203 -0.2108 -0.5548 -0.2915
16447WAT     H167593  10.079   3.181   7.196  0.0703  0.1646  0.5877
16447WAT     H267594   9.989   3.301   7.217 -0.9759 -0.7849  1.6333
16447WAT    EPW67595   9.999   3.215   7.204 -0.2742 -0.4903  0.0782
16448WAT      O67596   4.174   8.823   5.891 -0.6979  0.5495  0.4249
16448WAT     H167597   4.191   8.885   5.962 -0.8142 -0.1839  1.1220
16448WAT     H267598   4.252   8.768   5.888 -0.0601  1.4969 -1.0331
16448WAT    EPW67599   4.186   8.824   5.900 -0.6292  0.5779  0.3245
16449WAT      O67600   3.720   9.089   7.415 -0.7772 -0.1024  0.7898
16449WAT     H167601   3.643   9.073   7.470 -2.1327 -0.6995 -1.1787
16449WAT     H267602   3.703   9.174   7.374  0.2593  0.3809  1.3397
16449WAT    EPW67603   3.707   9.098   7.417 -0.8193 -0.1178  0.6027
16450WAT      O67604   7.926   9.719   8.858  0.6938 -0.1639  0.0088
16450WAT     H167605   7.962   9.763   8.781 -0.2225  1.0917  0.2755
16450WAT     H267606   7.894   9.635   8.825  2.9556 -0.9254 -0.4081
16450WAT    EPW67607   7.927   9.714   8.844  0.8714 -0.0982 -0.0114
16451WAT      O67608   3.890   5.801   0.281  0.2230 -0.0687 -0.6381
16451WAT     H167609   3.879   5.759   0.366  0.7652 -1.7551 -1.3542
16451WAT     H267610   3.802   5.830   0.256  0.0631  0.4612  0.4690
16451WAT    EPW67611   3.877   5.800   0.289  0.2735 -0.2213 -0.5866
16452WAT      O67612   9.506  10.244   5.072  0.3196  0.5394 -0.7043
16452WAT     H167613   9.427  10.212   5.029  1.5644 -1.0911 -1.9480
16452WAT     H267614   9.577  10.195   5.030  1.8955  1.1065  1.1562
16452WAT    EPW67615   9.505  10.233   5.061  0.6914  0.3982 -0.6227
16453WAT      O67616   8.973   9.202   6.590 -0.1355 -0.0988 -0.2218
16453WAT     H167617   9.068   9.211   6.583  0.3849 -2.6560  1.9476
16453WAT     H267618   8.939   9.241   6.509  2.7427  0.7194 -1.1483
16453WAT    EPW67619   8.981   9.209   6.578  0.3123 -0.3281 -0.0577
16454WAT      O67620   4.742   2.970   0.646 -0.5190  0.5595 -0.3650
16454WAT     H167621   4.816   3.012   0.602 -0.8105  0.1799 -1.2492
16454WAT     H267622   4.761   2.980   0.739  0.2039  1.2416 -0.5663
16454WAT    EPW67623   4.754   2.977   0.652 -0.4623  0.5994 -0.5081
16455WAT      O67624  10.835   0.243   4.611  0.3446 -0.0558 -0.3009
16455WAT     H167625  10.919   0.284   4.633 -0.9778  2.5153  0.2813
16455WAT     H267626  10.809   0.285   4.529 -0.0294 -1.4490 -0.9239
16455WAT    EPW67627  10.843   0.254   4.603  0.1206  0.0995 -0.3064
16456WAT      O67628   8.103   6.138   7.062  0.2218  0.4717  0.3229
16456WAT     H167629   8.086   6.051   7.098 -2.1868  0.4374 -0.7291
16456WAT     H267630   8.025   6.188   7.082  1.0835  2.0610 -0.1279
16456WAT    EPW67631   8.091   6.133   7.069  0.0176  0.6769  0.1247
16457WAT      O67632   7.808   9.536   8.253 -0.8174 -0.3061 -1.0100
16457WAT     H167633   7.781   9.596   8.183 -1.3631 -1.3727 -1.7363
16457WAT     H267634   7.892   9.502   8.224 -0.5954 -0.0359 -0.6860
16457WAT    EPW67635   7.815   9.539   8.240 -0.8602 -0.4110 -1.0633
16458WAT      O67636   2.746   0.302   4.958  0.2856  0.4418 -0.2563
16458WAT     H167637   2.773   0.219   4.920 -0.0592  0.1953  0.0285
16458WAT     H267638   2.682   0.278   5.025  0.3291  0.9221 -0.0385
16458WAT    EPW67639   2.741   0.288   4.962  0.2458  0.4726 -0.1898
16459WAT      O67640   3.952   4.440   0.739 -0.6887 -0.0158 -0.3921
16459WAT     H167641   3.954   4.461   0.646  0.9867 -1.4882 -0.7521
16459WAT     H267642   3.866   4.469   0.769 -0.6892  1.8706 -2.0429
16459WAT    EPW67643   3.941   4.446   0.730 -0.4679  0.0391 -0.6573
16460WAT      O67644   7.952   8.504   5.116 -0.4648 -0.2758  0.1944
16460WAT     H167645   7.874   8.502   5.059  1.0413  0.3364 -2.0165
16460WAT     H267646   8.009   8.437   5.079  0.5939  0.1848  0.9754
16460WAT    EPW67647   7.949   8.495   5.104 -0.1264 -0.1349  0.0060
16461WAT      O67648  10.962   9.636   7.531 -1.0214  0.1464 -0.2243
16461WAT     H167649  11.019   9.700   7.488 -3.1075  1.5928 -1.0164
16461WAT     H267650  10.930   9.682   7.609  0.7376 -1.5304  1.5827
16461WAT    EPW67651  10.965   9.651   7.536 -1.0653  0.1163 -0.0904
16462WAT      O67652   9.427   8.208   3.457 -0.0137  0.3617 -0.1622
16462WAT     H167653   9.340   8.211   3.418 -0.4524  1.2535  0.8128
16462WAT     H267654   9.427   8.128   3.509 -0.1650  0.2355 -0.3563
16462WAT    EPW67655   9.416   8.198   3.459 -0.0916  0.4621 -0.0592
16463WAT      O67656   6.951   9.369   5.898 -0.9570  0.0580  0.2083
16463WAT     H167657   7.025   9.427   5.915 -1.2742  0.5679 -0.1281
16463WAT     H267658   6.927   9.389   5.807 -2.3183  0.8155  0.7191
16463WAT    EPW67659   6.958   9.379   5.888 -1.1785  0.2246  0.2315
16464WAT      O67660   6.562   8.365   5.321  0.4012  0.1699  0.4212
16464WAT     H167661   6.578   8.276   5.291  3.1587  1.7529 -3.9132
16464WAT     H267662   6.490   8.396   5.266 -2.2727  0.0974  3.5958
16464WAT    EPW67663   6.555   8.358   5.309  0.4122  0.3691  0.2682
16465WAT      O67664  10.358   7.865   5.528 -0.1500 -0.0074 -0.2553
16465WAT     H167665  10.433   7.859   5.588 -2.0021 -2.1362  2.0535
16465WAT     H267666  10.315   7.947   5.552 -1.3100 -1.2040  2.0123
16465WAT    EPW67667  10.362   7.875   5.539 -0.5469 -0.4458  0.3481
16466WAT      O67668   8.401   8.773   7.422 -0.4268  0.3755 -1.0995
16466WAT     H167669   8.361   8.696   7.461 -1.3924  0.8997 -1.0250
16466WAT     H267670   8.470   8.738   7.364  0.5226 -0.4380  0.4532
16466WAT    EPW67671   8.405   8.759   7.419 -0.4282  0.3376 -0.8850
16467WAT      O67672   7.803   8.104   5.458 -0.1798  0.5060  0.2514
16467WAT     H167673   7.803   8.199   5.454 -0.7783  0.5031  0.1147
16467WAT     H267674   7.711   8.079   5.451  0.1017 -0.1616 -2.0501
16467WAT    EPW67675   7.791   8.113   5.456 -0.2220  0.4172 -0.0699
16468WAT      O67676   0.489   1.822   4.719  0.5677  0.0521 -0.1357
16468WAT     H167677   0.584   1.832   4.730  0.7385 -1.0045 -0.5312
16468WAT     H267678   0.479   1.737   4.677 -0.5015  0.5928 -1.0138
16468WAT    EPW67679   0.500   1.812   4.715  0.4492 -0.0160 -0.3037
16469WAT      O67680   8.431   8.573   6.030  0.3382  0.6707  0.0941
16469WAT     H167681   8.437   8.646   5.967  3.5642 -0.5347 -1.1924
16469WAT     H267682   8.520   8.540   6.037 -0.4271 -1.1198  3.2039
16469WAT    EPW67683   8.444   8.578   6.022  0.6623  0.2756  0.3347
16470WAT      O67684   7.933  10.077   8.838 -0.4762 -0.1763 -0.6990
16470WAT     H167685   7.904  10.081   8.930  3.5631  1.4454  0.7472
16470WAT     H267686   7.907  10.162   8.802 -1.2565 -0.4442 -0.7802
16470WAT    EPW67687   7.926  10.089   8.846 -0.0463  0.0024 -0.5188
16471WAT      O67688   7.722   9.127   7.546  0.1259  0.0623  0.4294
16471WAT     H167689   7.650   9.154   7.490 -0.4690  1.9238  1.9723
16471WAT     H267690   7.760   9.209   7.577  3.6390 -0.7870 -1.1226
16471WAT    EPW67691   7.718   9.141   7.543  0.5107  0.1960  0.4282
16472WAT      O67692   8.070   7.185   7.474  0.2739 -0.5833  0.1087
16472WAT     H167693   8.143   7.123   7.470  0.0604 -0.8694  0.5778
16472WAT     H267694   8.108   7.269   7.446  1.4001 -0.1630  2.6196
16472WAT    EPW67695   8.085   7.188   7.470  0.3948 -0.5658  0.5021
16473WAT      O67696   8.300   8.349   4.598  0.0976  0.0500 -0.1385
16473WAT     H167697   8.247   8.400   4.537  1.1238 -0.0641 -1.1378
16473WAT     H267698   8.379   8.401   4.611  0.1019 -0.1488  0.7537
16473WAT    EPW67699   8.303   8.362   4.592  0.2337  0.0081 -0.1531
16474WAT      O67700   0.618   0.329   8.543  0.1876  0.1339 -0.2462
16474WAT     H167701   0.523   0.333   8.531  0.1328 -1.9285 -1.0725
16474WAT     H267702   0.645   0.419   8.561 -1.7224  1.0267 -1.5424
16474WAT    EPW67703   0.609   0.341   8.544 -0.0716 -0.0204 -0.5260
16475WAT      O67704   8.543   5.631   5.146 -0.4890 -0.6436  0.4124
16475WAT     H167705   8.450   5.654   5.151 -0.4613  0.6352 -2.9442
16475WAT     H267706   8.544   5.536   5.152 -1.9583 -0.6543  0.9044
16475WAT    EPW67707   8.531   5.622   5.148 -0.6790 -0.4764  0.0348
16476WAT      O67708   1.492   1.072   4.598  0.5661  0.4348  0.2675
16476WAT     H167709   1.421   1.133   4.620  0.4421  0.3586  0.0813
16476WAT     H267710   1.525   1.043   4.683  1.9884  2.3176  0.4152
16476WAT    EPW67711   1.487   1.076   4.612  0.7374  0.6731  0.2623
16477WAT      O67712   8.819   8.531   8.397  0.2265  0.1791 -0.1204
16477WAT     H167713   8.843   8.597   8.462 -0.5347 -1.3172  1.8001
16477WAT     H267714   8.739   8.491   8.433 -0.0883 -0.8847 -1.8845
16477WAT    EPW67715   8.811   8.534   8.410  0.0844 -0.1583 -0.0992
16478WAT      O67716   6.581  10.222   5.966 -0.4340 -0.0552  0.1634
16478WAT     H167717   6.664  10.187   5.934 -0.5587 -0.3824  0.2024
16478WAT     H267718   6.605  10.308   6.002 -0.0840 -0.2181  0.3236
16478WAT    EPW67719   6.595  10.229   5.967 -0.4041 -0.1202  0.1898
16479WAT      O67720   7.419   8.998   4.818  0.0664 -0.7387  0.1794
16479WAT     H167721   7.477   8.962   4.885  0.6174  0.0817  0.1583
16479WAT     H267722   7.388   9.081   4.854  2.6617  1.2180 -1.6647
16479WAT    EPW67723   7.423   9.004   4.831  0.4816 -0.3724 -0.0668
16480WAT      O67724   0.634   7.504   5.965 -0.0154  1.1601  0.7354
16480WAT     H167725   0.652   7.580   6.019  0.6379  1.3097  0.3238
16480WAT     H267726   0.647   7.429   6.023  4.6609  1.0773 -0.0633
16480WAT    EPW67727   0.638   7.504   5.980  0.6875  1.1687  0.5758
16481WAT      O67728   8.824   7.499   2.887  0.9923 -0.2477 -0.5893
16481WAT     H167729   8.902   7.444   2.885  0.9233 -0.3958  0.5099
16481WAT     H267730   8.843   7.566   2.952 -0.1319 -0.8111  0.3499
16481WAT    EPW67731   8.837   7.501   2.895  0.8354 -0.3414 -0.3204
16482WAT      O67732   8.825   6.847   7.223 -0.6698  0.1559 -0.3691
16482WAT     H167733   8.792   6.776   7.278  0.1678  0.1944  0.2140
16482WAT     H267734   8.748   6.902   7.206 -1.3798 -1.0161 -1.0438
16482WAT    EPW67735   8.810   6.845   7.228 -0.6528  0.0064 -0.3812
16483WAT      O67736   1.468   8.549   2.770 -0.0679 -0.9701  0.0750
16483WAT     H167737   1.412   8.474   2.750 -2.3341  1.3238 -3.4327
16483WAT     H267738   1.542   8.541   2.711 -0.9519  0.0519 -1.2421
16483WAT    EPW67739   1.470   8.538   2.760 -0.4833 -0.5331 -0.5615
16484WAT      O67740   5.051   8.075   6.022  0.4420  0.1949  0.3827
16484WAT     H167741   5.028   7.996   6.070  2.7533 -0.1689  1.0071
16484WAT     H267742   5.052   8.144   6.087  1.0621  0.2043  0.3685
16484WAT    EPW67743   5.048   8.073   6.037  0.8287  0.1483  0.4632
16485WAT      O67744   2.284   1.233   5.114 -0.7286  0.0213 -0.3164
16485WAT     H167745   2.279   1.141   5.139 -0.5822  0.4780  1.4685
16485WAT     H267746   2.362   1.266   5.158 -2.5412  1.7615  1.8348
16485WAT    EPW67747   2.293   1.225   5.123 -0.9484  0.3111  0.2029
16486WAT      O67748   1.567   0.157   5.193 -0.5420 -0.4739 -0.3603
16486WAT     H167749   1.553   0.072   5.152 -0.6461 -1.0205  0.7954
16486WAT     H267750   1.515   0.155   5.273  0.2358  0.2958  0.1827
16486WAT    EPW67751   1.558   0.146   5.198 -0.4531 -0.4445 -0.1361
16487WAT      O67752   7.977   8.113   6.790 -0.1437  0.9100 -0.2950
16487WAT     H167753   8.053   8.056   6.782 -1.3022 -0.6516 -0.6170
16487WAT     H267754   7.909   8.071   6.737 -2.1940  0.5628  2.4288
16487WAT    EPW67755   7.978   8.100   6.782 -0.5670  0.6585  0.0217
16488WAT      O67756   6.943   7.987   5.847  0.5680 -0.3065  0.4982
16488WAT     H167757   6.943   7.893   5.832  1.0376  0.0086 -2.0807
16488WAT     H267758   6.900   8.023   5.769 -0.3233  1.5873  1.7893
16488WAT    EPW67759   6.937   7.980   5.834  0.5121 -0.0150  0.3283
16489WAT      O67760   8.533   8.563   2.999 -0.1380 -0.0567 -0.1985
16489WAT     H167761   8.511   8.501   3.067 -1.3912  3.0178  2.4323
16489WAT     H267762   8.615   8.603   3.029 -0.4445  1.0054 -0.7349
16489WAT    EPW67763   8.541   8.560   3.012 -0.3438  0.4892  0.0777
16490WAT      O67764   2.638   4.185   5.750  0.0818  0.2085 -0.0331
16490WAT     H167765   2.671   4.137   5.674  0.2555  0.7511 -0.3051
16490WAT     H267766   2.599   4.117   5.806  0.6347 -0.2901 -0.2438
16490WAT    EPW67767   2.637   4.169   5.747  0.1775  0.2141 -0.0968
16491WAT      O67768   6.698   4.443   0.290 -0.4646 -0.1593 -0.4943
16491WAT     H167769   6.715   4.485   0.374 -1.0461  0.2116 -0.5544
16491WAT     H267770   6.783   4.437   0.248 -0.4333  1.3885 -0.6904
16491WAT    EPW67771   6.711   4.447   0.296 -0.5369  0.0939 -0.5281
16492WAT      O67772   3.227   0.880   0.754 -0.1781 -0.0014  0.2758
16492WAT     H167773   3.185   0.962   0.725  2.0978  0.4866 -2.0321
16492WAT     H267774   3.178   0.811   0.708  0.5961  0.4492 -1.2922
16492WAT    EPW67775   3.215   0.882   0.744  0.2242  0.1223 -0.2354
16493WAT      O67776   0.593   1.734   6.822 -0.1637  0.1129  1.5788
16493WAT     H167777   0.666   1.677   6.795 -0.1580  1.0580 -0.5893
16493WAT     H267778   0.609   1.816   6.777 -2.8526  0.1768  0.5823
16493WAT    EPW67779   0.605   1.737   6.813 -0.5176  0.2460  1.1613
16494WAT      O67780   4.694   9.744   7.813 -0.0422 -0.2695 -0.2288
16494WAT     H167781   4.614   9.775   7.856 -0.3623 -0.9319 -0.3242
16494WAT     H267782   4.759   9.741   7.883 -1.1147 -3.4463  0.8162
16494WAT    EPW67783   4.692   9.748   7.828 -0.2263 -0.7758 -0.1035
16495WAT      O67784   1.670   2.359   2.355 -0.1607  0.4745  0.2616
16495WAT     H167785   1.620   2.325   2.429  0.3962  0.9697  0.8808
16495WAT     H267786   1.760   2.330   2.372 -0.5430 -2.6596 -2.1442
16495WAT    EPW67787   1.675   2.351   2.367 -0.1376  0.1265  0.0260
16496WAT      O67788   9.110   9.849   4.917  0.4209  0.0827 -0.4720
16496WAT     H167789   9.098   9.914   4.847 -1.0874 -1.5486 -1.8210
16496WAT     H267790   9.194   9.872   4.956 -0.1725  2.9820 -0.7036
16496WAT    EPW67791   9.120   9.861   4.913  0.1440  0.2499 -0.6804
16497WAT      O67792   7.726  10.175   7.290  0.6185 -0.4696  0.7250
16497WAT     H167793   7.707  10.089   7.252 -1.5962 -0.7373  2.2771
16497WAT     H267794   7.670  10.236   7.241  1.2693 -0.0846  0.4464
16497WAT    EPW67795   7.716  10.172   7.278  0.4122 -0.4539  0.8929
16498WAT      O67796   3.890   1.821   0.085  1.0927  0.0840  0.2908
16498WAT     H167797   3.834   1.899   0.091  1.5639  0.3228  2.5697
16498WAT     H267798   3.964   1.841   0.142  2.8770 -0.7671 -1.6276
16498WAT    EPW67799   3.892   1.834   0.094  1.3901  0.0033  0.3384
16499WAT      O67800  10.476   0.664   6.814  0.3511  0.7706 -0.5274
16499WAT     H167801  10.408   0.608   6.853  0.1881  0.3891 -1.3480
16499WAT     H267802  10.549   0.604   6.798  0.8013  1.1323  0.1227
16499WAT    EPW67803  10.477   0.649   6.817  0.3891  0.7680 -0.5498
16500WAT      O67804   7.229   9.276   4.245 -0.7934 -0.7301  0.1060
16500WAT     H167805   7.241   9.184   4.270 -1.7683 -1.5899 -2.2817
16500WAT     H267806   7.226   9.274   4.149 -2.0636  1.6381  0.0293
16500WAT    EPW67807   7.230   9.264   4.236 -1.0896 -0.5312 -0.2186
16501WAT      O67808   3.265   0.150   6.525 -0.1297 -0.4237  0.0763
16501WAT     H167809   3.268   0.245   6.535 -0.6429 -0.2192 -1.4832
16501WAT     H267810   3.191   0.122   6.579  1.0051 -0.1730  1.8621
16501WAT    EPW67811   3.255   0.159   6.534 -0.0477 -0.3636  0.1061
16502WAT      O67812   4.179   8.942   6.672  0.4253 -0.0623  0.0338
16502WAT     H167813   4.092   8.980   6.686 -0.7070 -2.1392 -0.8466
16502WAT     H267814   4.192   8.946   6.577  1.4135  0.4429  0.1815
16502WAT    EPW67815   4.169   8.947   6.661  0.4065 -0.2694 -0.0629
16503WAT      O67816   3.245   0.988   8.443  0.5225 -0.2464  0.4669
16503WAT     H167817   3.172   1.019   8.497 -0.1164 -2.4932  1.0160
16503WAT     H267818   3.322   1.028   8.482  0.0062 -1.2075  2.6844
16503WAT    EPW67819   3.245   0.997   8.456  0.3701 -0.6695  0.8321
16504WAT      O67820   9.752   7.404   6.273  0.7264 -0.4613 -0.3714
16504WAT     H167821   9.685   7.384   6.208 -2.0786  0.3099  2.0473
16504WAT     H267822   9.793   7.484   6.241  0.2849 -0.7627 -1.7614
16504WAT    EPW67823   9.748   7.412   6.260  0.2980 -0.3994 -0.2358
16505WAT      O67824   9.785   1.558   7.515 -0.5014 -0.4994 -0.3670
16505WAT     H167825   9.771   1.481   7.460 -0.5004 -0.6022 -0.2236
16505WAT     H267826   9.879   1.576   7.507 -0.5686 -0.2770 -0.7104
16505WAT    EPW67827   9.796   1.550   7.507 -0.5097 -0.4836 -0.3934
16506WAT      O67828   3.508   2.537   3.487 -0.7048 -0.7761  0.1890
16506WAT     H167829   3.415   2.522   3.467 -1.6686  3.0203  1.0167
16506WAT     H267830   3.538   2.596   3.419  0.0178  0.8413  1.8191
16506WAT    EPW67831   3.500   2.543   3.476 -0.7365 -0.0621  0.5131
16507WAT      O67832   8.908   6.898   6.379 -0.1190  0.2072  0.1594
16507WAT     H167833   8.824   6.867   6.346 -1.5296  2.2262  1.5988
16507WAT     H267834   8.909   6.992   6.361  1.0462  0.5440  1.7037
16507WAT    EPW67835   8.897   6.906   6.373 -0.1516  0.5178  0.5529
16508WAT      O67836   7.435   7.986   8.301  0.5985  0.1616 -0.8895
16508WAT     H167837   7.381   8.065   8.308 -0.3380 -0.3056 -2.3562
16508WAT     H267838   7.383   7.927   8.246 -0.6228 -3.0819  3.2665
16508WAT    EPW67839   7.421   7.989   8.295  0.3140 -0.3276 -0.5345
16509WAT      O67840   7.329   9.621   6.312 -0.0046  0.5603 -0.6163
16509WAT     H167841   7.358   9.712   6.309 -1.2771  0.9791 -0.9008
16509WAT     H267842   7.380   9.582   6.382  1.8893  1.0026 -1.6795
16509WAT    EPW67843   7.339   9.628   6.320  0.0772  0.6733 -0.7944
16510WAT      O67844   9.185   5.465   5.291 -0.1466 -0.3490  0.5566
16510WAT     H167845   9.155   5.533   5.352 -0.3860 -0.4511  0.5542
16510WAT     H267846   9.223   5.397   5.348  0.2720 -0.1241  0.5469
16510WAT    EPW67847   9.186   5.465   5.307 -0.1230 -0.3324  0.5553
16511WAT      O67848   8.658   8.943   3.653 -0.0765 -0.3557 -0.5161
16511WAT     H167849   8.731   8.881   3.648  1.0325  0.7798  0.8850
16511WAT     H267850   8.616   8.923   3.737 -0.4085  0.0456 -0.5867
16511WAT    EPW67851   8.662   8.932   3.664  0.0257 -0.1531 -0.3407
16512WAT      O67852   8.835   9.188   7.087 -0.8883  0.4211  0.0648
16512WAT     H167853   8.883   9.253   7.138  2.6792 -0.1400 -2.2591
16512WAT     H267854   8.867   9.103   7.119 -0.7105  0.0061 -1.1352
16512WAT    EPW67855   8.846   9.185   7.098 -0.3943  0.2923 -0.4001
16513WAT      O67856   7.062  10.186   4.001  0.4965  0.5138  0.1195
16513WAT     H167857   7.106  10.124   4.059 -1.1800 -0.7713  0.0963
16513WAT     H267858   6.988  10.137   3.965 -0.2557  2.2048 -0.7584
16513WAT    EPW67859   7.058  10.171   4.004  0.1757  0.5674  0.0007
16514WAT      O67860   0.990   6.609   0.340  0.3624  0.2143  0.0498
16514WAT     H167861   0.942   6.625   0.260  0.1352 -0.6157  0.0069
16514WAT     H267862   0.968   6.519   0.364 -0.7858  0.9233  1.8638
16514WAT    EPW67863   0.981   6.599   0.333  0.1810  0.1981  0.2834
16515WAT      O67864   8.296   6.427   7.176 -0.3412 -0.0502  0.0571
16515WAT     H167865   8.241   6.366   7.225 -0.2845 -0.6682 -0.6286
16515WAT     H267866   8.251   6.438   7.092  0.6922 -0.7985 -0.6286
16515WAT    EPW67867   8.283   6.420   7.171 -0.1974 -0.2306 -0.1237
16516WAT      O67868   9.823  10.264   6.111 -0.1538  0.3017  0.0032
16516WAT     H167869   9.835  10.195   6.177 -2.9204  1.1198  1.5126
16516WAT     H267870   9.821  10.345   6.161 -0.8535  1.0957 -1.2626
16516WAT    EPW67871   9.824  10.266   6.126 -0.6108  0.5140  0.0353
16517WAT      O67872   8.488   9.081   6.643 -0.0823 -0.2034 -0.6730
16517WAT     H167873   8.462   9.085   6.735 -0.3575 -1.6774 -0.6675
16517WAT     H267874   8.487   9.172   6.614  1.6101  0.5063  1.2071
16517WAT    EPW67875   8.485   9.094   6.652  0.1044 -0.3037 -0.4241
16518WAT      O67876   9.582   8.652   8.448  0.1614 -0.3541 -0.0440
16518WAT     H167877   9.516   8.721   8.454  0.0666 -0.0605 -2.9018
16518WAT     H267878   9.534   8.571   8.466 -0.5834  0.0274 -0.2771
16518WAT    EPW67879   9.567   8.650   8.451  0.0505 -0.2646 -0.4511
16519WAT      O67880   7.340   4.919   7.650  0.2240  0.2779 -0.0764
16519WAT     H167881   7.430   4.917   7.682  1.5067 -0.1015 -3.3089
16519WAT     H267882   7.328   5.009   7.620  1.4351 -0.6999 -4.0895
16519WAT    EPW67883   7.350   4.931   7.650  0.5527  0.0989 -1.0321
16520WAT      O67884   6.057   7.276   1.230 -0.0896  0.0059 -0.1357
16520WAT     H167885   6.091   7.364   1.243  0.8064 -0.1877 -1.0469
16520WAT     H267886   6.131   7.218   1.249 -0.3835 -0.5006 -0.5022
16520WAT    EPW67887   6.071   7.280   1.234 -0.0105 -0.0865 -0.3043
16521WAT      O67888   8.238   8.793   3.376  0.3782 -0.1467 -0.1060
16521WAT     H167889   8.235   8.739   3.455  2.6984 -0.2002  0.0157
16521WAT     H267890   8.266   8.879   3.407  0.4840  0.0675 -0.7795
16521WAT    EPW67891   8.241   8.797   3.391  0.6981 -0.1254 -0.1788
16522WAT      O67892   8.104   5.775   5.896 -0.3258 -0.3235  0.3264
16522WAT     H167893   8.107   5.804   5.987 -2.1428  0.4790  0.1771
16522WAT     H267894   8.127   5.682   5.899  2.3847  0.2706  1.2273
16522WAT    EPW67895   8.107   5.767   5.908 -0.2079 -0.1392  0.4258
16523WAT      O67896   7.281   7.555   6.135 -0.3722  0.0568 -0.1296
16523WAT     H167897   7.347   7.547   6.204  0.4572  1.0401 -0.7719
16523WAT     H267898   7.239   7.470   6.132 -1.1062  0.2616  2.2375
16523WAT    EPW67899   7.284   7.543   6.143 -0.3595  0.2136  0.0980
16524WAT      O67900   7.450   8.651   7.082 -0.0894  0.5418 -0.9024
16524WAT     H167901   7.494   8.725   7.040  0.3232  2.0321  1.9416
16524WAT     H267902   7.458   8.579   7.018  2.6785  1.9345 -2.2922
16524WAT    EPW67903   7.457   8.651   7.068  0.3300  0.9217 -0.7107
16525WAT      O67904   8.344   7.473   6.809  0.1406  0.4398 -0.3800
16525WAT     H167905   8.402   7.451   6.882 -1.3051 -1.6268  0.2283
16525WAT     H267906   8.324   7.566   6.822  3.7835  1.4573 -1.0451
16525WAT    EPW67907   8.349   7.483   6.820  0.4301  0.3011 -0.3874
16526WAT      O67908   7.169   8.883   6.413 -0.4644  0.1986  0.5013
16526WAT     H167909   7.133   8.943   6.348 -0.8091 -0.6570 -0.1222
16526WAT     H267910   7.107   8.810   6.415  0.6683 -0.8063  0.1757
16526WAT    EPW67911   7.156   8.881   6.405 -0.3605 -0.0472  0.3760
16527WAT      O67912   4.045   2.602   0.113  0.9505 -0.1448 -0.4720
16527WAT     H167913   4.074   2.692   0.130 -1.0106  0.5061 -0.3408
16527WAT     H267914   4.108   2.547   0.161  2.2415  1.1271 -0.6336
16527WAT    EPW67915   4.057   2.607   0.122  0.8624  0.1088 -0.4760
16528WAT      O67916   0.502   9.563   7.153 -0.5708 -0.5408  0.0724
16528WAT     H167917   0.572   9.621   7.180  0.0139 -1.7981  1.3915
16528WAT     H267918   0.440   9.564   7.226 -0.5280 -1.5635  0.1402
16528WAT    EPW67919   0.503   9.571   7.166 -0.4880 -0.8421  0.2551
16529WAT      O67920  10.852   1.062   3.677  0.0899  0.1088  0.0571
16529WAT     H167921  10.783   1.026   3.733 -0.2759 -1.1428 -1.1473
16529WAT     H267922  10.867   0.995   3.611  2.1824  0.5398  0.0221
16529WAT    EPW67923  10.844   1.049   3.676  0.3171  0.0005 -0.1063
16530WAT      O67924   9.155   1.365   5.786  0.0707  0.0469  0.7009
16530WAT     H167925   9.065   1.398   5.783 -0.1674 -0.5275  1.4578
16530WAT     H267926   9.154   1.287   5.732 -0.0115 -0.2563  1.1384
16530WAT    EPW67927   9.143   1.359   5.778  0.0281 -0.0688  0.8585
16531WAT      O67928   9.660   2.355   6.986  0.2689  0.2783 -0.0441
16531WAT     H167929   9.718   2.334   7.060  0.3123 -0.4314 -0.2684
16531WAT     H267930   9.576   2.377   7.027  0.8203  1.8433  0.3150
16531WAT    EPW67931   9.657   2.355   7.001  0.3471  0.3912 -0.0262
16532WAT      O67932   5.709   9.327   7.099 -1.1561 -0.1232 -0.5776
16532WAT     H167933   5.704   9.261   7.168 -1.8575 -1.4873 -1.9104
16532WAT     H267934   5.628   9.318   7.050 -0.4000  0.3821 -1.9794
16532WAT    EPW67935   5.698   9.317   7.102 -1.1487 -0.2365 -0.9387
16533WAT      O67936   0.159   1.145   7.432  0.1725  0.7672  0.1600
16533WAT     H167937   0.186   1.070   7.484 -0.0154  0.9344  0.5028
16533WAT     H267938   0.232   1.160   7.372  0.2322  0.3453  0.1238
16533WAT    EPW67939   0.172   1.137   7.431  0.1556  0.7337  0.2005
16534WAT      O67940   9.562   7.815   2.951  0.3722  0.6823 -0.1314
16534WAT     H167941   9.655   7.817   2.969  0.1732  0.4581  0.9760
16534WAT     H267942   9.522   7.778   3.030 -0.8307  2.5985  0.2195
16534WAT    EPW67943   9.569   7.810   2.964  0.1874  0.9053  0.0610
16535WAT      O67944   6.705   0.555   6.903 -0.2812  0.0336 -0.6376
16535WAT     H167945   6.663   0.514   6.978 -1.3570  1.4305 -0.4529
16535WAT     H267946   6.795   0.573   6.933 -0.6155  0.3196  0.2204
16535WAT    EPW67947   6.712   0.552   6.917 -0.4671  0.2555 -0.5000
16536WAT      O67948  10.814   0.505   5.964 -0.1840 -0.0539  0.2037
16536WAT     H167949  10.742   0.521   6.025 -0.7532 -1.2707 -0.1227
16536WAT     H267950  10.826   0.410   5.966  3.2727  0.2395  2.3554
16536WAT    EPW67951  10.806   0.495   5.972  0.1974 -0.1757  0.4444
16537WAT      O67952  10.217   9.453   6.533 -0.6108 -0.0561  0.2979
16537WAT     H167953  10.167   9.407   6.600  0.3907 -2.6565 -0.6200
16537WAT     H267954  10.305   9.460   6.570 -0.4727  0.0767 -0.0517
16537WAT    EPW67955  10.222   9.448   6.546 -0.4601 -0.3819  0.1309
16538WAT      O67956   8.326   9.368   5.257  0.0896 -0.1387  0.4759
16538WAT     H167957   8.298   9.402   5.172 -1.7486  0.9875  1.4444
16538WAT     H267958   8.373   9.441   5.297 -0.3607 -0.1280  0.9947
16538WAT    EPW67959   8.328   9.383   5.251 -0.2122  0.0110  0.6721
16539WAT      O67960   7.926   9.414   5.003 -0.1112 -0.3178 -0.4253
16539WAT     H167961   7.891   9.497   4.972  0.5180  0.4881  0.9437
16539WAT     H267962   7.850   9.364   5.031 -0.3860  0.3877  0.1100
16539WAT    EPW67963   7.912   9.418   5.002 -0.0646 -0.1187 -0.1743
16540WAT      O67964   1.433   0.836   3.990  0.5822  0.0595 -0.0239
16540WAT     H167965   1.508   0.781   4.015  1.1738  1.3338  1.1506
16540WAT     H267966   1.471   0.922   3.977 -0.4560  0.3861 -1.0325
16540WAT    EPW67967   1.448   0.840   3.991  0.5233  0.2707 -0.0020
16541WAT      O67968   4.221   7.254   0.953 -0.2302 -0.1311 -0.2110
16541WAT     H167969   4.257   7.296   0.875  0.3368  0.2043  0.2221
16541WAT     H267970   4.160   7.318   0.990  0.1134  0.0414  0.0657
16541WAT    EPW67971   4.218   7.268   0.948 -0.1099 -0.0639 -0.1174
16542WAT      O67972  10.089   0.940   7.207 -0.5115  0.2154  0.7295
16542WAT     H167973  10.000   0.907   7.217  0.1307 -1.6463  0.7073
16542WAT     H267974  10.144   0.862   7.214  1.1282  1.3329  0.8300
16542WAT    EPW67975  10.085   0.926   7.210 -0.2108  0.1173  0.7396
16543WAT      O67976  10.459  10.104   6.472 -0.2156  0.1725 -0.1600
16543WAT     H167977  10.480  10.064   6.388  1.0602 -1.6172  0.9339
16543WAT     H267978  10.535  10.158   6.493  0.2600 -0.7905  0.6383
16543WAT    EPW67979  10.472  10.106   6.464  0.0157 -0.1907  0.0896
16544WAT      O67980   0.523   1.702   3.802 -0.2336  0.5855 -0.3369
16544WAT     H167981   0.565   1.788   3.810 -0.5416  0.9731 -2.3252
16544WAT     H267982   0.448   1.706   3.861 -0.3878  1.7856 -0.5909
16544WAT    EPW67983   0.519   1.714   3.811 -0.2945  0.7949 -0.6326
16545WAT      O67984   8.600   7.001   0.938  0.1245 -1.1606 -0.3794
16545WAT     H167985   8.653   6.934   0.981  0.6845 -0.1253  0.5793
16545WAT     H267986   8.548   7.040   1.008  0.1550 -0.2720 -0.8361
16545WAT    EPW67987   8.600   6.998   0.953  0.2027 -0.9067 -0.3132
16546WAT      O67988   0.839   0.990   1.571 -0.1016  0.4325  0.1544
16546WAT     H167989   0.869   1.018   1.657 -0.6217  2.1582 -0.1862
16546WAT     H267990   0.820   0.897   1.581  1.4494  0.2189  1.4340
16546WAT    EPW67991   0.840   0.982   1.584  0.0344  0.6319  0.2782
16547WAT      O67992   7.463   8.548   7.350  0.0220 -0.1530 -0.7765
16547WAT     H167993   7.545   8.596   7.362  0.6303 -1.1676 -0.8332
16547WAT     H267994   7.439   8.565   7.259  0.9202 -0.9849 -1.1894
16547WAT    EPW67995   7.471   8.557   7.339  0.2208 -0.3967 -0.8385
16548WAT      O67996  10.049   6.904   1.792  0.4569 -0.0961 -0.9008
16548WAT     H167997  10.130   6.857   1.813  1.6297  2.1365 -0.0345
16548WAT     H267998  10.079   6.989   1.761 -1.5737  0.1895 -2.2203
16548WAT    EPW67999  10.064   6.909   1.791  0.3438  0.2360 -0.9605
16549WAT      O68000   0.870   0.020   5.458 -0.0277  0.7141  0.4255
16549WAT     H168001   0.840  -0.007   5.545 -1.5762  0.8702 -0.0319
16549WAT     H268002   0.864   0.116   5.459  1.2739  0.8120  0.5870
16549WAT    EPW68003   0.865   0.029   5.470 -0.0603  0.7476  0.3865
16550WAT      O68004   4.269   2.238   0.214  0.0452  0.2467  0.1951
16550WAT     H168005   4.258   2.207   0.124  2.4259 -0.2320  0.0029
16550WAT     H268006   4.362   2.224   0.233 -0.6869 -1.4241  3.3883
16550WAT    EPW68007   4.280   2.232   0.204  0.2625 -0.0368  0.5910
16551WAT      O68008   4.926   1.918   3.042  0.8604 -0.5662  0.4600
16551WAT     H168009   4.941   1.981   2.973  0.6565 -0.3025  0.6533
16551WAT     H268010   4.852   1.954   3.092 -1.3267 -2.4113 -1.2180
16551WAT    EPW68011   4.918   1.931   3.040  0.5450 -0.7747  0.2642
16552WAT      O68012   7.552   9.690   8.874  0.0377  0.0574 -0.3760
16552WAT     H168013   7.613   9.690   8.800 -2.1157 -0.0389 -2.2428
16552WAT     H268014   7.576   9.768   8.925  2.6923 -0.8333 -0.1168
16552WAT    EPW68015   7.563   9.700   8.871  0.1040 -0.0730 -0.5879
16553WAT      O68016   6.721   7.690   7.968 -0.3557  0.3758 -0.9644
16553WAT     H168017   6.695   7.620   8.028  0.8812 -1.7391 -2.7473
16553WAT     H268018   6.805   7.719   8.001 -1.2413  1.6966  0.2600
16553WAT    EPW68019   6.728   7.684   7.981 -0.3095  0.2711 -1.0381
16554WAT      O68020   7.381   6.035   3.069 -0.3986  0.1917 -0.1798
16554WAT     H168021   7.340   6.111   3.027  2.5238  1.2529 -1.3494
16554WAT     H268022   7.455   6.071   3.117  1.1426 -1.8838 -0.8508
16554WAT    EPW68023   7.385   6.049   3.070  0.1900  0.0579 -0.4224
16555WAT      O68024   8.651   7.999   4.624 -0.1082 -0.9340 -0.2254
16555WAT     H168025   8.696   7.920   4.654 -1.1809 -1.2135  0.7549
16555WAT     H268026   8.558   7.974   4.622 -0.6153  0.6016  1.2295
16555WAT    EPW68027   8.644   7.985   4.628 -0.3166 -0.7687  0.0956
16556WAT      O68028   3.833   5.191   1.674  0.5543 -0.1043  0.5698
16556WAT     H168029   3.808   5.225   1.588 -0.0525 -0.8434  0.4472
16556WAT     H268030   3.785   5.247   1.736  1.3891  0.7586  0.4628
16556WAT    EPW68031   3.823   5.203   1.671  0.5844 -0.0882  0.5395
16557WAT      O68032   2.457   1.276   4.090 -0.1071 -0.9842 -0.5429
16557WAT     H168033   2.539   1.318   4.115 -0.4359 -0.5947 -0.0860
16557WAT     H268034   2.413   1.340   4.033 -0.1276 -1.1567 -0.7213
16557WAT    EPW68035   2.462   1.290   4.086 -0.1531 -0.9556 -0.5062
16558WAT      O68036   6.795   9.820   8.392 -0.8708 -0.0829  0.4670
16558WAT     H168037   6.796   9.781   8.305  0.1296  1.9275 -0.4923
16558WAT     H268038   6.873   9.785   8.435 -0.9654 -0.5172  0.2840
16558WAT    EPW68039   6.806   9.811   8.387 -0.7513  0.1254  0.3161
16559WAT      O68040   5.109   6.288   0.414 -0.3276 -0.4129 -0.4149
16559WAT     H168041   5.177   6.225   0.390 -1.4870 -2.4786  1.3238
16559WAT     H268042   5.128   6.365   0.361  1.1997 -2.1941 -2.6731
16559WAT    EPW68043   5.120   6.290   0.404 -0.2789 -0.9203 -0.4834
16560WAT      O68044   6.472   6.202   5.217 -0.2112 -0.0486  0.3604
16560WAT     H168045   6.418   6.178   5.293  1.5194  2.9294  2.7326
16560WAT     H268046   6.518   6.121   5.196  0.3972 -0.6911  3.5431
16560WAT    EPW68047   6.471   6.188   5.224  0.0970  0.2596  1.0929
16561WAT      O68048   6.438   9.487   8.092 -0.5977  0.1256 -0.1926
16561WAT     H168049   6.512   9.535   8.055 -1.1156  0.2656 -1.0712
16561WAT     H268050   6.393   9.451   8.016 -1.9232  0.7553  0.2671
16561WAT    EPW68051   6.442   9.489   8.077 -0.8409  0.2270 -0.2475
16562WAT      O68052   4.514   9.576   8.046 -0.0349 -0.5317  0.6480
16562WAT     H168053   4.576   9.503   8.056  0.7219  0.2113  1.5548
16562WAT     H268054   4.551   9.646   8.100 -1.7600 -0.1206  1.3462
16562WAT    EPW68055   4.527   9.575   8.054 -0.1628 -0.3791  0.8602
16563WAT      O68056   8.216   8.633   6.522 -0.5978  0.2571  0.2485
16563WAT     H168057   8.255   8.610   6.606  0.6104 -1.3071 -0.6819
16563WAT     H268058   8.233   8.727   6.513  0.2120  0.2259  1.2592
16563WAT    EPW68059   8.223   8.643   6.532 -0.3324  0.0467  0.2592
16564WAT      O68060   6.079   9.404   7.359 -0.5001  0.7402  0.0627
16564WAT     H168061   6.066   9.494   7.389 -0.2174  0.6040  0.6054
16564WAT     H268062   6.075   9.351   7.439  2.0108  0.5442  0.1337
16564WAT    EPW68063   6.077   9.409   7.373 -0.1314  0.6962  0.1433
16565WAT      O68064   4.421   2.450   0.035 -0.2578 -0.6665  0.2462
16565WAT     H168065   4.492   2.414  -0.018  0.3345  0.8574 -0.0497
16565WAT     H268066   4.362   2.490  -0.028  0.9764  2.0909  0.6799
16565WAT    EPW68067   4.423   2.451   0.020 -0.0169 -0.1019  0.2643
16566WAT      O68068   1.984   0.001   7.324 -0.2443  0.1921 -0.3337
16566WAT     H168069   1.936   0.042   7.252  0.0589 -1.3529 -1.4866
16566WAT     H268070   2.011   0.073   7.380 -3.0816  1.2214 -0.1189
16566WAT    EPW68071   1.981   0.016   7.322 -0.5784  0.1245 -0.4575
16567WAT      O68072   9.750   9.658   5.594  0.3372  0.0823  0.0500
16567WAT     H168073   9.775   9.745   5.624  0.4748 -0.4102  1.3851
16567WAT     H268074   9.688   9.675   5.522  2.3013  1.2817 -1.4539
16567WAT    EPW68075   9.745   9.671   5.588  0.6146  0.1755  0.0279
16568WAT      O68076   9.579   8.704   6.392  0.1432  0.8486 -0.0658
16568WAT     H168077   9.617   8.720   6.305  1.1982  1.8473  0.5459
16568WAT     H268078   9.531   8.784   6.412 -1.9227 -0.2001 -0.6006
16568WAT    EPW68079   9.578   8.717   6.383  0.0095  0.8421 -0.0558
16569WAT      O68080  10.472   9.334   8.212 -0.3842  0.2682 -0.3163
16569WAT     H168081  10.425   9.259   8.248  0.9821 -0.2023  0.5547
16569WAT     H268082  10.545   9.348   8.272 -0.6458  2.3670 -0.4159
16569WAT    EPW68083  10.475   9.326   8.224 -0.2384  0.4826 -0.2146
16570WAT      O68084   9.932   9.689   7.445  0.5889 -0.3690  0.0755
16570WAT     H168085   9.889   9.626   7.503 -0.2822 -0.6543 -0.8489
16570WAT     H268086  10.010   9.716   7.493 -0.8097  0.4744  2.0088
16570WAT    EPW68087   9.936   9.684   7.459  0.2894 -0.2956  0.2084
16571WAT      O68088  10.682   0.334   8.305 -0.1188 -0.2635  0.0769
16571WAT     H168089  10.718   0.422   8.315  0.0880 -0.0498 -1.9834
16571WAT     H268090  10.605   0.332   8.362  1.1105  0.4687  1.8485
16571WAT    EPW68091  10.677   0.345   8.313  0.0710 -0.1388  0.0391
16572WAT      O68092   1.099   0.268   6.422  0.0219  0.0611 -0.2122
16572WAT     H168093   1.034   0.281   6.353 -0.5935 -1.2079  0.1091
16572WAT     H268094   1.179   0.307   6.386 -0.8831  1.6637 -0.6066
16572WAT    EPW68095   1.101   0.275   6.408 -0.1787  0.1051 -0.2222
16573WAT      O68096   7.488   7.143   8.653  0.3163  0.3160 -0.2965
16573WAT     H168097   7.423   7.198   8.610  0.6174  0.6898 -0.2816
16573WAT     H268098   7.504   7.072   8.590 -0.6084 -0.1661 -0.0062
16573WAT    EPW68099   7.482   7.141   8.639  0.2339  0.3016 -0.2565
16574WAT      O68100   0.792   0.476   4.253 -0.6753 -0.4526 -0.3802
16574WAT     H168101   0.811   0.568   4.275  1.6453 -1.1405  0.6874
16574WAT     H268102   0.812   0.469   4.160 -1.5134  0.2563 -0.6298
16574WAT    EPW68103   0.797   0.488   4.243 -0.4798 -0.4499 -0.2720
16575WAT      O68104   2.897   5.785   2.250 -0.4823  0.4436  0.3468
16575WAT     H168105   2.985   5.763   2.220 -0.6882 -1.0367  0.7545
16575WAT     H268106   2.877   5.868   2.207 -0.1581 -0.8046 -2.3929
16575WAT    EPW68107   2.906   5.793   2.241 -0.4667  0.0839  0.0393
16576WAT      O68108   8.187   8.076   7.680  0.1350 -0.3245  0.2057
16576WAT     H168109   8.238   8.005   7.642 -1.1625 -0.8104 -0.6897
16576WAT     H268110   8.178   8.140   7.609  1.3225  0.7810  1.0118
16576WAT    EPW68111   8.192   8.075   7.666  0.1202 -0.2427  0.1941
16577WAT      O68112   6.725  10.344   5.370 -0.2396  0.6087 -0.1507
16577WAT     H168113   6.722  10.321   5.463  5.1911  1.7902  0.6708
16577WAT     H268114   6.748  10.437   5.369 -1.0428  0.8579 -2.7408
16577WAT    EPW68115   6.728  10.353   5.382  0.3707  0.7977 -0.3843
16578WAT      O68116   0.772   1.976   7.585 -0.3780 -0.7850 -0.2726
16578WAT     H168117   0.741   1.984   7.675  0.2819 -0.0353 -0.1031
16578WAT     H268118   0.744   1.888   7.558  0.3467 -1.4582  1.0327
16578WAT    EPW68119   0.765   1.965   7.593 -0.1954 -0.7749 -0.0782
16579WAT      O68120   1.656   1.003   3.379  0.3260 -0.4659 -0.3373
16579WAT     H168121   1.747   0.976   3.396  0.0181 -1.7352 -0.5897
16579WAT     H268122   1.603   0.936   3.422 -0.6486  2.5369  3.7324
16579WAT    EPW68123   1.661   0.990   3.387  0.1568 -0.2373  0.1662
16580WAT      O68124   8.140   0.477   8.297 -0.0300  1.5152  0.1786
16580WAT     H168125   8.139   0.426   8.378  0.4488  2.6282  0.8968
16580WAT     H268126   8.168   0.414   8.230 -2.6959 -0.0768  0.3865
16580WAT    EPW68127   8.143   0.462   8.299 -0.3185  1.4520  0.3004
16581WAT      O68128   8.802   8.774   5.751  0.2529 -0.0331  0.0128
16581WAT     H168129   8.864   8.702   5.738  1.2065  0.3596  2.0104
16581WAT     H268130   8.727   8.751   5.696  1.3748 -1.4932 -0.9924
16581WAT    EPW68131   8.800   8.761   5.742  0.5264 -0.1736  0.1438
16582WAT      O68132   2.597   0.392   7.617  0.3479  0.8170 -0.3588
16582WAT     H168133   2.517   0.423   7.659  1.6827  0.8155  2.3693
16582WAT     H268134   2.668   0.437   7.662  1.9748  0.0812 -2.0180
16582WAT    EPW68135   2.596   0.402   7.628  0.7385  0.7198 -0.2179
16583WAT      O68136   8.736   8.310   6.251 -0.0379 -0.4244  0.2923
16583WAT     H168137   8.801   8.241   6.263  1.3046  0.7922  0.1482
16583WAT     H268138   8.744   8.364   6.330 -0.8998 -0.2688  0.2856
16583WAT    EPW68139   8.745   8.308   6.263  0.0253 -0.2432  0.2723
16584WAT      O68140   4.687   3.909   0.879 -1.1380 -0.1702  0.0769
16584WAT     H168141   4.703   3.871   0.792  1.7978 -0.5814  0.7170
16584WAT     H268142   4.686   3.834   0.938  3.9878  0.3763  1.2590
16584WAT    EPW68143   4.689   3.894   0.875 -0.0746 -0.1523  0.3172
16585WAT      O68144   3.683   0.374   5.821 -0.4606 -0.0914 -0.1022
16585WAT     H168145   3.747   0.428   5.773 -0.9624  1.2995  0.7172
16585WAT     H268146   3.624   0.342   5.753 -0.1955  0.4742 -0.6176
16585WAT    EPW68147   3.684   0.377   5.806 -0.4917  0.1666 -0.0622
16586WAT      O68148   1.866   0.371   6.465  0.3080 -0.0099 -0.1024
16586WAT     H168149   1.771   0.370   6.471 -0.0657  0.7295 -3.8537
16586WAT     H268150   1.891   0.278   6.466 -0.4224 -0.2129  0.8604
16586WAT    EPW68151   1.857   0.358   6.466  0.1624  0.0608 -0.4702
16587WAT      O68152   6.335   8.177   7.886 -0.1605 -0.1649 -0.5088
16587WAT     H168153   6.259   8.232   7.902 -0.2572 -0.5886  0.5127
16587WAT     H268154   6.405   8.239   7.865  0.0303  0.4737  1.7765
16587WAT    EPW68155   6.335   8.193   7.885 -0.1481 -0.1364 -0.0727
16588WAT      O68156   6.011   9.668   8.445  0.0239 -0.2276  0.0842
16588WAT     H168157   6.034   9.633   8.531  0.0696 -0.0292  0.1528
16588WAT     H268158   6.012   9.763   8.457  3.0301 -0.0595 -0.9119
16588WAT    EPW68159   6.014   9.676   8.458  0.4263 -0.1793 -0.0386
16589WAT      O68160   9.121   9.239   0.166  0.4402  0.3681  0.0307
16589WAT     H168161   9.110   9.146   0.190  2.0883  0.5230  1.6544
16589WAT     H268162   9.079   9.247   0.081 -0.5559 -1.6634  0.2575
16589WAT    EPW68163   9.114   9.228   0.158  0.5264  0.1206  0.2748
16590WAT      O68164   0.087  10.268   4.888 -0.2226 -0.1516 -0.2849
16590WAT     H168165   0.159  10.210   4.911  0.8559  0.8574 -0.9936
16590WAT     H268166   0.028  10.263   4.962  0.2029 -1.5621 -0.0006
16590WAT    EPW68167   0.089  10.260   4.901 -0.0242 -0.2050 -0.3407
16591WAT      O68168   7.372   8.767   5.661 -0.3033 -0.4851 -0.6216
16591WAT     H168169   7.390   8.673   5.656 -1.3511 -0.6343 -2.2085
16591WAT     H268170   7.369   8.796   5.570 -1.7877  0.7155 -0.2316
16591WAT    EPW68171   7.374   8.758   5.649 -0.6373 -0.3462 -0.7794
16592WAT      O68172   2.381   2.767   4.790 -0.3356  0.3401  0.4414
16592WAT     H168173   2.435   2.778   4.868 -1.5472 -0.4534  1.4209
16592WAT     H268174   2.323   2.843   4.790  1.8228  2.1820 -1.5919
16592WAT    EPW68175   2.380   2.779   4.800 -0.2108  0.4784  0.3026
16593WAT      O68176   8.338  10.033   2.820 -0.2631  0.0520  0.4253
16593WAT     H168177   8.337   9.997   2.908  1.6561  1.3960  1.0682
16593WAT     H268178   8.281  10.110   2.824 -2.4783 -1.4431 -0.3351
16593WAT    EPW68179   8.330  10.038   2.832 -0.3023  0.0324  0.4098
16594WAT      O68180   2.812   1.219   3.154  0.2429 -0.4156  0.6954
16594WAT     H168181   2.903   1.240   3.172  0.4392 -0.6320 -0.0192
16594WAT     H268182   2.763   1.260   3.226  1.0766 -2.1531  2.3495
16594WAT    EPW68183   2.817   1.227   3.166  0.3788 -0.6733  0.8193
16595WAT      O68184   4.175   4.308   0.160 -0.0337 -0.2478 -0.3346
16595WAT     H168185   4.094   4.293   0.209 -1.6124  1.9061 -2.0808
16595WAT     H268186   4.224   4.370   0.215 -0.6332  0.1898 -0.2793
16595WAT    EPW68187   4.171   4.314   0.174 -0.3209  0.0939 -0.5576
16596WAT      O68188   0.633   9.111   3.601  0.0841 -0.8127 -0.2384
16596WAT     H168189   0.658   9.030   3.556  2.2624 -1.2438  1.5800
16596WAT     H268190   0.676   9.181   3.551  0.0776 -0.9988 -0.5047
16596WAT    EPW68191   0.642   9.110   3.588  0.3705 -0.8941 -0.0336
16597WAT      O68192   5.232   1.283   1.215  0.1570 -0.3059 -0.5339
16597WAT     H168193   5.202   1.328   1.136 -0.4593 -1.1943 -0.8286
16597WAT     H268194   5.327   1.292   1.214  0.0730  0.6422 -0.7834
16597WAT    EPW68195   5.240   1.290   1.205  0.0644 -0.2980 -0.6057
16598WAT      O68196  10.915   7.481   2.270  1.1361 -0.5589 -0.3565
16598WAT     H168197  10.904   7.453   2.179 -1.5684 -3.4782  0.6954
16598WAT     H268198  10.992   7.433   2.301  0.1780 -2.1365 -0.3018
16598WAT    EPW68199  10.924   7.471   2.262  0.6528 -1.1520 -0.2104
16599WAT      O68200   9.166   8.072   3.481  0.6947 -0.7267 -0.6996
16599WAT     H168201   9.195   8.032   3.399  3.3016  0.1933 -0.3062
16599WAT     H268202   9.225   8.036   3.547  0.7168  0.9383  0.2357
16599WAT    EPW68203   9.178   8.062   3.479  1.0414 -0.3853 -0.5244
16600WAT      O68204   5.174   1.957   1.447 -0.4025 -0.5524  0.5160
16600WAT     H168205   5.114   1.890   1.480 -0.4611 -0.9152 -0.2923
16600WAT     H268206   5.171   2.027   1.512 -1.9342 -0.4376  0.3497
16600WAT    EPW68207   5.166   1.958   1.460 -0.6123 -0.5851  0.3874
16601WAT      O68208   0.599   9.821   3.622  0.4292 -0.5624  0.1136
16601WAT     H168209   0.583   9.851   3.711  2.4174 -4.5209  2.1203
16601WAT     H268210   0.512   9.806   3.585 -0.5228 -1.5083  2.5350
16601WAT    EPW68211   0.586   9.823   3.629  0.5659 -1.2093  0.6976
16602WAT      O68212   6.825   0.252   2.711  0.2094 -0.1616 -0.0227
16602WAT     H168213   6.759   0.184   2.725 -0.4353  0.6292  0.9297
16602WAT     H268214   6.831   0.260   2.615 -1.2336 -0.1148 -0.1338
16602WAT    EPW68215   6.817   0.244   2.700 -0.0660 -0.0511  0.0882
16603WAT      O68216   1.388   9.236   3.451  0.0523 -0.0439 -0.1207
16603WAT     H168217   1.433   9.267   3.372 -0.5960  1.8422  0.1970
16603WAT     H268218   1.315   9.296   3.462  1.0164  0.7653  2.8089
16603WAT    EPW68219   1.384   9.248   3.442  0.0939  0.3114  0.3076
16604WAT      O68220   2.355   9.611   3.851 -0.1497 -0.5439  0.5926
16604WAT     H168221   2.330   9.544   3.914  2.5676 -3.0611 -0.7793
16604WAT     H268222   2.307   9.588   3.771  0.2022 -0.3491  0.3224
16604WAT    EPW68223   2.345   9.599   3.849  0.2551 -0.8502  0.3759
16605WAT      O68224   2.094   0.661   5.941  0.1065 -0.2899  0.7482
16605WAT     H168225   2.091   0.693   5.851  2.1544 -0.5459  0.5384
16605WAT     H268226   2.017   0.700   5.983  0.7411  2.3486 -0.3196
16605WAT    EPW68227   2.083   0.671   5.935  0.4601  0.0243  0.5798
16606WAT      O68228   2.713   0.583   1.186 -0.0565 -0.4142  0.0194
16606WAT     H168229   2.677   0.586   1.098 -1.9389 -2.2732  0.6524
16606WAT     H268230   2.668   0.653   1.233  0.2462 -0.0560 -0.2071
16606WAT    EPW68231   2.703   0.593   1.180 -0.2648 -0.6122  0.0730
16607WAT      O68232   5.247   3.468   2.987 -0.9758 -0.2872 -0.1030
16607WAT     H168233   5.312   3.496   2.922 -3.1640  0.1851 -2.2200
16607WAT     H268234   5.193   3.545   3.002 -0.7740 -0.4893  2.0967
16607WAT    EPW68235   5.249   3.482   2.981 -1.2381 -0.2515 -0.0919
16608WAT      O68236   2.099   2.596   5.546  0.2241 -0.4148  0.4489
16608WAT     H168237   2.075   2.551   5.626 -0.3516 -0.6521  0.1511
16608WAT     H268238   2.030   2.572   5.483  0.1554  0.5067  0.1516
16608WAT    EPW68239   2.087   2.587   5.548  0.1391 -0.3245  0.3703
16609WAT      O68240   3.505   8.463   3.871 -0.3985  0.1649 -0.4924
16609WAT     H168241   3.428   8.512   3.845  0.8217  2.2453 -0.3897
16609WAT     H268242   3.494   8.448   3.965 -2.1136 -2.3919 -0.9843
16609WAT    EPW68243   3.494   8.467   3.880 -0.4638  0.1020 -0.5438
16610WAT      O68244   1.498   1.415   6.016 -0.1145  0.0592 -0.0588
16610WAT     H168245   1.530   1.347   6.075 -1.4031  0.5025  1.2008
16610WAT     H268246   1.577   1.453   5.977  0.6675 -1.2869  0.1919
16610WAT    EPW68247   1.513   1.411   6.018 -0.1814 -0.0599  0.1404
16611WAT      O68248  10.842   7.028   2.058 -0.0684 -0.2055 -0.0991
16611WAT     H168249  10.925   7.005   2.098 -0.0729 -2.9750 -1.4545
16611WAT     H268250  10.784   7.046   2.132  1.0912 -0.6514  0.9550
16611WAT    EPW68251  10.845   7.027   2.073  0.0844 -0.6294 -0.1388
16612WAT      O68252   8.959   9.890   5.669 -0.2083 -0.1753 -0.2970
16612WAT     H168253   8.884   9.950   5.666 -0.0495  0.1997  2.0255
16612WAT     H268254   8.933   9.822   5.731  0.7388 -0.9800 -0.7606
16612WAT    EPW68255   8.945   9.889   5.676 -0.0625 -0.2327 -0.0520
16613WAT      O68256  10.673   8.267   3.936 -0.0995 -0.8901 -0.8044
16613WAT     H168257  10.766   8.289   3.935 -0.3126  0.0217 -0.9648
16613WAT     H268258  10.641   8.291   3.850 -0.6496 -0.4835 -0.4933
16613WAT    EPW68259  10.681   8.273   3.925 -0.2003 -0.7157 -0.7845
16614WAT      O68260   0.960   0.899   3.941 -0.2085 -0.1386 -0.4277
16614WAT     H168261   0.978   0.806   3.953 -0.2922 -0.0562  0.3729
16614WAT     H268262   0.881   0.915   3.993  1.2118  0.9054  1.5564
16614WAT    EPW68263   0.952   0.889   3.949 -0.0322  0.0100 -0.0602
16615WAT      O68264   3.568   0.755   5.399  0.1467  0.0432 -0.9794
16615WAT     H168265   3.637   0.799   5.450 -0.8143  0.7497 -0.2448
16615WAT     H268266   3.589   0.662   5.406  0.1599  0.1270  0.5969
16615WAT    EPW68267   3.580   0.748   5.407  0.0216  0.1475 -0.6747
16616WAT      O68268   0.811   9.450   3.392 -0.0339  0.0640 -0.1281
16616WAT     H168269   0.791   9.390   3.321  2.3337 -0.7893 -0.1316
16616WAT     H268270   0.758   9.528   3.373  0.4305 -0.1793 -2.7422
16616WAT    EPW68271   0.801   9.452   3.380  0.3397 -0.0811 -0.4734
16617WAT      O68272   8.685   5.597   4.073 -0.0444 -0.3896 -0.2995
16617WAT     H168273   8.723   5.510   4.063  0.1693 -0.3144 -0.1468
16617WAT     H268274   8.751   5.656   4.037 -0.3970 -0.3269 -0.8530
16617WAT    EPW68275   8.698   5.593   4.067 -0.0629 -0.3712 -0.3524
16618WAT      O68276   9.606   8.668   5.289  0.8240 -0.2795  0.0788
16618WAT     H168277   9.600   8.755   5.329 -1.2497 -0.2814 -0.1131
16618WAT     H268278   9.688   8.669   5.241  0.5711  1.8151 -0.4008
16618WAT    EPW68279   9.616   8.680   5.288  0.5169 -0.0033 -0.0095
16619WAT      O68280   0.286   1.874   3.257 -0.6111  0.0353  0.3664
16619WAT     H168281   0.316   1.783   3.265 -0.7692 -0.1984 -1.3465
16619WAT     H268282   0.367   1.925   3.263 -0.5115 -0.2004  1.2662
16619WAT    EPW68283   0.301   1.868   3.259 -0.6188 -0.0266  0.2590
16620WAT      O68284   3.887   0.046   4.109  0.4555  0.4439  0.5063
16620WAT     H168285   3.873   0.012   4.021 -1.2891 -0.7513  1.1774
16620WAT     H268286   3.974   0.084   4.107  1.2908 -1.3820 -1.1715
16620WAT    EPW68287   3.896   0.046   4.097  0.3357  0.0455  0.3736
16621WAT      O68288   9.292   8.090   2.686 -0.0370  0.2826  0.5731
16621WAT     H168289   9.251   8.010   2.717 -1.7973  1.1336  0.5739
16621WAT     H268290   9.298   8.146   2.763  0.8311  0.3006  0.4984
16621WAT    EPW68291   9.287   8.087   2.700 -0.1550  0.3967  0.5635
16622WAT      O68292   2.332   1.173   1.535  0.2146 -0.3432  0.3355
16622WAT     H168293   2.241   1.177   1.565 -0.0990 -1.1216 -0.4473
16622WAT     H268294   2.331   1.107   1.465  1.7612 -1.8185  1.6127
16622WAT    EPW68295   2.320   1.165   1.529  0.3772 -0.6405  0.4007
16623WAT      O68296   6.906   1.054   5.237 -0.0288 -0.5648  0.2486
16623WAT     H168297   6.882   1.067   5.329  4.1456 -1.6347  1.7126
16623WAT     H268298   6.938   1.140   5.209 -1.8026 -0.0980 -0.4760
16623WAT    EPW68299   6.907   1.067   5.245  0.2878 -0.6443  0.3462
16624WAT      O68300  10.738  10.115   5.457  0.8543 -0.1920  0.3184
16624WAT     H168301  10.649  10.136   5.430  0.2136 -1.0764  1.6327
16624WAT     H268302  10.742  10.141   5.549  0.8362 -3.1527  1.2854
16624WAT    EPW68303  10.727  10.121   5.466  0.7672 -0.6995  0.6192
16625WAT      O68304   6.793   1.865   4.206  0.5344  0.0657 -0.0089
16625WAT     H168305   6.760   1.779   4.182  0.3694 -0.1331  0.9130
16625WAT     H268306   6.827   1.855   4.295  2.7634  0.3426 -0.7562
16625WAT    EPW68307   6.793   1.853   4.214  0.8066  0.0760  0.0141
16626WAT      O68308   9.874   8.889   1.810 -0.1690 -0.1376  0.4051
16626WAT     H168309   9.849   8.920   1.897  0.6860 -0.9057  0.9453
16626WAT     H268310   9.896   8.969   1.761  1.9991  0.1912  1.7658
16626WAT    EPW68311   9.874   8.904   1.815  0.2303 -0.1955  0.6558
16627WAT      O68312   8.712   9.526   3.233 -0.3800  0.6669  0.7398
16627WAT     H168313   8.626   9.550   3.267 -1.9419 -0.8480 -1.7424
16627WAT     H268314   8.698   9.439   3.195  2.2842  0.3589  0.3024
16627WAT    EPW68315   8.699   9.517   3.233 -0.2341  0.4263  0.3548
16628WAT      O68316   3.217   1.563   4.535  0.3378 -0.7747  0.7889
16628WAT     H168317   3.271   1.488   4.511 -1.3037 -1.7486 -0.0812
16628WAT     H268318   3.238   1.629   4.469 -1.2258 -2.0240 -1.1060
16628WAT    EPW68319   3.227   1.561   4.523 -0.0850 -1.0679  0.4241
16629WAT      O68320   0.521   9.587   4.533 -0.0598 -0.0177  0.7646
16629WAT     H168321   0.440   9.563   4.486  0.4440 -0.9968  0.3508
16629WAT     H268322   0.546   9.506   4.579  0.9315  0.1259  0.5017
16629WAT    EPW68323   0.513   9.573   4.533  0.1374 -0.1278  0.6754
16630WAT      O68324   0.354   6.732   2.539  0.3042  0.0490  0.1721
16630WAT     H168325   0.378   6.764   2.626  1.2149  0.7560 -0.3144
16630WAT     H268326   0.438   6.725   2.493 -0.1931 -0.0484 -0.7367
16630WAT    EPW68327   0.368   6.735   2.544  0.3587  0.1295 -0.0119
16631WAT      O68328   4.987   0.657   3.746 -0.1676 -0.2420 -0.2454
16631WAT     H168329   5.039   0.622   3.818  1.5304  2.7498  0.1593
16631WAT     H268330   4.916   0.705   3.788 -0.1969  0.0468 -0.6198
16631WAT    EPW68331   4.984   0.659   3.761  0.0527  0.1907 -0.2413
16632WAT      O68332   5.463   1.736   4.204 -0.4683 -0.5326  0.2977
16632WAT     H168333   5.415   1.731   4.286  0.4567  3.5522  1.3418
16632WAT     H268334   5.523   1.661   4.206 -1.1499 -1.0915  2.8502
16632WAT    EPW68335   5.465   1.726   4.215 -0.4361 -0.0676  0.7720
16633WAT      O68336   7.849   1.827   4.885 -0.6627 -0.5039  0.2598
16633WAT     H168337   7.823   1.765   4.818 -0.4132 -1.3395  0.9171
16633WAT     H268338   7.820   1.788   4.968  1.9714 -1.1722  0.9781
16633WAT    EPW68339   7.842   1.814   4.887 -0.2825 -0.7023  0.4411
16634WAT      O68340   1.173   3.090   2.902 -0.0117 -0.0513 -0.6628
16634WAT     H168341   1.149   3.043   2.981 -0.0727 -0.5692 -0.9799
16634WAT     H268342   1.246   3.041   2.866 -1.0383 -0.8085 -1.8022
16634WAT    EPW68343   1.179   3.078   2.907 -0.1552 -0.2195 -0.8548
16635WAT      O68344  10.254   8.372   8.593  0.0984  0.0821  0.2889
16635WAT     H168345  10.248   8.289   8.545  0.4539 -0.1389  0.6250
16635WAT     H268346  10.163   8.399   8.605 -0.0498 -0.6639  0.8794
16635WAT    EPW68347  10.241   8.365   8.588  0.1259 -0.0458  0.4110
16636WAT      O68348   1.471   9.500   6.697  0.0745  0.0970 -0.4862
16636WAT     H168349   1.469   9.586   6.655  0.3639 -0.0995 -0.9103
16636WAT     H268350   1.380   9.469   6.693 -0.7632  1.7848  2.6576
16636WAT    EPW68351   1.459   9.507   6.691  0.0022  0.2937 -0.1276
16637WAT      O68352   1.034  10.031   2.287 -0.0538  0.6395  0.0015
16637WAT     H168353   0.945   9.996   2.284  0.1032  0.1600  0.6227
16637WAT     H268354   1.079   9.986   2.215  0.8002 -2.4286  2.2267
16637WAT    EPW68355   1.028  10.020   2.277  0.0795  0.1717  0.3769
16638WAT      O68356   0.224   9.759   5.683 -0.9466  0.2058  0.4067
16638WAT     H168357   0.313   9.779   5.652 -1.1444  0.3372 -0.0770
16638WAT     H268358   0.214   9.665   5.669 -1.1961  0.3410 -0.3440
16638WAT    EPW68359   0.235   9.750   5.677 -1.0056  0.2403  0.2437
16639WAT      O68360   3.803   2.691   2.146  0.0481  0.3259 -0.0528
16639WAT     H168361   3.715   2.651   2.149  1.2356 -2.6169 -0.8705
16639WAT     H268362   3.811   2.736   2.230 -2.8317  2.1942 -0.6291
16639WAT    EPW68363   3.792   2.692   2.157 -0.1751  0.1842 -0.2366
16640WAT      O68364   2.669   1.985   1.430 -0.2973 -0.3386  0.4514
16640WAT     H168365   2.629   1.938   1.357 -0.3938 -2.1573  1.6003
16640WAT     H268366   2.599   2.038   1.466  0.4035  2.8998 -2.4133
16640WAT    EPW68367   2.655   1.986   1.425 -0.2174 -0.1513  0.2251
16641WAT      O68368   3.272   0.299   6.103 -0.2323  0.5359  0.9007
16641WAT     H168369   3.203   0.259   6.156  1.1442 -4.4485 -0.4868
16641WAT     H268370   3.348   0.300   6.160  0.4155 -1.7097  0.1880
16641WAT    EPW68371   3.273   0.293   6.117  0.0347 -0.4177  0.6235
16642WAT      O68372   9.470   9.348   5.530  0.0732 -1.0759 -0.2680
16642WAT     H168373   9.466   9.256   5.557  1.4124 -0.8553  0.8096
16642WAT     H268374   9.550   9.381   5.571 -0.6469  0.7097 -0.2341
16642WAT    EPW68375   9.480   9.340   5.539  0.1550 -0.8116 -0.1216
16643WAT      O68376  10.604   9.217   5.777  0.2188  0.5180 -0.1660
16643WAT     H168377  10.550   9.158   5.830 -0.5048 -1.0509 -2.4888
16643WAT     H268378  10.630   9.286   5.838 -0.8231 -0.9538  2.1192
16643WAT    EPW68379  10.600   9.218   5.792 -0.0138  0.1168 -0.1709
16644WAT      O68380   0.703  10.160   2.382  0.0671  0.6285 -0.4367
16644WAT     H168381   0.770  10.227   2.383  2.0210 -1.2111  0.7482
16644WAT     H268382   0.643  10.186   2.312  0.9775  3.2883 -0.3350
16644WAT    EPW68383   0.704  10.172   2.373  0.4449  0.7367 -0.2671
16645WAT      O68384   8.030   8.860   3.734  0.2401 -0.0733  0.4396
16645WAT     H168385   8.008   8.945   3.772  1.0787  0.2068  0.3097
16645WAT     H268386   7.948   8.811   3.737  0.0335  0.3306  1.5729
16645WAT    EPW68387   8.016   8.865   3.739  0.3233  0.0167  0.5720
16646WAT      O68388   1.763   0.408   2.382  0.4655  0.4184  0.0278
16646WAT     H168389   1.707   0.332   2.363  1.8706 -1.7190  3.4224
16646WAT     H268390   1.704   0.471   2.424 -0.0201 -0.4607  0.6908
16646WAT    EPW68391   1.748   0.406   2.385  0.5867  0.0206  0.5628
16647WAT      O68392   2.102   1.032   4.467  0.5584  0.1388 -0.4189
16647WAT     H168393   2.030   0.999   4.414 -0.2203 -1.4418  1.5015
16647WAT     H268394   2.068   1.114   4.505 -0.3356 -0.6658  0.5867
16647WAT    EPW68395   2.088   1.039   4.465  0.3377 -0.1758 -0.0329
16648WAT      O68396   8.843  10.114   5.998  0.1014  0.2833 -0.4042
16648WAT     H168397   8.806  10.025   5.995  1.2441 -0.2074 -2.8719
16648WAT     H268398   8.782  10.166   5.946  1.1436  0.1711 -1.7807
16648WAT    EPW68399   8.830  10.109   5.991  0.3901  0.2036 -0.9112
16649WAT      O68400   8.806   6.815   8.469 -0.4246 -0.0047 -0.0781
16649WAT     H168401   8.839   6.897   8.506  2.3299  0.1018 -2.4084
16649WAT     H268402   8.884   6.763   8.452 -1.9573 -2.3022 -0.5812
16649WAT    EPW68403   8.820   6.819   8.472 -0.2632 -0.2937 -0.4520
16650WAT      O68404   2.301   2.173   0.941  0.0020  0.1996  0.3193
16650WAT     H168405   2.368   2.194   0.876  0.8157 -1.3886  0.5773
16650WAT     H268406   2.294   2.078   0.938 -0.1899  0.0996  2.2918
16650WAT    EPW68407   2.309   2.163   0.932  0.0840 -0.0231  0.6135
16651WAT      O68408   3.269   2.953   1.803  0.1557  0.3178  0.1290
16651WAT     H168409   3.261   2.934   1.709  1.8232 -1.8495  0.3405
16651WAT     H268410   3.202   2.898   1.843 -1.8263  2.6069  0.1885
16651WAT    EPW68411   3.259   2.943   1.796  0.1143  0.3338  0.1647
16652WAT      O68412   2.096   2.277   2.685  0.1431  0.8196 -0.2658
16652WAT     H168413   2.144   2.247   2.762  0.1589 -2.4125 -1.3789
16652WAT     H268414   2.158   2.333   2.638  1.4053 -0.0103  0.3432
16652WAT    EPW68415   2.110   2.280   2.689  0.3116  0.2838 -0.3322
16653WAT      O68416   3.641   0.829   3.924  0.2430 -0.3871 -0.4110
16653WAT     H168417   3.635   0.910   3.874  1.2630 -0.1786 -0.2028
16653WAT     H268418   3.671   0.856   4.011 -2.9401 -0.5493  0.8713
16653WAT    EPW68419   3.644   0.843   3.929 -0.0423 -0.3809 -0.2143
16654WAT      O68420  10.636   7.503   1.363  0.6487  0.1786  0.0333
16654WAT     H168421  10.629   7.517   1.268 -2.5968 -1.5541 -0.1439
16654WAT     H268422  10.711   7.445   1.373 -0.6893 -2.0842 -1.9409
16654WAT    EPW68423  10.645   7.497   1.351  0.0443 -0.3486 -0.2504
16655WAT      O68424   2.790   6.511   3.570 -0.9110  0.7189 -0.3420
16655WAT     H168425   2.818   6.507   3.479  1.8836 -0.1591  0.4398
16655WAT     H268426   2.734   6.588   3.575 -1.3651  0.6198 -2.8295
16655WAT    EPW68427   2.786   6.521   3.559 -0.6022  0.5901 -0.5670
16656WAT      O68428   2.759   0.381   3.126 -0.2939  0.2471 -0.4112
16656WAT     H168429   2.729   0.304   3.078 -0.4385  0.5881 -0.8743
16656WAT     H268430   2.820   0.346   3.191 -2.2783 -0.5877  1.1264
16656WAT    EPW68431   2.763   0.366   3.128 -0.5746  0.1820 -0.2695
16657WAT      O68432   4.972   3.459   5.459 -0.1264  0.2775  0.0815
16657WAT     H168433   4.904   3.464   5.392  0.7889 -2.1557 -1.1232
16657WAT     H268434   5.054   3.467   5.410  0.6054 -2.7454  0.6312
16657WAT    EPW68435   4.974   3.461   5.444  0.0908 -0.4421 -0.0050
16658WAT      O68436   0.153   9.601   4.611 -0.2844  0.3870 -0.2737
16658WAT     H168437   0.117   9.517   4.580 -1.5984  0.8063  0.0312
16658WAT     H268438   0.075   9.654   4.630  0.5280  1.4770  0.0810
16658WAT    EPW68439   0.138   9.597   4.610 -0.3506  0.5860 -0.1869
16659WAT      O68440  10.302  10.145   1.798  0.6463  0.0428 -0.4396
16659WAT     H168441  10.263  10.083   1.736  1.3225  0.7427 -1.6137
16659WAT     H268442  10.395  10.123   1.798  0.7949  0.6491 -0.4052
16659WAT    EPW68443  10.309  10.134   1.790  0.7553  0.2155 -0.5900
16660WAT      O68444   4.690   1.758   4.228  0.5330 -0.4066  0.2388
16660WAT     H168445   4.741   1.838   4.237 -0.0362  0.0483 -0.3930
16660WAT     H268446   4.755   1.688   4.223  1.1239  0.1852 -0.8889
16660WAT    EPW68447   4.705   1.759   4.228  0.5357 -0.2685  0.0069
16661WAT      O68448   1.105   9.223   1.234  0.2092 -0.0509  0.1545
16661WAT     H168449   1.071   9.305   1.269  1.6813  1.2185 -1.2589
16661WAT     H268450   1.152   9.183   1.308  1.5043  1.5636  0.2456
16661WAT    EPW68451   1.107   9.228   1.249  0.5741  0.3295 -0.0199
16662WAT      O68452   3.946   0.163   7.460  0.1428 -0.0248  0.0976
16662WAT     H168453   4.033   0.197   7.441  0.4476 -0.7054  0.2220
16662WAT     H268454   3.896   0.238   7.492  0.4021  0.5699 -0.8787
16662WAT    EPW68455   3.951   0.177   7.462  0.2171 -0.0361 -0.0148
16663WAT      O68456   0.568   7.029   3.326 -0.1721  0.1187  0.7279
16663WAT     H168457   0.528   6.942   3.334 -1.0231  0.5494  1.3834
16663WAT     H268458   0.654   7.013   3.288 -1.5018 -0.7310 -2.2510
16663WAT    EPW68459   0.574   7.016   3.322 -0.4597  0.0634  0.4213
16664WAT      O68460   2.226   0.315   4.086 -0.6457  0.1281  0.0488
16664WAT     H168461   2.291   0.385   4.087 -1.9035  1.3285  0.1230
16664WAT     H268462   2.219   0.289   3.995 -1.4371  1.3495 -0.2643
16664WAT    EPW68463   2.234   0.321   4.074 -0.9160  0.4475  0.0172
16665WAT      O68464   6.384   7.680   6.053 -0.1607  0.4541 -0.6259
16665WAT     H168465   6.346   7.748   5.998 -0.6893 -0.0346 -0.8616
16665WAT     H268466   6.311   7.648   6.106  0.5897  1.9677  1.5099
16665WAT    EPW68467   6.370   7.685   6.053 -0.1316  0.5889 -0.3755
16666WAT      O68468   1.040   3.421   4.009  0.1682 -0.1517  0.2889
16666WAT     H168469   0.948   3.442   3.995 -0.1939 -1.8330 -0.0928
16666WAT     H268470   1.085   3.505   4.006 -1.0639  0.4887 -1.7297
16666WAT    EPW68471   1.034   3.435   4.007 -0.0421 -0.2890 -0.0277
16667WAT      O68472   3.520   6.719   1.907  0.1053  0.1857 -0.1110
16667WAT     H168473   3.533   6.808   1.940  0.4294 -0.4230  1.4806
16667WAT     H268474   3.601   6.700   1.860  0.6636  0.1973  0.8294
16667WAT    EPW68475   3.532   6.729   1.905  0.2217  0.1070  0.2229
16668WAT      O68476   2.036   0.870   4.933 -0.1189  0.1139  0.9003
16668WAT     H168477   2.061   0.962   4.936 -0.0021  0.1094  0.2411
16668WAT     H268478   2.095   0.831   4.868 -0.3777 -0.3573  0.9407
16668WAT    EPW68479   2.048   0.877   4.924 -0.1377  0.0512  0.8187
16669WAT      O68480   4.141   4.285   5.781 -1.0030  1.0759  0.3158
16669WAT     H168481   4.181   4.366   5.813 -0.5950  0.8583  0.3712
16669WAT     H268482   4.176   4.217   5.838  0.4855  0.5548 -1.1334
16669WAT    EPW68483   4.151   4.287   5.793 -0.7532  0.9785  0.1318
16670WAT      O68484   4.303   0.356   6.533  0.3650 -0.4794  0.2163
16670WAT     H168485   4.273   0.405   6.609  1.0923 -0.1892  0.3292
16670WAT     H268486   4.265   0.269   6.543 -1.4410  0.2168 -0.2957
16670WAT    EPW68487   4.294   0.351   6.544  0.2227 -0.3493  0.1633
16671WAT      O68488   9.216   7.903   4.153  0.8363 -0.0603  0.4233
16671WAT     H168489   9.171   7.907   4.069  2.0570  0.1479 -0.2459
16671WAT     H268490   9.297   7.855   4.135  0.1140 -2.0257  1.9680
16671WAT    EPW68491   9.221   7.897   4.140  0.9022 -0.2921  0.5391
16672WAT      O68492   5.476   1.855   2.742  0.1774  0.5907 -0.5149
16672WAT     H168493   5.470   1.771   2.788 -0.1476  0.8274 -0.1276
16672WAT     H268494   5.416   1.913   2.788 -0.8744  0.5770 -1.8024
16672WAT    EPW68495   5.467   1.852   2.754 -0.0043  0.6202 -0.6336
16673WAT      O68496   8.936  10.039   2.503  0.7017  0.1589 -0.1153
16673WAT     H168497   8.845  10.035   2.472  0.8302  0.3314 -0.5125
16673WAT     H268498   8.938   9.977   2.576  0.6528 -1.0532 -1.1026
16673WAT    EPW68499   8.924  10.030   2.509  0.7124  0.0215 -0.2978
16674WAT      O68500  10.835   8.961   3.631  0.8305 -0.3831  0.0170
16674WAT     H168501  10.912   8.920   3.592  0.4095 -1.6598  0.4872
16674WAT     H268502  10.870   9.031   3.686  1.6802 -1.2386  0.5768
16674WAT    EPW68503  10.850   8.965   3.633  0.8869 -0.6642  0.1528
16675WAT      O68504   3.598   9.990   3.181  0.0879 -0.1683  0.8628
16675WAT     H168505   3.633  10.028   3.101 -0.9819 -1.3104 -0.1868
16675WAT     H268506   3.604   9.895   3.167 -0.6861 -0.3827  1.8675
16675WAT    EPW68507   3.604   9.982   3.169 -0.1553 -0.3471  0.8566
16676WAT      O68508   9.544   9.912   4.421 -0.2257  0.6961  0.4085
16676WAT     H168509   9.543  10.008   4.420 -1.3634  0.6889 -0.5192
16676WAT     H268510   9.611   9.888   4.357  1.9665  0.8341  2.4937
16676WAT    EPW68511   9.553   9.922   4.413 -0.0868  0.7133  0.5612
16677WAT      O68512   9.859   2.383   4.066  0.2848  0.2322 -0.3360
16677WAT     H168513   9.776   2.362   4.023 -0.4838  2.7651 -0.2811
16677WAT     H268514   9.907   2.434   4.002  0.8898  0.5757  0.3803
16677WAT    EPW68515   9.854   2.387   4.052  0.2637  0.6117 -0.2344
16678WAT      O68516  10.556   5.734   3.399  0.4301  0.5620  0.2769
16678WAT     H168517  10.644   5.770   3.406  0.8067 -0.2534 -0.1379
16678WAT     H268518  10.502   5.807   3.370  1.2673  0.7060 -1.0072
16678WAT    EPW68519  10.560   5.748   3.396  0.5898  0.4733  0.0528
16679WAT      O68520   0.489  10.020   5.552 -0.4807  0.3539  0.4948
16679WAT     H168521   0.583  10.023   5.568 -0.6805 -0.7882  2.1675
16679WAT     H268522   0.450  10.043   5.636 -1.7209  1.0849 -0.2455
16679WAT    EPW68523   0.496  10.024   5.565 -0.6706  0.2999  0.6175
16680WAT      O68524   0.840   1.290   5.612  0.2528  0.6231 -0.5819
16680WAT     H168525   0.779   1.302   5.540 -2.3415 -2.0453  0.9317
16680WAT     H268526   0.820   1.361   5.673 -1.5638 -0.2274 -0.0901
16680WAT    EPW68527   0.829   1.301   5.611 -0.3290  0.1590 -0.3176
16681WAT      O68528   2.157   1.628   2.855  0.2300  0.0051  0.0356
16681WAT     H168529   2.192   1.596   2.938 -0.4002  0.5153  0.4988
16681WAT     H268530   2.093   1.562   2.828 -0.6158  0.5457  0.6811
16681WAT    EPW68531   2.153   1.615   2.862  0.0353  0.1436  0.1819
16682WAT      O68532   5.034  10.171   5.277  0.2816  0.1251 -0.1177
16682WAT     H168533   5.071  10.096   5.324  0.5819  1.3541  1.7312
16682WAT     H268534   5.109  10.215   5.238  0.3844  0.7169  0.7329
16682WAT    EPW68535   5.049  10.167   5.278  0.3347  0.3653  0.2382
16683WAT      O68536   1.923   1.352   4.871 -0.0986  0.8125 -0.3261
16683WAT     H168537   1.892   1.392   4.952 -1.5864 -1.1305  0.1547
16683WAT     H268538   2.006   1.311   4.894 -0.5307  0.2437  0.2454
16683WAT    EPW68539   1.930   1.352   4.884 -0.3518  0.4812 -0.1874
16684WAT      O68540   9.085   7.452   3.431 -1.0046 -0.5841  0.9441
16684WAT     H168541   8.994   7.474   3.413 -0.4196  1.2338 -0.0348
16684WAT     H268542   9.103   7.491   3.517 -0.9313 -0.3033  0.7987
16684WAT    EPW68543   9.075   7.460   3.440 -0.9174 -0.3076  0.7957
16685WAT      O68544   5.858   1.568   4.941  0.1703 -0.6812  0.5499
16685WAT     H168545   5.782   1.602   4.893  0.0330 -1.9080 -0.1393
16685WAT     H268546   5.834   1.577   5.033 -0.1147  0.4837  0.3741
16685WAT    EPW68547   5.845   1.574   4.947  0.1149 -0.6894  0.4361
16686WAT      O68548   6.931   2.034   2.118 -1.0947  0.0427 -0.5937
16686WAT     H168549   6.973   1.977   2.183  2.4497  1.1436 -1.6735
16686WAT     H268550   6.839   2.035   2.143 -1.1062 -4.6807  0.4884
16686WAT    EPW68551   6.924   2.027   2.130 -0.6285 -0.4350 -0.5934
16687WAT      O68552   3.123   3.085   1.294 -0.3990  0.2355 -0.2163
16687WAT     H168553   3.031   3.069   1.315  0.0331 -2.8424 -0.1403
16687WAT     H268554   3.128   3.070   1.199  0.5626 -3.9647  0.2786
16687WAT    EPW68555   3.111   3.081   1.284 -0.2152 -0.7243 -0.1410
16688WAT      O68556   5.528   1.238   2.871 -0.4076 -0.0516 -0.1800
16688WAT     H168557   5.569   1.317   2.836 -0.5973  0.6931  1.2127
16688WAT     H268558   5.565   1.228   2.959 -1.2384 -0.8687  0.1013
16688WAT    EPW68559   5.538   1.247   2.878 -0.5424 -0.0612  0.0408
16689WAT      O68560   0.606   9.747   0.396 -0.5937  0.2830  0.2743
16689WAT     H168561   0.595   9.666   0.446 -1.3952 -0.1296 -0.5518
16689WAT     H268562   0.528   9.798   0.417 -0.7682  0.2487 -0.2802
16689WAT    EPW68563   0.594   9.743   0.405 -0.7224  0.2236  0.0922
16690WAT      O68564  10.995   9.036   1.545 -0.0272  0.1748 -0.6323
16690WAT     H168565  10.986   9.120   1.590  1.3464 -1.3255  2.7412
16690WAT     H268566  11.083   9.039   1.506 -0.1876  0.4833 -0.9767
16690WAT    EPW68567  11.006   9.048   1.546  0.1328  0.0172 -0.2328
16691WAT      O68568   1.613   8.542   2.438  0.1215  0.5016 -0.8500
16691WAT     H168569   1.625   8.447   2.440 -2.5201  0.1171 -0.2752
16691WAT     H268570   1.526   8.554   2.399 -0.3958  2.5666  0.7944
16691WAT    EPW68571   1.603   8.531   2.433 -0.2950  0.7229 -0.5572
16692WAT      O68572  10.206   8.950   3.547  0.5280  0.5153  0.2352
16692WAT     H168573  10.213   8.912   3.634  2.4395 -0.1578 -0.1790
16692WAT     H268574  10.256   9.031   3.551 -2.0966  2.2337  0.6240
16692WAT    EPW68575  10.213   8.956   3.559  0.4344  0.6528  0.2317
16693WAT      O68576   2.944   1.282   4.167  0.4711  0.1139 -0.1484
16693WAT     H168577   2.854   1.307   4.148 -0.7775 -1.2902  3.1523
16693WAT     H268578   2.940   1.188   4.183  2.6415 -0.0646 -0.3224
16693WAT    EPW68579   2.932   1.273   4.167  0.5926 -0.0948  0.2637
16694WAT      O68580   1.230   0.090   0.884 -0.1791 -0.5944  0.5309
16694WAT     H168581   1.286   0.050   0.817 -0.9520  1.1124 -1.2343
16694WAT     H268582   1.292   0.129   0.946  0.6367  0.1986 -0.7280
16694WAT    EPW68583   1.246   0.090   0.884 -0.1734 -0.2647  0.1321
16695WAT      O68584   3.259   2.014   4.944 -0.6476 -0.4735  0.2480
16695WAT     H168585   3.321   2.012   5.018 -0.0577  0.1155 -0.2107
16695WAT     H268586   3.174   2.030   4.985 -0.8149 -2.9936  1.0516
16695WAT    EPW68587   3.256   2.016   4.959 -0.5918 -0.7282  0.2937
16696WAT      O68588   2.191   2.954   4.149 -0.2195 -0.3571 -0.2646
16696WAT     H168589   2.109   2.910   4.172  1.0377 -3.1706 -0.8091
16696WAT     H268590   2.260   2.893   4.175  1.7911  1.9863  0.3541
16696WAT    EPW68591   2.189   2.940   4.155  0.2116 -0.4191 -0.2549
16697WAT      O68592   5.596   1.261   4.112 -0.2803  0.0038  0.3382
16697WAT     H168593   5.642   1.319   4.172  2.1152  1.8144 -2.9183
16697WAT     H268594   5.545   1.319   4.055 -0.7859 -1.3826 -0.7036
16697WAT    EPW68595   5.595   1.276   4.112 -0.0310  0.0598 -0.2286
16698WAT      O68596  10.793   0.949   5.177  0.2878  0.2859 -0.3985
16698WAT     H168597  10.703   0.979   5.184  0.2042  0.1567 -0.8991
16698WAT     H268598  10.842   1.007   5.235 -0.2531 -0.2229  0.5936
16698WAT    EPW68599  10.788   0.960   5.186  0.2055  0.2018 -0.3335
16699WAT      O68600   3.132   3.991   2.464  1.4108 -0.1016  0.6646
16699WAT     H168601   3.224   3.987   2.440  1.4107  2.6280 -0.1436
16699WAT     H268602   3.090   3.923   2.411  2.8160 -0.8362  0.4410
16699WAT    EPW68603   3.138   3.981   2.454  1.5960  0.1615  0.5285
16700WAT      O68604   6.032   1.548   3.461  0.2421 -0.0423 -0.9596
16700WAT     H168605   5.995   1.614   3.521  0.3020  0.0896 -1.0667
16700WAT     H268606   6.083   1.491   3.517 -2.6357 -2.1492 -0.2691
16700WAT    EPW68607   6.034   1.549   3.476 -0.1295 -0.3028 -0.8829
16701WAT      O68608   3.776   3.936   6.428  0.2738  0.2702 -0.6682
16701WAT     H168609   3.766   4.021   6.383  1.7660  0.7460 -0.1420
16701WAT     H268610   3.747   3.954   6.517  1.5020  0.5099 -0.2972
16701WAT    EPW68611   3.771   3.950   6.434  0.6326  0.3645 -0.5496
16702WAT      O68612   8.634   9.223   5.164 -0.3090 -0.6778  0.4448
16702WAT     H168613   8.589   9.305   5.183 -0.1176 -0.6999  1.0103
16702WAT     H268614   8.712   9.224   5.220 -1.7416 -2.5102  2.6081
16702WAT    EPW68615   8.639   9.234   5.174 -0.4725 -0.9222  0.8047
16703WAT      O68616   3.740   1.807   3.424  0.0328 -0.5506 -0.3955
16703WAT     H168617   3.685   1.834   3.350 -0.6747 -0.7383  0.0503
16703WAT     H268618   3.811   1.757   3.384  0.6512  0.8554 -1.1070
16703WAT    EPW68619   3.742   1.804   3.409  0.0210 -0.3899 -0.4307
16704WAT      O68620   1.115   6.217   5.330 -0.4312 -0.0824  0.2354
16704WAT     H168621   1.114   6.311   5.349  0.0223 -0.4434  2.2003
16704WAT     H268622   1.044   6.205   5.267 -0.0921  1.6622 -0.5339
16704WAT    EPW68623   1.106   6.228   5.324 -0.3267  0.1001  0.3932
16705WAT      O68624   0.844   0.757   7.557  0.1781 -0.5474  0.4431
16705WAT     H168625   0.887   0.795   7.480 -0.5990 -0.7838 -0.1216
16705WAT     H268626   0.815   0.671   7.528  1.5443 -1.4418  1.5769
16705WAT    EPW68627   0.846   0.751   7.543  0.2558 -0.6966  0.5183
16706WAT      O68628   3.498   1.882   5.429 -0.7168 -0.0199  1.1120
16706WAT     H168629   3.516   1.819   5.359  1.5453 -1.4655  2.8432
16706WAT     H268630   3.428   1.937   5.394 -0.4236 -1.3184 -1.8422
16706WAT    EPW68631   3.491   1.881   5.415 -0.3797 -0.3819  0.9508
16707WAT      O68632   0.638   0.064   8.019 -0.0992 -0.1613  0.2770
16707WAT     H168633   0.666   0.148   7.980 -1.4841  0.4633  0.5735
16707WAT     H268634   0.622   0.085   8.111 -0.6345 -0.7079  0.3094
16707WAT    EPW68635   0.640   0.078   8.026 -0.3524 -0.1510  0.3204
16708WAT      O68636   2.367   0.303   1.225 -0.4892 -0.3288  0.0798
16708WAT     H168637   2.404   0.296   1.137 -1.2284  2.5376 -0.5778
16708WAT     H268638   2.385   0.219   1.266  1.7246 -1.0226 -2.0951
16708WAT    EPW68639   2.374   0.291   1.219 -0.2946 -0.0422 -0.2939
16709WAT      O68640   7.019  10.320   6.635 -0.4904  0.3776 -0.6121
16709WAT     H168641   6.964  10.294   6.561  1.4756 -0.0967 -1.9998
16709WAT     H268642   7.108  10.317   6.600  0.6286 -0.9390  2.1036
16709WAT    EPW68643   7.023  10.316   6.620 -0.0837  0.1421 -0.4370
16710WAT      O68644  10.551   0.027   3.715 -0.5286  0.4077 -0.6968
16710WAT     H168645  10.623   0.030   3.652  1.8369 -0.6377  1.7406
16710WAT     H268646  10.529  -0.066   3.721  0.0549  0.3358  0.7356
16710WAT    EPW68647  10.558   0.015   3.708 -0.1395  0.2604 -0.1864
16711WAT      O68648   4.413   2.320   6.288  0.0533  0.5300  0.1077
16711WAT     H168649   4.351   2.253   6.260 -0.8159  0.1939  2.5696
16711WAT     H268650   4.371   2.403   6.262 -1.0174  0.2670  0.9600
16711WAT    EPW68651   4.399   2.322   6.281 -0.2027  0.4510  0.5450
16712WAT      O68652   2.284   1.850   2.776  1.0376  0.2282  0.0313
16712WAT     H168653   2.224   1.921   2.753  0.8582  0.4713  1.1830
16712WAT     H268654   2.228   1.773   2.783  1.0395  0.2240  0.0019
16712WAT    EPW68655   2.269   1.849   2.774  1.0142  0.2596  0.1794
16713WAT      O68656   9.776   6.703   3.294 -0.4513 -0.3453  0.1965
16713WAT     H168657   9.826   6.656   3.228  0.3501  0.4131  0.2440
16713WAT     H268658   9.719   6.761   3.243  0.6198  0.7060  0.1401
16713WAT    EPW68659   9.775   6.705   3.278 -0.2041 -0.1066  0.1951
16714WAT      O68660   4.186   0.275   4.476  0.5310  0.9319  0.1059
16714WAT     H168661   4.213   0.191   4.513  0.2350  0.2957 -1.0691
16714WAT     H268662   4.102   0.294   4.517 -0.0960 -0.0703 -0.6639
16714WAT    EPW68663   4.179   0.266   4.486  0.4094  0.7158 -0.1504
16715WAT      O68664   0.507   9.471   3.814 -0.1629  0.4557  0.4909
16715WAT     H168665   0.433   9.531   3.801 -1.6388 -1.1917  0.8245
16715WAT     H268666   0.470   9.398   3.865  1.3114 -1.1553 -0.6150
16715WAT    EPW68667   0.492   9.469   3.819 -0.1631  0.0262  0.3891
16716WAT      O68668   3.446   1.878   7.608  0.1930 -0.8197  0.0322
16716WAT     H168669   3.480   1.856   7.521 -1.5517 -1.6583 -0.4769
16716WAT     H268670   3.354   1.897   7.594  0.1469  0.2403  1.5463
16716WAT    EPW68671   3.439   1.877   7.595 -0.0432 -0.7905  0.1645
16717WAT      O68672   4.009   2.446   2.656 -0.0414  1.3100  0.3993
16717WAT     H168673   4.028   2.367   2.706 -0.6170  2.1873  2.1043
16717WAT     H268674   4.049   2.431   2.570 -1.4754 -1.4436  0.1232
16717WAT    EPW68675   4.017   2.434   2.651 -0.3064  1.0625  0.5877
16718WAT      O68676  10.812   8.351   3.190  1.1372  0.2940  0.5466
16718WAT     H168677  10.804   8.259   3.165  0.6266  0.1417  1.2583
16718WAT     H268678  10.722   8.383   3.191  1.3981  1.2226 -1.1896
16718WAT    EPW68679  10.799   8.343   3.187  1.1039  0.3967  0.4115
16719WAT      O68680   0.674   3.095   6.698 -0.6793 -0.7601 -0.7866
16719WAT     H168681   0.727   3.160   6.653  1.5097  0.5439  3.2191
16719WAT     H268682   0.720   3.012   6.684 -1.3934 -0.8694 -2.7833
16719WAT    EPW68683   0.687   3.093   6.690 -0.4848 -0.6024 -0.5217
16720WAT      O68684   4.239   3.249   5.709  0.8200  0.3735  0.6929
16720WAT     H168685   4.311   3.218   5.654  2.1562  2.0944  1.3658
16720WAT     H268686   4.271   3.240   5.799 -0.7620 -1.0329  1.1592
16720WAT    EPW68687   4.252   3.244   5.714  0.7875  0.4151  0.8430
16721WAT      O68688   2.301   1.205   3.145 -0.0246  0.1987 -0.1504
16721WAT     H168689   2.365   1.246   3.203  1.5667 -2.8043  0.4163
16721WAT     H268690   2.331   1.228   3.057  0.4684  0.7410  0.1535
16721WAT    EPW68691   2.314   1.214   3.141  0.2505 -0.1259 -0.0356
16722WAT      O68692   1.903   1.449   1.618 -0.1569  0.4084  0.2133
16722WAT     H168693   1.944   1.392   1.684  0.8984 -1.3262 -1.7952
16722WAT     H268694   1.858   1.516   1.668 -0.7882 -1.7396  2.7475
16722WAT    EPW68695   1.903   1.450   1.633 -0.1010 -0.1037  0.2826
16723WAT      O68696   2.722   8.509   5.908  0.7480  0.0705 -0.6410
16723WAT     H168697   2.717   8.527   6.001  1.7515  1.2039 -0.7881
16723WAT     H268698   2.813   8.482   5.894  1.2479  2.0547 -1.6155
16723WAT    EPW68699   2.733   8.508   5.918  0.9464  0.4811 -0.7887
16724WAT      O68700  10.149  10.211   3.878 -0.2143  0.0311  0.6758
16724WAT     H168701  10.140  10.289   3.824 -0.8597  0.3668  1.2628
16724WAT     H268702  10.242  10.208   3.900  0.0239 -0.0053 -0.2785
16724WAT    EPW68703  10.160  10.221   3.874 -0.2685  0.0710  0.6273
16725WAT      O68704   9.497   8.476   5.032 -0.3550  0.2923  0.3135
16725WAT     H168705   9.481   8.407   4.967 -1.8309  0.1742  0.7681
16725WAT     H268706   9.523   8.552   4.980 -1.0522  0.0626 -0.3886
16725WAT    EPW68707   9.498   8.477   5.017 -0.6423  0.2460  0.2809
16726WAT      O68708  10.395   9.398   1.217  0.5904 -0.0871 -0.1831
16726WAT     H168709  10.420   9.385   1.125  0.2095 -1.7179 -0.0959
16726WAT     H268710  10.401   9.310   1.255 -0.9916  0.2536  0.9158
16726WAT    EPW68711  10.399   9.385   1.210  0.3309 -0.2575 -0.0267
16727WAT      O68712  10.063   9.687   3.816  0.3432 -0.0351  0.0692
16727WAT     H168713  10.065   9.779   3.787 -5.2929  1.1983  2.2191
16727WAT     H268714  10.014   9.642   3.748  1.7968 -1.2112 -0.2451
16727WAT    EPW68715  10.057   9.693   3.803 -0.2084 -0.0281  0.3115
16728WAT      O68716   1.071   1.391   2.760 -0.3514 -0.5587  0.4853
16728WAT     H168717   1.004   1.426   2.819 -1.0165 -1.8286  0.5107
16728WAT     H268718   1.057   1.438   2.678  0.0113  0.5869  1.0496
16728WAT    EPW68719   1.060   1.402   2.757 -0.3913 -0.5751  0.5631
16729WAT      O68720  10.303   8.908   3.042  0.1285  0.6392 -0.1717
16729WAT     H168721  10.337   8.843   3.104 -0.9608  1.3674  1.2533
16729WAT     H268722  10.339   8.882   2.957  0.4610 -1.2631  0.5158
16729WAT    EPW68723  10.313   8.896   3.039  0.0286  0.4849  0.1069
16730WAT      O68724   8.717   6.245   1.509  0.8630  0.5945  1.1208
16730WAT     H168725   8.772   6.322   1.516  0.6335  1.3092 -2.7799
16730WAT     H268726   8.628   6.279   1.509  0.7439  0.3312 -0.0944
16730WAT    EPW68727   8.713   6.259   1.510  0.8173  0.6545  0.4460
16731WAT      O68728   9.273   0.195   6.172  0.3704  0.2169 -0.0275
16731WAT     H168729   9.184   0.198   6.137  0.2087  1.7791  0.4230
16731WAT     H268730   9.316   0.271   6.132  0.9445  0.5376  1.1595
16731WAT    EPW68731   9.267   0.206   6.162  0.4249  0.4653  0.1881
16732WAT      O68732   3.776   2.588   0.682 -0.3969  0.5358 -0.7868
16732WAT     H168733   3.821   2.670   0.703 -0.8300  0.5218  0.2472
16732WAT     H268734   3.843   2.521   0.692  0.7185  0.9347 -4.2471
16732WAT    EPW68735   3.791   2.590   0.686 -0.3068  0.5866 -1.1068
16733WAT      O68736   4.832   0.213   4.929 -0.6569 -0.1675 -0.3318
16733WAT     H168737   4.886   0.200   5.007 -2.1476  1.9515  1.1553
16733WAT     H268738   4.807   0.305   4.932 -1.8474 -0.3326 -2.6380
16733WAT    EPW68739   4.836   0.223   4.939 -1.0109  0.0902 -0.4401
16734WAT      O68740   2.188   1.757   4.540  0.3193 -0.1616  0.2935
16734WAT     H168741   2.133   1.679   4.551  1.5648 -1.2589 -0.8721
16734WAT     H268742   2.187   1.800   4.626 -0.6298 -1.2858  0.8721
16734WAT    EPW68743   2.181   1.753   4.553  0.3583 -0.4547  0.2162
16735WAT      O68744   5.990   4.967   0.618 -0.6822  0.4818  0.4572
16735WAT     H168745   6.000   4.986   0.712 -1.4211  1.3548  0.3739
16735WAT     H268746   5.992   4.872   0.612 -2.7677  0.3172  1.6214
16735WAT    EPW68747   5.992   4.957   0.630 -1.0548  0.5751  0.5998
16736WAT      O68748   0.319  10.292   5.567 -0.0736  0.6432  0.1434
16736WAT     H168749   0.333  10.199   5.550 -0.1049  0.8027 -0.7802
16736WAT     H268750   0.232  10.310   5.531  0.4795  1.3199 -0.9099
16736WAT    EPW68751   0.309  10.282   5.560 -0.0048  0.7534 -0.1175
16737WAT      O68752   5.069   0.315   2.856 -0.3420  0.1178  0.0625
16737WAT     H168753   5.095   0.404   2.876 -1.3719  0.0002  2.1213
16737WAT     H268754   5.116   0.261   2.919  0.8130 -0.9242 -1.5909
16737WAT    EPW68755   5.079   0.319   2.867 -0.3254 -0.0351  0.1159
16738WAT      O68756   2.732   0.353   4.391  0.3791 -0.3304  0.0883
16738WAT     H168757   2.660   0.397   4.438  0.5926 -1.5221  1.6229
16738WAT     H268758   2.790   0.424   4.364 -0.0249  0.4626  1.2165
16738WAT    EPW68759   2.730   0.368   4.394  0.3541 -0.3830  0.4396
16739WAT      O68760   7.393   3.035   5.597  0.0682  0.9568  0.0650
16739WAT     H168761   7.358   3.095   5.663  1.5899  2.0356 -0.0592
16739WAT     H268762   7.332   3.042   5.524 -1.0145  0.5990  0.8901
16739WAT    EPW68763   7.380   3.043   5.596  0.1261  1.0519  0.1571
16740WAT      O68764   2.111  10.107   3.505 -0.4319  0.0595 -0.3300
16740WAT     H168765   2.193  10.116   3.457 -0.8747  0.5493 -1.0210
16740WAT     H268766   2.044  10.129   3.440 -1.3499 -3.5219 -0.7847
16740WAT    EPW68767   2.113  10.111   3.490 -0.6113 -0.3486 -0.4811
16741WAT      O68768   9.959   8.909   2.809  0.2238 -0.7104 -0.0762
16741WAT     H168769   9.965   8.841   2.742  2.0428 -0.5461 -0.1314
16741WAT     H268770   9.903   8.977   2.770  2.1891 -0.0737 -1.9720
16741WAT    EPW68771   9.953   8.909   2.795  0.7234 -0.6051 -0.3337
16742WAT      O68772   0.101   9.434   3.041  1.1990 -0.2796 -0.3913
16742WAT     H168773   0.021   9.487   3.041  0.9170 -0.6981 -0.4975
16742WAT     H268774   0.070   9.344   3.025  1.6848 -0.4516 -0.3810
16742WAT    EPW68775   0.086   9.429   3.039  1.2259 -0.3576 -0.4039
16743WAT      O68776  10.064   9.387   5.409 -0.3886  0.4462  0.0375
16743WAT     H168777  10.040   9.318   5.471 -2.6969  0.8124 -0.3612
16743WAT     H268778  10.076   9.465   5.463 -1.9874  0.6684  0.1413
16743WAT    EPW68779  10.062   9.388   5.424 -0.9041  0.5236 -0.0014
16744WAT      O68780   2.817   3.183   6.192 -0.1413 -0.4436 -0.5565
16744WAT     H168781   2.889   3.225   6.146  0.9962 -0.7755  0.8692
16744WAT     H268782   2.758   3.255   6.216 -0.5276 -0.2168 -2.0586
16744WAT    EPW68783   2.819   3.198   6.189 -0.0423 -0.4574 -0.5667
16745WAT      O68784   3.858   2.332   4.985  0.0863  0.6753 -0.1577
16745WAT     H168785   3.840   2.399   5.051  0.7107  1.3733 -0.6808
16745WAT     H268786   3.771   2.306   4.953 -0.1855  0.7816  0.4867
16745WAT    EPW68787   3.844   2.337   4.989  0.1328  0.7813 -0.1416
16746WAT      O68788   5.756   2.202   3.662 -0.3344  0.1241 -0.4641
16746WAT     H168789   5.748   2.296   3.677 -1.7835 -0.3489  2.1799
16746WAT     H268790   5.813   2.171   3.733 -1.8850 -1.3103  0.2061
16746WAT    EPW68791   5.763   2.211   3.673 -0.7298 -0.1276 -0.0268
16747WAT      O68792  10.821   9.580   4.614  0.0529 -0.6901  0.0634
16747WAT     H168793  10.856   9.512   4.670 -2.2967 -2.1793 -0.1177
16747WAT     H268794  10.817   9.540   4.527 -2.6564 -0.9651  0.2119
16747WAT    EPW68795  10.825   9.566   4.610 -0.6146 -0.9232  0.0591
16748WAT      O68796   3.867   0.145   2.892 -0.4027  0.2814  0.9122
16748WAT     H168797   3.800   0.139   2.960 -0.7180  1.7382  0.7480
16748WAT     H268798   3.818   0.139   2.810 -0.3482  1.4433  0.7893
16748WAT    EPW68799   3.852   0.143   2.890 -0.4370  0.6268  0.8743
16749WAT      O68800   2.462   1.237   7.469  0.6518  0.6378  0.1008
16749WAT     H168801   2.436   1.196   7.551 -2.6938  1.7519 -0.2551
16749WAT     H268802   2.432   1.176   7.401  0.3023  1.2561 -0.3153
16749WAT    EPW68803   2.454   1.223   7.470  0.1644  0.8662 -0.0012
16750WAT      O68804   0.792   0.840   5.027  0.9423  0.3935 -0.5491
16750WAT     H168805   0.870   0.814   5.075  0.9988 -0.8443 -1.2844
16750WAT     H268806   0.801   0.799   4.941 -1.1008 -0.8174 -0.2521
16750WAT    EPW68807   0.803   0.831   5.022  0.6802  0.0706 -0.6068
16751WAT      O68808   3.091   0.952   2.522 -0.6572 -0.4668  0.6301
16751WAT     H168809   3.060   1.042   2.517 -2.5824 -1.0133  1.8115
16751WAT     H268810   3.102   0.926   2.431 -1.6595  0.4578  0.2175
16751WAT    EPW68811   3.088   0.960   2.509 -1.0433 -0.4169  0.7315
16752WAT      O68812   9.801   1.994   6.057  1.2008 -0.0864  0.4585
16752WAT     H168813   9.781   2.000   5.964 -0.0355  1.4149  0.7889
16752WAT     H268814   9.731   1.939   6.093  0.9098  0.4357  0.7024
16752WAT    EPW68815   9.789   1.987   6.049  0.9995  0.1804  0.5343
16753WAT      O68816   0.214   9.782   2.838 -0.2109  0.1053 -0.3705
16753WAT     H168817   0.215   9.821   2.926  2.1422  2.3387 -1.2347
16753WAT     H268818   0.241   9.691   2.851 -0.8378  0.1371  1.2980
16753WAT    EPW68819   0.218   9.775   2.851  0.0167  0.4044 -0.2644
16754WAT      O68820  10.984   3.182   4.066 -0.4636 -0.5508  0.4189
16754WAT     H168821  11.058   3.226   4.108 -2.3245  2.0761  1.1878
16754WAT     H268822  10.964   3.235   3.989  0.1321 -2.8386 -1.4243
16754WAT    EPW68823  10.991   3.194   4.062 -0.6305 -0.5059  0.2775
16755WAT      O68824   1.354   9.866   3.139  0.4775 -0.1514 -0.0512
16755WAT     H168825   1.434   9.900   3.179 -1.0511  1.8129  1.5313
16755WAT     H268826   1.368   9.879   3.045  1.4674  1.5464  0.2773
16755WAT    EPW68827   1.366   9.872   3.132  0.4065  0.3319  0.2010
16756WAT      O68828   2.217   6.900   3.345 -0.4271 -0.4080  0.0210
16756WAT     H168829   2.125   6.878   3.358 -0.6545  0.9353  0.8525
16756WAT     H268830   2.216   6.987   3.305  0.4883 -0.0492  0.7336
16756WAT    EPW68831   2.205   6.908   3.341 -0.3363 -0.1833  0.2247
16757WAT      O68832   4.052   2.194   5.523  0.5246 -0.0207 -0.7162
16757WAT     H168833   4.069   2.271   5.469 -0.2156  1.7310  1.4192
16757WAT     H268834   3.968   2.160   5.490  1.1933 -0.3770 -2.1200
16757WAT    EPW68835   4.043   2.200   5.511  0.5152  0.1633 -0.6196
16758WAT      O68836   8.324   8.279   5.172  0.2588  0.1619  0.2890
16758WAT     H168837   8.300   8.259   5.263  1.0191 -0.2262  0.4189
16758WAT     H268838   8.342   8.373   5.172 -2.4788  0.7617 -0.1214
16758WAT    EPW68839   8.323   8.289   5.184 -0.0024  0.1893  0.2520
16759WAT      O68840   5.255   0.569   5.413  0.1049 -0.2743  0.2207
16759WAT     H168841   5.191   0.520   5.465  1.8623 -2.2514  0.6729
16759WAT     H268842   5.274   0.512   5.338  0.3301  0.8917 -0.6307
16759WAT    EPW68843   5.249   0.555   5.410  0.3664 -0.3813  0.1681
16760WAT      O68844  10.104   9.379   2.156  0.4811  0.3363 -0.0329
16760WAT     H168845  10.033   9.319   2.134  1.8416 -1.4776  0.3358
16760WAT     H268846  10.134   9.349   2.242  1.8644  0.9042 -0.3038
16760WAT    EPW68847  10.098   9.367   2.165  0.8426  0.1721 -0.0199
16761WAT      O68848   5.353   2.012   5.220  0.8407  0.0719 -0.4167
16761WAT     H168849   5.328   1.921   5.203 -1.1102 -0.2062  3.0081
16761WAT     H268850   5.282   2.064   5.182 -1.1861 -0.2984  2.5317
16761WAT    EPW68851   5.340   2.007   5.213  0.3161 -0.0137  0.4239
16762WAT      O68852   6.415   2.160   3.691  1.0600  0.3719 -0.2427
16762WAT     H168853   6.482   2.207   3.741  0.5155  1.6116 -0.6346
16762WAT     H268854   6.359   2.121   3.758  1.0935  0.9166  0.1148
16762WAT    EPW68855   6.417   2.161   3.706  0.9928  0.6073 -0.2474
16763WAT      O68856   2.752   3.400   5.835  0.1523 -0.1429  0.4675
16763WAT     H168857   2.816   3.438   5.774 -2.3205  1.7122 -1.1959
16763WAT     H268858   2.731   3.471   5.895  1.3223 -1.4684  2.5831
16763WAT    EPW68859   2.758   3.415   5.835 -0.0197 -0.0731  0.5271
16764WAT      O68860   3.604   2.095   7.738 -0.5310 -0.7129 -1.3158
16764WAT     H168861   3.551   2.042   7.679 -0.8061  1.9722 -3.7332
16764WAT     H268862   3.681   2.118   7.686  0.9220 -0.9698  0.6132
16764WAT    EPW68863   3.607   2.091   7.723 -0.3754 -0.3927 -1.3802
16765WAT      O68864   5.664   1.382   1.649 -0.2472  0.2168 -0.5715
16765WAT     H168865   5.697   1.422   1.729 -0.5508  2.1549 -1.3652
16765WAT     H268866   5.572   1.363   1.668 -0.9575  2.7482 -1.1206
16765WAT    EPW68867   5.656   1.384   1.662 -0.3808  0.8063 -0.7486
16766WAT      O68868   9.941  10.111   5.027 -0.4111 -0.1525  0.0051
16766WAT     H168869  10.028  10.089   5.061 -0.2322  0.0416 -0.3172
16766WAT     H268870   9.913  10.032   4.981  0.0092  0.1052 -0.7109
16766WAT    EPW68871   9.949  10.097   5.025 -0.3324 -0.0935 -0.1321
16767WAT      O68872   8.587   5.886   2.474 -0.1079 -0.0208  0.6768
16767WAT     H168873   8.525   5.860   2.541  0.3240 -2.6633  0.1426
16767WAT     H268874   8.669   5.842   2.498  0.0475 -1.0870 -1.5517
16767WAT    EPW68875   8.590   5.877   2.486 -0.0305 -0.5100  0.3124
16768WAT      O68876   9.946   8.521   3.973 -0.5437  0.1722  0.5588
16768WAT     H168877   9.865   8.472   3.959 -0.7205  0.0121  1.9450
16768WAT     H268878   9.918   8.612   3.982 -0.3816  0.3388 -0.5146
16768WAT    EPW68879   9.932   8.526   3.972 -0.5460  0.1731  0.6000
16769WAT      O68880   4.053   2.241   5.823 -0.2364  0.5356 -0.7522
16769WAT     H168881   4.060   2.181   5.897 -1.0335  1.0928 -0.2052
16769WAT     H268882   4.001   2.194   5.758 -3.9487  1.8256  1.0441
16769WAT    EPW68883   4.047   2.227   5.824 -0.8311  0.7793 -0.4432
16770WAT      O68884   6.085   0.255   2.290  0.1969  0.4022  1.1514
16770WAT     H168885   6.004   0.241   2.241  0.6663  0.2209  0.4016
16770WAT     H268886   6.122   0.336   2.252  0.6779  0.1357  1.0428
16770WAT    EPW68887   6.080   0.264   2.278  0.3223  0.3432  1.0382
16771WAT      O68888   3.138   2.065   3.449 -0.5184 -0.1809 -0.2162
16771WAT     H168889   3.074   2.002   3.417 -1.5310  0.7436 -0.0532
16771WAT     H268890   3.094   2.111   3.520  0.5017  0.1421  0.2286
16771WAT    EPW68891   3.124   2.062   3.454 -0.5174 -0.0163 -0.1360
16772WAT      O68892   3.356   0.451   4.399 -0.0987  0.3294  0.2982
16772WAT     H168893   3.408   0.508   4.342 -1.3789 -0.7432 -2.1164
16772WAT     H268894   3.409   0.371   4.407 -0.3965  0.0443 -0.4142
16772WAT    EPW68895   3.370   0.448   4.392 -0.3067  0.1503 -0.1142
16773WAT      O68896   1.191   6.588   6.043  0.1079 -0.1475  0.2688
16773WAT     H168897   1.135   6.629   6.109 -0.3986  0.8566 -0.7602
16773WAT     H268898   1.143   6.509   6.018 -0.5565  0.3715 -0.1365
16773WAT    EPW68899   1.177   6.583   6.049 -0.0465  0.0534  0.0794
16774WAT      O68900   0.784   5.922   1.527  0.0401 -0.3264  0.0466
16774WAT     H168901   0.807   6.000   1.475 -1.8368  1.5684  1.8932
16774WAT     H268902   0.765   5.855   1.461 -0.5054  1.4355 -1.6915
16774WAT    EPW68903   0.784   5.924   1.511 -0.2794  0.1559  0.0609
16775WAT      O68904   1.950   1.114   4.088  0.0890 -0.7891  0.1742
16775WAT     H168905   2.040   1.084   4.095  0.3031  0.0617  1.5487
16775WAT     H268906   1.916   1.109   4.178 -0.5073  0.9980  0.0875
16775WAT    EPW68907   1.957   1.110   4.101  0.0386 -0.4412  0.3438
16776WAT      O68908   2.239   1.580   6.597  0.3719 -0.1108  0.7683
16776WAT     H168909   2.323   1.595   6.554 -0.0955  0.9637  0.1647
16776WAT     H268910   2.183   1.545   6.527 -1.5836  5.3289 -0.9067
16776WAT    EPW68911   2.242   1.578   6.582  0.0523  0.7485  0.4678
16777WAT      O68912   3.590   5.171   3.195  1.0892 -0.5643 -0.4637
16777WAT     H168913   3.514   5.135   3.149  0.6489  1.6533 -1.5900
16777WAT     H268914   3.587   5.131   3.282 -1.4303 -0.4717 -0.4518
16777WAT    EPW68915   3.580   5.161   3.201  0.6988 -0.2596 -0.6106
16778WAT      O68916   9.134   1.128   1.666  0.3429 -0.2094 -0.0196
16778WAT     H168917   9.146   1.192   1.596  1.9014 -0.4101  0.0370
16778WAT     H268918   9.178   1.049   1.635 -0.2031 -0.7649  0.5822
16778WAT    EPW68919   9.142   1.126   1.653  0.4764 -0.3092  0.0672
16779WAT      O68920   3.809   2.077   5.442 -0.1156 -0.4784  0.6182
16779WAT     H168921   3.836   2.087   5.351 -2.8056  0.4098 -0.1753
16779WAT     H268922   3.804   1.982   5.455  0.9677 -0.6213  0.0853
16779WAT    EPW68923   3.812   2.066   5.432 -0.3275 -0.3800  0.4432
16780WAT      O68924   6.277   3.470   7.753  0.9232 -0.0543 -0.3708
16780WAT     H168925   6.311   3.392   7.797  0.5246  1.8444  3.8051
16780WAT     H268926   6.354   3.521   7.730  1.1573  0.7019  1.9138
16780WAT    EPW68927   6.291   3.466   7.756  0.9015  0.2959  0.4814
16781WAT      O68928   2.757   2.681   3.378  0.0929 -0.2081 -0.5939
16781WAT     H168929   2.813   2.614   3.418  0.2261 -0.4310 -1.1401
16781WAT     H268930   2.798   2.697   3.293  1.3938  2.2256  0.3959
16781WAT    EPW68931   2.770   2.674   3.372  0.2820  0.0836 -0.5355
16782WAT      O68932   6.265   3.218   6.850 -0.3197  0.9338  0.0035
16782WAT     H168933   6.178   3.218   6.891 -0.2828  1.3743  0.0806
16782WAT     H268934   6.248   3.200   6.758 -0.5634  1.8263 -0.1282
16782WAT    EPW68935   6.251   3.215   6.843 -0.3469  1.1096 -0.0038
16783WAT      O68936   4.338   0.728   3.865  0.0735 -0.2160  0.5956
16783WAT     H168937   4.330   0.670   3.941 -1.0542  3.2034  3.3346
16783WAT     H268938   4.253   0.721   3.821  0.3292 -1.3556  0.2308
16783WAT    EPW68939   4.326   0.719   3.870 -0.0415  0.0847  0.9087
16784WAT      O68940   2.049   2.522   6.556  0.4236 -0.0289 -0.9911
16784WAT     H168941   2.133   2.494   6.518  0.5177  1.5531 -2.0465
16784WAT     H268942   1.984   2.501   6.489  0.1701  0.0484 -0.7707
16784WAT    EPW68943   2.052   2.515   6.542  0.4027  0.1899 -1.1015
16785WAT      O68944   4.746   1.128   8.102 -0.4569 -0.7423  0.1325
16785WAT     H168945   4.816   1.085   8.151  0.7991  0.5477 -0.4408
16785WAT     H268946   4.698   1.057   8.060  0.8197 -1.6585  0.1632
16785WAT    EPW68947   4.749   1.113   8.103 -0.1228 -0.6930  0.0615
16786WAT      O68948   4.993   1.404   4.780 -0.5856  0.7089 -0.1750
16786WAT     H168949   4.965   1.472   4.718 -1.7681  0.6496  0.2659
16786WAT     H268950   4.987   1.322   4.730 -0.9367  0.7307 -0.1734
16786WAT    EPW68951   4.988   1.402   4.765 -0.7880  0.7039 -0.1166
16787WAT      O68952   3.572   1.955   2.939 -0.3438 -0.6420 -0.2961
16787WAT     H168953   3.626   2.026   2.904  0.8938 -1.2542  0.2876
16787WAT     H268954   3.491   1.959   2.889  0.2172  0.3523 -1.1629
16787WAT    EPW68955   3.569   1.965   2.928 -0.1066 -0.5916 -0.3334
16788WAT      O68956   5.443   1.479   3.991  0.0442 -0.0024  0.7649
16788WAT     H168957   5.502   1.546   3.955  0.5869 -1.1714 -0.6004
16788WAT     H268958   5.378   1.465   3.923 -0.0397 -0.8920  1.0231
16788WAT    EPW68959   5.442   1.486   3.977  0.1049 -0.2739  0.6187
16789WAT      O68960   4.148   3.089   4.139  0.2530  0.2382  0.0114
16789WAT     H168961   4.081   3.156   4.154 -1.4032 -1.8245  2.7228
16789WAT     H268962   4.162   3.090   4.044 -2.1296  2.1444 -0.4212
16789WAT    EPW68963   4.141   3.098   4.128 -0.2797  0.2176  0.3119
16790WAT      O68964   7.743   4.717   7.091 -0.2285  0.0988  0.1434
16790WAT     H168965   7.768   4.801   7.130  1.2207 -0.4384  0.4568
16790WAT     H268966   7.744   4.656   7.164 -2.3462 -0.0280  0.1249
16790WAT    EPW68967   7.746   4.720   7.106 -0.3169  0.0112  0.1824
16791WAT      O68968   4.576   1.882   3.210 -0.4108  0.0862  0.1524
16791WAT     H168969   4.531   1.877   3.126  0.2359 -3.4369 -0.1376
16791WAT     H268970   4.560   1.797   3.251  1.0965  0.8908  2.6653
16791WAT    EPW68971   4.568   1.870   3.204 -0.1266 -0.2725  0.4457
16792WAT      O68972   4.559   2.856   5.061 -0.1454 -0.5300 -0.6382
16792WAT     H168973   4.568   2.951   5.063 -0.8784 -0.4112  2.6228
16792WAT     H268974   4.480   2.841   5.008 -1.2042  0.8665  0.4581
16792WAT    EPW68975   4.550   2.867   5.054 -0.3817 -0.3301 -0.0634
16793WAT      O68976   4.442   3.782   4.565 -0.5465 -0.3703  0.3112
16793WAT     H168977   4.489   3.789   4.482 -2.7995  1.3771 -0.9402
16793WAT     H268978   4.432   3.688   4.579  0.0316 -0.7046 -1.3145
16793WAT    EPW68979   4.447   3.771   4.556 -0.7672 -0.1839 -0.0684
16794WAT      O68980   3.567   8.186   3.863  0.2328  0.5038 -0.0015
16794WAT     H168981   3.609   8.194   3.778 -1.4406 -0.6910 -0.9986
16794WAT     H268982   3.503   8.257   3.866  0.0705  0.3550  0.1259
16794WAT    EPW68983   3.564   8.196   3.852 -0.0094  0.3266 -0.1162
16795WAT      O68984   4.894   0.151   2.539  0.0280 -0.4647 -0.1913
16795WAT     H168985   4.914   0.241   2.515  0.8921 -0.1524  1.5436
16795WAT     H268986   4.969   0.122   2.591 -0.3136 -2.1387 -0.5558
16795WAT    EPW68987   4.906   0.159   2.543  0.0970 -0.6443 -0.0105
16796WAT      O68988   5.093   0.270   3.269 -0.0193 -0.1277  0.2067
16796WAT     H168989   5.153   0.244   3.198 -0.4334  0.2707 -0.2963
16796WAT     H268990   5.017   0.306   3.224 -0.2079  0.3085  0.8632
16796WAT    EPW68991   5.091   0.271   3.254 -0.0989 -0.0176  0.2271
16797WAT      O68992   6.750   4.361   4.726  0.6729 -0.0222  0.5413
16797WAT     H168993   6.791   4.425   4.783  2.9511 -0.8560 -0.0406
16797WAT     H268994   6.696   4.413   4.666  2.8185  1.4507 -0.2240
16797WAT    EPW68995   6.748   4.376   4.725  1.2565  0.0622  0.3638
16798WAT      O68996   2.552   3.905   0.968  0.0119  0.0108  0.1066
16798WAT     H168997   2.554   3.956   1.049  0.4855  0.3831 -0.1312
16798WAT     H268998   2.474   3.850   0.976 -0.6540  0.9447  0.2778
16798WAT    EPW68999   2.542   3.905   0.979 -0.0135  0.1831  0.0978
16799WAT      O69000   2.958   1.972   3.916  0.0585 -0.1646 -0.3715
16799WAT     H169001   3.013   2.041   3.952  1.0184 -0.1818 -1.7131
16799WAT     H269002   2.890   1.959   3.981 -1.1213  3.1702 -0.7222
16799WAT    EPW69003   2.956   1.980   3.929  0.0296  0.2729 -0.5946
16800WAT      O69004   4.548   3.139   5.006 -0.2401 -0.1534  0.9607
16800WAT     H169005   4.516   3.164   4.920 -0.9506 -0.6883  1.0659
16800WAT     H269006   4.618   3.202   5.024 -0.5286  0.3774  0.2818
16800WAT    EPW69007   4.553   3.151   4.997 -0.3717 -0.1539  0.8850
16801WAT      O69008   5.802   2.068   2.489 -1.0531  0.6759  0.3958
16801WAT     H169009   5.805   2.141   2.427 -3.5941  1.6182  1.2729
16801WAT     H269010   5.740   2.006   2.451 -2.5706  1.2197  1.8509
16801WAT    EPW69011   5.794   2.069   2.476 -1.5886  0.8720  0.7035
16802WAT      O69012   3.380   1.388   3.630 -0.2097 -0.3542  0.0042
16802WAT     H169013   3.394   1.469   3.581  0.6068 -1.0977 -1.0472
16802WAT     H269014   3.333   1.331   3.570  0.3741 -1.1176  0.2524
16802WAT    EPW69015   3.376   1.391   3.616 -0.0250 -0.5530 -0.1018
16803WAT      O69016   3.476   0.356   0.331 -0.8285 -0.6438 -0.1343
16803WAT     H169017   3.438   0.437   0.297  0.0057 -0.3402 -0.3706
16803WAT     H269018   3.460   0.291   0.262  0.5175 -0.1225 -0.9853
16803WAT    EPW69019   3.469   0.358   0.317 -0.5410 -0.5350 -0.2778
16804WAT      O69020   4.845   1.928   0.977 -0.1186 -0.2714 -0.2420
16804WAT     H169021   4.866   1.957   0.889  0.2605 -0.5887 -0.2603
16804WAT     H269022   4.887   1.993   1.034  0.4727 -0.6142 -0.2856
16804WAT    EPW69023   4.853   1.940   0.973  0.0093 -0.3584 -0.2502
16805WAT      O69024   0.278   7.067   2.810  0.3581 -0.0368 -0.3125
16805WAT     H169025   0.248   7.157   2.822 -0.6765 -0.2215 -1.3252
16805WAT     H269026   0.202   7.021   2.773  1.1953 -1.0706 -0.8178
16805WAT    EPW69027   0.264   7.073   2.807  0.3320 -0.1974 -0.5126
16806WAT      O69028   0.221  10.280   2.569  0.4107 -0.1541 -0.5078
16806WAT     H169029   0.299  10.328   2.542 -0.4095  0.5951 -1.6664
16806WAT     H269030   0.216  10.206   2.509  1.3128 -1.3598  0.8606
16806WAT    EPW69031   0.231  10.277   2.557  0.4215 -0.2151 -0.4802
16807WAT      O69032   1.812   3.175   3.180 -0.1869 -0.5656  0.4784
16807WAT     H169033   1.847   3.217   3.101 -0.3911 -1.2011  0.0462
16807WAT     H269034   1.720   3.199   3.181 -0.0078  0.1289  0.9790
16807WAT    EPW69035   1.805   3.184   3.170 -0.1901 -0.5578  0.4874
16808WAT      O69036   0.052   7.871   5.389  0.4289 -0.7653 -0.0763
16808WAT     H169037   0.114   7.843   5.322  0.4512 -0.6050 -0.1210
16808WAT     H269038   0.106   7.888   5.466  0.5001 -0.1162 -0.2687
16808WAT    EPW69039   0.067   7.870   5.391  0.4411 -0.6588 -0.1078
16809WAT      O69040   2.112   1.835   4.295 -0.0675  0.3165  0.1453
16809WAT     H169041   2.060   1.763   4.258 -0.9406  1.1850 -0.3664
16809WAT     H269042   2.157   1.796   4.370  1.3777 -1.3885 -1.5126
16809WAT    EPW69043   2.111   1.820   4.300  0.0079  0.2062 -0.1409
16810WAT      O69044   0.323  10.303   3.168  0.1947  0.2938  0.5784
16810WAT     H169045   0.362  10.382   3.129  1.6700 -0.1908  1.0029
16810WAT     H269046   0.367  10.230   3.125 -0.3490 -0.2961  0.9937
16810WAT    EPW69047   0.334  10.304   3.157  0.3176  0.1521  0.6893
16811WAT      O69048   5.382   2.706   4.500 -0.4164  0.4374  0.0895
16811WAT     H169049   5.374   2.800   4.517  0.7909  0.5105  0.3373
16811WAT     H269050   5.349   2.696   4.411  2.2976  1.6255 -1.1487
16811WAT    EPW69051   5.376   2.717   4.491  0.1006  0.6037 -0.0412
16812WAT      O69052   6.369   1.046   6.673 -0.5484 -0.1982 -0.7377
16812WAT     H169053   6.284   1.077   6.705 -0.7077 -0.2272 -1.1286
16812WAT     H269054   6.427   1.121   6.685 -0.0212 -0.9020  1.7761
16812WAT    EPW69055   6.365   1.060   6.679 -0.5000 -0.2948 -0.4578
16813WAT      O69056   3.378   3.029   4.170  1.0413 -0.1580 -0.6397
16813WAT     H169057   3.433   2.951   4.171  2.8505  1.0641 -0.8870
16813WAT     H269058   3.439   3.103   4.166 -0.6311  1.2517 -2.7214
16813WAT    EPW69059   3.393   3.029   4.170  1.0594  0.1893 -0.9470
16814WAT      O69060   5.208   1.862   3.837 -0.0777 -0.0585  0.0571
16814WAT     H169061   5.116   1.880   3.857 -0.1119 -1.0983  0.9309
16814WAT     H269062   5.238   1.940   3.790 -1.2687  0.5046  0.1945
16814WAT    EPW69063   5.200   1.874   3.834 -0.2394 -0.1214  0.1904
16815WAT      O69064   1.821   9.019   3.017  0.2081 -0.1042 -0.2128
16815WAT     H169065   1.910   9.052   3.003  0.0824  0.3447  0.0312
16815WAT     H269066   1.821   8.986   3.106  0.4999 -1.3293 -0.6445
16815WAT    EPW69067   1.833   9.019   3.027  0.2299 -0.2065 -0.2376
16816WAT      O69068   0.867  10.075   3.294  0.4336 -0.1679 -0.0496
16816WAT     H169069   0.841  10.135   3.224  0.2084 -1.0898 -0.7799
16816WAT     H269070   0.960  10.059   3.278  0.4465 -0.1698  0.0271
16816WAT    EPW69071   0.876  10.081   3.283  0.4057 -0.2894 -0.1358
16817WAT      O69072   6.048   0.754   3.761 -0.4683 -0.3648  0.9108
16817WAT     H169073   6.012   0.811   3.693  0.3246  0.0149  0.8074
16817WAT     H269074   6.036   0.803   3.842  1.5471  0.6356  0.6618
16817WAT    EPW69075   6.041   0.768   3.763 -0.0980 -0.1828  0.8644
16818WAT      O69076   3.086   0.694   2.028 -0.0276 -0.6344 -0.5815
16818WAT     H169077   3.106   0.611   2.070 -1.3134  1.3082  4.6393
16818WAT     H269078   2.992   0.692   2.014 -0.1813  0.1165  0.2302
16818WAT    EPW69079   3.077   0.683   2.032 -0.2174 -0.2792  0.2141
16819WAT      O69080  10.486  10.335   3.278  0.4896  0.3912 -0.0961
16819WAT     H169081  10.529  10.420   3.263 -1.9827  1.4997 -1.6018
16819WAT     H269082  10.508  10.283   3.201  1.8810 -0.3572  0.7576
16819WAT    EPW69083  10.494  10.340   3.266  0.3471  0.4382 -0.1820
16820WAT      O69084   2.767   3.682   4.812 -0.0854  0.3821 -0.1041
16820WAT     H169085   2.823   3.729   4.874  0.6032 -3.3160  2.4557
16820WAT     H269086   2.823   3.668   4.735  1.6624 -0.7579  1.2719
16820WAT    EPW69087   2.782   3.686   4.810  0.2360 -0.2562  0.4151
16821WAT      O69088   3.019   2.423   0.271 -0.4952  0.0642  0.6700
16821WAT     H169089   3.015   2.516   0.250  1.2144  0.3718  1.5768
16821WAT     H269090   3.059   2.419   0.358  0.0791 -1.5456  0.3690
16821WAT    EPW69091   3.023   2.435   0.280 -0.1941 -0.1075  0.7499
16822WAT      O69092   1.371   8.262   3.044  0.0356 -0.3378 -0.7254
16822WAT     H169093   1.416   8.186   3.009  0.5507  0.4523 -1.8664
16822WAT     H269094   1.308   8.227   3.106  1.8832 -1.5135  0.5714
16822WAT    EPW69095   1.368   8.248   3.047  0.3473 -0.3886 -0.7049
16823WAT      O69096   3.439   0.777   4.308 -0.1793 -0.2932  0.3257
16823WAT     H169097   3.403   0.775   4.219 -1.7971 -1.0056  0.9654
16823WAT     H269098   3.525   0.817   4.297 -0.3742 -0.2735 -1.5482
16823WAT    EPW69099   3.445   0.782   4.295 -0.4183 -0.3846  0.1628
16824WAT      O69100   3.980   3.860   6.953  0.0748  0.2409  0.4386
16824WAT     H169101   4.070   3.868   6.983  0.4325  0.4746 -0.6840
16824WAT     H269102   3.986   3.821   6.866 -0.8506  1.0478 -0.0075
16824WAT    EPW69103   3.992   3.856   6.946  0.0000  0.3783  0.2315
16825WAT      O69104   5.142   2.760   2.071  0.5289 -0.3026 -0.0042
16825WAT     H169105   5.114   2.788   1.984  2.0279  5.3623  0.9582
16825WAT     H269106   5.231   2.727   2.057 -0.0710 -1.6897 -0.8007
16825WAT    EPW69107   5.150   2.759   2.057  0.6475  0.2617  0.0176
16826WAT      O69108   4.112   3.461   1.198 -0.3227  0.3147 -0.0791
16826WAT     H169109   4.118   3.557   1.193  0.0171  0.3156  0.2911
16826WAT     H269110   4.036   3.439   1.145 -0.2347  0.7709 -0.4049
16826WAT    EPW69111   4.103   3.471   1.190 -0.2661  0.3750 -0.0732
16827WAT      O69112   4.835   1.855   1.885  0.8422 -0.2131  0.2305
16827WAT     H169113   4.867   1.781   1.835  2.0882  0.4960 -0.0627
16827WAT     H269114   4.866   1.840   1.974  0.7286 -0.2542  0.2636
16827WAT    EPW69115   4.843   1.843   1.890  0.9913 -0.1249  0.1962
16828WAT      O69116   4.298   5.488   5.639  0.0707 -0.1897  0.5035
16828WAT     H169117   4.230   5.547   5.671  1.8397  0.6992  2.9566
16828WAT     H269118   4.267   5.401   5.662 -2.4012 -0.3495 -2.8287
16828WAT    EPW69119   4.285   5.484   5.646 -0.0222 -0.0935  0.3874
16829WAT      O69120   3.765   1.468   2.641  0.6096  0.0292 -0.6869
16829WAT     H169121   3.776   1.483   2.735  0.9434 -2.3168 -0.2881
16829WAT     H269122   3.672   1.486   2.625  1.0319  2.9136 -0.4984
16829WAT    EPW69123   3.754   1.473   2.651  0.7093  0.1003 -0.6094
16830WAT      O69124   7.061   1.855   4.677 -1.1372  0.7502  0.5115
16830WAT     H169125   7.054   1.768   4.715  1.2615  0.0249 -0.5353
16830WAT     H269126   7.028   1.845   4.588  1.1343  0.3083 -0.3376
16830WAT    EPW69127   7.055   1.842   4.671 -0.5212  0.5963  0.2615
16831WAT      O69128   1.830   2.065   5.135 -0.1953  0.3298  0.4620
16831WAT     H169129   1.846   2.094   5.045  1.5637  3.4272  1.6488
16831WAT     H269130   1.880   1.984   5.143  0.3985  0.5094 -1.0518
16831WAT    EPW69131   1.839   2.058   5.124  0.1150  0.7620  0.4189
16832WAT      O69132   6.304   3.531   2.764 -0.2699 -0.6424 -0.1038
16832WAT     H169133   6.269   3.612   2.800 -0.5729 -1.0862  0.6441
16832WAT     H269134   6.308   3.545   2.670 -1.7907 -0.3105 -0.1427
16832WAT    EPW69135   6.300   3.543   2.756 -0.5107 -0.6571 -0.0103
16833WAT      O69136   5.489   2.646   3.636 -0.6703 -0.4114 -0.0538
16833WAT     H169137   5.478   2.646   3.731 -0.6428  0.5073 -0.0430
16833WAT     H269138   5.580   2.672   3.621 -0.2048 -2.0939 -0.3035
16833WAT    EPW69139   5.499   2.650   3.646 -0.6056 -0.5121 -0.0852
16834WAT      O69140   3.145   2.373   3.584 -0.5412 -0.0030  0.4494
16834WAT     H169141   3.220   2.346   3.531 -0.7380  2.2179 -1.1404
16834WAT     H269142   3.177   2.374   3.674  2.1241  2.9988 -0.3572
16834WAT    EPW69143   3.159   2.369   3.589 -0.2156  0.6858  0.1333
16835WAT      O69144   6.307   1.256   2.717 -0.5677 -0.7651 -0.0533
16835WAT     H169145   6.398   1.259   2.687 -1.2609  0.2265 -2.2891
16835WAT     H269146   6.302   1.324   2.785 -0.2802  1.4323 -2.1084
16835WAT    EPW69147   6.318   1.265   2.722 -0.6211 -0.3446 -0.6193
16836WAT      O69148   1.917   9.443   4.960  0.2442 -0.5542 -0.2771
16836WAT     H169149   1.890   9.524   4.917 -3.4761 -0.7749  1.2739
16836WAT     H269150   1.839   9.388   4.957  1.2586 -2.3640  2.6037
16836WAT    EPW69151   1.903   9.446   4.954 -0.1127 -0.8221  0.3073
16837WAT      O69152   4.338   0.464   4.091  0.4421 -0.5321  0.8769
16837WAT     H169153   4.410   0.462   4.154  1.0669 -1.5365  0.1661
16837WAT     H269154   4.372   0.418   4.014 -2.0450 -4.2395  1.7414
16837WAT    EPW69155   4.352   0.457   4.089  0.1965 -1.1536  0.8969
16838WAT      O69156   1.068   0.009   5.997 -0.1504  0.0686  0.2257
16838WAT     H169157   1.034   0.066   5.928 -2.0135 -1.4068 -0.1470
16838WAT     H269158   1.062  -0.079   5.960  1.4674 -0.5132  1.2538
16838WAT    EPW69159   1.063   0.005   5.983 -0.1827 -0.2028  0.3123
16839WAT      O69160   3.214   1.485   6.618 -0.3700 -0.0636  0.6247
16839WAT     H169161   3.273   1.555   6.647 -1.4552  0.7248  0.9720
16839WAT     H269162   3.196   1.505   6.526  1.3400 -1.3478 -0.0406
16839WAT    EPW69163   3.220   1.497   6.610 -0.2877 -0.1289  0.5827
16840WAT      O69164   4.919   1.700   2.844 -0.0099  0.1574  0.4578
16840WAT     H169165   4.993   1.704   2.783  1.2646 -1.3440  1.8181
16840WAT     H269166   4.926   1.781   2.894  1.7685 -0.6708  1.6590
16840WAT    EPW69167   4.930   1.711   2.842  0.3927 -0.1498  0.7956
16841WAT      O69168   3.553   0.152   6.566  0.5083 -0.1142  0.1418
16841WAT     H169169   3.568   0.080   6.505  0.5946  0.6415 -0.7504
16841WAT     H269170   3.459   0.166   6.565  0.6101  0.6367 -0.7156
16841WAT    EPW69171   3.543   0.144   6.558  0.5331  0.0845 -0.0889
16842WAT      O69172   2.988   0.527   4.347 -0.5121  0.3055  0.3763
16842WAT     H169173   3.039   0.601   4.312  0.4003 -0.4922 -0.0136
16842WAT     H269174   2.961   0.556   4.434 -3.4996  2.6898 -1.1440
16842WAT    EPW69175   2.991   0.541   4.354 -0.7858  0.5148  0.1245
16843WAT      O69176   7.881   3.779   4.636 -0.0707  0.2577  0.0630
16843WAT     H169177   7.825   3.742   4.568  0.6378 -0.1110 -0.3339
16843WAT     H269178   7.918   3.858   4.596 -1.0023  1.0213  0.6470
16843WAT    EPW69179   7.878   3.785   4.622 -0.1001  0.3098  0.0877
16844WAT      O69180   0.376   2.040   2.913  0.5233  0.0880  0.8664
16844WAT     H169181   0.347   1.959   2.953  0.1485 -0.4706 -0.4801
16844WAT     H269182   0.349   2.108   2.975 -3.3187 -0.4064 -0.0035
16844WAT    EPW69183   0.368   2.039   2.926 -0.0328 -0.0509  0.5741
16845WAT      O69184   4.639   3.099   5.873 -0.1539 -0.2327 -1.4643
16845WAT     H169185   4.682   3.155   5.808  0.4009 -0.6478 -1.4591
16845WAT     H269186   4.691   3.019   5.874 -1.7146 -1.3278 -2.4884
16845WAT    EPW69187   4.652   3.096   5.864 -0.2863 -0.4319 -1.5986
16846WAT      O69188   3.010   1.773   4.134  0.9706  0.2640 -0.2075
16846WAT     H169189   2.946   1.716   4.091  2.1560 -2.2684  1.1002
16846WAT     H269190   3.054   1.818   4.062 -0.1813 -0.3129 -1.3201
16846WAT    EPW69191   3.007   1.771   4.119  0.9749 -0.1461 -0.1819
16847WAT      O69192   5.937   4.623   5.308  0.4392 -0.2603 -0.2108
16847WAT     H169193   5.950   4.541   5.357  0.4500 -0.1965 -0.1069
16847WAT     H269194   5.843   4.641   5.315  0.2950 -0.6959 -0.9201
16847WAT    EPW69195   5.926   4.614   5.315  0.4215 -0.3095 -0.2904
16848WAT      O69196   0.960   1.585   1.196  0.2891  0.2653 -0.1513
16848WAT     H169197   1.045   1.601   1.236  0.7297  3.1103 -1.8852
16848WAT     H269198   0.969   1.500   1.153  1.8372 -0.0438  0.7260
16848WAT    EPW69199   0.972   1.576   1.195  0.5513  0.5998 -0.2643
16849WAT      O69200   0.834   4.188   0.351 -0.2066 -0.0565 -0.2604
16849WAT     H169201   0.839   4.117   0.287  1.2190 -0.8236  0.6301
16849WAT     H269202   0.827   4.143   0.435  0.9197  0.8286  0.3424
16849WAT    EPW69203   0.834   4.173   0.354  0.1300 -0.0408 -0.0634
16850WAT      O69204   3.842   3.073   4.253 -0.0774  0.2108  0.1117
16850WAT     H169205   3.828   3.010   4.324 -2.2740  0.3850 -0.0868
16850WAT     H269206   3.874   3.151   4.297 -1.1285  0.2157  0.9137
16850WAT    EPW69207   3.844   3.075   4.268 -0.5058  0.2345  0.1912
16851WAT      O69208  10.326   8.449   4.917 -0.3734 -0.6239 -0.3478
16851WAT     H169209  10.305   8.433   4.825 -1.4623 -0.2180 -0.1842
16851WAT     H269210  10.245   8.429   4.964 -0.0354 -0.1542  0.4550
16851WAT    EPW69211  10.312   8.444   4.911 -0.4725 -0.5083 -0.2205
16852WAT      O69212   4.035   0.561   6.602  0.7033  0.3125  0.3710
16852WAT     H169213   4.057   0.597   6.516  0.0765  1.9533  0.8543
16852WAT     H269214   4.119   0.554   6.647  0.9019  0.7014  0.0700
16852WAT    EPW69215   4.049   0.565   6.597  0.6468  0.5802  0.3953
16853WAT      O69216   0.659   1.617   7.091  0.7118  0.5469  0.0073
16853WAT     H169217   0.664   1.523   7.074 -3.6848 -0.1141  0.9819
16853WAT     H269218   0.645   1.656   7.004  1.2581  0.1524 -0.2619
16853WAT    EPW69219   0.658   1.610   7.077  0.2040  0.4077  0.1001
16854WAT      O69220   5.342   0.030   3.881  0.5753 -0.0915 -0.2487
16854WAT     H169221   5.417  -0.027   3.893  1.1338  0.3895 -1.3273
16854WAT     H269222   5.321   0.061   3.969  2.8039  1.2142 -0.1074
16854WAT    EPW69223   5.349   0.027   3.894  0.9429  0.1442 -0.3724
16855WAT      O69224   5.023   2.795   2.933  0.9784 -0.4883 -0.1372
16855WAT     H169225   5.033   2.771   3.025 -2.2500  0.5864  0.6560
16855WAT     H269226   4.954   2.737   2.901 -1.8168  2.5752 -0.2025
16855WAT    EPW69227   5.015   2.784   2.941  0.1841  0.0575 -0.0412
16856WAT      O69228   2.651   4.891   3.612  0.1967  0.2658 -0.2113
16856WAT     H169229   2.588   4.893   3.685 -0.3909  2.3014 -0.7165
16856WAT     H269230   2.688   4.803   3.616  0.2435  0.3139  2.5816
16856WAT    EPW69231   2.647   4.879   3.622  0.1254  0.5410  0.0906
16857WAT      O69232   4.266   1.868   1.515  0.0414  0.7565 -1.1674
16857WAT     H169233   4.341   1.847   1.459  0.0209 -0.9973 -0.5896
16857WAT     H269234   4.277   1.961   1.535  4.5832 -0.1369  2.4110
16857WAT    EPW69235   4.277   1.878   1.510  0.6380  0.4073 -0.6192
16858WAT      O69236   4.398   3.152   2.035 -0.0449 -0.1992 -0.6959
16858WAT     H169237   4.370   3.242   2.020 -0.5566 -0.6293 -2.4871
16858WAT     H269238   4.432   3.152   2.125  0.4599  1.8821 -0.8557
16858WAT    EPW69239   4.399   3.164   2.045 -0.0458  0.0187 -0.9532
16859WAT      O69240   1.830   2.921   6.203 -0.2543  0.0712  0.1038
16859WAT     H169241   1.905   2.890   6.254 -0.0943 -0.8362 -0.6493
16859WAT     H269242   1.838   3.016   6.205  0.6005  0.0054  0.5065
16859WAT    EPW69243   1.841   2.929   6.210 -0.1204 -0.0570  0.0577
16860WAT      O69244   7.932   1.013   3.380 -0.6340 -0.2342 -0.4122
16860WAT     H169245   7.937   1.054   3.294 -0.3780 -1.5997 -1.0771
16860WAT     H269246   7.881   0.933   3.365  0.5241 -1.1640  0.4092
16860WAT    EPW69247   7.926   1.008   3.367 -0.4473 -0.5369 -0.3915
16861WAT      O69248   3.646   0.309   7.595  0.3170 -0.1582 -0.1060
16861WAT     H169249   3.695   0.377   7.640 -0.6367 -0.1168  0.8904
16861WAT     H269250   3.555   0.323   7.620  0.0417 -1.5180 -0.2400
16861WAT    EPW69251   3.641   0.320   7.604  0.1549 -0.3321  0.0076
16862WAT      O69252   4.486   2.291   2.870  0.3823  0.3157  0.0515
16862WAT     H169253   4.428   2.306   2.945  0.7116  1.6293  0.0777
16862WAT     H269254   4.500   2.379   2.833  1.3932 -0.1294 -0.6756
16862WAT    EPW69255   4.480   2.305   2.875  0.5589  0.4303 -0.0410
16863WAT      O69256   7.359   5.551   2.010 -0.0082  0.5045  0.2334
16863WAT     H169257   7.426   5.596   1.958 -1.0873  0.9407 -0.8341
16863WAT     H269258   7.377   5.577   2.100  0.7961  1.2191 -0.1163
16863WAT    EPW69259   7.371   5.561   2.015 -0.0446  0.6561  0.0466
16864WAT      O69260   4.355   2.532   2.680  0.3117 -0.2580  0.1668
16864WAT     H169261   4.439   2.539   2.635  2.0621  1.8379  3.3568
16864WAT     H269262   4.308   2.612   2.657  0.3336 -0.1810  0.3796
16864WAT    EPW69263   4.360   2.544   2.671  0.5453  0.0285  0.6156
16865WAT      O69264   0.964   0.522   3.168  0.4136 -0.2631 -0.1051
16865WAT     H169265   0.921   0.544   3.085  0.4744 -2.1799 -0.6853
16865WAT     H269266   1.034   0.461   3.144  0.3876 -0.9138  1.3677
16865WAT    EPW69267   0.968   0.517   3.154  0.4182 -0.6017  0.0126
16866WAT      O69268   4.149   3.074   6.634  0.6570  0.1451 -0.1664
16866WAT     H169269   4.143   3.166   6.662 -1.4036  0.6269 -1.9416
16866WAT     H269270   4.131   3.024   6.714 -1.6241  1.3948  0.1944
16866WAT    EPW69271   4.146   3.080   6.648  0.0842  0.3735 -0.3531
16867WAT      O69272   4.300   3.888   2.252 -0.4573  0.1269 -0.3456
16867WAT     H169273   4.343   3.833   2.317 -1.6307 -1.6389 -0.9934
16867WAT     H269274   4.358   3.885   2.176  0.1378  0.9225  0.0560
16867WAT    EPW69275   4.314   3.881   2.250 -0.5336 -0.0011 -0.3780
16868WAT      O69276   3.605   2.696   5.448 -0.8655  0.1890  0.6412
16868WAT     H169277   3.588   2.790   5.444 -0.5944  0.1995 -1.4056
16868WAT     H269278   3.583   2.672   5.537 -3.4892  1.7260  0.5349
16868WAT    EPW69279   3.600   2.705   5.459 -1.1758  0.3930  0.3572
16869WAT      O69280   0.491   9.177   5.549 -0.1070  0.5483  0.5200
16869WAT     H169281   0.581   9.143   5.544 -0.4189 -0.1633 -0.6134
16869WAT     H269282   0.501   9.264   5.588  1.2102  0.9473 -0.6293
16869WAT    EPW69283   0.504   9.184   5.554  0.0256  0.5074  0.2186
16870WAT      O69284   6.441   1.658   4.513  0.3451 -0.1761 -0.1375
16870WAT     H169285   6.356   1.627   4.543  1.0494 -3.0966 -0.8303
16870WAT     H269286   6.428   1.677   4.420  0.7934 -2.6083 -0.7828
16870WAT    EPW69287   6.428   1.656   4.505  0.4971 -0.8821 -0.3140
16871WAT      O69288   9.030   0.882   2.849  0.0207 -0.6404  0.0124
16871WAT     H169289   9.089   0.921   2.913  0.6049  0.7998 -1.3407
16871WAT     H269290   9.056   0.790   2.846 -0.0703 -0.7674  1.8497
16871WAT    EPW69291   9.041   0.875   2.857  0.0863 -0.4672  0.0762
16872WAT      O69292   7.916   9.549   6.124  0.7051 -0.0762 -0.3125
16872WAT     H169293   7.922   9.469   6.175 -0.3303 -1.2089 -1.9031
16872WAT     H269294   7.823   9.569   6.120  0.6399 -0.6030 -2.5751
16872WAT    EPW69295   7.905   9.541   6.130  0.5600 -0.2952 -0.8209
16873WAT      O69296   1.755   1.529   4.354 -0.1609 -0.1457 -0.6579
16873WAT     H169297   1.784   1.438   4.361  0.0711 -0.0738 -0.6759
16873WAT     H269298   1.769   1.565   4.442 -4.6156 -1.3831  0.8061
16873WAT    EPW69299   1.761   1.521   4.367 -0.7178 -0.2994 -0.4671
16874WAT      O69300   3.610   1.234   3.678  0.1371 -0.1371 -0.2892
16874WAT     H169301   3.653   1.291   3.742  0.4055 -0.7883  0.1256
16874WAT     H269302   3.544   1.290   3.637  1.9217  1.1543 -1.5660
16874WAT    EPW69303   3.607   1.249   3.681  0.4079 -0.0526 -0.4028
16875WAT      O69304   6.035   2.361   3.146 -0.1850  0.4007  0.4434
16875WAT     H169305   6.022   2.419   3.221  0.6941  2.9070 -1.2253
16875WAT     H269306   6.080   2.415   3.082  1.5569 -2.4567 -0.9079
16875WAT    EPW69307   6.039   2.376   3.148  0.1605  0.3544  0.0449
16876WAT      O69308   1.323   4.858   4.807 -0.5649 -0.0122 -0.2062
16876WAT     H169309   1.236   4.844   4.770 -0.6263 -0.5441  0.1252
16876WAT     H269310   1.381   4.805   4.752 -0.4713  0.2277 -0.3392
16876WAT    EPW69311   1.319   4.849   4.795 -0.5607 -0.0508 -0.1798
16877WAT      O69312   7.051   0.783   5.269 -0.2231 -0.7246  0.3148
16877WAT     H169313   7.127   0.775   5.213 -0.6776  0.8931 -0.5818
16877WAT     H269314   6.976   0.782   5.209 -1.0244 -2.9074  1.2061
16877WAT    EPW69315   7.051   0.782   5.254 -0.3891 -0.7991  0.3142
16878WAT      O69316   7.067   1.534   4.400 -0.5129 -0.1549 -0.7324
16878WAT     H169317   7.069   1.600   4.330 -2.1416 -1.7563 -2.4405
16878WAT     H269318   7.065   1.450   4.353 -0.9727 -1.3329  1.2730
16878WAT    EPW69319   7.067   1.531   4.384 -0.7885 -0.5215 -0.6931
16879WAT      O69320   0.401   2.227   4.549 -0.4899 -0.4939  0.3032
16879WAT     H169321   0.395   2.162   4.620 -1.5819 -1.5775 -0.7135
16879WAT     H269322   0.464   2.291   4.580 -1.0849 -0.8171  2.3472
16879WAT    EPW69323   0.408   2.227   4.563 -0.7124 -0.6794  0.4389
16880WAT      O69324   2.027   9.637   6.349 -0.1708 -0.5197  0.2799
16880WAT     H169325   2.003   9.726   6.323 -0.3744 -0.1916  1.5408
16880WAT     H269326   2.017   9.636   6.444 -0.0297 -1.8541  0.3002
16880WAT    EPW69327   2.023   9.649   6.358 -0.1791 -0.6523  0.4492
16881WAT      O69328   6.295   2.106   6.265  0.1433  0.3222 -0.2391
16881WAT     H169329   6.355   2.175   6.238 -0.7720  1.7820  1.2364
16881WAT     H269330   6.222   2.152   6.306  0.1762 -1.5234  2.1995
16881WAT    EPW69331   6.294   2.121   6.267  0.0267  0.2713  0.2770
16882WAT      O69332   2.593   2.451   2.116 -1.0009 -0.4200  0.5747
16882WAT     H169333   2.607   2.386   2.185 -1.0072 -0.9723  0.0613
16882WAT     H269334   2.680   2.481   2.091 -0.8758 -1.5654 -0.4429
16882WAT    EPW69335   2.606   2.447   2.122 -0.9853 -0.6440  0.3728
16883WAT      O69336   6.955   0.084   3.689  0.2442  0.0746 -0.0913
16883WAT     H169337   6.907   0.133   3.623 -0.0924  0.2998  0.3225
16883WAT     H269338   6.960  -0.005   3.654  0.3476  0.2661 -0.5670
16883WAT    EPW69339   6.949   0.078   3.676  0.2136  0.1296 -0.0994
16884WAT      O69340   1.935   1.245   5.405  0.4265  0.0055 -0.3137
16884WAT     H169341   2.026   1.271   5.391  0.4388  0.8154  1.1952
16884WAT     H269342   1.941   1.160   5.448  0.4055 -0.9296 -2.0297
16884WAT    EPW69343   1.947   1.237   5.409  0.4253 -0.0110 -0.3412
16885WAT      O69344   4.043   2.883   3.572 -0.3843  0.3250 -0.4328
16885WAT     H169345   4.046   2.979   3.570 -3.8249  0.5784  0.4404
16885WAT     H269346   4.133   2.856   3.552  0.8527  3.7078 -0.1203
16885WAT    EPW69347   4.056   2.892   3.569 -0.6750  0.8045 -0.2764
16886WAT      O69348   5.642   0.899   6.322  0.1502  0.7513 -1.1522
16886WAT     H169349   5.675   0.903   6.412 -0.0583 -1.6470 -0.9202
16886WAT     H269350   5.714   0.933   6.268  0.5134  1.6030 -0.1700
16886WAT    EPW69351   5.656   0.904   6.327  0.1707  0.5473 -0.9921
16887WAT      O69352   7.537   0.832   2.684 -0.1110  0.5546  0.1632
16887WAT     H169353   7.503   0.773   2.618  1.6328 -1.6109  1.0884
16887WAT     H269354   7.621   0.862   2.649  0.1896  0.4639  0.7862
16887WAT    EPW69355   7.544   0.828   2.671  0.1585  0.2570  0.3675
16888WAT      O69356   0.338   8.817   3.633 -0.1248 -0.2585 -0.0547
16888WAT     H169357   0.319   8.908   3.611 -2.2956 -0.7360 -0.3967
16888WAT     H269358   0.321   8.810   3.727  0.1298 -0.2910 -0.0104
16888WAT    EPW69359   0.333   8.828   3.642 -0.3775 -0.3257 -0.0941
16889WAT      O69360  10.859   9.953   5.015 -0.4514  0.6034  0.1109
16889WAT     H169361  10.771   9.945   5.051 -0.3943  1.3301  0.4210
16889WAT     H269362  10.900  10.022   5.067  0.9077 -0.9234  1.1764
16889WAT    EPW69363  10.853   9.961   5.027 -0.2646  0.4978  0.2923
16890WAT      O69364   8.244   2.398   2.582 -0.7986 -0.5737 -0.6026
16890WAT     H169365   8.231   2.307   2.554 -1.1320 -1.5867  2.4289
16890WAT     H269366   8.339   2.410   2.583 -0.7044 -1.2827 -0.0015
16890WAT    EPW69367   8.255   2.388   2.578 -0.8297 -0.8007 -0.1235
16891WAT      O69368   5.591   3.156   6.355 -0.0037 -0.4441 -0.6301
16891WAT     H169369   5.585   3.063   6.333 -0.7487 -1.1968  2.3158
16891WAT     H269370   5.504   3.180   6.386  0.3757  1.0470 -0.6260
16891WAT    EPW69371   5.579   3.147   6.356 -0.0517 -0.3468 -0.2410
16892WAT      O69372   1.637   1.727   7.672 -0.0793 -0.0410  0.4683
16892WAT     H169373   1.689   1.752   7.748 -0.5291 -0.0390  0.7755
16892WAT     H269374   1.626   1.809   7.622  0.9291 -0.2016 -0.0448
16892WAT    EPW69375   1.642   1.741   7.675 -0.0055 -0.0619  0.4408
16893WAT      O69376   9.079  10.017   2.279  0.2882 -0.0469  0.1222
16893WAT     H169377   9.048  10.079   2.213  1.1647 -0.9586 -1.2188
16893WAT     H269378   9.033  10.041   2.359 -0.2508  1.5840 -0.6347
16893WAT    EPW69379   9.069  10.028   2.281  0.3333  0.0477 -0.1547
16894WAT      O69380   1.224   2.874   5.098  0.1702  0.0456 -0.1710
16894WAT     H169381   1.277   2.862   5.020  1.0620  0.6252  0.3267
16894WAT     H269382   1.136   2.844   5.073  0.4251  0.2924 -1.4083
16894WAT    EPW69383   1.219   2.868   5.084  0.3214  0.1545 -0.2685
16895WAT      O69384   3.211   3.480   6.287 -0.0046 -0.2715  0.5963
16895WAT     H169385   3.230   3.509   6.198 -0.4680  0.9399  0.8738
16895WAT     H269386   3.248   3.392   6.292  2.5899  0.7288  0.1224
16895WAT    EPW69387   3.218   3.472   6.276  0.2766  0.0203  0.5703
16896WAT      O69388   4.398   2.846   2.761  0.1423  0.3624 -0.1519
16896WAT     H169389   4.369   2.788   2.831  0.1996  0.3768 -0.1166
16896WAT     H269390   4.334   2.832   2.690  0.1536  0.2597 -0.1423
16896WAT    EPW69391   4.386   2.836   2.761  0.1512  0.3508 -0.1462
16897WAT      O69392   3.594   4.511   1.884  0.2487  0.3364  0.9501
16897WAT     H169393   3.593   4.416   1.879  1.6924  0.1460  2.9079
16897WAT     H269394   3.502   4.536   1.891 -0.3854 -0.6178 -2.4831
16897WAT    EPW69395   3.582   4.502   1.884  0.3555  0.1853  0.7555
16898WAT      O69396   9.906   8.067   2.659 -0.1866 -0.2938 -0.7793
16898WAT     H169397   9.821   8.072   2.703  0.4185 -1.0943  0.5552
16898WAT     H269398   9.920   7.973   2.645  2.3864 -0.7600  3.1252
16898WAT    EPW69399   9.897   8.055   2.663  0.2332 -0.4611 -0.0883
16899WAT      O69400   2.069   3.925   1.637 -0.4926 -0.5894  0.2305
16899WAT     H169401   1.989   3.967   1.605  0.8921  1.8278 -0.2612
16899WAT     H269402   2.128   3.925   1.561  1.0196  0.4733  1.3456
16899WAT    EPW69403   2.066   3.930   1.622 -0.1105 -0.1305  0.3127
16900WAT      O69404   0.795   9.973   6.092  0.3197 -0.1871 -0.3439
16900WAT     H169405   0.701   9.989   6.094  0.4343  0.8245  2.9924
16900WAT     H269406   0.803   9.880   6.070 -1.5675 -0.6824  0.8653
16900WAT    EPW69407   0.784   9.963   6.089  0.0859 -0.1187  0.2556
16901WAT      O69408   5.357   9.451   4.132 -0.1219  0.4403  0.1116
16901WAT     H169409   5.438   9.409   4.161 -0.2101 -0.2187 -0.5869
16901WAT     H269410   5.310   9.470   4.214  0.6624  0.6972  0.5151
16901WAT    EPW69411   5.361   9.448   4.147 -0.0298  0.3872  0.0725
16902WAT      O69412   4.870   4.509   5.354  0.1127 -0.1640  0.2282
16902WAT     H169413   4.908   4.595   5.336  0.1960 -0.4730 -1.2405
16902WAT     H269414   4.776   4.521   5.341  0.0592 -0.1662  0.6013
16902WAT    EPW69415   4.863   4.522   5.350  0.1171 -0.2048  0.0837
16903WAT      O69416   7.244   2.666   5.353  0.6728 -0.4593 -0.8641
16903WAT     H169417   7.259   2.625   5.268  1.9579 -0.2410 -0.7712
16903WAT     H269418   7.329   2.660   5.398 -0.3369 -1.8457  0.9834
16903WAT    EPW69419   7.258   2.660   5.348  0.7091 -0.6133 -0.6082
16904WAT      O69420   3.357   1.407   5.124  0.1034  0.5099 -0.0455
16904WAT     H169421   3.381   1.315   5.138  0.1154  0.0497 -2.5309
16904WAT     H269422   3.427   1.457   5.164 -0.0014 -0.5165  1.5409
16904WAT    EPW69423   3.369   1.401   5.131  0.0912  0.3139 -0.1643
16905WAT      O69424   3.485   0.838   5.123 -0.0019 -0.1686  0.4178
16905WAT     H169425   3.578   0.845   5.100  0.2939  3.9112  2.0789
16905WAT     H269426   3.485   0.829   5.219 -1.3510 -0.6345  0.3952
16905WAT    EPW69427   3.497   0.838   5.133 -0.1408  0.3080  0.6340
16906WAT      O69428   4.474   3.778   2.448 -0.7985 -0.7774 -0.2758
16906WAT     H169429   4.505   3.691   2.425  0.7364 -0.6820  1.2087
16906WAT     H269430   4.472   3.779   2.544 -1.7380  0.5020 -0.2781
16906WAT    EPW69431   4.478   3.767   2.458 -0.7200 -0.5962 -0.0803
16907WAT      O69432   4.295   1.153   4.961 -0.6860  0.4235  0.5381
16907WAT     H169433   4.315   1.191   4.875 -0.9425  1.4898  0.9305
16907WAT     H269434   4.381   1.135   5.000 -0.5331  1.3876  0.6705
16907WAT    EPW69435   4.309   1.156   4.955 -0.6998  0.6913  0.6070
16908WAT      O69436  10.012   7.592   2.294  0.6421 -0.3319 -0.2121
16908WAT     H169437  10.014   7.638   2.210  0.7995 -2.7731 -1.6266
16908WAT     H269438  10.102   7.565   2.309 -0.0809 -4.8862 -2.3281
16908WAT    EPW69439  10.024   7.595   2.285  0.5674 -1.2546 -0.6779
16909WAT      O69440   4.137   3.848   2.691 -0.5314  0.1391  0.3466
16909WAT     H169441   4.154   3.863   2.598 -2.3142  1.2443  0.1486
16909WAT     H269442   4.195   3.776   2.715  1.4359  1.1533 -1.1132
16909WAT    EPW69443   4.147   3.840   2.682 -0.5074  0.4187  0.1280
16910WAT      O69444   5.459   0.754   4.703  0.0766 -0.1034 -0.3370
16910WAT     H169445   5.492   0.786   4.787 -0.0697 -1.7354  0.3853
16910WAT     H269446   5.538   0.730   4.654  0.1025 -1.6777  0.4195
16910WAT    EPW69447   5.474   0.755   4.707  0.0606 -0.5263 -0.1421
16911WAT      O69448   5.608   0.000   4.540  0.4373  0.5187 -0.2089
16911WAT     H169449   5.555  -0.069   4.579 -0.4042  1.0679 -0.3571
16911WAT     H269450   5.698  -0.024   4.561  0.0880 -0.0077  0.7356
16911WAT    EPW69451   5.613  -0.012   4.548  0.2802  0.5217 -0.1040
16912WAT      O69452   2.090   4.774   1.633  0.0742  0.1695  0.4123
16912WAT     H169453   2.010   4.820   1.658  0.3823 -0.2726  2.3760
16912WAT     H269454   2.155   4.844   1.624  0.0915  0.3085  1.5084
16912WAT    EPW69455   2.088   4.790   1.635  0.1171  0.1295  0.8159
16913WAT      O69456   4.574   0.678   4.489  0.8125 -0.0137  0.2809
16913WAT     H169457   4.499   0.626   4.515  1.8457 -0.4946  2.5521
16913WAT     H269458   4.537   0.761   4.459 -0.6917 -0.9714 -0.6263
16913WAT    EPW69459   4.560   0.682   4.488  0.7505 -0.2034  0.4606
16914WAT      O69460  10.236   8.172   2.516 -0.0396 -0.1148 -0.1049
16914WAT     H169461  10.282   8.202   2.594 -0.6659 -0.5984  0.4645
16914WAT     H269462  10.162   8.232   2.506  1.1393  1.1851 -1.5111
16914WAT    EPW69463  10.232   8.184   2.525  0.0329 -0.0072 -0.2153
16915WAT      O69464   4.504   9.363   8.431 -0.1652 -0.0635 -0.1917
16915WAT     H169465   4.496   9.458   8.443  4.4299  0.4197  1.0070
16915WAT     H269466   4.493   9.327   8.519 -0.3228 -0.4797 -0.3785
16915WAT    EPW69467   4.501   9.371   8.444  0.4201 -0.0544 -0.0582
16916WAT      O69468   3.998   2.692   1.941 -0.1344  0.0233 -0.6426
16916WAT     H169469   3.952   2.709   2.023  1.3098 -0.6786  0.3666
16916WAT     H269470   3.944   2.627   1.896 -1.3918  1.0608 -0.6818
16916WAT    EPW69471   3.985   2.686   1.946 -0.1098  0.0676 -0.5146
16917WAT      O69472   1.072  10.308   5.866  0.1906  0.4196 -0.2082
16917WAT     H169473   1.019  10.388   5.864 -2.3206 -1.1485 -1.6843
16917WAT     H269474   1.008  10.237   5.866  2.3333 -1.6276 -0.8629
16917WAT    EPW69475   1.057  10.310   5.866  0.1420 -0.0572 -0.4890
16918WAT      O69476   5.490   2.396   3.468 -0.2256  0.3360 -0.0154
16918WAT     H169477   5.440   2.453   3.410 -0.2474 -0.1482 -0.4761
16918WAT     H269478   5.534   2.456   3.528  0.8846  0.9552 -1.3706
16918WAT    EPW69479   5.489   2.412   3.468 -0.0823  0.3538 -0.2549
16919WAT      O69480   3.979   6.484   3.514 -0.8721  0.4657  0.3805
16919WAT     H169481   3.961   6.395   3.486 -1.7458  0.5687  0.6065
16919WAT     H269482   3.986   6.534   3.433 -0.1126  0.1523  0.2412
16919WAT    EPW69483   3.978   6.479   3.500 -0.8873  0.4380  0.3920
16920WAT      O69484   2.215   9.783   4.470 -1.1633  0.4116  0.0356
16920WAT     H169485   2.248   9.739   4.548  0.3471  1.1650 -0.1504
16920WAT     H269486   2.258   9.869   4.471 -2.1283  0.9265 -0.9386
16920WAT    EPW69487   2.225   9.789   4.480 -1.0912  0.5789 -0.1173
16921WAT      O69488   3.413   0.712   3.073  0.6885  0.2829 -0.2317
16921WAT     H169489   3.364   0.686   2.995 -0.0971  0.1230  0.3161
16921WAT     H269490   3.378   0.659   3.143 -1.0800  2.8185  0.9614
16921WAT    EPW69491   3.402   0.702   3.072  0.3517  0.5963 -0.0021
16922WAT      O69492   1.680   1.943   1.644 -0.0507 -0.2068 -0.0866
16922WAT     H169493   1.654   1.872   1.586 -1.0820  0.0869 -0.0050
16922WAT     H269494   1.775   1.952   1.630  0.2490 -2.0869  0.4759
16922WAT    EPW69495   1.689   1.935   1.634 -0.1472 -0.4160 -0.0017
16923WAT      O69496   5.784   0.694   6.577 -0.1225 -0.1934  0.4793
16923WAT     H169497   5.831   0.640   6.513  0.7958  0.2208  0.7939
16923WAT     H269498   5.711   0.639   6.605 -2.0682  0.4882 -2.7512
16923WAT    EPW69499   5.780   0.679   6.572 -0.2580 -0.0489  0.0947
16924WAT      O69500   1.904   2.461   6.792 -0.1424 -0.4156  0.2368
16924WAT     H169501   1.955   2.512   6.730  0.4953 -0.9396  0.3162
16924WAT     H269502   1.829   2.429   6.742 -0.5322  0.5608  0.1811
16924WAT    EPW69503   1.901   2.463   6.777 -0.1097 -0.3560  0.2401
16925WAT      O69504   1.698   2.716   3.797  0.6664  0.1753  0.1113
16925WAT     H169505   1.719   2.652   3.730  0.4558  0.4357 -0.2070
16925WAT     H269506   1.740   2.683   3.877 -0.9045 -1.2580  0.3863
16925WAT    EPW69507   1.706   2.703   3.799  0.4314  0.0206  0.1056
16926WAT      O69508   5.249   1.338   5.822 -0.5337  0.2082 -0.2296
16926WAT     H169509   5.327   1.391   5.809 -1.0937  0.5448 -2.6270
16926WAT     H269510   5.267   1.290   5.903  0.3039  3.3955  1.6580
16926WAT    EPW69511   5.262   1.338   5.831 -0.4971  0.6729 -0.2966
16927WAT      O69512   5.353   3.019   2.483 -0.2772 -0.2306 -0.0420
16927WAT     H169513   5.270   3.062   2.461 -0.3926 -0.6115 -0.3669
16927WAT     H269514   5.357   3.020   2.578 -1.5560 -1.8994  0.0646
16927WAT    EPW69515   5.342   3.025   2.492 -0.4611 -0.5009 -0.0709
16928WAT      O69516   0.726  10.265   5.562 -0.2344  0.7515  0.4061
16928WAT     H169517   0.671  10.308   5.497  0.9973  1.2194 -0.3714
16928WAT     H269518   0.815  10.288   5.536  0.4163 -1.3023  0.6528
16928WAT    EPW69519   0.731  10.273   5.550  0.0139  0.5422  0.3359
16929WAT      O69520   4.013   0.850   5.023 -0.5901 -0.5422 -0.3893
16929WAT     H169521   3.945   0.899   4.977 -0.0773  1.1484  0.5324
16929WAT     H269522   4.095   0.893   4.998 -0.2478  0.0657  1.5629
16929WAT    EPW69523   4.015   0.862   5.014 -0.4771 -0.2391 -0.0103
16930WAT      O69524   7.313   4.973   7.313  0.2345 -0.3504 -0.4451
16930WAT     H169525   7.339   4.973   7.405 -0.1506  0.1946 -0.3278
16930WAT     H269526   7.331   4.884   7.282 -1.4444 -1.1319  0.6681
16930WAT    EPW69527   7.319   4.961   7.321 -0.0379 -0.3817 -0.2828
16931WAT      O69528   3.556   3.281   3.347 -0.6711 -0.2487  0.0190
16931WAT     H169529   3.576   3.219   3.417  0.5250  0.2628  0.1613
16931WAT     H269530   3.608   3.249   3.272  1.2083  1.3763  0.5264
16931WAT    EPW69531   3.566   3.268   3.346 -0.2656  0.0331  0.1047
16932WAT      O69532   3.859   5.135   0.863  0.0361 -0.1306  0.0036
16932WAT     H169533   3.893   5.059   0.816 -0.2487 -0.2195 -0.0636
16932WAT     H269534   3.910   5.138   0.944  0.8839  0.3323 -0.5393
16932WAT    EPW69535   3.870   5.125   0.867  0.1104 -0.0815 -0.0768
16933WAT      O69536   7.784   6.841   7.858  0.0209  0.4309 -0.0799
16933WAT     H169537   7.806   6.752   7.887  1.2248  1.1868  1.4640
16933WAT     H269538   7.853   6.863   7.794 -0.0235  0.4116 -0.1342
16933WAT    EPW69539   7.796   6.832   7.853  0.1738  0.5279  0.1166
16934WAT      O69540   2.584   4.359   3.276  0.2315  0.0435  0.0337
16934WAT     H169541   2.654   4.408   3.233  2.0000  2.2649  4.7032
16934WAT     H269542   2.531   4.427   3.318 -1.1850 -1.8264  1.4284
16934WAT    EPW69543   2.586   4.375   3.276  0.2779  0.0901  0.8336
16935WAT      O69544   3.281   1.168   3.450 -0.1513  0.1261  0.2619
16935WAT     H169545   3.261   1.080   3.481 -0.7535  0.8402  2.0765
16935WAT     H269546   3.212   1.188   3.387 -1.3941  0.1192  1.5665
16935WAT    EPW69547   3.270   1.159   3.446 -0.3947  0.2195  0.6734
16936WAT      O69548   2.099   0.155   4.274  0.5516  0.3773  0.4684
16936WAT     H169549   2.093   0.201   4.358 -0.9179  1.4590 -0.1848
16936WAT     H269550   2.148   0.214   4.218 -0.5035  0.7368 -0.0978
16936WAT    EPW69551   2.105   0.169   4.278  0.2186  0.5674  0.3076
16937WAT      O69552   5.078   4.131   5.250 -0.0330  0.2644 -0.6124
16937WAT     H169553   5.162   4.098   5.219 -0.4083 -0.2157 -1.1460
16937WAT     H269554   5.032   4.053   5.282  0.7859  0.8599  2.3568
16937WAT    EPW69555   5.083   4.116   5.250  0.0255  0.2794 -0.2911
16938WAT      O69556   5.104   0.032   2.674  0.6034  0.2057 -0.3285
16938WAT     H169557   5.083  -0.035   2.609  4.9056 -0.7722 -1.0314
16938WAT     H269558   5.085  -0.009   2.758 -1.2894 -0.0106 -0.8207
16938WAT    EPW69559   5.099   0.018   2.676  0.9212  0.0482 -0.4861
16939WAT      O69560   4.213   0.900   2.602 -0.9249 -0.1401  0.2735
16939WAT     H169561   4.138   0.951   2.634 -0.1691  1.8370 -0.8920
16939WAT     H269562   4.255   0.866   2.681 -2.2619 -0.1384  1.0133
16939WAT    EPW69563   4.208   0.903   2.616 -1.0016  0.1209  0.2173
16940WAT      O69564   1.329   8.427   3.572 -0.4325 -0.8559 -0.0075
16940WAT     H169565   1.274   8.361   3.531 -0.8440 -2.2803  2.6216
16940WAT     H269566   1.280   8.509   3.563 -0.2357 -0.9634 -2.6903
16940WAT    EPW69567   1.315   8.429   3.566 -0.4607 -1.0581 -0.0145
16941WAT      O69568   1.483   9.645   4.059  0.0913 -0.6562 -0.7595
16941WAT     H169569   1.501   9.736   4.036 -1.8022 -0.2077 -0.5885
16941WAT     H269570   1.524   9.634   4.145 -2.5144  1.1216  0.8353
16941WAT    EPW69571   1.491   9.656   4.067 -0.5021 -0.3629 -0.5264
16942WAT      O69572   7.803   0.109   4.828  0.7691 -0.3027 -0.0932
16942WAT     H169573   7.787   0.065   4.911 -2.1971 -2.1711 -1.5170
16942WAT     H269574   7.796   0.203   4.849 -1.9901 -0.7705  1.4474
16942WAT    EPW69575   7.800   0.116   4.841  0.0138 -0.6108 -0.0777
16943WAT      O69576   4.311   3.183   5.144 -0.1537  0.0827 -0.5577
16943WAT     H169577   4.275   3.270   5.129  2.5440  1.8608  1.9804
16943WAT     H269578   4.398   3.187   5.104  0.5103 -0.9355  0.7167
16943WAT    EPW69579   4.318   3.195   5.137  0.2894  0.1831 -0.0548
16944WAT      O69580   5.548   0.854   3.346  0.0657 -0.9082  0.0127
16944WAT     H169581   5.587   0.772   3.316  0.7881  0.1902 -2.3235
16944WAT     H269582   5.454   0.843   3.328  0.3204 -0.7891 -1.6063
16944WAT    EPW69583   5.541   0.842   3.340  0.1945 -0.7476 -0.5090
16945WAT      O69584   0.099   5.041   5.657  0.0156 -0.2292  0.0665
16945WAT     H169585   0.173   5.027   5.598  1.4716 -1.4553  2.0616
16945WAT     H269586   0.086   4.956   5.700 -2.5025 -0.0104 -0.1093
16945WAT    EPW69587   0.107   5.028   5.655 -0.1245 -0.3622  0.3066
16946WAT      O69588   9.966  10.308   5.346  0.6462  0.3698  0.0664
16946WAT     H169589   9.962  10.386   5.401 -0.6995 -0.3298  1.0206
16946WAT     H269590   9.969  10.235   5.408 -1.0378 -0.4419 -0.7231
16946WAT    EPW69591   9.966  10.309   5.362  0.2465  0.1702  0.0880
16947WAT      O69592   2.692   1.447   8.886 -1.0155  1.1290  0.8959
16947WAT     H169593   2.651   1.474   8.804  0.9862 -1.6016 -1.1787
16947WAT     H269594   2.646   1.367   8.911 -0.9588  1.4102  1.9572
16947WAT    EPW69595   2.680   1.440   8.879 -0.7441  0.8060  0.7620
16948WAT      O69596   2.389   1.667   4.034  0.1835  0.0468 -0.5366
16948WAT     H169597   2.303   1.711   4.037 -0.0220 -0.3510 -0.5278
16948WAT     H269598   2.439   1.717   3.970 -0.7587 -0.9696 -2.1139
16948WAT    EPW69599   2.384   1.680   4.026  0.0322 -0.1397 -0.7432
16949WAT      O69600   4.264   0.733   3.490  0.1079  0.1573 -0.2568
16949WAT     H169601   4.210   0.732   3.411 -0.5520 -1.0662  0.1719
16949WAT     H269602   4.342   0.683   3.466 -2.0329 -4.3692  1.0172
16949WAT    EPW69603   4.267   0.726   3.477 -0.2615 -0.6011 -0.0321
16950WAT      O69604   2.840   0.054   5.188 -0.3546  0.3220  0.0413
16950WAT     H169605   2.805   0.143   5.191 -1.3207 -0.0652  2.1457
16950WAT     H269606   2.782   0.003   5.244  1.2738 -1.2476  0.4057
16950WAT    EPW69607   2.827   0.059   5.195 -0.2666  0.0639  0.3669
16951WAT      O69608   2.803   1.034   4.636 -0.2542 -0.4324  0.3055
16951WAT     H169609   2.879   1.088   4.657  0.3306 -1.4140  0.7956
16951WAT     H269610   2.826   0.990   4.554 -1.2121  0.9225 -0.7367
16951WAT    EPW69611   2.816   1.035   4.628 -0.3034 -0.3832  0.2329
16952WAT      O69612   2.395   0.120   6.277 -0.3606 -0.1766  0.7141
16952WAT     H169613   2.305   0.088   6.281 -1.7228  2.4864 -2.9153
16952WAT     H269614   2.390   0.209   6.313  0.7489  0.1093  0.2132
16952WAT    EPW69615   2.383   0.128   6.283 -0.3940  0.2123  0.1693
16953WAT      O69616   3.587   4.455   6.948  0.4669 -0.3422  0.7406
16953WAT     H169617   3.577   4.360   6.953 -0.5111 -0.3144 -0.4723
16953WAT     H269618   3.682   4.468   6.942  0.7048 -1.1519  2.0525
16953WAT    EPW69619   3.598   4.444   6.948  0.3693 -0.4454  0.7536
16954WAT      O69620   4.876   9.780   6.805 -0.5317 -0.3754 -0.2331
16954WAT     H169621   4.873   9.792   6.710 -0.5144 -2.3265 -0.5071
16954WAT     H269622   4.785   9.766   6.830 -0.5669  0.3865  0.0942
16954WAT    EPW69623   4.863   9.780   6.796 -0.5341 -0.5317 -0.2265
16955WAT      O69624   5.608   1.477   5.517  0.2352 -0.5579  0.6795
16955WAT     H169625   5.637   1.417   5.448  1.4301  0.9013 -0.1512
16955WAT     H269626   5.547   1.425   5.570  0.6176 -2.2443 -0.4512
16955WAT    EPW69627   5.604   1.462   5.515  0.4430 -0.5879  0.4206
16956WAT      O69628   3.983   0.357   0.339  0.2291 -0.2619  0.3224
16956WAT     H169629   3.975   0.432   0.280  2.8345 -0.6677 -0.7163
16956WAT     H269630   3.961   0.392   0.425  1.2376  1.7162 -0.1544
16956WAT    EPW69631   3.979   0.372   0.342  0.7058 -0.0545  0.1225
16957WAT      O69632   4.148   3.083   3.386 -0.4891 -0.8186  0.3228
16957WAT     H169633   4.085   3.130   3.331  1.6440  2.7720  0.6311
16957WAT     H269634   4.218   3.059   3.326 -1.0215 -2.6838  0.4039
16957WAT    EPW69635   4.149   3.086   3.371 -0.2780 -0.5910  0.3742
16958WAT      O69636   2.463   2.655   3.401  0.0730 -0.3879  0.1575
16958WAT     H169637   2.421   2.656   3.315 -0.6499 -1.9470  0.4726
16958WAT     H269638   2.557   2.645   3.382  0.1157  0.9826 -0.4780
16958WAT    EPW69639   2.470   2.654   3.387 -0.0168 -0.4128  0.1152
16959WAT      O69640   1.374   1.722   6.413  0.2279  0.3989  0.8418
16959WAT     H169641   1.440   1.731   6.482 -0.7020  0.5977  1.7335
16959WAT     H269642   1.357   1.811   6.384 -1.4500  0.6596  2.4048
16959WAT    EPW69643   1.380   1.735   6.419 -0.1160  0.4595  1.1654
16960WAT      O69644   3.014   2.550   4.242 -0.1374 -0.2176  0.3964
16960WAT     H169645   3.030   2.644   4.238  1.0357 -0.2990  2.1678
16960WAT     H269646   2.921   2.540   4.219 -0.3569  1.4032  0.5034
16960WAT    EPW69647   3.004   2.561   4.239 -0.0116 -0.0145  0.6442
16961WAT      O69648   5.740   1.712   3.199  0.6768  0.6081  0.5074
16961WAT     H169649   5.684   1.735   3.273 -0.5989  0.5302 -0.3992
16961WAT     H269650   5.795   1.789   3.185  1.2762  0.4451  1.8110
16961WAT    EPW69651   5.740   1.725   3.207  0.5877  0.5764  0.5598
16962WAT      O69652   1.425   3.720   1.666  0.2695  0.0024  0.9087
16962WAT     H169653   1.387   3.704   1.580 -0.7524  0.4486  1.2486
16962WAT     H269654   1.518   3.735   1.650 -0.1583  1.6259 -0.3152
16962WAT    EPW69655   1.432   3.720   1.653  0.0782  0.2754  0.7921
16963WAT      O69656   3.612   1.852   3.931 -0.7455 -0.6283 -0.6323
16963WAT     H169657   3.615   1.902   3.850  1.3307 -1.3616 -1.0654
16963WAT     H269658   3.548   1.783   3.914 -2.9495  1.2155 -0.3471
16963WAT    EPW69659   3.604   1.850   3.918 -0.7622 -0.4818 -0.6520
16964WAT      O69660  10.500   9.074   4.343 -0.5847  0.5658 -0.4267
16964WAT     H169661  10.522   9.139   4.276 -0.7219  0.7295 -0.3166
16964WAT     H269662  10.486   9.126   4.422 -1.4334  0.4837 -0.5072
16964WAT    EPW69663  10.501   9.090   4.344 -0.7148  0.5765 -0.4227
16965WAT      O69664   4.872   8.532   2.364  0.4016  0.6782  0.0583
16965WAT     H169665   4.830   8.552   2.280 -0.8608  1.4215  0.8387
16965WAT     H269666   4.904   8.617   2.395  2.8721  0.0968 -0.6630
16965WAT    EPW69667   4.871   8.546   2.357  0.5612  0.6995  0.0660
16966WAT      O69668   2.025   9.778   4.132 -0.2653 -0.1732  0.0648
16966WAT     H169669   2.113   9.816   4.126 -0.1835 -0.5021 -0.8754
16966WAT     H269670   1.976   9.816   4.059 -0.9780  0.1715  0.7086
16966WAT    EPW69671   2.030   9.788   4.122 -0.3486 -0.1717  0.0255
16967WAT      O69672   3.019  10.082   5.951 -0.0440  0.3019  0.3352
16967WAT     H169673   2.976  10.156   5.909 -0.7470 -0.2829 -0.0054
16967WAT     H269674   3.003  10.094   6.045 -1.2909 -0.0874  0.1964
16967WAT    EPW69675   3.011  10.093   5.958 -0.3014  0.1731  0.2720
16968WAT      O69676   5.743   1.102   3.204 -0.3806 -0.5686  0.5223
16968WAT     H169677   5.790   1.119   3.122 -2.1731  1.4280 -0.1803
16968WAT     H269678   5.660   1.065   3.176 -0.7757 -0.4322  1.4884
16968WAT    EPW69679   5.739   1.099   3.189 -0.6688 -0.2872  0.5571
16969WAT      O69680   4.697   0.166   4.457 -0.0449 -0.7587 -0.3624
16969WAT     H169681   4.629   0.210   4.507 -0.5003 -0.8819 -0.8627
16969WAT     H269682   4.738   0.106   4.520  1.1757  0.9737  0.5676
16969WAT    EPW69683   4.694   0.164   4.472  0.0558 -0.5465 -0.3059
16970WAT      O69684  10.947   8.950   4.045  0.8182 -0.2073  0.6760
16970WAT     H169685  11.041   8.938   4.057  1.1247 -0.4468 -1.6135
16970WAT     H269686  10.939   9.015   3.975 -0.6733 -1.6838 -0.6114
16970WAT    EPW69687  10.958   8.957   4.038  0.6628 -0.4339  0.2038
16971WAT      O69688   3.414   0.056   6.827 -0.1770 -0.5085  0.2635
16971WAT     H169689   3.502   0.093   6.833 -0.2109 -0.0391 -1.4969
16971WAT     H269690   3.357   0.132   6.813 -0.9483 -0.7608  1.8430
16971WAT    EPW69691   3.418   0.071   6.826 -0.2832 -0.4799  0.2396
16972WAT      O69692   5.279   9.483   5.164  0.1729 -0.3405  0.8387
16972WAT     H169693   5.234   9.475   5.248 -2.5319 -2.3688 -0.6498
16972WAT     H269694   5.209   9.496   5.100  2.0691  0.2447 -1.2489
16972WAT    EPW69695   5.264   9.484   5.167  0.0665 -0.5307  0.3667
16973WAT      O69696   2.530   1.439   8.049  0.0095  0.6265 -0.3461
16973WAT     H169697   2.511   1.348   8.073 -0.1484  1.0544  1.2586
16973WAT     H269698   2.526   1.439   7.953 -2.1576 -0.5971 -0.3382
16973WAT    EPW69699   2.527   1.427   8.039 -0.2972  0.5215 -0.1335
16974WAT      O69700   3.946   3.364   5.419 -0.4887  0.5232  0.2756
16974WAT     H169701   4.020   3.348   5.477  0.4724 -0.5660 -1.1802
16974WAT     H269702   3.982   3.416   5.347 -1.5292  1.3592  0.3275
16974WAT    EPW69703   3.960   3.369   5.417 -0.4992  0.4898  0.0906
16975WAT      O69704   6.551   0.260   6.477 -0.5046  0.1520  0.8230
16975WAT     H169705   6.636   0.245   6.437 -0.9130 -1.1335  0.4036
16975WAT     H269706   6.571   0.294   6.565  0.4194  0.5730  0.4594
16975WAT    EPW69707   6.564   0.263   6.484 -0.4365  0.0380  0.7195
16976WAT      O69708   4.675   4.953   2.893  0.0060 -0.7260 -0.1176
16976WAT     H169709   4.706   4.879   2.945 -1.0088 -1.1138 -0.0561
16976WAT     H269710   4.581   4.956   2.907  0.2992  2.6770  2.6853
16976WAT    EPW69711   4.667   4.944   2.901 -0.0892 -0.3278  0.2604
16977WAT      O69712   1.095  10.031   4.514  0.1686  0.3278 -0.1373
16977WAT     H169713   1.094   9.983   4.431  0.0535 -0.0177  0.0654
16977WAT     H269714   1.037   9.982   4.572 -1.4428  1.7185 -0.4860
16977WAT    EPW69715   1.087  10.018   4.511 -0.0591  0.4659 -0.1566
16978WAT      O69716   6.564   0.206   3.663 -0.2987 -0.4733  0.1680
16978WAT     H169717   6.502   0.193   3.735 -0.7287 -0.6730 -0.2407
16978WAT     H269718   6.576   0.301   3.659 -0.2227 -0.4627  0.5424
16978WAT    EPW69719   6.558   0.217   3.672 -0.3452 -0.4982  0.1634
16979WAT      O69720   3.385   5.797   3.969  0.3416 -0.0791 -0.2359
16979WAT     H169721   3.471   5.822   4.003 -0.2162  0.8343  0.5478
16979WAT     H269722   3.401   5.717   3.920  1.3555 -0.9096  1.3703
16979WAT    EPW69723   3.398   5.790   3.967  0.4017 -0.0682  0.0794
16980WAT      O69724   4.075   3.044   2.642  0.7945 -0.7531 -0.1757
16980WAT     H169725   3.983   3.049   2.615 -0.0151 -1.7178  2.1792
16980WAT     H269726   4.117   2.992   2.574 -0.3534 -0.1817 -1.3594
16980WAT    EPW69727   4.069   3.038   2.629  0.5362 -0.8050 -0.0212
16981WAT      O69728   2.012   2.099   4.413  0.2456 -0.2027 -0.0303
16981WAT     H169729   2.071   2.031   4.381 -0.2949 -1.1350  0.8946
16981WAT     H269730   1.924   2.067   4.391  0.0360  0.8742 -0.8348
16981WAT    EPW69731   2.008   2.086   4.406  0.1466 -0.1837 -0.0143
16982WAT      O69732   4.869   0.859   2.861  0.1313 -0.3974 -0.6801
16982WAT     H169733   4.946   0.868   2.804  0.0726 -1.6843 -0.9980
16982WAT     H269734   4.798   0.834   2.802 -0.2924 -0.2514 -0.2384
16982WAT    EPW69735   4.870   0.857   2.846  0.0679 -0.5479 -0.6638
16983WAT      O69736   5.882   1.589   2.725 -0.4777 -1.1001  0.5042
16983WAT     H169737   5.791   1.559   2.730 -0.1924 -2.1069  0.0087
16983WAT     H269738   5.922   1.531   2.661  0.6772 -1.0812  1.1933
16983WAT    EPW69739   5.875   1.577   2.717 -0.2878 -1.2305  0.5296
16984WAT      O69740   5.911   1.282   5.524 -0.2364 -0.3816  0.1872
16984WAT     H169741   5.884   1.374   5.522  0.6772 -0.1024 -1.9784
16984WAT     H269742   5.998   1.283   5.564  0.6544  0.0218 -1.6468
16984WAT    EPW69743   5.919   1.294   5.529  0.0017 -0.2915 -0.3405
16985WAT      O69744   5.386   2.166   5.442 -0.5672 -0.4883 -0.2743
16985WAT     H169745   5.331   2.124   5.376  0.5647 -3.1342  0.3264
16985WAT     H269746   5.379   2.109   5.519  0.9451  0.5165  0.6670
16985WAT    EPW69747   5.378   2.153   5.444 -0.2184 -0.7048 -0.0708
16986WAT      O69748   6.136   4.301   1.428  0.0666 -0.0879  0.2621
16986WAT     H169749   6.192   4.327   1.355  0.1875 -1.6645 -0.2532
16986WAT     H269750   6.047   4.313   1.395  0.1210 -0.8331 -0.1762
16986WAT    EPW69751   6.131   4.306   1.414  0.0896 -0.3941  0.1363
16987WAT      O69752   3.231   1.098   4.694  0.1766 -0.2008 -0.0219
16987WAT     H169753   3.182   1.039   4.752 -0.4230  0.2267 -0.0823
16987WAT     H269754   3.265   1.166   4.752  0.9614 -0.6631  0.0632
16987WAT    EPW69755   3.229   1.099   4.709  0.2011 -0.2054 -0.0191
16988WAT      O69756   3.364   0.498   2.451  0.0578  0.1653 -0.1622
16988WAT     H169757   3.372   0.458   2.537 -0.1115 -0.3997 -0.4072
16988WAT     H269758   3.392   0.431   2.390 -0.3655  0.3631 -0.5866
16988WAT    EPW69759   3.368   0.484   2.454 -0.0204  0.1168 -0.2506
16989WAT      O69760   4.636   1.345   5.549  0.8067  0.0744 -0.0468
16989WAT     H169761   4.611   1.276   5.610  0.2120  0.8798  0.6335
16989WAT     H269762   4.555   1.369   5.505  1.1171 -0.0478 -0.7062
16989WAT    EPW69763   4.622   1.339   5.551  0.7696  0.1646 -0.0439
16990WAT      O69764   4.398   2.491   3.275  0.3433  0.1429 -0.4213
16990WAT     H169765   4.486   2.470   3.242  0.6468  1.6483 -0.6344
16990WAT     H269766   4.397   2.456   3.364  0.8506 -0.6424 -0.7157
16990WAT    EPW69767   4.409   2.484   3.282  0.4501  0.2379 -0.4884
16991WAT      O69768   3.068   4.777   1.768  0.4718 -0.4609  0.2161
16991WAT     H169769   3.156   4.755   1.738 -0.8031 -3.4412 -1.8458
16991WAT     H269770   3.067   4.752   1.861  2.5460  2.4495  1.1383
16991WAT    EPW69771   3.079   4.770   1.777  0.5772 -0.4699  0.0657
16992WAT      O69772   6.152   1.592   4.570 -0.0609 -0.0412 -0.2361
16992WAT     H169773   6.108   1.509   4.558  0.9923 -0.6528 -0.0168
16992WAT     H269774   6.083   1.654   4.593 -0.6157 -1.2453  1.4265
16992WAT    EPW69775   6.137   1.589   4.571  0.0050 -0.2806  0.0122
16993WAT      O69776   5.626   5.250   5.038 -0.5179  0.3055 -0.7105
16993WAT     H169777   5.581   5.196   5.102  0.8702  1.3806  1.2951
16993WAT     H269778   5.556   5.294   4.990 -1.6443  0.4366  0.9655
16993WAT    EPW69779   5.611   5.249   5.040 -0.4833  0.4647 -0.2251
16994WAT      O69780   5.268   2.353   3.674 -0.3688  0.5695 -0.1092
16994WAT     H169781   5.261   2.259   3.689  1.2677  0.3531 -0.5278
16994WAT     H269782   5.348   2.364   3.623 -0.2291  2.2478  0.3944
16994WAT    EPW69783   5.277   2.342   3.669 -0.1342  0.7623 -0.0980
16995WAT      O69784   4.933   3.172   2.353 -0.1707 -0.1679 -0.5557
16995WAT     H169785   4.989   3.164   2.430 -0.1490  1.4093 -0.3661
16995WAT     H269786   4.943   3.263   2.326  0.4047 -0.8766 -2.9072
16995WAT    EPW69787   4.941   3.183   2.360 -0.0920 -0.0534 -0.8409
16996WAT      O69788   9.849   1.364   4.556 -0.0621  0.0130  0.5242
16996WAT     H169789   9.841   1.323   4.642  0.1124 -0.4248  0.3327
16996WAT     H269790   9.783   1.434   4.557 -3.4411 -2.8840 -0.6868
16996WAT    EPW69791   9.839   1.368   4.568 -0.4845 -0.4268  0.3393
16997WAT      O69792   2.482   3.636   0.503  0.4790  0.4124  0.5392
16997WAT     H169793   2.477   3.686   0.421  0.8530 -0.5257 -0.0831
16997WAT     H269794   2.451   3.696   0.570  1.9773  1.8798  0.0025
16997WAT    EPW69795   2.477   3.650   0.501  0.7261  0.4822  0.3864
16998WAT      O69796   2.991   3.769   3.004 -0.4258 -0.1152  0.5719
16998WAT     H169797   2.997   3.779   3.099  1.7303 -1.4283  0.6332
16998WAT     H269798   2.994   3.674   2.990  1.4365  0.1092 -0.8736
16998WAT    EPW69799   2.992   3.758   3.015  0.1041 -0.2588  0.3893
16999WAT      O69800   5.617   0.524   3.392 -0.3351 -0.2291  0.1729
16999WAT     H169801   5.647   0.563   3.310 -0.4408  0.9553  0.6695
16999WAT     H269802   5.697   0.513   3.444 -0.4592  0.7606  0.6043
16999WAT    EPW69803   5.632   0.528   3.388 -0.3653  0.0577  0.2953
17000WAT      O69804   3.570   4.689   3.063  0.0599 -0.1328 -0.3561
17000WAT     H169805   3.619   4.721   3.139 -0.0037  0.8771 -0.7257
17000WAT     H269806   3.528   4.608   3.094 -0.7823  0.7728  1.0140
17000WAT    EPW69807   3.571   4.683   3.077 -0.0596  0.1199 -0.2242
17001WAT      O69808   3.864   1.564   2.303  0.0107  0.7601 -0.1563
17001WAT     H169809   3.783   1.519   2.280 -0.1870  0.8391  0.3767
17001WAT     H269810   3.919   1.557   2.224 -0.4624  0.5972 -0.4723
17001WAT    EPW69811   3.861   1.557   2.289 -0.0777  0.7491 -0.1277
17002WAT      O69812   4.466   1.787   1.933 -0.4887  0.6968  0.1427
17002WAT     H169813   4.529   1.841   1.885 -1.1415  1.8312  0.5243
17002WAT     H269814   4.444   1.839   2.010 -1.8214  0.3002  0.0565
17002WAT    EPW69815   4.471   1.801   1.937 -0.7508  0.7941  0.1816
17003WAT      O69816   5.792   2.938   5.447 -0.3552 -0.8732 -0.1501
17003WAT     H169817   5.757   2.875   5.510  0.2672 -0.4237  0.6659
17003WAT     H269818   5.775   3.024   5.486  1.2309 -0.6275  0.0617
17003WAT    EPW69819   5.785   2.941   5.460 -0.0639 -0.7815 -0.0145
17004WAT      O69820   4.704   0.783   2.341 -0.0851 -0.2312  0.5828
17004WAT     H169821   4.667   0.729   2.271 -1.7318  0.9165  0.5208
17004WAT     H269822   4.681   0.736   2.422  0.2612 -0.6373  0.4520
17004WAT    EPW69823   4.696   0.770   2.343 -0.2568 -0.1334  0.5575
17005WAT      O69824   5.943   3.727   4.576 -0.0657  0.6576  0.1173
17005WAT     H169825   5.867   3.774   4.540 -0.9691  0.2419  1.3981
17005WAT     H269826   5.954   3.763   4.664 -1.1490 -1.8295  1.3848
17005WAT    EPW69827   5.934   3.738   4.583 -0.3276  0.2747  0.4535
17006WAT      O69828   2.610   1.165   2.404 -1.3386 -0.3662  0.2187
17006WAT     H169829   2.625   1.252   2.369  1.3994 -0.5539  0.7204
17006WAT     H269830   2.529   1.135   2.361 -1.3746  1.6967 -1.2735
17006WAT    EPW69831   2.601   1.172   2.394 -0.9823 -0.1189  0.0882
17007WAT      O69832   1.578   4.370   2.814 -0.0278  0.1543  0.1921
17007WAT     H169833   1.564   4.404   2.725  1.3747  1.3427  0.3857
17007WAT     H269834   1.613   4.282   2.800  0.3230  0.3844 -0.4517
17007WAT    EPW69835   1.581   4.363   2.800  0.2035  0.3412  0.1327
17008WAT      O69836   3.407   5.093   2.485  0.0181  0.1741  0.1052
17008WAT     H169837   3.442   5.122   2.401 -0.0349 -2.3348 -0.8535
17008WAT     H269838   3.478   5.043   2.525  0.1009  1.4814  1.6809
17008WAT    EPW69839   3.421   5.090   2.479  0.0221  0.0157  0.1866
17009WAT      O69840   7.107   7.696   1.750  0.2693  0.6186 -0.4534
17009WAT     H169841   7.027   7.662   1.710  1.1983 -1.8002 -0.4491
17009WAT     H269842   7.094   7.683   1.844  0.0539  1.6764 -0.3333
17009WAT    EPW69843   7.095   7.690   1.757  0.3633  0.4389 -0.4369
17010WAT      O69844   3.711   4.335   4.727  0.1802 -0.2653  0.8577
17010WAT     H169845   3.660   4.412   4.751  0.4086  0.0823  0.2676
17010WAT     H269846   3.797   4.369   4.703 -0.5113 -0.3256 -2.0855
17010WAT    EPW69847   3.716   4.350   4.727  0.1191 -0.2275  0.3915
17011WAT      O69848   5.030   0.957   5.391 -0.0312 -0.3131 -0.3222
17011WAT     H169849   5.117   0.926   5.416  0.9776  1.7970 -0.9691
17011WAT     H269850   4.979   0.954   5.472  1.1107 -0.1158  0.4270
17011WAT    EPW69851   5.035   0.952   5.405  0.2527 -0.0088 -0.3088
17012WAT      O69852   3.760   2.973   2.175 -0.3417  0.2200 -0.1184
17012WAT     H169853   3.730   2.909   2.112  0.3392 -0.3440  0.1155
17012WAT     H269854   3.761   3.056   2.127  0.7868 -0.3024 -1.0640
17012WAT    EPW69855   3.756   2.976   2.161 -0.1031  0.0768 -0.2123
17013WAT      O69856   4.111   5.096   1.605 -0.5967 -0.5020  0.3075
17013WAT     H169857   4.053   5.046   1.547 -0.1927 -2.0340  1.1536
17013WAT     H269858   4.072   5.086   1.692 -1.6240  2.3975  0.2886
17013WAT    EPW69859   4.098   5.088   1.609 -0.6788 -0.3221  0.4166
17014WAT      O69860   3.639   3.473   3.658 -0.0132  0.3626 -0.4544
17014WAT     H169861   3.711   3.410   3.653 -0.9846 -0.9176  0.9604
17014WAT     H269862   3.605   3.479   3.569 -0.5089 -1.8671 -0.4511
17014WAT    EPW69863   3.644   3.466   3.645 -0.2067 -0.1005 -0.2674
17015WAT      O69864   5.660   1.760   5.631 -0.2797 -0.6690  0.6552
17015WAT     H169865   5.638   1.761   5.538 -0.2956  1.4125  0.6314
17015WAT     H269866   5.629   1.676   5.663 -0.8250 -1.1545 -1.0995
17015WAT    EPW69867   5.653   1.749   5.623 -0.3538 -0.4585  0.4206
17016WAT      O69868   6.921   2.168   5.080  0.4587 -0.3554  1.2754
17016WAT     H169869   6.922   2.221   5.001  0.0003 -0.7104  1.0275
17016WAT     H269870   6.829   2.159   5.103  0.4447 -1.7567  0.8115
17016WAT    EPW69871   6.909   2.174   5.072  0.3965 -0.5871  1.1816
17017WAT      O69872   1.053   4.573   3.397  0.3021 -0.0906 -0.6764
17017WAT     H169873   1.036   4.655   3.352  3.2960  0.5788 -0.8479
17017WAT     H269874   1.097   4.519   3.331  2.0549 -0.2183  0.5205
17017WAT    EPW69875   1.057   4.577   3.382  0.9282 -0.0196 -0.5412
17018WAT      O69876   5.195   1.627   4.157 -0.5698  0.5204 -0.7317
17018WAT     H169877   5.290   1.637   4.164 -0.5968 -0.1938  3.6765
17018WAT     H269878   5.182   1.580   4.075  3.0157 -0.7000 -0.8081
17018WAT    EPW69879   5.206   1.622   4.147 -0.1004  0.2652 -0.1605
17019WAT      O69880   5.987   1.467   5.867  0.1599  0.0172  0.2302
17019WAT     H169881   6.078   1.483   5.842 -0.3102 -0.3650 -1.9177
17019WAT     H269882   5.961   1.545   5.915  1.4896  0.3156  0.4995
17019WAT    EPW69883   5.995   1.479   5.870  0.2732  0.0062 -0.0176
17020WAT      O69884   3.750   4.074   4.149  0.1606  0.0870  0.3326
17020WAT     H169885   3.668   4.036   4.119  0.5841  0.6496 -1.6820
17020WAT     H269886   3.803   3.998   4.175  0.1776 -0.5534 -1.4777
17020WAT    EPW69887   3.746   4.059   4.149  0.2185  0.0763 -0.1719
17021WAT      O69888   3.283   3.333   3.329 -0.1267  0.2829  0.7282
17021WAT     H169889   3.368   3.299   3.359  0.0788  1.1708  1.2126
17021WAT     H269890   3.285   3.425   3.355  0.1949  1.2401 -2.3014
17021WAT    EPW69891   3.295   3.341   3.337 -0.0572  0.5262  0.3924
17022WAT      O69892   1.827  10.339   3.506 -0.1018 -0.4652  0.0620
17022WAT     H169893   1.733  10.352   3.516  0.0532 -0.1994  1.3958
17022WAT     H269894   1.841  10.247   3.525 -0.2942 -0.9771 -2.0348
17022WAT    EPW69895   1.817  10.329   3.510 -0.1070 -0.4977 -0.0386
17023WAT      O69896   4.535   3.973   7.149  0.2478  0.0895 -0.3285
17023WAT     H169897   4.498   3.974   7.061  0.4011  0.4896 -0.3932
17023WAT     H269898   4.471   3.925   7.202 -0.4143  0.8522 -0.4163
17023WAT    EPW69899   4.522   3.967   7.145  0.1807  0.2428 -0.3486
17024WAT      O69900   3.595   3.050   5.607 -0.4802  0.4262  0.4839
17024WAT     H169901   3.604   3.138   5.570  0.5030 -0.3197 -1.1585
17024WAT     H269902   3.534   3.005   5.548  0.9162 -0.7168 -0.1419
17024WAT    EPW69903   3.588   3.056   5.594 -0.1663  0.1771  0.1850
17025WAT      O69904   3.168   1.001   6.953  0.5892 -0.5893 -0.5563
17025WAT     H169905   3.165   1.089   6.915 -0.3031 -0.1762  0.4094
17025WAT     H269906   3.161   0.942   6.878 -3.0255  0.2054 -1.0510
17025WAT    EPW69907   3.166   1.005   6.938 -0.0054 -0.4300 -0.4940
17026WAT      O69908  10.419   0.338   3.082 -0.4830  0.5754 -0.1564
17026WAT     H169909  10.495   0.393   3.097 -0.9355  1.6609 -1.6239
17026WAT     H269910  10.415   0.281   3.159  2.5516 -0.4211 -0.5967
17026WAT    EPW69911  10.429   0.337   3.094 -0.1426  0.5871 -0.4079
17027WAT      O69912   3.527   1.081   3.031  0.0113 -0.4017 -0.3664
17027WAT     H169913   3.433   1.083   3.046 -0.1044  1.5823 -0.9991
17027WAT     H269914   3.544   0.997   2.990 -1.6783 -0.2891 -1.3503
17027WAT    EPW69915   3.517   1.070   3.028 -0.2267 -0.1252 -0.5796
17028WAT      O69916   6.269   2.268   3.264  0.1595  0.8139 -0.2718
17028WAT     H169917   6.258   2.174   3.249 -0.1377  0.3057  2.5232
17028WAT     H269918   6.213   2.310   3.200 -2.4492 -1.0841  0.6144
17028WAT    EPW69919   6.260   2.261   3.254 -0.2239  0.4966  0.2136
17029WAT      O69920   3.729   2.014   1.764  0.0123  0.0187  0.0097
17029WAT     H169921   3.680   1.949   1.714  0.4012  0.1868 -0.5931
17029WAT     H269922   3.742   1.973   1.850  1.7868 -1.4513 -0.9113
17029WAT    EPW69923   3.724   2.000   1.769  0.2975 -0.1530 -0.1913
17030WAT      O69924   4.975   2.923   8.195  0.2494  0.3243 -0.0588
17030WAT     H169925   4.933   3.007   8.213  0.1158  0.4289 -0.8333
17030WAT     H269926   4.974   2.916   8.099  3.4055  1.0839 -0.2734
17030WAT    EPW69927   4.970   2.933   8.185  0.6480  0.4383 -0.1893
17031WAT      O69928   6.428   0.654   4.616 -0.5297  0.0063  0.0900
17031WAT     H169929   6.336   0.668   4.592 -0.5548  1.8453  1.0730
17031WAT     H269930   6.431   0.668   4.711  0.7621 -0.0078  0.0754
17031WAT    EPW69931   6.416   0.658   4.626 -0.3624  0.2470  0.2177
17032WAT      O69932   3.409   9.524   4.109  0.2160 -0.1815  0.7127
17032WAT     H169933   3.471   9.495   4.176 -1.3252  0.7854  2.6471
17032WAT     H269934   3.382   9.612   4.138 -1.2795 -0.1574 -0.6226
17032WAT    EPW69935   3.414   9.532   4.122 -0.1845 -0.0510  0.7918
17033WAT      O69936   8.662   2.362   1.528  0.1180 -0.3301 -0.1196
17033WAT     H169937   8.616   2.303   1.589  0.5708 -1.0208 -0.4326
17033WAT     H269938   8.593   2.416   1.490 -0.5164 -1.6791 -0.9463
17033WAT    EPW69939   8.647   2.361   1.531  0.0944 -0.5991 -0.2699
17034WAT      O69940   2.225   5.069   3.407  0.1083 -0.0328  0.6693
17034WAT     H169941   2.315   5.093   3.431  0.4144 -0.1333 -0.3301
17034WAT     H269942   2.232   4.978   3.377  0.4232  1.0723 -3.0355
17034WAT    EPW69943   2.238   5.060   3.406  0.1903  0.0999  0.0489
17035WAT      O69944   5.422   2.692   1.248  0.5007 -0.1850 -0.1390
17035WAT     H169945   5.359   2.679   1.177 -0.1052 -0.2932  0.4129
17035WAT     H269946   5.507   2.691   1.204  0.3232 -2.8824 -0.5605
17035WAT    EPW69947   5.425   2.690   1.233  0.3972 -0.5550 -0.1218
17036WAT      O69948   5.285   4.802   2.582 -0.8231  0.2275  0.9959
17036WAT     H169949   5.310   4.715   2.550  2.7572  1.4010  0.0563
17036WAT     H269950   5.248   4.786   2.669 -0.4077 -2.2397  0.7853
17036WAT    EPW69951   5.284   4.788   2.590 -0.2959  0.0570  0.8442
17037WAT      O69952   3.938   4.403   6.546 -0.5084  0.5222  0.0746
17037WAT     H169953   4.008   4.456   6.583 -0.4771  0.4470  0.1230
17037WAT     H269954   3.897   4.460   6.480 -1.0184  0.9019  0.7155
17037WAT    EPW69955   3.942   4.418   6.542 -0.5716  0.5622  0.1657
17038WAT      O69956   4.854   1.595   4.013  0.1765  0.4912 -0.2130
17038WAT     H169957   4.810   1.626   3.934 -1.4137 -1.4219 -0.1658
17038WAT     H269958   4.934   1.553   3.981  0.6073  1.5494 -0.5718
17038WAT    EPW69959   4.859   1.593   3.998  0.0234  0.3785 -0.2542
17039WAT      O69960   4.239   1.889   4.022  0.2439  0.5705  0.0606
17039WAT     H169961   4.256   1.940   4.102 -1.2377 -0.0285  0.8000
17039WAT     H269962   4.323   1.850   4.000  0.2101 -1.4066  2.8964
17039WAT    EPW69963   4.252   1.891   4.030  0.0441  0.2308  0.5322
17040WAT      O69964   6.843   1.361   2.613 -0.2201  0.8503 -0.1408
17040WAT     H169965   6.800   1.441   2.641 -2.0584  0.0714 -0.5680
17040WAT     H269966   6.814   1.348   2.523 -1.6115 -1.3058  0.5400
17040WAT    EPW69967   6.834   1.370   2.605 -0.6464  0.4632 -0.1074
17041WAT      O69968   6.068   1.887   5.838 -0.1091 -0.2095 -0.4094
17041WAT     H169969   6.019   1.809   5.861  0.2556 -0.5597 -0.7974
17041WAT     H269970   6.151   1.879   5.886  1.3863 -1.7948 -2.9943
17041WAT    EPW69971   6.073   1.876   5.847  0.1361 -0.4647 -0.8016
17042WAT      O69972   6.741   2.997   2.834  0.2245  0.2831  0.0163
17042WAT     H169973   6.658   2.967   2.798  0.1664 -1.3206  1.3655
17042WAT     H269974   6.787   3.037   2.760 -0.4118 -1.7225 -1.5271
17042WAT    EPW69975   6.736   2.998   2.820  0.1330 -0.1930 -0.0094
17043WAT      O69976   0.401   3.281   2.253 -0.3919  0.5285 -0.3741
17043WAT     H169977   0.440   3.197   2.277 -1.9155 -0.2060 -0.3066
17043WAT     H269978   0.320   3.257   2.207 -1.7228  1.9148  1.1100
17043WAT    EPW69979   0.395   3.267   2.250 -0.7684  0.6144 -0.1695
17044WAT      O69980   5.720   2.256   2.321 -0.0279  0.6548 -0.1007
17044WAT     H169981   5.633   2.228   2.293 -0.6833  3.6367 -1.4193
17044WAT     H269982   5.780   2.211   2.262 -0.7868 -0.0849 -0.3321
17044WAT    EPW69983   5.716   2.247   2.310 -0.2143  0.9505 -0.3052
17045WAT      O69984   5.256   1.472   4.724 -0.6604  0.9236  0.6681
17045WAT     H169985   5.257   1.457   4.630  2.2525  0.0363  0.7491
17045WAT     H269986   5.179   1.423   4.755  0.8071 -2.6580 -0.7788
17045WAT    EPW69987   5.246   1.464   4.716 -0.0825  0.3343  0.4883
17046WAT      O69988   3.835   3.293   3.554 -0.6324 -0.5508  0.6912
17046WAT     H169989   3.803   3.238   3.483  0.5858 -0.2975 -0.0728
17046WAT     H269990   3.901   3.239   3.599  2.3197  0.9616 -1.4797
17046WAT    EPW69991   3.840   3.278   3.551 -0.0824 -0.3179  0.3042
17047WAT      O69992   5.158   2.391   4.793  0.9940 -0.3201  0.0775
17047WAT     H169993   5.100   2.458   4.829  0.6369 -1.2379  1.2714
17047WAT     H269994   5.226   2.440   4.747 -0.5070  0.7917 -1.0545
17047WAT    EPW69995   5.159   2.406   4.792  0.7491 -0.2946  0.0856
17048WAT      O69996   5.301   3.823   1.492 -0.4573 -0.0941  0.1852
17048WAT     H169997   5.277   3.900   1.544 -1.1753 -0.0697 -0.1723
17048WAT     H269998   5.260   3.837   1.407 -0.1395 -0.6158 -0.0624
17048WAT    EPW69999   5.292   3.835   1.488 -0.5102 -0.1596  0.1053
17049WAT      O70000  10.764   9.833   4.678  0.8343 -0.4179  0.0638
17049WAT     H170001  10.780   9.743   4.649  2.5851 -0.5151  1.1883
17049WAT     H270002  10.805   9.887   4.611 -2.9627 -0.1959 -2.3874
17049WAT    EPW70003  10.772   9.828   4.665  0.5641 -0.4020 -0.1113
17050WAT      O70004   3.565   4.374   7.971  0.1579 -0.0364  0.0920
17050WAT     H170005   3.646   4.373   7.919  1.8556 -1.0327  2.5603
17050WAT     H270006   3.495   4.360   7.907  1.9901 -0.1413 -2.0174
17050WAT    EPW70007   3.567   4.372   7.955  0.6235 -0.1817  0.1392
17051WAT      O70008   3.650   4.855   4.343  0.1099 -0.1848 -0.6837
17051WAT     H170009   3.645   4.772   4.390 -1.6399 -0.5936 -1.5254
17051WAT     H270010   3.744   4.870   4.331  0.4670 -2.1755 -0.7253
17051WAT    EPW70011   3.662   4.846   4.347 -0.0738 -0.5012 -0.8001
17052WAT      O70012   7.104   1.648   2.597  0.1361 -0.2169  0.1107
17052WAT     H170013   7.016   1.686   2.599  0.3042  0.2326 -0.5653
17052WAT     H270014   7.101   1.577   2.660 -0.5802  0.0895  0.4326
17052WAT    EPW70015   7.092   1.644   2.605  0.0639 -0.1172  0.0639
17053WAT      O70016   7.759   1.586   2.078 -0.4859 -0.3839 -0.8432
17053WAT     H170017   7.812   1.512   2.108 -0.6110 -0.1101  0.1120
17053WAT     H270018   7.808   1.622   2.005  0.2602 -0.6062 -0.4707
17053WAT    EPW70019   7.772   1.581   2.072 -0.4039 -0.3771 -0.6680
17054WAT      O70020   2.438   3.542   3.420 -0.4227 -0.2577  0.3509
17054WAT     H170021   2.489   3.461   3.417  2.8563  1.6246  0.5199
17054WAT     H270022   2.414   3.552   3.513  0.7309 -0.2038  0.6608
17054WAT    EPW70023   2.441   3.533   3.432  0.1619 -0.0023  0.4140
17055WAT      O70024   1.987   0.240   8.671 -0.2381 -0.8651  0.8280
17055WAT     H170025   1.904   0.279   8.646  1.1692  1.3452 -0.7062
17055WAT     H270026   2.001   0.170   8.606  0.3802  0.6640 -0.7812
17055WAT    EPW70027   1.978   0.236   8.659  0.0291 -0.3719  0.4139
17056WAT      O70028   4.028   3.375   1.691  0.2960 -0.5261  0.6581
17056WAT     H170029   4.090   3.311   1.657  0.4188  0.9709 -2.3144
17056WAT     H270030   3.947   3.358   1.642 -0.3757  0.1272  1.5062
17056WAT    EPW70031   4.025   3.365   1.680  0.2236 -0.2425  0.3779
17057WAT      O70032   6.021   4.392   4.790 -0.1628  0.3170 -0.9192
17057WAT     H170033   6.036   4.469   4.735  1.6481  1.0913  0.5499
17057WAT     H270034   5.954   4.419   4.852  4.0812  2.9678  3.2050
17057WAT    EPW70035   6.014   4.406   4.791  0.6359  0.7687 -0.1817
17058WAT      O70036   6.575   2.931   5.767  0.1542 -0.0362  0.6038
17058WAT     H170037   6.599   2.892   5.851  0.9134 -0.9301  0.0007
17058WAT     H270038   6.530   2.860   5.720 -0.0202  0.3656  0.1585
17058WAT    EPW70039   6.573   2.916   5.772  0.2315 -0.1010  0.4656
17059WAT      O70040   8.663   4.190   4.277 -0.7449  0.4999 -0.3419
17059WAT     H170041   8.712   4.222   4.201  0.1390 -0.3936 -0.1725
17059WAT     H270042   8.730   4.173   4.343 -1.1365 -1.7017 -0.4352
17059WAT    EPW70043   8.679   4.192   4.276 -0.6795  0.0916 -0.3319
17060WAT      O70044   2.963   4.732   2.346  0.4751 -0.6021  0.2030
17060WAT     H170045   2.958   4.641   2.377  1.1102 -1.2302 -1.4565
17060WAT     H270046   3.054   4.758   2.363 -0.0903  0.3351  2.1677
17060WAT    EPW70047   2.975   4.724   2.353  0.4842 -0.5615  0.2432
17061WAT      O70048   6.896   0.231   5.810  0.6126 -0.1505 -0.6513
17061WAT     H170049   6.814   0.275   5.833  2.1100  2.7550 -0.2846
17061WAT     H270050   6.922   0.186   5.890 -0.9437 -1.7947 -1.0086
17061WAT    EPW70051   6.888   0.231   5.824  0.6049  0.0159 -0.6502
17062WAT      O70052   3.808   6.570   4.274  0.2625  0.1942  0.8714
17062WAT     H170053   3.736   6.531   4.224  0.7413  2.0124 -1.4242
17062WAT     H270054   3.769   6.644   4.319  0.3492  0.1710  0.9838
17062WAT    EPW70055   3.794   6.575   4.273  0.3370  0.4311  0.5836
17063WAT      O70056   4.171   1.410   4.124  0.1252 -1.1287  0.2487
17063WAT     H170057   4.159   1.317   4.144 -0.2545 -1.1022  0.1628
17063WAT     H270058   4.210   1.447   4.204 -0.7117 -1.1596  0.6874
17063WAT    EPW70059   4.174   1.402   4.137 -0.0353 -1.1292  0.2954
17064WAT      O70060   3.964   5.238   1.279  0.1549  0.5634  0.9023
17064WAT     H170061   4.000   5.285   1.355  2.2340  3.0464 -1.4006
17064WAT     H270062   3.952   5.306   1.213 -2.5480 -1.3218 -0.7229
17064WAT    EPW70063   3.967   5.253   1.280  0.0727  0.6423  0.3843
17065WAT      O70064   5.626   3.716   0.940  0.3504  0.5887 -0.0467
17065WAT     H170065   5.607   3.783   1.006 -0.4401  1.4530 -1.0951
17065WAT     H270066   5.562   3.734   0.870  1.0764 -0.3686 -0.9762
17065WAT    EPW70067   5.615   3.727   0.939  0.3421  0.5764 -0.3076
17066WAT      O70068   4.515   3.801   5.518 -0.2585  0.7013  0.5151
17066WAT     H170069   4.607   3.780   5.502 -0.9307 -0.9376 -1.5941
17066WAT     H270070   4.472   3.716   5.526 -1.9107  1.3889 -0.5999
17066WAT    EPW70071   4.521   3.787   5.517 -0.5648  0.5759  0.0896
17067WAT      O70072   4.695   3.964   2.424 -0.2216  0.2633  0.1245
17067WAT     H170073   4.753   3.979   2.350 -0.7599  0.9453 -0.1765
17067WAT     H270074   4.640   3.890   2.397  0.8709 -0.7756  0.6492
17067WAT    EPW70075   4.695   3.956   2.411 -0.1485  0.2161  0.1539
17068WAT      O70076   7.184   1.092   2.594  0.1971 -0.2308 -0.4565
17068WAT     H170077   7.091   1.083   2.616  0.8635 -2.3715  1.9101
17068WAT     H270078   7.222   1.007   2.615  3.1925  1.3890  1.3503
17068WAT    EPW70079   7.177   1.080   2.599  0.6800 -0.2995  0.0941
17069WAT      O70080   5.680   2.407   4.414 -0.6937 -0.9996  0.4011
17069WAT     H170081   5.752   2.409   4.477  0.3522 -1.2152 -0.7717
17069WAT     H270082   5.678   2.317   4.382 -2.0349 -1.2186  1.0122
17069WAT    EPW70083   5.689   2.395   4.418 -0.7327 -1.0568  0.3271
17070WAT      O70084   6.791   1.732   1.877 -0.1882  0.0345 -0.1015
17070WAT     H170085   6.744   1.746   1.959  0.5930  4.1643 -0.1374
17070WAT     H270086   6.850   1.808   1.871  1.4569 -1.3449 -3.3690
17070WAT    EPW70087   6.793   1.744   1.887  0.1318  0.3972 -0.5372
17071WAT      O70088   4.828   2.476   2.461  0.4733 -0.4485 -0.7138
17071WAT     H170089   4.824   2.559   2.508 -1.2495 -0.0586 -1.4656
17071WAT     H270090   4.768   2.419   2.507  0.0315 -0.5914 -1.4515
17071WAT    EPW70091   4.820   2.480   2.473  0.1876 -0.4159 -0.9102
17072WAT      O70092   4.995   3.095   2.080 -0.1091  0.4970  0.1062
17072WAT     H170093   4.914   3.112   2.032  1.1187  1.1777 -1.8819
17072WAT     H270094   4.972   3.109   2.172 -2.2767  0.4289 -0.3687
17072WAT    EPW70095   4.981   3.099   2.086 -0.2329  0.5778 -0.2189
17073WAT      O70096   6.001   2.760   6.783  0.3965  0.7860  0.5120
17073WAT     H170097   6.000   2.671   6.819 -0.4392  0.5553 -0.0406
17073WAT     H270098   6.022   2.816   6.857 -2.3725  0.4337  1.6857
17073WAT    EPW70099   6.004   2.755   6.797 -0.0787  0.7091  0.5939
17074WAT      O70100   4.412   0.395   4.851  0.3300  0.1219 -0.0269
17074WAT     H170101   4.487   0.406   4.909  1.5501 -2.4222 -0.9797
17074WAT     H270102   4.427   0.457   4.780 -1.0768  3.1185  2.0889
17074WAT    EPW70103   4.424   0.405   4.849  0.3054  0.1816  0.1264
17075WAT      O70104   0.296   1.028   5.368 -0.0502 -0.4410 -0.0110
17075WAT     H170105   0.244   0.972   5.311 -0.4804  1.4103 -1.5505
17075WAT     H270106   0.257   1.017   5.455 -3.4427  1.1656 -1.1346
17075WAT    EPW70107   0.284   1.019   5.372 -0.5544  0.0150 -0.3622
17076WAT      O70108   6.479   3.017   0.978  0.6283  0.3941 -0.0894
17076WAT     H170109   6.393   2.974   0.976  0.7238  0.2240 -0.5557
17076WAT     H270110   6.510   3.002   1.067  1.5494 -2.3175 -0.7733
17076WAT    EPW70111   6.472   3.009   0.990  0.7625  0.0138 -0.2411
17077WAT      O70112   5.811   0.382   5.871 -0.8621 -0.5549 -0.1806
17077WAT     H170113   5.900   0.392   5.906  0.0882  2.6141 -2.9586
17077WAT     H270114   5.755   0.426   5.936  0.2913  1.5086 -0.4832
17077WAT    EPW70115   5.815   0.389   5.885 -0.5846  0.1353 -0.5867
17078WAT      O70116   2.804   3.426   3.142  0.5238 -0.3517 -0.3669
17078WAT     H170117   2.849   3.492   3.195 -1.3576  0.7999 -0.1184
17078WAT     H270118   2.712   3.434   3.166 -0.2522 -0.6241 -2.9306
17078WAT    EPW70119   2.798   3.436   3.152  0.1733 -0.2357 -0.6722
17079WAT      O70120   5.216   1.986   6.004 -0.7771 -0.3011  1.0161
17079WAT     H170121   5.281   1.926   6.041  0.7649  1.3818  1.1498
17079WAT     H270122   5.215   1.963   5.910  0.3866 -0.0421  0.9197
17079WAT    EPW70123   5.225   1.975   5.996 -0.4203 -0.0449  1.0209
17080WAT      O70124   3.977   2.401   3.696 -0.3163  0.6442  0.4962
17080WAT     H170125   3.999   2.329   3.638 -1.0601 -1.1138  2.2710
17080WAT     H270126   3.927   2.462   3.642  2.0308  0.8876 -1.5637
17080WAT    EPW70127   3.974   2.400   3.681 -0.1048  0.4444  0.4586
17081WAT      O70128   3.774   3.356   3.126  0.2902 -0.0209  0.4859
17081WAT     H170129   3.848   3.398   3.170 -1.3376  3.7824  0.0172
17081WAT     H270130   3.772   3.397   3.039 -0.5900 -2.3129 -0.6379
17081WAT    EPW70131   3.783   3.367   3.120 -0.0407  0.1785  0.2759
17082WAT      O70132   4.229   5.241   4.222  0.3721  0.3251 -0.3106
17082WAT     H170133   4.136   5.240   4.200 -0.3823 -1.5566  2.3991
17082WAT     H270134   4.265   5.167   4.173  0.8352  1.8485 -2.4174
17082WAT    EPW70135   4.222   5.231   4.213  0.3335  0.2778 -0.2310
17083WAT      O70136   6.365   0.803   5.768  0.0882  0.5434 -0.3956
17083WAT     H170137   6.278   0.763   5.770 -0.4642  1.6812 -1.0660
17083WAT     H270138   6.354   0.884   5.718  1.2833  1.3138  0.5276
17083WAT    EPW70139   6.352   0.808   5.762  0.1731  0.7951 -0.3622
17084WAT      O70140   4.840   1.697   4.801  0.0280  0.2247 -0.3093
17084WAT     H170141   4.837   1.649   4.719  0.4573  2.4868 -1.7634
17084WAT     H270142   4.882   1.637   4.863  0.2552 -1.3381 -1.8964
17084WAT    EPW70143   4.845   1.683   4.798  0.1147  0.3169 -0.7102
17085WAT      O70144   7.120   3.198   4.812  0.2444  0.0435 -0.0004
17085WAT     H170145   7.213   3.192   4.788  0.5127 -0.3078  1.0693
17085WAT     H270146   7.118   3.170   4.904 -0.7001  1.5935  0.4673
17085WAT    EPW70147   7.132   3.193   4.821  0.1552  0.2016  0.2024
17086WAT      O70148   4.108   0.353   6.083 -0.0701  0.3589 -0.6068
17086WAT     H170149   4.042   0.380   6.147  1.7371  2.7423  0.3761
17086WAT     H270150   4.063   0.360   5.999 -0.2877  5.3922 -0.3461
17086WAT    EPW70151   4.093   0.357   6.081  0.1397  1.3371 -0.4430
17087WAT      O70152   3.696   3.061   3.480 -0.2274  0.0819  0.4612
17087WAT     H170153   3.712   2.971   3.452 -0.2806  0.0845  0.4219
17087WAT     H270154   3.668   3.054   3.571  1.3999  0.1836  1.0057
17087WAT    EPW70155   3.695   3.049   3.488 -0.0198  0.0956  0.5280
17088WAT      O70156   4.562   1.969   3.719  0.1821 -0.1046  0.3093
17088WAT     H170157   4.548   2.050   3.769  1.6596 -0.9791  2.2523
17088WAT     H270158   4.553   1.996   3.628 -1.2508  1.8473  0.9461
17088WAT    EPW70159   4.559   1.983   3.714  0.1879  0.0376  0.6496
17089WAT      O70160   1.944   8.797   6.025  0.5332  0.4361 -0.0369
17089WAT     H170161   1.894   8.743   5.963  0.9667 -0.5213  0.4168
17089WAT     H270162   2.032   8.761   6.022  0.4702  0.1146  1.4118
17089WAT    EPW70163   1.949   8.785   6.016  0.5821  0.2670  0.2139
17090WAT      O70164   6.086   3.983   4.230  0.4613 -0.7301 -0.2240
17090WAT     H170165   6.039   4.044   4.174 -1.5364 -1.8057  0.1710
17090WAT     H270166   6.085   4.024   4.316  0.3719 -0.6811 -0.2482
17090WAT    EPW70167   6.079   3.996   4.234  0.1860 -0.8655 -0.1750
17091WAT      O70168   1.854   1.584   7.579  0.5589 -0.4215 -0.1062
17091WAT     H170169   1.773   1.628   7.605 -1.8956 -3.6871 -1.4815
17091WAT     H270170   1.920   1.615   7.641 -2.0729  1.2575  2.0717
17091WAT    EPW70171   1.852   1.594   7.590 -0.1120 -0.6308 -0.0005
17092WAT      O70172   7.339   5.124   5.023 -0.4936  0.1190 -0.2067
17092WAT     H170173   7.302   5.105   5.109 -0.1434 -2.9583 -0.6010
17092WAT     H270174   7.395   5.200   5.037 -2.4953  1.3775  1.6269
17092WAT    EPW70175   7.341   5.131   5.036 -0.7114 -0.1209 -0.0167
17093WAT      O70176   8.846   2.704   4.531 -0.2497 -0.2678  0.1751
17093WAT     H170177   8.850   2.798   4.510  1.7642 -0.4461 -0.4914
17093WAT     H270178   8.842   2.661   4.445 -0.3023 -0.8173  0.4505
17093WAT    EPW70179   8.846   2.711   4.517  0.0095 -0.3638  0.1233
17094WAT      O70180   6.747   4.848   3.757 -0.8129  0.2121 -0.9460
17094WAT     H170181   6.810   4.877   3.692  0.4561  0.2731  0.2541
17094WAT     H270182   6.717   4.763   3.727 -0.7696  0.5453 -1.9429
17094WAT    EPW70183   6.751   4.841   3.745 -0.6399  0.2642 -0.9192
17095WAT      O70184   8.657   5.301   4.333  0.1152  0.5500  0.0989
17095WAT     H170185   8.568   5.309   4.367 -0.7418 -1.5794 -1.3833
17095WAT     H270186   8.646   5.273   4.242  2.2901 -0.2091 -0.0015
17095WAT    EPW70187   8.644   5.298   4.325  0.2894  0.1690 -0.1097
17096WAT      O70188   5.602   1.771   4.844  0.5998  0.6505  0.5881
17096WAT     H170189   5.583   1.851   4.893  0.2211  0.7552  0.2771
17096WAT     H270190   5.518   1.725   4.839  0.6657  0.5641  0.1847
17096WAT    EPW70191   5.589   1.775   4.850  0.5586  0.6529  0.4938
17097WAT      O70192   6.868   4.205   3.055  0.2843 -0.4748 -0.5495
17097WAT     H170193   6.816   4.217   3.134 -0.6995 -0.5798 -1.1647
17097WAT     H270194   6.823   4.135   3.007  0.6496 -0.1474 -1.3860
17097WAT    EPW70195   6.855   4.197   3.059  0.2027 -0.4454 -0.7410
17098WAT      O70196  10.481   3.632   7.318 -0.1649  0.1816  0.1368
17098WAT     H170197  10.564   3.648   7.273 -1.2070  0.5233 -1.7267
17098WAT     H270198  10.442   3.557   7.274 -1.4857  0.8797  0.0539
17098WAT    EPW70199  10.487   3.625   7.306 -0.4773  0.3189 -0.1199
17099WAT      O70200   6.786   5.540   3.899  0.0480 -0.3005 -0.8315
17099WAT     H170201   6.741   5.605   3.846 -0.5035  0.7906  0.8960
17099WAT     H270202   6.749   5.551   3.987 -0.5644 -3.3798 -0.5595
17099WAT    EPW70203   6.775   5.550   3.904 -0.1054 -0.5627 -0.5679
17100WAT      O70204   8.665   4.425   5.859 -0.3837 -0.3833  0.2564
17100WAT     H170205   8.710   4.496   5.815 -2.2386 -0.1409 -1.4066
17100WAT     H270206   8.629   4.465   5.939  0.8376 -0.1723  0.7226
17100WAT    EPW70207   8.666   4.439   5.864 -0.4673 -0.3235  0.0985
17101WAT      O70208   8.067   1.760   3.319  0.5123  0.6686  0.3950
17101WAT     H170209   7.988   1.710   3.298  1.8337 -1.0228 -0.7806
17101WAT     H270210   8.081   1.744   3.413 -0.2476  0.6187  0.5144
17101WAT    EPW70211   8.058   1.751   3.329  0.5865  0.4390  0.2557
17102WAT      O70212   4.886   4.118   4.555 -0.5218  0.0517  0.2404
17102WAT     H170213   4.936   4.147   4.479 -0.5885 -1.1726 -0.2956
17102WAT     H270214   4.857   4.030   4.533 -0.4079 -0.4047  1.7515
17102WAT    EPW70215   4.889   4.110   4.542 -0.5155 -0.1700  0.3688
17103WAT      O70216   7.284   4.984   6.026  0.1943 -0.9448 -0.4912
17103WAT     H170217   7.373   5.014   6.043  0.1651 -0.6254 -0.8962
17103WAT     H270218   7.279   4.978   5.931 -1.0530  1.6402 -0.6622
17103WAT    EPW70219   7.295   4.987   6.016  0.0257 -0.5617 -0.5670
17104WAT      O70220   5.210   4.445   4.415  0.3594  0.3725 -0.1069
17104WAT     H170221   5.300   4.467   4.440  0.9186  1.2014 -2.6096
17104WAT     H270222   5.156   4.490   4.480  1.7097 -0.2174  1.4985
17104WAT    EPW70223   5.215   4.454   4.427  0.6113  0.4041 -0.2255
17105WAT      O70224   3.267   4.686   2.741  0.1969 -0.3559 -0.1916
17105WAT     H170225   3.228   4.631   2.673  1.0149  0.6002 -1.4731
17105WAT     H270226   3.312   4.624   2.799  2.1242 -1.0275 -2.2635
17105WAT    EPW70227   3.268   4.671   2.740  0.5590 -0.3181 -0.6338
17106WAT      O70228   8.560   4.458   4.712  0.8524  0.4963  0.6182
17106WAT     H170229   8.496   4.479   4.780  0.1920  0.4177  0.0355
17106WAT     H270230   8.514   4.476   4.629  1.0119 -1.1240  0.1470
17106WAT    EPW70231   8.545   4.463   4.710  0.7863  0.2723  0.4795
17107WAT      O70232   8.753   1.681   5.858  0.2755 -0.0297 -0.1281
17107WAT     H170233   8.824   1.663   5.919  0.3457  0.4494 -0.0671
17107WAT     H270234   8.715   1.763   5.889 -1.5017 -1.1877  0.9589
17107WAT    EPW70235   8.757   1.689   5.870  0.0501 -0.1193  0.0234
17108WAT      O70236   7.275   2.989   3.613  0.1079  0.2417  0.0402
17108WAT     H170237   7.265   2.903   3.653 -0.7371  0.8433  1.2061
17108WAT     H270238   7.202   2.996   3.552  1.2084 -0.5493 -1.4014
17108WAT    EPW70239   7.264   2.979   3.610  0.1411  0.2167  0.0038
17109WAT      O70240   7.097   3.829   5.665 -0.5374  0.2958 -0.1297
17109WAT     H170241   7.179   3.785   5.640  0.1702  1.6778 -0.3661
17109WAT     H270242   7.081   3.891   5.594 -1.5761  0.3403  0.1286
17109WAT    EPW70243   7.106   3.831   5.652 -0.5810  0.4839 -0.1268
17110WAT      O70244   6.040   4.154   5.230  0.9041 -0.1635 -0.0743
17110WAT     H170245   6.102   4.097   5.184 -0.9959 -1.0562 -1.6710
17110WAT     H270246   5.954   4.119   5.207 -0.2391  1.5403  1.3795
17110WAT    EPW70247   6.037   4.142   5.221  0.5031 -0.0567 -0.0932
17111WAT      O70248   8.598   4.408   5.078 -0.0218  0.1615 -0.4026
17111WAT     H170249   8.569   4.478   5.137 -1.3874 -0.0419 -0.8056
17111WAT     H270250   8.657   4.452   5.017 -2.6345  1.5816 -2.1175
17111WAT    EPW70251   8.602   4.423   5.078 -0.5460  0.3221 -0.6821
17112WAT      O70252   9.256   4.038   3.367  0.6654  0.3264 -0.8167
17112WAT     H170253   9.284   4.127   3.343 -0.9013  0.5427 -1.9557
17112WAT     H270254   9.338   3.989   3.373  1.5938  1.8952  0.1705
17112WAT    EPW70255   9.271   4.043   3.365  0.5817  0.5617 -0.8367
17113WAT      O70256   6.017   5.266   5.848 -0.1988 -0.5318 -0.5259
17113WAT     H170257   5.938   5.215   5.868 -0.2026  0.3501  2.0303
17113WAT     H270258   5.983   5.352   5.821 -0.1230 -0.9498 -2.0474
17113WAT    EPW70259   6.002   5.270   5.847 -0.1893 -0.4706 -0.3893
17114WAT      O70260   5.375   2.604   3.149 -0.4212 -0.3113  0.2236
17114WAT     H170261   5.431   2.535   3.114 -0.5969 -0.0386 -0.6234
17114WAT     H270262   5.403   2.683   3.103 -1.2036 -0.0871  0.1100
17114WAT    EPW70263   5.386   2.606   3.138 -0.5474 -0.2457  0.0969
17115WAT      O70264   6.990   4.635   4.555 -0.1909  0.8008 -0.2279
17115WAT     H170265   7.085   4.646   4.560  0.4216 -2.0158 -2.8269
17115WAT     H270266   6.962   4.698   4.488  0.1713  0.4062 -0.7637
17115WAT    EPW70267   6.999   4.645   4.547 -0.0622  0.3774 -0.6416
17116WAT      O70268   6.735   7.439   3.409 -0.6757  0.7706  0.1357
17116WAT     H170269   6.799   7.506   3.430  0.1188 -0.1298  0.6521
17116WAT     H270270   6.657   7.463   3.459 -0.5568  1.5496 -0.0422
17116WAT    EPW70271   6.733   7.451   3.418 -0.5550  0.7548  0.1804
17117WAT      O70272  10.059   7.804   6.315  0.3993  0.4548  0.5749
17117WAT     H170273  10.126   7.815   6.248 -1.6622 -0.0300 -1.6944
17117WAT     H270274   9.999   7.877   6.302 -1.8518 -1.4450 -0.4605
17117WAT    EPW70275  10.060   7.815   6.305 -0.1698  0.1404  0.1390
17118WAT      O70276   6.068   7.576   4.080  0.7824  0.8336 -0.4275
17118WAT     H170277   6.037   7.486   4.068  0.9263  0.8110 -0.6497
17118WAT     H270278   6.027   7.625   4.009  0.2781  1.0535  0.0143
17118WAT    EPW70279   6.059   7.570   4.069  0.7348  0.8595 -0.3984
17119WAT      O70280   9.124   6.389   5.993  0.4227 -0.2095 -0.5439
17119WAT     H170281   9.061   6.419   5.927 -0.5756 -1.3379 -0.1491
17119WAT     H270282   9.089   6.421   6.076  0.8969 -0.0150 -0.4182
17119WAT    EPW70283   9.111   6.397   5.995  0.3538 -0.3328 -0.4754
17120WAT      O70284   4.412   8.896   3.113  0.2683 -0.9714  0.0499
17120WAT     H170285   4.499   8.927   3.087 -0.1519 -0.4301 -0.7267
17120WAT     H270286   4.369   8.973   3.150 -0.7367 -0.6022 -1.7780
17120WAT    EPW70287   4.418   8.910   3.115  0.0803 -0.8516 -0.2935
17121WAT      O70288  10.207   1.558   5.312  0.1882 -0.3021 -0.0166
17121WAT     H170289  10.134   1.576   5.372  0.1847  0.2370 -0.1801
17121WAT     H270290  10.179   1.596   5.229  0.3395 -0.7514 -0.2761
17121WAT    EPW70291  10.194   1.565   5.309  0.2074 -0.2903 -0.0725
17122WAT      O70292   7.248   6.903   4.447  0.2323 -1.2572  0.3127
17122WAT     H170293   7.209   6.987   4.421  3.3145  0.1536 -0.1962
17122WAT     H270294   7.186   6.867   4.509 -2.3119  0.3007 -1.1190
17122WAT    EPW70295   7.234   6.910   4.452  0.3035 -0.8657  0.0567
17123WAT      O70296  10.527   7.193   1.943  0.0481 -0.2834  1.0299
17123WAT     H170297  10.474   7.263   1.982 -1.1459 -1.3248  1.3245
17123WAT     H270298  10.495   7.188   1.852  0.8015  0.1826  0.7317
17123WAT    EPW70299  10.515   7.202   1.936 -0.0100 -0.3595  1.0294
17124WAT      O70300   9.185   9.621   3.710 -0.3762  0.0218  0.4824
17124WAT     H170301   9.192   9.716   3.705 -1.2225  0.0874  0.4192
17124WAT     H270302   9.242   9.597   3.784  1.6132  0.3369 -0.8579
17124WAT    EPW70303   9.194   9.630   3.719 -0.2255  0.0715  0.2972
17125WAT      O70304   9.411   4.582   2.814 -0.2624 -0.0372  0.1186
17125WAT     H170305   9.492   4.587   2.763 -0.9894  1.4490 -0.9453
17125WAT     H270306   9.350   4.535   2.758 -0.4971 -0.1021  0.4283
17125WAT    EPW70307   9.414   4.576   2.800 -0.3891  0.1504  0.0192
17126WAT      O70308   6.822   8.257   6.895  0.5005  0.0999  0.0614
17126WAT     H170309   6.830   8.299   6.810  1.0609 -0.8381 -0.3581
17126WAT     H270310   6.896   8.196   6.900 -0.0459 -0.5362  0.8205
17126WAT    EPW70311   6.833   8.254   6.885  0.5023 -0.1082  0.1061
17127WAT      O70312   7.412   4.736   6.018 -0.1837 -0.2280  0.6359
17127WAT     H170313   7.397   4.830   6.009  0.0579  0.1114  3.0068
17127WAT     H270314   7.471   4.729   6.094  0.0028 -2.2813  0.3564
17127WAT    EPW70315   7.418   4.747   6.027 -0.1271 -0.4542  0.9115
17128WAT      O70316   7.016   8.537   3.912  0.3134  0.4424 -0.0681
17128WAT     H170317   7.063   8.574   3.837  0.7319 -0.8237 -0.4428
17128WAT     H270318   6.961   8.469   3.875  1.4182 -1.0406  0.8944
17128WAT    EPW70319   7.015   8.533   3.897  0.5143  0.0792  0.0093
17129WAT      O70320   0.310   4.564   5.654 -0.1523 -0.5827 -0.0868
17129WAT     H170321   0.403   4.545   5.667  0.1043 -2.8389 -3.6807
17129WAT     H270322   0.265   4.500   5.710  0.4994 -0.5483  0.4851
17129WAT    EPW70323   0.317   4.553   5.663 -0.0325 -0.8757 -0.4854
17130WAT      O70324   6.890   9.102   2.760 -0.5031  0.1752 -0.3940
17130WAT     H170325   6.967   9.051   2.736  1.0183  2.5076 -0.7887
17130WAT     H270326   6.840   9.108   2.678  0.0597  0.5321 -0.7187
17130WAT    EPW70327   6.893   9.096   2.746 -0.2284  0.5298 -0.4888
17131WAT      O70328   6.863   7.678   5.577 -0.4633  0.0715  0.2708
17131WAT     H170329   6.841   7.697   5.668  0.3252  2.5165  0.0158
17131WAT     H270330   6.959   7.686   5.573 -0.1117 -2.8823 -0.2290
17131WAT    EPW70331   6.873   7.681   5.588 -0.3130  0.0043  0.1712
17132WAT      O70332   5.634   4.254   4.545 -0.1344  0.5640  0.0926
17132WAT     H170333   5.614   4.164   4.520 -0.0291  0.8732 -1.1885
17132WAT     H270334   5.723   4.251   4.577 -0.9896 -0.2304  2.5833
17132WAT    EPW70335   5.643   4.242   4.546 -0.2334  0.5000  0.2522
17133WAT      O70336   9.089   6.144   2.187 -0.1970  0.2427  0.7529
17133WAT     H170337   9.168   6.196   2.171 -1.6113  2.6246  1.1376
17133WAT     H270338   9.108   6.060   2.146  2.0363  1.1663 -0.2818
17133WAT    EPW70339   9.102   6.140   2.180 -0.0887  0.6785  0.6671
17134WAT      O70340   5.511   6.547   1.694  0.1292  0.1262  0.1639
17134WAT     H170341   5.527   6.563   1.601  1.2155 -3.3874 -0.4034
17134WAT     H270342   5.597   6.559   1.735  0.0484 -0.1325  0.4101
17134WAT    EPW70343   5.525   6.551   1.687  0.2620 -0.3712  0.1216
17135WAT      O70344   9.057   6.483   3.218  0.5478 -0.0427 -0.3209
17135WAT     H170345   9.024   6.426   3.148  1.4564 -0.8642 -0.0997
17135WAT     H270346   8.985   6.487   3.281  0.4262 -0.8635 -0.3980
17135WAT    EPW70347   9.043   6.476   3.217  0.6514 -0.2594 -0.3020
17136WAT      O70348   6.238  10.203   6.883  0.4348  0.2112  0.7763
17136WAT     H170349   6.243  10.115   6.920  0.5555 -0.3621 -0.5365
17136WAT     H270350   6.160  10.241   6.923 -1.6627 -1.7628 -1.1640
17136WAT    EPW70351   6.228  10.196   6.893  0.1740 -0.1249  0.3471
17137WAT      O70352   7.076   6.248   5.622 -0.2896 -0.0740  0.2477
17137WAT     H170353   7.078   6.337   5.657 -1.0391  0.2161 -0.4389
17137WAT     H270354   7.161   6.237   5.579  0.1862 -0.0374  1.1460
17137WAT    EPW70355   7.087   6.258   5.621 -0.3259 -0.0308  0.2756
17138WAT      O70356   6.563   5.826   7.154 -0.0296 -0.2969  0.1518
17138WAT     H170357   6.643   5.778   7.135  0.2530 -0.2306  1.0995
17138WAT     H270358   6.493   5.775   7.114  0.3437 -1.1186  0.5224
17138WAT    EPW70359   6.564   5.813   7.146  0.0567 -0.3967  0.3257
17139WAT      O70360  10.866   8.932   5.262 -0.0211  0.6907  0.1572
17139WAT     H170361  10.897   8.985   5.335 -0.6929 -0.3172  1.2058
17139WAT     H270362  10.872   8.842   5.293  0.6441  0.1575 -1.4111
17139WAT    EPW70363  10.871   8.927   5.276 -0.0215  0.4873  0.0887
17140WAT      O70364   7.812   6.869   5.873 -0.2740 -0.0855 -0.2527
17140WAT     H170365   7.807   6.952   5.827  3.1413  0.3018 -0.2403
17140WAT     H270366   7.815   6.894   5.966 -0.2274 -0.2682 -0.2051
17140WAT    EPW70367   7.812   6.883   5.879  0.1826 -0.0584 -0.2449
17141WAT      O70368   0.024   4.948   5.339  0.5519  0.3500  0.2514
17141WAT     H170369   0.077   5.016   5.297 -1.8685  1.1652 -1.6941
17141WAT     H270370  -0.051   4.995   5.376  0.4600 -0.9230  1.7915
17141WAT    EPW70371   0.021   4.963   5.339  0.2206  0.2897  0.1976
17142WAT      O70372   4.285   0.208   3.388 -0.2580 -0.6634 -0.1605
17142WAT     H170373   4.307   0.172   3.474  2.3332 -0.4217 -0.6482
17142WAT     H270374   4.336   0.288   3.381 -1.0206 -0.2603 -1.6395
17142WAT    EPW70375   4.295   0.214   3.398 -0.0169 -0.5784 -0.4200
17143WAT      O70376  10.739   3.734   3.397  0.0054 -1.1825  0.1281
17143WAT     H170377  10.646   3.710   3.401  0.0184 -1.0782  1.3553
17143WAT     H270378  10.775   3.678   3.328 -0.8774 -1.5349 -0.0590
17143WAT    EPW70379  10.731   3.723   3.388 -0.1097 -1.2152  0.2654
17144WAT      O70380   6.847   7.899   3.119 -0.5097  0.7236  0.5698
17144WAT     H170381   6.845   7.925   3.211  1.2313  1.0871  0.5372
17144WAT     H270382   6.909   7.826   3.116 -1.3994 -0.0314 -0.1583
17144WAT    EPW70383   6.855   7.893   3.131 -0.3974  0.6719  0.4696
17145WAT      O70384   7.399   7.251   7.519  0.6200 -0.2999  0.5668
17145WAT     H170385   7.480   7.225   7.475  0.5957  1.4632 -0.6332
17145WAT     H270386   7.331   7.239   7.452  0.0549 -0.7542  1.2156
17145WAT    EPW70387   7.401   7.246   7.504  0.5422 -0.1271  0.4942
17146WAT      O70388   7.956   6.153   5.125  0.7366  0.0845  0.4823
17146WAT     H170389   8.010   6.201   5.188  2.8453  0.6317 -1.6354
17146WAT     H270390   7.998   6.167   5.041 -2.2030 -0.2987 -1.1896
17146WAT    EPW70391   7.968   6.161   5.123  0.6270  0.1061 -0.0174
17147WAT      O70392   0.326   6.469   3.240  0.5219  0.1368  0.5722
17147WAT     H170393   0.341   6.557   3.274 -2.7130  1.5877 -1.2571
17147WAT     H270394   0.376   6.466   3.159  0.7882  0.2298  0.7339
17147WAT    EPW70395   0.334   6.480   3.233  0.1304  0.3405  0.3521
17148WAT      O70396   1.360   8.734   0.718 -0.4183  0.2540  0.3449
17148WAT     H170397   1.453   8.737   0.695 -0.1868  0.9796  1.2654
17148WAT     H270398   1.352   8.657   0.775 -0.9044 -1.2797 -1.6984
17148WAT    EPW70399   1.371   8.725   0.723 -0.4519  0.1473  0.1968
17149WAT      O70400   5.494   8.242   1.666  0.3334 -0.0250 -0.2767
17149WAT     H170401   5.439   8.177   1.623  1.5930 -1.3933  0.1200
17149WAT     H270402   5.486   8.222   1.759  0.4666  0.6098 -0.1244
17149WAT    EPW70403   5.485   8.231   1.673  0.5171 -0.1216 -0.2043
17150WAT      O70404   1.901   5.312   4.240  0.0607 -0.2949  0.1329
17150WAT     H170405   1.918   5.232   4.290 -0.4123 -0.0735  0.6602
17150WAT     H270406   1.828   5.354   4.287  0.8209  0.8363  0.3294
17150WAT    EPW70407   1.893   5.307   4.253  0.0985 -0.1166  0.2282
17151WAT      O70408   8.035   6.905   7.720  0.3399  0.3582 -0.4457
17151WAT     H170409   8.078   6.832   7.676  1.0829 -1.4327  2.8841
17151WAT     H270410   8.101   6.974   7.723  0.3912  0.3842 -1.7192
17151WAT    EPW70411   8.049   6.904   7.715  0.4444  0.1256 -0.1743
17152WAT      O70412   5.247   6.406   4.501  0.3570  1.0475 -0.3828
17152WAT     H170413   5.315   6.415   4.568 -0.3776  0.9265  0.4046
17152WAT     H270414   5.275   6.464   4.430  1.5217  0.6374 -0.2853
17152WAT    EPW70415   5.260   6.415   4.501  0.4137  0.9773 -0.2661
17153WAT      O70416  10.679   4.823   5.777  0.5376 -0.6904  0.4945
17153WAT     H170417  10.725   4.895   5.819  2.5533 -0.9321 -1.1231
17153WAT     H270418  10.673   4.756   5.845 -1.6487  1.0106  2.1162
17153WAT    EPW70419  10.684   4.823   5.792  0.5150 -0.4978  0.4952
17154WAT      O70420   6.854   6.425   4.882  0.0958  1.0750  0.2565
17154WAT     H170421   6.881   6.481   4.809 -2.4145  1.8130 -0.2099
17154WAT     H270422   6.789   6.478   4.929 -1.7652 -1.1170  0.2997
17154WAT    EPW70423   6.849   6.440   4.879 -0.4809  0.8833  0.2007
17155WAT      O70424   8.555   6.381   3.846 -0.1273  0.5805 -0.0172
17155WAT     H170425   8.561   6.338   3.760  2.2405  0.3380  0.2064
17155WAT     H270426   8.615   6.456   3.839  0.1004  0.5509  1.4279
17155WAT    EPW70427   8.564   6.385   3.834  0.2151  0.5443  0.2028
17156WAT      O70428   7.062   5.764   3.755  0.0346  0.4000 -0.1323
17156WAT     H170429   7.040   5.753   3.662  0.5027  0.4921 -0.2545
17156WAT     H270430   6.977   5.772   3.798 -0.3215 -1.8451 -0.2742
17156WAT    EPW70431   7.048   5.763   3.748  0.0494  0.1159 -0.1671
17157WAT      O70432   5.779   8.187   6.701  0.0303 -0.3288 -0.4613
17157WAT     H170433   5.841   8.116   6.687 -1.0723 -1.2082 -1.0271
17157WAT     H270434   5.773   8.195   6.796 -0.6023 -1.6953 -0.3720
17157WAT    EPW70435   5.786   8.179   6.712 -0.1984 -0.6247 -0.5240
17158WAT      O70436   5.593   5.988   7.554  0.2476  0.6380  0.4303
17158WAT     H170437   5.668   6.045   7.537  0.0506  1.3552  1.8137
17158WAT     H270438   5.563   6.014   7.641 -0.7833 -0.5649  0.4550
17158WAT    EPW70439   5.599   5.999   7.563  0.0856  0.5739  0.6161
17159WAT      O70440   8.464   7.025   2.660 -0.0292  0.2416 -0.4978
17159WAT     H170441   8.424   7.088   2.599  2.2554 -0.6928 -3.2133
17159WAT     H270442   8.499   6.957   2.603  0.3288 -1.9226  2.1269
17159WAT    EPW70443   8.463   7.024   2.644  0.3190 -0.1671 -0.5097
17160WAT      O70444   6.588   8.169   1.746  0.2895 -0.6644 -0.2944
17160WAT     H170445   6.535   8.249   1.737  0.6501 -0.6353 -2.6172
17160WAT     H270446   6.648   8.172   1.672  1.0874 -2.5427  0.2376
17160WAT    EPW70447   6.589   8.180   1.735  0.4420 -0.9079 -0.5306
17161WAT      O70448   7.699   6.509   3.200 -0.0096 -0.6311 -0.0096
17161WAT     H170449   7.627   6.486   3.142 -1.4555  1.8303  0.6923
17161WAT     H270450   7.657   6.532   3.283  1.4997  1.2782  0.2909
17161WAT    EPW70451   7.684   6.509   3.203 -0.0014 -0.0544  0.1227
17162WAT      O70452   6.897   6.449   5.203 -0.4179 -0.1794 -0.2238
17162WAT     H170453   6.803   6.463   5.194 -0.3806  3.2985  2.4790
17162WAT     H270454   6.909   6.423   5.295  1.2432 -1.0975 -0.6582
17162WAT    EPW70455   6.886   6.447   5.214 -0.1938  0.1583  0.0753
17163WAT      O70456   7.975   7.505   2.639 -0.1729 -0.0992  0.2416
17163WAT     H170457   8.064   7.478   2.618  0.4688  1.2105  1.0928
17163WAT     H270458   7.945   7.554   2.562  0.2596  0.3687  0.3650
17163WAT    EPW70459   7.983   7.508   2.626 -0.0315  0.1352  0.3701
17164WAT      O70460   6.984   4.638   3.639 -0.1027  0.8032 -0.0387
17164WAT     H170461   7.031   4.557   3.619 -1.6112  0.0689 -0.8053
17164WAT     H270462   6.909   4.636   3.580  0.0686  3.0039 -0.3919
17164WAT    EPW70463   6.981   4.627   3.629 -0.2789  0.9966 -0.1864
17165WAT      O70464   6.012   4.899   6.078 -0.4054 -0.4569  0.3306
17165WAT     H170465   6.036   4.924   5.988  0.1481  0.4711  0.7183
17165WAT     H270466   5.917   4.891   6.075 -0.2759 -2.1521 -0.7383
17165WAT    EPW70467   6.003   4.901   6.065 -0.3154 -0.5581  0.2406
17166WAT      O70468   8.938   5.491   3.451 -0.2724 -0.0623 -0.9835
17166WAT     H170469   9.004   5.492   3.382  0.1301 -0.6391 -0.6142
17166WAT     H270470   8.893   5.575   3.442  1.3318  0.9031 -0.4645
17166WAT    EPW70471   8.941   5.503   3.441 -0.0076 -0.0110 -0.8664
17167WAT      O70472   1.096   9.153   1.524 -0.4679  0.0126  0.3406
17167WAT     H170473   1.175   9.208   1.529 -1.0823  0.8048  2.0759
17167WAT     H270474   1.024   9.212   1.546 -1.4150 -0.9904  0.0161
17167WAT    EPW70475   1.097   9.168   1.527 -0.6739 -0.0153  0.5266
17168WAT      O70476   0.394   8.915   2.034  0.5061  0.1353  0.3061
17168WAT     H170477   0.486   8.901   2.015  0.3284 -1.5821  0.5628
17168WAT     H270478   0.393   8.958   2.120  1.0933  1.9977 -0.5739
17168WAT    EPW70479   0.406   8.919   2.043  0.5601  0.1545  0.2239
17169WAT      O70480   0.031   6.214   6.953 -0.3193 -0.0208  0.4699
17169WAT     H170481  -0.061   6.195   6.935  0.4304 -1.2597 -2.8339
17169WAT     H270482   0.055   6.282   6.890  1.1417  0.0018  1.0014
17169WAT    EPW70483   0.022   6.220   6.943 -0.0277 -0.1814  0.1040
17170WAT      O70484   4.952   4.987   4.674 -0.2129 -0.1501 -0.2338
17170WAT     H170485   4.901   4.980   4.594 -1.2236 -3.2945  0.5484
17170WAT     H270486   5.009   4.910   4.673 -0.1307 -0.1792  1.9665
17170WAT    EPW70487   4.953   4.976   4.663 -0.3355 -0.5684  0.1595
17171WAT      O70488   5.990   7.515   5.593  0.2028 -0.7822 -0.1567
17171WAT     H170489   5.942   7.449   5.543 -1.4342  2.9201 -4.1304
17171WAT     H270490   5.938   7.528   5.672  0.6683 -4.1199  0.8436
17171WAT    EPW70491   5.977   7.508   5.597  0.0486 -0.7341 -0.5488
17172WAT      O70492   5.836   6.316   3.310 -0.3198  0.4085  0.8555
17172WAT     H170493   5.876   6.392   3.351  1.5659 -0.6673  1.1236
17172WAT     H270494   5.832   6.251   3.380  1.5296 -0.9373 -0.1915
17172WAT    EPW70495   5.841   6.317   3.325  0.1729  0.0892  0.7528
17173WAT      O70496   7.634   5.302   4.697  0.2439  0.1139  0.1202
17173WAT     H170497   7.606   5.319   4.608 -0.6903 -3.2612 -0.3648
17173WAT     H270498   7.730   5.300   4.692  0.2077 -3.1738 -1.6388
17173WAT    EPW70499   7.643   5.304   4.685  0.1159 -0.7648 -0.1760
17174WAT      O70500  10.363   5.180   5.703  0.1821  0.4818  0.5566
17174WAT     H170501  10.377   5.094   5.662  0.8806 -0.5212  2.7589
17174WAT     H270502  10.442   5.229   5.681  1.0727 -0.4396  1.5426
17174WAT    EPW70503  10.375   5.175   5.695  0.3915  0.2279  0.9773
17175WAT      O70504   0.038   8.978   3.232  0.9834 -0.0396  0.2848
17175WAT     H170505   0.016   8.898   3.280  1.9010  0.8049  2.1935
17175WAT     H270506   0.089   9.031   3.294 -1.2702  2.9453 -0.1969
17175WAT    EPW70507   0.042   8.974   3.246  0.8073  0.4649  0.4730
17176WAT      O70508   9.762   5.874   3.360  0.7152  0.1145  0.4266
17176WAT     H170509   9.700   5.909   3.423  0.2737  1.8906 -0.9205
17176WAT     H270510   9.838   5.932   3.365  1.3321 -0.6670  0.4217
17176WAT    EPW70511   9.764   5.886   3.369  0.7381  0.2458  0.2483
17177WAT      O70512   5.701   7.103   5.723  0.4264  0.2187 -0.3716
17177WAT     H170513   5.669   7.101   5.633  3.2249  0.0619 -1.4733
17177WAT     H270514   5.644   7.041   5.769  2.1544 -4.1256 -3.3342
17177WAT    EPW70515   5.689   7.095   5.717  1.0235 -0.3746 -0.9079
17178WAT      O70516   6.612   6.456   5.687  0.3138 -0.4255  0.4052
17178WAT     H170517   6.661   6.405   5.623 -1.0459  0.3903 -1.3559
17178WAT     H270518   6.566   6.522   5.635 -2.0046 -0.6374  2.0580
17178WAT    EPW70519   6.612   6.458   5.672 -0.1712 -0.3457  0.3910
17179WAT      O70520   8.513   7.883   6.545 -0.1450  0.4200 -0.6047
17179WAT     H170521   8.514   7.963   6.493 -0.2200  3.2391  3.2927
17179WAT     H270522   8.597   7.841   6.528  1.4930  3.2886 -0.1630
17179WAT    EPW70523   8.524   7.888   6.536  0.0610  1.1704 -0.0324
17180WAT      O70524   6.767   5.548   4.800 -0.2358 -0.3824 -0.4771
17180WAT     H170525   6.707   5.606   4.848 -0.5009 -1.0178 -0.0185
17180WAT     H270526   6.721   5.529   4.718 -1.7228 -2.5828  0.7429
17180WAT    EPW70527   6.753   5.553   4.795 -0.4668 -0.7565 -0.2558
17181WAT      O70528   8.803   4.487   4.581  0.2371  0.3152 -0.3560
17181WAT     H170529   8.826   4.405   4.538  0.0484  1.0731 -1.9740
17181WAT     H270530   8.737   4.462   4.646 -0.2271 -0.7372 -1.2085
17181WAT    EPW70531   8.797   4.473   4.584  0.1502  0.2763 -0.6816
17182WAT      O70532   5.143   6.833   5.460 -0.1976  0.0837 -0.1299
17182WAT     H170533   5.196   6.854   5.536  1.3624 -1.5434 -0.6758
17182WAT     H270534   5.189   6.874   5.386 -0.7693  0.2770 -0.3815
17182WAT    EPW70535   5.156   6.841   5.460 -0.0675 -0.1054 -0.2353
17183WAT      O70536   9.486   8.257   4.827  0.0417 -1.1422  0.2969
17183WAT     H170537   9.555   8.258   4.761 -0.1336 -0.3899  0.1044
17183WAT     H270538   9.475   8.165   4.850 -1.0612 -1.6526 -1.9742
17183WAT    EPW70539   9.493   8.245   4.821 -0.1268 -1.1110 -0.0281
17184WAT      O70540  10.930   8.262   2.060 -0.1830  0.0570  0.5933
17184WAT     H170541  10.946   8.273   1.966 -3.8670  2.6947  0.0282
17184WAT     H270542  10.991   8.324   2.101 -0.6007  1.1737 -0.3873
17184WAT    EPW70543  10.940   8.272   2.053 -0.7243  0.5517  0.3895
17185WAT      O70544   6.955   6.494   4.591 -0.1494 -0.8388 -0.3459
17185WAT     H170545   6.956   6.589   4.581  1.5198 -0.8179 -0.2989
17185WAT     H270546   7.043   6.473   4.622 -0.5517 -2.3870 -0.1913
17185WAT    EPW70547   6.967   6.504   4.594  0.0176 -1.0400 -0.3195
17186WAT      O70548  10.973   7.892   4.512  0.0879  0.0363 -0.6492
17186WAT     H170549  10.953   7.913   4.421  0.7468 -0.1586 -0.8436
17186WAT     H270550  10.891   7.860   4.548 -0.2656  0.4358 -1.0788
17186WAT    EPW70551  10.960   7.891   4.505  0.1287  0.0632 -0.7312
17187WAT      O70552  10.269   7.562   7.281  0.5814 -0.6628 -0.2354
17187WAT     H170553  10.250   7.614   7.202  1.5746  0.5341  0.2699
17187WAT     H270554  10.260   7.625   7.353  5.2385 -0.1092  0.1648
17187WAT    EPW70555  10.266   7.577   7.280  1.3270 -0.4323 -0.1161
17188WAT      O70556   6.777   6.141   6.087  0.3024 -0.5751  0.4535
17188WAT     H170557   6.872   6.155   6.086  0.2516 -0.1636 -0.8740
17188WAT     H270558   6.740   6.225   6.062 -0.3368 -1.1068 -0.4645
17188WAT    EPW70559   6.785   6.154   6.083  0.2115 -0.5910  0.1574
17189WAT      O70560   9.138   6.724   5.150  1.0654  0.0294  0.7800
17189WAT     H170561   9.072   6.745   5.216  1.1622  0.0119  0.8829
17189WAT     H270562   9.096   6.659   5.094 -0.8456  3.3869 -2.1114
17189WAT    EPW70563   9.124   6.718   5.151  0.8264  0.4699  0.4122
17190WAT      O70564   7.890   6.671   4.699 -0.0133 -0.7868  0.1380
17190WAT     H170565   7.938   6.745   4.662  1.3772 -0.1959  2.8332
17190WAT     H270566   7.903   6.600   4.637  1.4807  0.3281 -0.8913
17190WAT    EPW70567   7.898   6.671   4.686  0.3672 -0.5622  0.3579
17191WAT      O70568   7.440   5.806   5.842 -0.4381  0.4826 -0.2494
17191WAT     H170569   7.418   5.763   5.924  1.0185 -0.5656 -0.3682
17191WAT     H270570   7.357   5.812   5.794 -1.1937  0.5874  1.0420
17191WAT    EPW70571   7.426   5.801   5.846 -0.3457  0.3581 -0.0951
17192WAT      O70572   9.716   8.245   4.213  0.5708  0.3344  0.8463
17192WAT     H170573   9.794   8.191   4.222 -0.0692 -1.1309 -1.5731
17192WAT     H270574   9.643   8.183   4.209 -0.6351  1.6029  1.7348
17192WAT    EPW70575   9.716   8.230   4.214  0.3271  0.3085  0.6442
17193WAT      O70576   8.603   7.947   2.671  0.9468 -0.1900  0.0201
17193WAT     H170577   8.582   8.021   2.615  0.5143 -1.3615 -1.4330
17193WAT     H270578   8.636   7.880   2.611  1.0807 -1.2727  1.2462
17193WAT    EPW70579   8.605   7.948   2.656  0.9079 -0.4873 -0.0099
17194WAT      O70580   9.298   4.317   3.310 -0.1627 -0.4194 -0.2720
17194WAT     H170581   9.360   4.373   3.262  1.7520 -2.0462  0.1588
17194WAT     H270582   9.315   4.336   3.402 -1.6918  0.4877 -0.1478
17194WAT    EPW70583   9.309   4.327   3.316 -0.1121 -0.5145 -0.1988
17195WAT      O70584   8.420   8.156   2.828 -0.5971 -0.5354  0.5594
17195WAT     H170585   8.411   8.062   2.812 -0.6356 -0.2741 -1.2189
17195WAT     H270586   8.466   8.189   2.750  0.7848  0.7080  1.8470
17195WAT    EPW70587   8.425   8.148   2.815 -0.4196 -0.3366  0.4946
17196WAT      O70588   9.009   6.709   3.025  0.7468  0.1707  0.6292
17196WAT     H170589   9.015   6.653   3.102  2.2332  1.4656  1.4930
17196WAT     H270590   9.080   6.679   2.968  1.8131  1.3891  1.2753
17196WAT    EPW70591   9.019   6.697   3.027  1.0834  0.5019  0.8283
17197WAT      O70592   7.745   4.691   4.628 -0.2159  0.4892  0.7975
17197WAT     H170593   7.671   4.750   4.640 -0.6268 -0.2575  2.1201
17197WAT     H270594   7.790   4.691   4.712  0.5376 -0.0625  0.4064
17197WAT    EPW70595   7.741   4.699   4.641 -0.1705  0.3181  0.9205
17198WAT      O70596   6.438   5.651   4.746 -0.3967  0.0338 -0.1063
17198WAT     H170597   6.446   5.589   4.818  2.7938  0.9543  0.4899
17198WAT     H270598   6.495   5.617   4.678 -0.5107  1.0366 -0.7261
17198WAT    EPW70599   6.447   5.639   4.747  0.0088  0.2875 -0.1092
17199WAT      O70600   7.601   6.059   6.239 -0.0261 -0.2161  1.0595
17199WAT     H170601   7.630   6.078   6.150 -0.0992 -1.3108  0.7968
17199WAT     H270602   7.506   6.047   6.232  0.1534 -1.8032  0.9971
17199WAT    EPW70603   7.592   6.060   6.226 -0.0119 -0.5696  1.0169
17200WAT      O70604   9.804   5.386   2.392  0.4197 -0.0657 -0.4045
17200WAT     H170605   9.723   5.363   2.438  1.2478 -1.6017  0.3972
17200WAT     H270606   9.789   5.474   2.359 -0.9931  0.2979  1.0688
17200WAT    EPW70607   9.791   5.394   2.394  0.3424 -0.2203 -0.1044
17201WAT      O70608   7.520   3.014   3.469  0.3114  0.9545  0.5750
17201WAT     H170609   7.438   3.015   3.517 -0.0564  1.7171 -0.0367
17201WAT     H270610   7.574   2.950   3.514 -0.6792  0.3205  0.8846
17201WAT    EPW70611   7.517   3.006   3.481  0.1318  0.9716  0.5351
17202WAT      O70612   8.650   5.676   4.345 -0.3325 -0.8174 -0.5116
17202WAT     H170613   8.739   5.650   4.371  1.7683  2.2630 -3.6463
17202WAT     H270614   8.649   5.666   4.249 -2.2250  2.0581 -0.9195
17202WAT    EPW70615   8.662   5.672   4.336 -0.3047 -0.0319 -0.9789
17203WAT      O70616   9.814   5.490   4.052  0.6283  0.6661  0.0962
17203WAT     H170617   9.896   5.505   4.006  0.1036 -1.0353 -1.5177
17203WAT     H270618   9.802   5.395   4.050 -1.5621  0.8895 -0.0558
17203WAT    EPW70619   9.823   5.479   4.046  0.2699  0.4711 -0.1369
17204WAT      O70620   6.956   7.171   6.258  0.5167 -0.4234 -0.1027
17204WAT     H170621   6.941   7.133   6.344  1.7894 -1.4701 -0.3112
17204WAT     H270622   6.883   7.232   6.246  0.0577 -0.6044  1.4988
17204WAT    EPW70623   6.945   7.174   6.268  0.6242 -0.5853  0.0811
17205WAT      O70624   8.719   9.451   1.637 -0.0171 -0.4167 -0.0920
17205WAT     H170625   8.802   9.404   1.649  0.6905  1.0425  1.3118
17205WAT     H270626   8.682   9.455   1.725  1.3788  3.9449  0.5587
17205WAT    EPW70627   8.725   9.446   1.651  0.2604  0.3514  0.1791
17206WAT      O70628   7.472   6.015   3.827  0.2856  0.3448  0.5401
17206WAT     H170629   7.447   6.095   3.873  0.4771  0.2791  0.7620
17206WAT     H270630   7.567   6.009   3.838  0.2637  0.0464  0.5959
17206WAT    EPW70631   7.481   6.024   3.835  0.3080  0.2968  0.5767
17207WAT      O70632   6.076   7.202   0.943 -0.6066  0.3850  0.1985
17207WAT     H170633   6.069   7.225   1.036 -1.7127  0.7664  0.0375
17207WAT     H270634   6.129   7.123   0.942 -2.4238 -0.9393  1.3685
17207WAT    EPW70635   6.082   7.195   0.955 -0.9923  0.2604  0.3316
17208WAT      O70636   5.657   3.865   4.803  0.4469  0.1346 -0.0601
17208WAT     H170637   5.632   3.774   4.785 -1.7834  0.5773  0.5247
17208WAT     H270638   5.621   3.884   4.889  1.3254  1.4507  0.0553
17208WAT    EPW70639   5.649   3.855   4.812  0.2685  0.3666  0.0319
17209WAT      O70640   7.452   5.800   4.557 -0.1393 -0.1164  0.1822
17209WAT     H170641   7.359   5.799   4.532 -0.4690  1.0055  1.2816
17209WAT     H270642   7.499   5.797   4.473 -1.1870  1.0045 -0.4805
17209WAT    EPW70643   7.446   5.800   4.543 -0.3214  0.1793  0.2401
17210WAT      O70644  10.151   8.855   5.979  0.3516  0.1409  0.3908
17210WAT     H170645  10.171   8.899   5.896  2.9628  0.5905  1.1683
17210WAT     H270646  10.130   8.765   5.953  1.3343  0.2125 -0.7692
17210WAT    EPW70647  10.151   8.848   5.965  0.8259  0.2098  0.3400
17211WAT      O70648   5.479  10.015   4.298 -0.1457  0.2482 -0.1404
17211WAT     H170649   5.433   9.945   4.251 -2.2577 -0.0832  2.2173
17211WAT     H270650   5.462  10.094   4.246 -1.1574 -0.3341 -0.7394
17211WAT    EPW70651   5.471  10.016   4.285 -0.5577  0.1278  0.0918
17212WAT      O70652   8.190   8.267   2.362  0.5335  0.3662 -0.3356
17212WAT     H170653   8.185   8.328   2.288 -2.3960 -0.3303 -0.8563
17212WAT     H270654   8.112   8.286   2.414  0.4991 -1.6930  0.4652
17212WAT    EPW70655   8.179   8.277   2.359  0.1431  0.0024 -0.2986
17213WAT      O70656   7.615   6.610   5.703  0.2187  0.2478 -0.6193
17213WAT     H170657   7.577   6.590   5.617  0.3216 -0.6800 -0.4627
17213WAT     H270658   7.701   6.647   5.683  0.2292  0.0643 -0.9232
17213WAT    EPW70659   7.621   6.612   5.689  0.2337  0.1011 -0.6390
17214WAT      O70660   0.381   6.547   8.368 -0.0821  0.2957  0.5108
17214WAT     H170661   0.453   6.498   8.408 -0.4394  0.0278  0.8357
17214WAT     H270662   0.423   6.602   8.302  0.1280 -2.1250 -1.5302
17214WAT    EPW70663   0.396   6.548   8.365 -0.1015 -0.0587  0.2842
17215WAT      O70664   5.216   6.050   5.648 -0.7061  0.1148 -0.4132
17215WAT     H170665   5.135   6.013   5.680 -0.7612  0.5298 -0.0540
17215WAT     H270666   5.231   6.127   5.704 -1.4389  1.5831 -2.1303
17215WAT    EPW70667   5.208   6.055   5.660 -0.8101  0.3631 -0.5922
17216WAT      O70668   9.695   2.686   5.617 -0.4936  0.2012  0.4831
17216WAT     H170669   9.786   2.715   5.622  0.5397 -2.9512  3.8445
17216WAT     H270670   9.646   2.755   5.662  0.9192  0.0096  2.4661
17216WAT    EPW70671   9.701   2.699   5.623 -0.1707 -0.2398  1.1878
17217WAT      O70672   9.208   9.009   4.592 -0.7225  0.2370 -0.1561
17217WAT     H170673   9.173   9.020   4.680  0.4833  0.7991  0.2702
17217WAT     H270674   9.166   8.929   4.560 -0.1195 -0.7807  1.4543
17217WAT    EPW70675   9.198   9.000   4.599 -0.4840  0.1769  0.1123
17218WAT      O70676   6.638  10.129   4.826 -0.0316 -0.2954  0.7420
17218WAT     H170677   6.686  10.151   4.747 -0.6543  0.7066  0.6213
17218WAT     H270678   6.562  10.079   4.795 -0.0976 -0.1893  0.7298
17218WAT    EPW70679   6.634  10.126   4.812 -0.1225 -0.1493  0.7246
17219WAT      O70680   6.630   8.416   8.130 -0.0350 -0.5070  0.1043
17219WAT     H170681   6.710   8.467   8.124  0.9339 -1.8888  0.7359
17219WAT     H270682   6.649   8.349   8.197 -1.3487 -1.4889 -0.4628
17219WAT    EPW70683   6.643   8.414   8.138 -0.0806 -0.8192  0.1130
17220WAT      O70684   9.408   7.870   2.465  0.2062  0.1147  0.2400
17220WAT     H170685   9.362   7.882   2.383  0.6149 -2.4331 -0.4681
17220WAT     H270686   9.461   7.949   2.475 -0.9976  1.1557 -1.1256
17220WAT    EPW70687   9.409   7.882   2.456  0.1016 -0.0842 -0.0334
17221WAT      O70688   4.428   2.807   8.194  0.8202 -1.0579  0.8088
17221WAT     H170689   4.507   2.830   8.145 -0.0176 -1.0657 -0.5880
17221WAT     H270690   4.443   2.842   8.282  1.1641  1.5201 -0.2039
17221WAT    EPW70691   4.441   2.814   8.199  0.7548 -0.7188  0.4911
17222WAT      O70692   7.412   6.851   2.047  0.4969  0.8483  0.6116
17222WAT     H170693   7.366   6.933   2.062  1.3810  1.2343  1.2900
17222WAT     H270694   7.346   6.783   2.064  0.2306  1.3831  1.8191
17222WAT    EPW70695   7.397   6.853   2.051  0.5782  0.9699  0.8603
17223WAT      O70696   5.096   5.169   5.276 -0.2018 -0.2022 -0.6707
17223WAT     H170697   5.010   5.181   5.316 -0.7880 -0.5233 -1.8004
17223WAT     H270698   5.152   5.141   5.349 -0.8463  0.8011  0.2364
17223WAT    EPW70699   5.092   5.167   5.291 -0.3645 -0.1123 -0.7002
17224WAT      O70700   8.113   2.311   4.089 -0.4892  1.3643  0.1269
17224WAT     H170701   8.034   2.262   4.110 -0.5287  0.8076 -1.2399
17224WAT     H270702   8.163   2.313   4.171 -0.2862 -1.3289  0.1547
17224WAT    EPW70703   8.109   2.305   4.102 -0.4678  0.9357 -0.0498
17225WAT      O70704   9.176   4.890   4.873  0.3018  0.3886 -0.0968
17225WAT     H170705   9.217   4.822   4.927  1.4569  0.9439 -0.2507
17225WAT     H270706   9.214   4.877   4.786 -0.2121  0.6214 -0.3591
17225WAT    EPW70707   9.187   4.879   4.869  0.3867  0.4928 -0.1516
17226WAT      O70708   8.637   7.589   6.186  0.2418  0.0550 -0.9490
17226WAT     H170709   8.576   7.546   6.247 -1.3951  0.0966 -2.4821
17226WAT     H270710   8.599   7.676   6.172  2.1087  1.0912  0.0658
17226WAT    EPW70711   8.624   7.595   6.193  0.2718  0.1972 -1.0173
17227WAT      O70712   8.018   4.723   7.014  0.0122  0.2298  0.5670
17227WAT     H170713   8.053   4.660   7.077 -0.4028 -2.1098 -1.4088
17227WAT     H270714   7.924   4.728   7.035 -0.1378 -0.5952  0.1137
17227WAT    EPW70715   8.010   4.715   7.025 -0.0625 -0.1879  0.2465
17228WAT      O70716   7.294   9.252   3.253 -0.7812 -0.9959  0.6728
17228WAT     H170717   7.229   9.229   3.187 -1.0165  0.7305  0.2601
17228WAT     H270718   7.246   9.306   3.316  0.3888  1.0738 -0.1129
17228WAT    EPW70719   7.279   9.256   3.253 -0.6578 -0.4959  0.5149
17229WAT      O70720   6.710   5.825   4.871 -0.5155  0.0834 -0.0178
17229WAT     H170721   6.623   5.849   4.903 -1.6399 -3.9840  0.5742
17229WAT     H270722   6.763   5.816   4.950 -1.3788 -3.2933  0.3070
17229WAT    EPW70723   6.706   5.827   4.885 -0.7775 -0.8984  0.1030
17230WAT      O70724   6.719   7.445   5.235 -0.5787  0.0994  0.3168
17230WAT     H170725   6.758   7.370   5.190  1.4934  0.9754  0.5466
17230WAT     H270726   6.674   7.494   5.166 -1.0946 -0.7949 -0.0041
17230WAT    EPW70727   6.718   7.441   5.220 -0.3736  0.0970  0.3047
17231WAT      O70728   6.856   8.366   7.157  0.5504 -0.6010 -0.1594
17231WAT     H170729   6.771   8.368   7.201  0.0823  1.1591 -1.0214
17231WAT     H270730   6.839   8.321   7.075  0.9400 -2.0021  0.4969
17231WAT    EPW70731   6.843   8.360   7.152  0.5400 -0.5536 -0.1867
17232WAT      O70732   5.912   5.936   6.106  0.3730 -0.3676  0.1885
17232WAT     H170733   5.970   5.917   6.180  1.3942  1.1250 -0.1596
17232WAT     H270734   5.931   5.868   6.042  1.9591  0.1967  0.0040
17232WAT    EPW70735   5.922   5.925   6.107  0.7169 -0.0963  0.1185
17233WAT      O70736  10.764   6.353   1.818  0.0519  0.0710  0.4593
17233WAT     H170737  10.801   6.383   1.901 -0.4016  0.0328  0.6781
17233WAT     H270738  10.809   6.406   1.752  0.1262  0.3834  0.7551
17233WAT    EPW70739  10.775   6.364   1.820  0.0014  0.1070  0.5271
17234WAT      O70740   1.575   7.273   2.059 -0.1028  0.3604  0.0485
17234WAT     H170741   1.661   7.315   2.057  0.0593  0.0141 -1.2102
17234WAT     H270742   1.522   7.323   1.997 -0.1712 -0.6754 -0.7675
17234WAT    EPW70743   1.580   7.285   2.050 -0.0904  0.1779 -0.2252
17235WAT      O70744   4.992   7.952   5.627 -0.3741  0.0421 -0.3703
17235WAT     H170745   4.938   7.924   5.700  0.1187  0.9012  0.3388
17235WAT     H270746   5.046   8.023   5.662 -1.8265  2.2027 -2.1504
17235WAT    EPW70747   4.992   7.958   5.641 -0.5004  0.4406 -0.5116
17236WAT      O70748   9.636   9.489   3.995 -0.3120  0.6817  0.0465
17236WAT     H170749   9.561   9.526   3.950 -1.9291 -0.1576  1.8934
17236WAT     H270750   9.615   9.498   4.088  1.8982  0.4169  0.6364
17236WAT    EPW70751   9.623   9.495   4.002 -0.2337  0.5364  0.3679
17237WAT      O70752   7.793   8.757   4.991 -0.8422 -0.2051  0.4691
17237WAT     H170753   7.862   8.779   5.053  1.1053  1.5894 -2.1531
17237WAT     H270754   7.713   8.789   5.033  0.5870  2.4079  1.4442
17237WAT    EPW70755   7.791   8.764   5.005 -0.3970  0.3767  0.2520
17238WAT      O70756   6.416   9.000   4.046 -0.5374 -0.0302 -0.8594
17238WAT     H170757   6.483   8.958   4.099 -1.8572 -0.4757  0.5263
17238WAT     H270758   6.333   8.964   4.079 -1.4637  0.3448 -2.6358
17238WAT    EPW70759   6.414   8.990   4.057 -0.8337 -0.0391 -0.9110
17239WAT      O70760  10.809   5.332   4.941  0.1882  0.6096 -0.1904
17239WAT     H170761  10.796   5.343   4.846  2.2420 -0.7825 -0.6907
17239WAT     H270762  10.724   5.302   4.973 -0.5884  1.2469 -1.5417
17239WAT    EPW70763  10.796   5.330   4.933  0.3567  0.5102 -0.4349
17240WAT      O70764   8.863   5.970   5.075  0.1082 -0.8301  0.0477
17240WAT     H170765   8.783   5.942   5.121 -0.3322  1.1502  0.5703
17240WAT     H270766   8.909   6.024   5.138 -0.2944  1.6088 -1.6182
17240WAT    EPW70767   8.858   5.973   5.089 -0.0029 -0.2470 -0.1030
17241WAT      O70768   2.017   8.011   5.849 -0.1757 -0.1603 -0.3633
17241WAT     H170769   2.110   7.995   5.866 -0.9201 -3.1326  1.4496
17241WAT     H270770   2.012   8.022   5.754  1.8911 -0.8582 -0.5933
17241WAT    EPW70771   2.029   8.011   5.839 -0.0013 -0.6442 -0.1545
17242WAT      O70772   8.802   7.021   3.980  0.2990 -0.0642 -0.1267
17242WAT     H170773   8.872   6.962   3.954 -0.4232 -0.7373 -0.5899
17242WAT     H270774   8.764   6.982   4.059 -0.4979 -0.5183 -0.7092
17242WAT    EPW70775   8.806   7.008   3.987  0.0992 -0.2129 -0.2645
17243WAT      O70776   8.304   6.878   1.774  0.5246  0.1245 -0.1582
17243WAT     H170777   8.267   6.794   1.746  1.9608 -0.4048 -0.5436
17243WAT     H270778   8.355   6.857   1.852  1.2339  0.5614 -0.4964
17243WAT    EPW70779   8.306   6.864   1.780  0.8073  0.1125 -0.2537
17244WAT      O70780   7.699   5.668   4.539  0.3418 -0.3202  0.3678
17244WAT     H170781   7.620   5.704   4.581  0.1759 -1.2987  0.9284
17244WAT     H270782   7.681   5.574   4.533  0.7273 -0.3114 -1.1369
17244WAT    EPW70783   7.686   5.660   4.544  0.3705 -0.4480  0.2432
17245WAT      O70784   8.683   8.671   3.542 -0.3609  0.8176 -0.7448
17245WAT     H170785   8.663   8.619   3.620 -0.2758 -0.6748 -1.6738
17245WAT     H270786   8.598   8.704   3.513 -0.3844  1.4461  0.0036
17245WAT    EPW70787   8.669   8.668   3.548 -0.3529  0.7038 -0.7685
17246WAT      O70788  10.582   7.382   5.353 -0.5352  0.4979  0.7882
17246WAT     H170789  10.660   7.437   5.347 -0.4786  0.2486 -1.3736
17246WAT     H270790  10.597   7.311   5.291 -1.4596 -0.9072  2.1024
17246WAT    EPW70791  10.594   7.380   5.344 -0.6499  0.2794  0.6764
17247WAT      O70792   8.054   6.701   5.857 -0.8995  0.2581  0.1707
17247WAT     H170793   7.978   6.759   5.850 -0.8069  0.2599 -1.0522
17247WAT     H270794   8.117   6.736   5.794 -0.3086 -0.3884  0.3856
17247WAT    EPW70795   8.052   6.714   5.848 -0.8097  0.1729  0.0379
17248WAT      O70796   0.301   5.222   3.345 -0.2530 -0.5396 -0.4297
17248WAT     H170797   0.351   5.186   3.271  1.6290 -1.0982  1.0209
17248WAT     H270798   0.235   5.155   3.363  1.7735 -2.3597  0.7944
17248WAT    EPW70799   0.299   5.208   3.338  0.2625 -0.8533 -0.0769
17249WAT      O70800   3.059   0.679   2.655 -0.0489 -0.4483 -0.3988
17249WAT     H170801   3.060   0.759   2.602 -0.4068 -0.7529 -0.8748
17249WAT     H270802   3.012   0.704   2.734 -0.0451 -0.1522 -0.4874
17249WAT    EPW70803   3.053   0.693   2.658 -0.0956 -0.4494 -0.4733
17250WAT      O70804   6.055   8.807   6.569 -0.4890 -0.0305  0.3592
17250WAT     H170805   6.143   8.803   6.606  0.3641  2.8039 -1.0717
17250WAT     H270806   6.042   8.722   6.527  1.7618 -0.3505  0.2312
17250WAT    EPW70807   6.065   8.795   6.568 -0.0796  0.3009  0.1535
17251WAT      O70808  10.173   8.904   3.803 -0.2139 -0.0782 -0.0234
17251WAT     H170809  10.085   8.942   3.808  0.1853  0.7899  0.5673
17251WAT     H270810  10.218   8.937   3.880  0.2196 -1.6222  0.4172
17251WAT    EPW70811  10.167   8.914   3.814 -0.1044 -0.1669  0.1125
17252WAT      O70812  10.399   6.634   2.881 -0.0076 -0.4615 -1.0651
17252WAT     H170813  10.403   6.558   2.938 -2.7350 -1.3068 -1.8469
17252WAT     H270814  10.448   6.702   2.928 -1.3379 -1.3692  1.8329
17252WAT    EPW70815  10.406   6.633   2.894 -0.5426 -0.6928 -0.7861
17253WAT      O70816   9.389   9.678   2.413 -0.1493 -0.2677  0.1159
17253WAT     H170817   9.441   9.754   2.438 -0.4701 -0.5011  1.5761
17253WAT     H270818   9.347   9.704   2.331 -1.9125  1.9964  1.6023
17253WAT    EPW70819   9.390   9.691   2.405 -0.4239  0.0000  0.5045
17254WAT      O70820  10.822   4.596   4.205  0.2160 -1.0913  0.1391
17254WAT     H170821  10.779   4.552   4.132 -0.0292  0.8153 -0.9130
17254WAT     H270822  10.816   4.689   4.185 -2.4213 -0.1913  3.9033
17254WAT    EPW70823  10.816   4.602   4.193 -0.1645 -0.7212  0.4971
17255WAT      O70824   9.617   7.486   1.876 -0.7446  0.1880  0.3746
17255WAT     H170825   9.627   7.559   1.938 -1.1042  0.5871 -0.0309
17255WAT     H270826   9.642   7.523   1.791 -1.1949 -0.0878  0.1185
17255WAT    EPW70827   9.622   7.501   1.873 -0.8516  0.2043  0.2874
17256WAT      O70828   9.853   8.486   6.091  0.0855 -0.5219 -0.4347
17256WAT     H170829   9.918   8.466   6.158 -0.4795 -0.5547  0.1108
17256WAT     H270830   9.904   8.514   6.015  0.7123  1.7750  0.7322
17256WAT    EPW70831   9.868   8.487   6.090  0.0935 -0.2232 -0.2091
17257WAT      O70832   4.670   8.091   4.880  0.2052  0.3649  0.5805
17257WAT     H170833   4.673   8.163   4.943  0.9373 -0.0885  1.0869
17257WAT     H270834   4.690   8.131   4.796  0.1874  0.8170  0.7874
17257WAT    EPW70835   4.673   8.105   4.877  0.2995  0.3653  0.6745
17258WAT      O70836   7.096   4.432   4.087 -0.0433  0.0602 -0.2620
17258WAT     H170837   7.185   4.447   4.120 -1.1948  1.1294  2.7410
17258WAT     H270838   7.054   4.380   4.155 -1.1938 -2.2710 -2.6158
17258WAT    EPW70839   7.102   4.427   4.100 -0.3469 -0.1066 -0.1764
17259WAT      O70840   9.044   8.324   3.488  0.2961 -0.5799 -0.6225
17259WAT     H170841   9.089   8.365   3.562 -0.8918 -1.0925  0.4111
17259WAT     H270842   9.087   8.238   3.479  0.5964 -0.4251 -0.6829
17259WAT    EPW70843   9.056   8.318   3.497  0.1788 -0.6270 -0.4944
17260WAT      O70844   8.627  10.228   3.092  0.0780  0.2426  0.2878
17260WAT     H170845   8.567  10.201   3.162  0.3174  0.7469  0.6983
17260WAT     H270846   8.578  10.293   3.042  1.1060  2.6399  2.1708
17260WAT    EPW70847   8.613  10.233   3.095  0.2456  0.6256  0.5903
17261WAT      O70848   5.220   7.361   4.617  0.0879  0.6134  0.5746
17261WAT     H170849   5.312   7.344   4.634  0.0704 -0.5118 -0.3318
17261WAT     H270850   5.174   7.322   4.691  0.2707 -0.1222  0.3118
17261WAT    EPW70851   5.226   7.354   4.629  0.1094  0.3679  0.4206
17262WAT      O70852   5.136   5.037   4.405  0.2193  0.4770 -0.1522
17262WAT     H170853   5.138   4.995   4.320 -2.5762 -0.2248  0.0289
17262WAT     H270854   5.131   4.964   4.468 -1.8484  0.9304  0.3125
17262WAT    EPW70855   5.135   5.021   4.402 -0.4220  0.4442 -0.0670
17263WAT      O70856   5.656   8.860   3.934  0.4981 -0.1456 -0.4300
17263WAT     H170857   5.631   8.768   3.943  1.4137 -0.3822 -0.2480
17263WAT     H270858   5.729   8.859   3.873 -0.0632  0.5623 -1.1306
17263WAT    EPW70859   5.662   8.847   3.927  0.5445 -0.0834 -0.4984
17264WAT      O70860   8.702   8.212   4.000 -1.0894  0.6567 -0.3121
17264WAT     H170861   8.712   8.141   4.064  0.4853  0.2167 -1.0232
17264WAT     H270862   8.608   8.215   3.983 -1.4639  0.3017  1.4621
17264WAT    EPW70863   8.691   8.203   4.006 -0.9308  0.5522 -0.1719
17265WAT      O70864  10.280   9.013   6.519 -0.3829 -1.1016  0.3243
17265WAT     H170865  10.233   8.931   6.502 -0.7067 -0.8024 -0.3002
17265WAT     H270866  10.359   8.987   6.565 -0.2525 -1.8198 -0.2852
17265WAT    EPW70867  10.284   8.999   6.523 -0.4077 -1.1573  0.1616
17266WAT      O70868   9.691   6.796   3.034  0.1420  0.6345  0.0962
17266WAT     H170869   9.762   6.753   2.986 -0.6037  0.0554 -0.5209
17266WAT     H270870   9.701   6.889   3.014 -0.0717  0.4228 -1.1028
17266WAT    EPW70871   9.701   6.802   3.025  0.0153  0.5302 -0.1433
17267WAT      O70872   9.019   7.782   7.881  0.1121  0.0291 -0.2973
17267WAT     H170873   9.095   7.815   7.834  0.0380  0.8524  0.1532
17267WAT     H270874   9.013   7.837   7.960 -1.3301  0.4047 -0.6420
17267WAT    EPW70875   9.028   7.793   7.886 -0.0877  0.1872 -0.2832
17268WAT      O70876   9.526   8.541   5.922  0.0727  0.3008 -0.4694
17268WAT     H170877   9.480   8.623   5.902  0.1188  0.1746 -1.1023
17268WAT     H270878   9.516   8.531   6.017  0.9218  1.5508 -0.2277
17268WAT    EPW70879   9.519   8.551   5.932  0.1912  0.4492 -0.5214
17269WAT      O70880   9.450   9.557   7.369  0.1542 -0.0370  0.6722
17269WAT     H170881   9.397   9.535   7.446 -0.2498 -5.8288 -0.7706
17269WAT     H270882   9.392   9.542   7.295  2.1317 -0.6433 -0.8428
17269WAT    EPW70883   9.435   9.552   7.369  0.3614 -0.8807  0.2820
17270WAT      O70884   1.818   6.472   2.260  0.4386 -0.0810 -0.5143
17270WAT     H170885   1.839   6.385   2.226  1.0638  0.5124 -1.7077
17270WAT     H270886   1.741   6.500   2.209  1.8135  1.1097 -2.0808
17270WAT    EPW70887   1.811   6.465   2.249  0.7024  0.1543 -0.8782
17271WAT      O70888   8.087   3.964   8.881 -0.0251 -0.1552 -0.1470
17271WAT     H170889   8.042   4.049   8.875  0.6034  0.2217  0.3713
17271WAT     H270890   8.123   3.951   8.793  0.6490  0.5605  0.0089
17271WAT    EPW70891   8.086   3.973   8.869  0.1469 -0.0112 -0.0587
17272WAT      O70892   9.770   7.040   6.720  0.3273  0.3382  0.0623
17272WAT     H170893   9.717   7.055   6.641  0.6142 -1.3561 -0.4919
17272WAT     H270894   9.860   7.054   6.691  0.5950 -1.9563 -0.4372
17272WAT    EPW70895   9.774   7.044   6.706  0.4010 -0.1879 -0.0765
17273WAT      O70896   5.122   6.391   7.211  0.2090 -0.2172  0.2066
17273WAT     H170897   5.213   6.380   7.237  0.6646  1.8710 -0.3527
17273WAT     H270898   5.125   6.414   7.118 -0.7142  1.5877  0.5701
17273WAT    EPW70899   5.134   6.392   7.202  0.1473  0.2964  0.1810
17274WAT      O70900   7.884   7.030   6.419 -0.8113  0.0341  0.4712
17274WAT     H170901   7.883   6.939   6.450 -4.4910  0.1913  1.3305
17274WAT     H270902   7.949   7.073   6.474 -0.9474 -1.5388  1.9616
17274WAT    EPW70903   7.892   7.023   6.430 -1.3146 -0.1526  0.7811
17275WAT      O70904   7.512   7.603   2.711 -1.0381 -0.2414  0.0725
17275WAT     H170905   7.553   7.598   2.625  0.3949 -0.6541  0.7383
17275WAT     H270906   7.502   7.512   2.738 -2.4966 -0.1531 -0.0896
17275WAT    EPW70907   7.516   7.590   2.703 -1.0414 -0.2844  0.1390
17276WAT      O70908   7.323   6.820   6.309  0.8218  0.7631 -0.4064
17276WAT     H170909   7.300   6.912   6.324 -2.2693  0.1923 -0.8151
17276WAT     H270910   7.278   6.773   6.379 -1.2755 -0.6864 -2.5393
17276WAT    EPW70911   7.314   6.826   6.320  0.1373  0.4964 -0.7417
17277WAT      O70912   7.216   3.452   8.176  0.2682 -0.0553 -0.2102
17277WAT     H170913   7.300   3.405   8.186  0.4524 -0.1750 -2.0141
17277WAT     H270914   7.234   3.540   8.209  1.9192  0.7048 -2.7875
17277WAT    EPW70915   7.230   3.457   8.182  0.5102  0.0291 -0.7882
17278WAT      O70916   9.139   7.008   5.539 -0.5476 -0.5493  0.0303
17278WAT     H170917   9.213   7.051   5.582 -1.6358  0.1010  1.3276
17278WAT     H270918   9.157   6.914   5.547 -0.0321 -0.4045  0.6407
17278WAT    EPW70919   9.151   7.001   5.546 -0.6237 -0.4444  0.2820
17279WAT      O70920   9.139   6.866   4.004  0.2700  0.6955  0.2863
17279WAT     H170921   9.097   6.890   3.922 -0.2882  1.7689  0.8709
17279WAT     H270922   9.157   6.772   3.995 -0.1820  0.7079 -0.8747
17279WAT    EPW70923   9.136   6.856   3.992  0.1364  0.8388  0.2103
17280WAT      O70924  10.638   6.051   1.009 -0.2013 -0.0469  0.1901
17280WAT     H170925  10.651   6.097   0.926  3.1714  0.4512  0.8382
17280WAT     H270926  10.585   6.111   1.061 -0.5123  0.6179 -0.8589
17280WAT    EPW70927  10.633   6.065   1.005  0.2027  0.1061  0.1372
17281WAT      O70928   4.778   4.660   0.974  0.7120 -0.5410  0.1078
17281WAT     H170929   4.742   4.616   0.897 -1.1089  0.6426  0.2147
17281WAT     H270930   4.719   4.636   1.046  0.9385  0.3085  0.5963
17281WAT    EPW70931   4.765   4.651   0.973  0.5019 -0.2730  0.1863
17282WAT      O70932   5.266   5.834   7.074 -0.0326  0.2107  0.0305
17282WAT     H170933   5.268   5.892   7.150 -2.5321 -1.0378  1.1742
17282WAT     H270934   5.310   5.754   7.103 -1.2084 -0.3600  0.2939
17282WAT    EPW70935   5.272   5.831   7.088 -0.5176 -0.0291  0.2160
17283WAT      O70936   8.875   8.929   3.472  0.0632 -0.3429 -0.6715
17283WAT     H170937   8.906   8.861   3.412 -0.3958 -0.0019 -1.3035
17283WAT     H270938   8.781   8.916   3.478  0.4505 -2.6127  2.7924
17283WAT    EPW70939   8.867   8.919   3.465  0.0539 -0.5980 -0.2981
17284WAT      O70940   0.754   5.474   4.368  0.1948  0.3660  0.5618
17284WAT     H170941   0.733   5.477   4.462 -1.5114  3.0383  0.1988
17284WAT     H270942   0.669   5.477   4.324  0.9044 -1.8012 -1.1576
17284WAT    EPW70943   0.740   5.475   4.375  0.0634  0.4327  0.2871
17285WAT      O70944  10.521   2.951   7.350 -0.1623 -0.1731 -1.2694
17285WAT     H170945  10.428   2.930   7.349 -0.9328  2.6717  0.2830
17285WAT     H270946  10.540   2.977   7.260 -1.7816  2.3733 -0.9706
17285WAT    EPW70947  10.511   2.952   7.338 -0.4773  0.5380 -1.0252
17286WAT      O70948   9.280   5.896   4.675 -0.2169  0.1831 -0.1832
17286WAT     H170949   9.258   5.912   4.583  1.6157  1.4165 -0.4510
17286WAT     H270950   9.232   5.963   4.723 -0.4866  0.0852 -0.3115
17286WAT    EPW70951   9.270   5.907   4.669 -0.0110  0.3331 -0.2356
17287WAT      O70952  10.294   9.340   3.870  0.6833 -0.7542 -0.3379
17287WAT     H170953  10.297   9.401   3.944  5.2633  0.7568 -1.4534
17287WAT     H270954  10.345   9.264   3.899  0.1538 -1.3859 -1.0108
17287WAT    EPW70955  10.301   9.338   3.884  1.2174 -0.6385 -0.5738
17288WAT      O70956   9.165   7.499   5.156  0.0018  0.6142 -0.1179
17288WAT     H170957   9.112   7.425   5.185  0.2602  0.5434  0.1843
17288WAT     H270958   9.118   7.576   5.188  1.1399  0.5056  2.0629
17288WAT    EPW70959   9.152   7.499   5.164  0.1855  0.5906  0.2093
17289WAT      O70960   6.242   9.470   4.322  0.2240 -0.2611 -0.0422
17289WAT     H170961   6.242   9.374   4.321  2.1080 -0.3190  0.8097
17289WAT     H270962   6.201   9.493   4.405 -1.1299 -0.2727 -0.6836
17289WAT    EPW70963   6.236   9.460   4.332  0.2940 -0.2704 -0.0148
17290WAT      O70964   8.553   4.838   4.683 -0.1481  0.1638 -0.8206
17290WAT     H170965   8.523   4.848   4.593 -0.4517 -0.6385 -0.8179
17290WAT     H270966   8.647   4.819   4.676  0.5406  3.0847 -0.8109
17290WAT    EPW70967   8.562   4.837   4.671 -0.0973  0.4435 -0.8190
17291WAT      O70968   0.818   8.705   3.018 -0.3039 -0.3481  0.4113
17291WAT     H170969   0.831   8.628   3.073  1.1965  0.1212  0.7579
17291WAT     H270970   0.729   8.734   3.039  0.7212  0.7904  3.9106
17291WAT    EPW70971   0.808   8.699   3.028  0.0292 -0.1359  0.9186
17292WAT      O70972   8.510   5.490   4.528 -0.1313  0.6387 -0.6061
17292WAT     H170973   8.560   5.444   4.595 -0.5306  0.5092 -0.3986
17292WAT     H270974   8.576   5.543   4.482  0.2037  0.4368 -0.3636
17292WAT    EPW70975   8.526   5.491   4.531 -0.1407  0.5951 -0.5467
17293WAT      O70976   7.328   7.239   7.194 -0.3426  0.5401 -0.7683
17293WAT     H170977   7.308   7.147   7.179  0.1519  0.0326  1.3273
17293WAT     H270978   7.395   7.260   7.130 -0.5806 -0.5028 -1.3796
17293WAT    EPW70979   7.334   7.230   7.184 -0.3088  0.3357 -0.5724
17294WAT      O70980   8.398   9.161   4.217  0.6236 -0.1460 -0.4965
17294WAT     H170981   8.400   9.252   4.248  1.1537 -0.5212  0.6126
17294WAT     H270982   8.318   9.156   4.165  0.4639  0.8960 -0.3894
17294WAT    EPW70983   8.388   9.173   4.214  0.6723 -0.0577 -0.3359
17295WAT      O70984   8.121   6.992   1.283 -1.1672  0.1838 -0.4814
17295WAT     H170985   8.071   7.062   1.325 -0.5092  0.5305 -0.2599
17295WAT     H270986   8.194   6.975   1.344 -0.9451 -0.2195 -0.8583
17295WAT    EPW70987   8.124   6.999   1.297 -1.0509  0.1762 -0.5018
17296WAT      O70988   3.384   8.180   5.148 -0.2133  0.4424  0.1723
17296WAT     H170989   3.309   8.233   5.120 -0.7126  0.3777  1.3050
17296WAT     H270990   3.410   8.219   5.232 -1.4599 -1.8877  1.7542
17296WAT    EPW70991   3.377   8.192   5.156 -0.4436  0.1264  0.5302
17297WAT      O70992   9.235   8.783   4.139  0.2489  0.5567  0.7207
17297WAT     H170993   9.161   8.759   4.195  0.5180  1.1894  1.3766
17297WAT     H270994   9.276   8.856   4.185  0.6182  0.9429 -0.2060
17297WAT    EPW70995   9.231   8.789   4.153  0.3328  0.6909  0.6850
17298WAT      O70996   8.796   7.302   3.968  0.1418 -0.9027 -0.6283
17298WAT     H170997   8.821   7.209   3.971  0.2228 -0.8567  0.4904
17298WAT     H270998   8.801   7.331   4.059  0.9572  0.4272 -1.0657
17298WAT    EPW70999   8.800   7.293   3.981  0.2604 -0.7212 -0.5383
17299WAT      O71000   6.606   8.075   1.149 -0.3351  1.0716 -0.2432
17299WAT     H171001   6.532   8.018   1.124 -0.0511  0.2033  0.7836
17299WAT     H271002   6.585   8.160   1.110 -0.1395 -0.0326 -2.9299
17299WAT    EPW71003   6.593   8.078   1.141 -0.2716  0.8116 -0.4621
17300WAT      O71004   8.051   8.063   5.279 -0.0709  0.7055  0.1720
17300WAT     H171005   7.959   8.084   5.292  0.1269  1.4472  0.4465
17300WAT     H271006   8.098   8.129   5.329  0.6807  2.2578 -2.3904
17300WAT    EPW71007   8.045   8.074   5.287  0.0544  1.0080 -0.1299
17301WAT      O71008   5.612   6.948   5.943  0.1920  0.8996 -0.6906
17301WAT     H171009   5.587   6.939   6.034 -1.6770  0.0242 -1.2383
17301WAT     H271010   5.679   6.881   5.929  0.1920  0.7693 -0.0607
17301WAT    EPW71011   5.618   6.938   5.953 -0.0544  0.7670 -0.6797
17302WAT      O71012   8.733   5.791   5.882 -0.0159  0.7180 -0.1108
17302WAT     H171013   8.656   5.817   5.831  1.4856  0.2576 -2.7945
17302WAT     H271014   8.808   5.817   5.827  1.7120 -0.2920  1.6559
17302WAT    EPW71015   8.733   5.798   5.868  0.4101  0.5240 -0.2317
17303WAT      O71016   9.581   5.956   3.544 -0.1393  0.2724 -0.2121
17303WAT     H171017   9.532   5.876   3.558 -0.1097  0.1952 -0.5462
17303WAT     H271018   9.545   6.018   3.608  1.6157 -0.7621  1.9206
17303WAT    EPW71019   9.570   5.954   3.554  0.0958  0.1261  0.0252
17304WAT      O71020   7.806   6.336   2.617 -0.4273  0.3960 -0.3944
17304WAT     H171021   7.785   6.385   2.696  0.3406  0.0406  0.0435
17304WAT     H271022   7.746   6.261   2.619  0.1348 -0.0550  0.3001
17304WAT    EPW71023   7.795   6.333   2.628 -0.2518  0.2897 -0.2451
17305WAT      O71024   0.636   7.602   1.430  0.2551 -0.0852  0.7720
17305WAT     H171025   0.714   7.618   1.377 -0.0540  2.4785  1.0022
17305WAT     H271026   0.664   7.621   1.519 -0.1484 -1.0493  1.1180
17305WAT    EPW71027   0.650   7.606   1.435  0.1611  0.1256  0.8480
17306WAT      O71028   8.534   6.671   4.764 -0.4345 -0.2459 -0.0110
17306WAT     H171029   8.454   6.722   4.748  0.6309  1.3370 -0.5419
17306WAT     H271030   8.503   6.580   4.770 -2.1926  0.2351 -0.9023
17306WAT    EPW71031   8.519   6.666   4.762 -0.5255  0.0262 -0.1984
17307WAT      O71032   1.253   0.885   4.642 -0.4220 -0.0943 -0.8228
17307WAT     H171033   1.257   0.981   4.651  2.0333 -0.2371  0.3415
17307WAT     H271034   1.342   0.860   4.618 -0.9162 -2.1554 -0.6469
17307WAT    EPW71035   1.265   0.895   4.640 -0.1634 -0.3850 -0.6459
17308WAT      O71036   3.855   7.992   6.659 -0.4565  0.0396 -0.3839
17308WAT     H171037   3.769   7.964   6.627 -0.4522  0.6445 -0.9382
17308WAT     H271038   3.875   8.071   6.609  1.6756 -1.5991 -2.3607
17308WAT    EPW71039   3.847   7.998   6.648 -0.1746 -0.0968 -0.7174
17309WAT      O71040   8.660   6.358   4.351  0.3760 -0.3683  0.1438
17309WAT     H171041   8.692   6.447   4.368  2.2252 -0.9811  0.1065
17309WAT     H271042   8.700   6.335   4.267 -1.4363 -0.6595 -0.6836
17309WAT    EPW71043   8.670   6.367   4.342  0.3810 -0.4876  0.0298
17310WAT      O71044   2.313   0.854   3.714  0.0758  0.0393 -0.1484
17310WAT     H171045   2.353   0.779   3.759  1.1945  1.8779  2.1315
17310WAT     H271046   2.226   0.862   3.753  0.1832  0.2518  0.0549
17310WAT    EPW71047   2.307   0.845   3.725  0.2375  0.3099  0.1792
17311WAT      O71048   8.183   8.455   4.912 -0.0324  0.4310 -0.1163
17311WAT     H171049   8.186   8.375   4.860 -1.5520  0.4980 -0.3674
17311WAT     H271050   8.273   8.486   4.914  0.6839 -1.5122  0.3730
17311WAT    EPW71051   8.195   8.449   4.905 -0.1383  0.1841 -0.0849
17312WAT      O71052   8.182   7.369   6.377  0.4544  0.0912  0.6323
17312WAT     H171053   8.157   7.297   6.320  0.9093 -1.0957  1.8752
17312WAT     H271054   8.270   7.394   6.348  0.0166  0.6611 -0.2608
17312WAT    EPW71055   8.191   7.363   6.365  0.4568  0.0100  0.6785
17313WAT      O71056   8.764   6.614   4.413  0.0085 -0.0956 -0.9566
17313WAT     H171057   8.717   6.687   4.454  2.6142  0.9125  0.4793
17313WAT     H271058   8.802   6.565   4.486  0.5593 -1.2900 -2.0085
17313WAT    EPW71059   8.763   6.618   4.428  0.4253 -0.1202 -0.9060
17314WAT      O71060   8.626   5.394   4.750  0.5020  0.2235 -0.0758
17314WAT     H171061   8.608   5.301   4.764  0.9895  0.3757  1.7806
17314WAT     H271062   8.722   5.400   4.747  0.4698  0.6449 -0.2971
17314WAT    EPW71063   8.636   5.383   4.752  0.5617  0.2990  0.1400
17315WAT      O71064  10.886   5.948   2.205 -0.1211 -0.3641 -0.3566
17315WAT     H171065  10.944   5.893   2.153 -0.5925 -0.3961 -0.8602
17315WAT     H271066  10.905   5.926   2.296  0.2006 -0.8316 -0.5395
17315WAT    EPW71067  10.896   5.938   2.210 -0.1411 -0.4301 -0.4472
17316WAT      O71068   9.211   7.819   2.823  0.1637  0.5464  0.5735
17316WAT     H171069   9.306   7.829   2.811  0.3511 -0.1607  1.3756
17316WAT     H271070   9.201   7.736   2.869 -0.9481 -0.0182 -0.6221
17316WAT    EPW71071   9.223   7.810   2.827  0.0410  0.3786  0.5214
17317WAT      O71072   9.487   7.492   3.349  0.0373  0.3990  0.5660
17317WAT     H171073   9.446   7.448   3.423 -0.6233  1.1489  0.6590
17317WAT     H271074   9.456   7.443   3.272 -0.9085  0.8541  0.6480
17317WAT    EPW71075   9.477   7.479   3.348 -0.1745  0.5581  0.5889
17318WAT      O71076   9.736   6.881   3.906 -0.0916  0.2187 -0.0700
17318WAT     H171077   9.648   6.849   3.925  0.4140 -0.8460  0.5847
17318WAT     H271078   9.727   6.928   3.823 -1.4209  0.8273  0.3780
17318WAT    EPW71079   9.723   6.883   3.897 -0.1998  0.1583  0.0753
17319WAT      O71080  10.957   8.742   4.400  0.2665  0.4330  0.6068
17319WAT     H171081  11.001   8.702   4.325  0.0601  0.4272  0.4874
17319WAT     H271082  10.868   8.709   4.396 -0.2335  1.7659 -0.1594
17319WAT    EPW71083  10.951   8.733   4.390  0.1736  0.6080  0.4902
17320WAT      O71084   4.407   9.922   4.560  0.0771  0.4827 -0.1561
17320WAT     H171085   4.410   9.942   4.654 -1.1248 -0.8680  0.1960
17320WAT     H271086   4.323   9.956   4.530 -0.5663 -1.1246 -0.2296
17320WAT    EPW71087   4.397   9.929   4.568 -0.1664  0.0920 -0.1192
17321WAT      O71088   8.831   7.050   2.076 -0.1841 -0.0618 -0.4195
17321WAT     H171089   8.856   7.042   1.984 -0.3593  1.5448 -0.6488
17321WAT     H271090   8.909   7.087   2.119 -0.0587 -0.9174  0.1090
17321WAT    EPW71091   8.845   7.054   2.070 -0.1907  0.0372 -0.3800
17322WAT      O71092   7.727   2.380   8.885 -1.0937  0.2822  0.2569
17322WAT     H171093   7.672   2.301   8.888 -1.6654  0.5332 -1.8475
17322WAT     H271094   7.795   2.364   8.950 -0.8490 -2.2514 -0.4999
17322WAT    EPW71095   7.728   2.367   8.894 -1.1368 -0.0187 -0.1202
17323WAT      O71096   8.950   9.357   7.267  0.3130 -0.1735  0.0173
17323WAT     H171097   8.880   9.393   7.322 -2.5009 -1.1457 -2.6041
17323WAT     H271098   9.010   9.315   7.328 -0.8905  1.4617  2.5019
17323WAT    EPW71099   8.949   9.356   7.282 -0.2165 -0.0863 -0.0007
17324WAT      O71100   8.799   9.657   1.452 -0.1094 -0.1083 -1.0557
17324WAT     H171101   8.788   9.591   1.520  3.1182 -0.4176 -0.6744
17324WAT     H271102   8.814   9.607   1.372 -0.4396  0.2097 -1.3212
17324WAT    EPW71103   8.800   9.642   1.450  0.2732 -0.1068 -1.0404
17325WAT      O71104   2.491   2.198   2.504  0.7181 -0.6670  0.4943
17325WAT     H171105   2.543   2.267   2.463 -1.8028  1.1673  0.1541
17325WAT     H271106   2.533   2.182   2.588  1.9241  0.5445  0.1527
17325WAT    EPW71107   2.503   2.205   2.510  0.5447 -0.2654  0.4042
17326WAT      O71108   9.988   4.947   4.729  0.0836 -0.0858  0.7645
17326WAT     H171109   9.933   4.871   4.745  2.3831 -1.6675  1.7745
17326WAT     H271110  10.055   4.943   4.798 -0.5833  3.7994  1.8914
17326WAT    EPW71111   9.990   4.936   4.741  0.2985  0.2177  1.0464
17327WAT      O71112  10.378   5.507   3.723 -0.1258 -0.1210 -0.0839
17327WAT     H171113  10.461   5.480   3.685 -1.3029 -2.4828 -1.1720
17327WAT     H271114  10.348   5.579   3.668 -0.3774 -1.5258 -1.8685
17327WAT    EPW71115  10.385   5.513   3.711 -0.3138 -0.6177 -0.4629
17328WAT      O71116   9.513   4.864   2.510 -0.7857 -0.0769  0.6247
17328WAT     H171117   9.438   4.854   2.450  0.0210 -1.0605 -0.2548
17328WAT     H271118   9.537   4.774   2.532  1.5764  0.0916 -0.9565
17328WAT    EPW71119   9.506   4.851   2.505 -0.3681 -0.1843  0.3000
17329WAT      O71120   9.027   7.658   2.346  0.0237 -0.1838 -0.4899
17329WAT     H171121   9.012   7.587   2.409  0.4398 -0.9572 -1.2357
17329WAT     H271122   9.070   7.726   2.397 -1.3661  0.0090  0.5002
17329WAT    EPW71123   9.031   7.657   2.361 -0.1049 -0.2606 -0.4578
17330WAT      O71124   9.998   7.852   3.748 -0.2782  0.3985 -0.3210
17330WAT     H171125  10.064   7.903   3.701 -0.3433  2.4259  1.6027
17330WAT     H271126   9.917   7.866   3.699  0.0485  0.7424 -0.7724
17330WAT    EPW71127   9.996   7.861   3.736 -0.2432  0.7112 -0.1267
17331WAT      O71128   0.434   9.316   3.283  0.0241 -0.4608 -0.1040
17331WAT     H171129   0.458   9.277   3.199  1.8221 -0.9673  0.6077
17331WAT     H271130   0.435   9.410   3.267 -1.6135 -0.5703 -1.1221
17331WAT    EPW71131   0.437   9.323   3.270  0.0452 -0.5426 -0.1442
17332WAT      O71132  10.640   9.630   5.197 -0.3475 -0.7383 -0.2024
17332WAT     H171133  10.626   9.725   5.191 -0.9703 -0.7693  0.5997
17332WAT     H271134  10.710   9.612   5.134 -0.6542  0.1578 -0.8186
17332WAT    EPW71135  10.647   9.640   5.188 -0.4697 -0.6237 -0.1781
17333WAT      O71136   8.485   8.861   2.437  0.0224 -0.1693 -0.3897
17333WAT     H171137   8.410   8.825   2.391 -0.3651 -1.2412  1.0064
17333WAT     H271138   8.448   8.927   2.496 -0.2520 -2.3898  2.1024
17333WAT    EPW71139   8.470   8.865   2.439 -0.0648 -0.6037  0.1231
17334WAT      O71140   5.958   6.256   4.829 -0.4626 -0.7393 -0.2680
17334WAT     H171141   5.981   6.185   4.769 -2.1490 -1.5059 -0.0758
17334WAT     H271142   5.942   6.331   4.773  3.3657  0.2166 -0.3644
17334WAT    EPW71143   5.959   6.257   4.814 -0.1800 -0.7143 -0.2553
17335WAT      O71144   5.310   7.139   3.474 -0.1851 -0.2074  0.4613
17335WAT     H171145   5.239   7.080   3.447 -0.0961 -0.7512  1.3641
17335WAT     H271146   5.267   7.225   3.481 -0.0167  0.1650 -2.1980
17335WAT    EPW71147   5.295   7.143   3.471 -0.1512 -0.2298  0.2296
17336WAT      O71148   6.332   6.991   5.155 -0.1173 -0.5591  0.1469
17336WAT     H171149   6.389   7.022   5.084 -0.7165  0.8965  0.2736
17336WAT     H271150   6.312   6.901   5.131  0.8146 -0.5372 -0.8135
17336WAT    EPW71151   6.337   6.983   5.142 -0.0732 -0.3641  0.0370
17337WAT      O71152   8.739   6.871   4.229  1.1710  0.4062  0.0966
17337WAT     H171153   8.645   6.873   4.246  0.8983 -0.6133 -1.0651
17337WAT     H271154   8.767   6.787   4.265  1.6036  0.6219  0.2635
17337WAT    EPW71155   8.730   6.860   4.236  1.1921  0.3002 -0.0343
17338WAT      O71156   7.597   6.144   6.535  0.2925 -0.0864  0.3494
17338WAT     H171157   7.513   6.111   6.569 -0.1927 -0.5835 -1.2189
17338WAT     H271158   7.593   6.124   6.441  3.5204 -3.1036  0.6425
17338WAT    EPW71159   7.585   6.137   6.527  0.6542 -0.5500  0.1810
17339WAT      O71160   9.941   5.174   4.110  0.3037 -0.0694  0.5248
17339WAT     H171161   9.932   5.140   4.021  1.0063 -1.4098  0.9502
17339WAT     H271162   9.872   5.131   4.159 -0.5845  1.2551  0.4952
17339WAT    EPW71163   9.931   5.164   4.105  0.2789 -0.0715  0.5767
17340WAT      O71164   6.117   5.504   5.180 -0.1921  0.5920  0.3470
17340WAT     H171165   6.098   5.437   5.114  1.1526  0.2125  0.3186
17340WAT     H271166   6.062   5.480   5.255  1.4933 -1.5980  0.9862
17340WAT    EPW71167   6.107   5.492   5.181  0.2074  0.2530  0.4277
17341WAT      O71168   9.025   7.181   3.534  0.7399  0.2672  0.0974
17341WAT     H171169   8.966   7.159   3.462  2.0926 -0.8209 -0.7156
17341WAT     H271170   8.980   7.251   3.581 -1.0394 -0.2957 -0.6859
17341WAT    EPW71171   9.011   7.187   3.531  0.6838  0.0491 -0.1131
17342WAT      O71172   7.204   7.020   3.851 -0.4207  0.2253 -1.4722
17342WAT     H171173   7.287   7.068   3.863 -0.2705 -0.1566 -0.9555
17342WAT     H271174   7.213   6.978   3.766  1.1621 -2.2035 -0.2203
17342WAT    EPW71175   7.216   7.021   3.842 -0.1919 -0.1457 -1.2389
17343WAT      O71176   4.618   6.468   3.485  0.3830 -0.6151 -0.1734
17343WAT     H171177   4.639   6.537   3.548 -0.7105 -1.2878  0.9881
17343WAT     H271178   4.546   6.420   3.526  0.8551 -2.2094 -1.1310
17343WAT    EPW71179   4.611   6.471   3.499  0.3011 -0.9143 -0.1465
17344WAT      O71180   8.392   9.469   3.014 -0.2139 -0.4524  1.1062
17344WAT     H171181   8.455   9.398   3.003 -1.6377 -1.5375 -0.6280
17344WAT     H271182   8.415   9.532   2.945 -0.6637 -0.5965  0.8169
17344WAT    EPW71183   8.403   9.468   3.003 -0.4616 -0.6146  0.8394
17345WAT      O71184   9.389   7.470   6.774 -0.3898 -0.0354 -0.2592
17345WAT     H171185   9.409   7.464   6.681  0.1455 -0.2179 -0.1372
17345WAT     H271186   9.457   7.527   6.809  0.4055 -1.2646  0.2912
17345WAT    EPW71187   9.401   7.477   6.766 -0.2146 -0.2217 -0.1705
17346WAT      O71188   8.703   8.765   4.562  0.2827  0.3504  0.2417
17346WAT     H171189   8.706   8.755   4.657 -0.5433  0.4165  0.2828
17346WAT     H271190   8.700   8.860   4.548  1.3410  0.3754  0.1057
17346WAT    EPW71191   8.703   8.777   4.573  0.3128  0.3619  0.2289
17347WAT      O71192  10.026   9.631   5.555 -0.6909  0.3145 -0.3652
17347WAT     H171193  10.060   9.715   5.585  0.4285 -0.3522  0.3147
17347WAT     H271194   9.946   9.618   5.606  0.1510  0.1003  0.9496
17347WAT    EPW71195  10.020   9.641   5.566 -0.4325  0.1984 -0.1018
17348WAT      O71196   4.121   0.057   2.422  0.0300  0.1389  0.2187
17348WAT     H171197   4.042   0.106   2.444 -0.2635 -0.2857  0.1266
17348WAT     H271198   4.098   0.008   2.343  0.0838 -0.6805  0.6956
17348WAT    EPW71199   4.107   0.057   2.414 -0.0017 -0.0252  0.2693
17349WAT      O71200   9.189   8.466   4.321  0.0347 -0.7317  0.0511
17349WAT     H171201   9.144   8.546   4.347  1.3742 -0.3576  1.3243
17349WAT     H271202   9.244   8.492   4.247  0.4344 -0.4747  0.4343
17349WAT    EPW71203   9.190   8.480   4.315  0.2637 -0.6485  0.2694
17350WAT      O71204   5.571   8.411   3.709  0.1599  0.5146  0.4141
17350WAT     H171205   5.576   8.322   3.675  4.7026  0.5184  0.5365
17350WAT     H271206   5.589   8.467   3.634  1.6443  1.0022  1.0910
17350WAT    EPW71207   5.574   8.407   3.695  0.9546  0.5789  0.5194
17351WAT      O71208   0.297   9.463   4.388  0.3488 -0.4580  0.2192
17351WAT     H171209   0.236   9.533   4.411 -0.6755 -0.5935 -1.8622
17351WAT     H271210   0.354   9.501   4.322  2.8189 -0.2475  2.3132
17351WAT    EPW71211   0.296   9.477   4.382  0.5395 -0.4478  0.2208
17352WAT      O71212   8.307   6.069   4.309  0.2931  0.0087 -0.2703
17352WAT     H171213   8.333   5.989   4.355  2.8978  0.9197 -0.0251
17352WAT     H271214   8.224   6.045   4.266  0.6292 -2.5979  0.3414
17352WAT    EPW71215   8.299   6.055   4.309  0.6809 -0.2151 -0.1576
17353WAT      O71216   8.383   7.626   4.853  0.2750  0.1147  0.3108
17353WAT     H171217   8.380   7.671   4.938 -1.5513  1.2503 -0.3091
17353WAT     H271218   8.399   7.695   4.789 -1.6868 -0.1862 -0.5740
17353WAT    EPW71219   8.385   7.641   4.856 -0.2241  0.2248  0.1123
17354WAT      O71220  10.414   7.929   3.737  0.4069  0.0620  0.3559
17354WAT     H171221  10.421   7.884   3.821 -0.4139 -0.0960  0.3472
17354WAT     H271222  10.399   8.021   3.761  0.4391  0.0609  0.3809
17354WAT    EPW71223  10.413   7.935   3.751  0.3028  0.0412  0.3580
17355WAT      O71224   9.479   8.463   5.414 -0.6368 -0.4116  0.2810
17355WAT     H171225   9.516   8.384   5.374 -2.0748 -0.5021 -0.9807
17355WAT     H271226   9.519   8.536   5.366  0.0293 -0.3922  0.8534
17355WAT    EPW71227   9.489   8.462   5.402 -0.7381 -0.4210  0.1903
17356WAT      O71228   0.026   8.961   8.339  0.4193  0.4137  0.4671
17356WAT     H171229   0.098   8.941   8.400  1.7105  0.8858 -0.8416
17356WAT     H271230   0.044   8.908   8.262 -2.9456 -2.6693  1.5263
17356WAT    EPW71231   0.038   8.952   8.337  0.1458  0.0691  0.4344
17357WAT      O71232  10.066   7.793   5.122 -0.1656  0.5298  0.8854
17357WAT     H171233  10.148   7.821   5.081  0.4675 -0.2734  1.5721
17357WAT     H271234  10.062   7.841   5.204  0.3959 -0.5383  1.5677
17357WAT    EPW71235  10.076   7.803   5.128 -0.0086  0.2828  1.0660
17358WAT      O71236   9.385   0.602   4.527  0.4952  0.0923  0.3385
17358WAT     H171237   9.360   0.596   4.619  0.2571 -0.7728  0.2245
17358WAT     H271238   9.480   0.613   4.528  0.8135 -2.2141  0.6561
17358WAT    EPW71239   9.394   0.603   4.539  0.5059 -0.3260  0.3653
17359WAT      O71240   9.416   7.858   8.164  0.4996 -0.5777 -0.7706
17359WAT     H171241   9.323   7.858   8.187  0.7524  2.1018  0.6756
17359WAT     H271242   9.417   7.846   8.069 -1.3361 -0.3681 -0.8581
17359WAT    EPW71243   9.404   7.857   8.155  0.2909 -0.1967 -0.5913
17360WAT      O71244  10.731   6.283   3.198  0.0007  0.2579 -1.0554
17360WAT     H171245  10.724   6.375   3.173  0.2077  0.4196 -0.5281
17360WAT     H271246  10.671   6.274   3.273  0.4596  0.1131 -0.7032
17360WAT    EPW71247  10.722   6.294   3.205  0.0882  0.2601 -0.9395
17361WAT      O71248  10.521   5.871   3.704 -0.4258  0.2631  0.2763
17361WAT     H171249  10.606   5.845   3.668 -0.3470 -0.4941  0.9691
17361WAT     H271250  10.457   5.843   3.638 -0.5812 -4.1124  1.9639
17361WAT    EPW71251  10.524   5.864   3.691 -0.4358 -0.4139  0.5901
17362WAT      O71252   6.273   8.113   6.918 -0.0578  0.4747  0.0816
17362WAT     H171253   6.205   8.173   6.948 -1.1782 -0.4925 -0.4566
17362WAT     H271254   6.247   8.028   6.954 -0.4323 -0.3519 -2.0311
17362WAT    EPW71255   6.261   8.110   6.927 -0.2549  0.2379 -0.2680
17363WAT      O71256   3.266   7.631   2.786 -0.9150  0.4307 -0.3791
17363WAT     H171257   3.239   7.539   2.776 -0.9017  0.5016 -1.0471
17363WAT     H271258   3.223   7.677   2.714 -0.6605  0.8973 -0.2346
17363WAT    EPW71259   3.257   7.625   2.776 -0.8796  0.5014 -0.4482
17364WAT      O71260   9.719   7.159   4.056 -0.9194 -0.2070 -0.6736
17364WAT     H171261   9.785   7.118   4.000 -1.0152 -1.3406  0.0004
17364WAT     H271262   9.636   7.130   4.018 -0.9855 -1.5493  0.4020
17364WAT    EPW71263   9.717   7.150   4.044 -0.9408 -0.5336 -0.4430
17365WAT      O71264   5.799   8.487   3.968  0.8516  0.4813  0.7750
17365WAT     H171265   5.799   8.392   3.983 -2.2898  0.4462  1.2519
17365WAT     H271266   5.778   8.525   4.053 -0.6448  1.3880  0.0424
17365WAT    EPW71267   5.796   8.479   3.981  0.2396  0.5960  0.7411
17366WAT      O71268   9.148   7.215   4.792 -0.0631 -0.1927  0.0674
17366WAT     H171269   9.067   7.250   4.753  0.0047  0.8879  0.8344
17366WAT     H271270   9.184   7.289   4.841 -0.4588 -1.6106  2.6827
17366WAT    EPW71271   9.142   7.230   4.793 -0.1063 -0.2370  0.5136
17367WAT      O71272   7.778   4.575   5.743 -0.0790  0.2484 -0.2849
17367WAT     H171273   7.702   4.608   5.696  0.3204 -0.6644 -1.6189
17367WAT     H271274   7.745   4.501   5.795 -0.3703  0.7919  0.3281
17367WAT    EPW71275   7.764   4.570   5.744 -0.0648  0.1996 -0.3800
17368WAT      O71276   9.822   1.016   2.477 -0.4193 -0.4374  0.1914
17368WAT     H171277   9.814   1.103   2.439 -0.9367 -0.0740  1.0832
17368WAT     H271278   9.898   0.977   2.435  1.3061  1.3486  1.4912
17368WAT    EPW71279   9.831   1.022   2.467 -0.2604 -0.1538  0.4803
17369WAT      O71280   9.392   5.601   4.700 -0.1042  0.1157  0.2798
17369WAT     H171281   9.436   5.666   4.755 -0.0224 -0.7328  1.2651
17369WAT     H271282   9.312   5.644   4.670  0.4922  1.0389 -0.0001
17369WAT    EPW71283   9.387   5.615   4.704 -0.0148  0.1252  0.3726
17370WAT      O71284   9.141   7.440   8.807  0.0238  0.6416 -0.4567
17370WAT     H171285   9.139   7.479   8.720  1.1015  1.5412 -0.1008
17370WAT     H271286   9.213   7.377   8.804  0.2384  0.8656 -0.1505
17370WAT    EPW71287   9.150   7.437   8.795  0.1941  0.7901 -0.3700
17371WAT      O71288   6.258   8.833   0.778 -0.1074  0.6744 -0.0562
17371WAT     H171289   6.162   8.829   0.775 -0.0297 -0.6484 -1.9454
17371WAT     H271290   6.280   8.800   0.865 -1.2779 -3.0585 -0.9887
17371WAT    EPW71291   6.248   8.828   0.789 -0.2513  0.0076 -0.4284
17372WAT      O71292   6.632   2.980   7.395  0.2405  0.4718  0.8425
17372WAT     H171293   6.694   3.022   7.454 -0.1303 -0.4627  1.9390
17372WAT     H271294   6.656   2.887   7.396  0.8923  0.5511 -1.3427
17372WAT    EPW71295   6.643   2.973   7.403  0.2778  0.3591  0.6986
17373WAT      O71296   8.838   4.550   5.685 -0.4614 -0.3422 -0.9548
17373WAT     H171297   8.805   4.478   5.632  1.1969 -1.2087 -0.8890
17373WAT     H271298   8.902   4.594   5.628  1.8503 -1.6889  0.4174
17373WAT    EPW71299   8.842   4.547   5.671  0.0625 -0.6340 -0.7648
17374WAT      O71300   7.162   6.993   5.196 -0.1575  0.5105 -0.4995
17374WAT     H171301   7.171   6.978   5.290 -0.3201  1.1219 -0.3863
17374WAT     H271302   7.070   7.017   5.184 -0.3715 -0.4637 -0.9453
17374WAT    EPW71303   7.151   6.994   5.207 -0.2072  0.4630 -0.5438
17375WAT      O71304  10.310   8.550   1.311 -0.0376 -0.1210 -0.0383
17375WAT     H171305  10.367   8.506   1.247 -0.7516 -0.2625 -0.5877
17375WAT     H271306  10.226   8.504   1.304  0.3641 -1.4086  2.3391
17375WAT    EPW71307  10.306   8.538   1.302 -0.0787 -0.3090  0.2028
17376WAT      O71308   9.068   8.091   3.949  0.1335 -0.2104  0.5904
17376WAT     H171309   9.010   8.165   3.968  0.2654 -0.3885  1.7646
17376WAT     H271310   9.011   8.026   3.908  0.2287  0.9162 -1.4843
17376WAT    EPW71311   9.053   8.093   3.946  0.1636 -0.0854  0.4717
17377WAT      O71312   8.988   6.682   5.889  0.1222  1.0451 -0.5035
17377WAT     H171313   9.049   6.629   5.837 -1.5684 -0.4689 -1.0266
17377WAT     H271314   9.044   6.729   5.951  1.7261 -1.1915 -0.1602
17377WAT    EPW71315   9.004   6.681   5.890  0.1106  0.5503 -0.5271
17378WAT      O71316   5.131   7.673   4.779  0.4421 -0.3721  1.6595
17378WAT     H171317   5.171   7.704   4.697 -0.4798  0.4044  1.4914
17378WAT     H271318   5.044   7.712   4.780 -1.3812 -3.9984  0.7885
17378WAT    EPW71319   5.125   7.682   4.768  0.0799 -0.7479  1.5225
17379WAT      O71320   6.483   9.758   4.121  0.6196  0.5738 -0.3268
17379WAT     H171321   6.510   9.847   4.141 -0.9234  0.6151  1.8910
17379WAT     H271322   6.387   9.760   4.125  0.5685 -1.2872  0.4085
17379WAT    EPW71323   6.474   9.770   4.124  0.4091  0.3343  0.0625
17380WAT      O71324  10.500   9.900   4.476 -0.0037  0.2654 -0.5227
17380WAT     H171325  10.469   9.970   4.534  0.1357  1.2127 -1.5710
17380WAT     H271326  10.594   9.912   4.472  0.1328 -0.5596  0.0106
17380WAT    EPW71327  10.508   9.910   4.483  0.0319  0.2818 -0.5908
17381WAT      O71328   8.635   8.209   0.443  0.5141 -0.5081  0.1952
17381WAT     H171329   8.624   8.228   0.350 -1.9547  0.9690  0.7117
17381WAT     H271330   8.725   8.238   0.463  0.6191  0.3984 -1.4439
17381WAT    EPW71331   8.646   8.216   0.433  0.2022 -0.1936  0.0471
17382WAT      O71332   9.478   7.536   8.161  0.1783  0.9891  0.6583
17382WAT     H171333   9.552   7.591   8.187  2.0197 -2.2839  2.9394
17382WAT     H271334   9.413   7.550   8.230 -0.1895  1.7076  0.1810
17382WAT    EPW71335   9.479   7.545   8.173  0.3724  0.6523  0.8960
17383WAT      O71336   8.622   7.382   5.279 -0.5186  0.0033 -0.2445
17383WAT     H171337   8.699   7.332   5.249 -1.0152 -0.3729 -0.9150
17383WAT     H271338   8.640   7.399   5.372 -1.4454 -3.6215  0.7766
17383WAT    EPW71339   8.635   7.377   5.287 -0.7067 -0.5245 -0.1984
17384WAT      O71340   6.739   7.279   6.762 -0.2913 -0.0715  0.0584
17384WAT     H171341   6.702   7.357   6.804 -0.3494 -1.8666  3.8166
17384WAT     H271342   6.829   7.304   6.741 -1.2093  1.9244 -1.9324
17384WAT    EPW71343   6.746   7.293   6.765 -0.4201 -0.0451  0.2913
17385WAT      O71344   8.510   5.375   5.000  0.2672 -0.0579  0.4516
17385WAT     H171345   8.419   5.349   4.987  0.4803 -1.5817  1.6581
17385WAT     H271346   8.535   5.417   4.918 -1.3172 -0.2241 -0.1508
17385WAT    EPW71347   8.501   5.377   4.988  0.0868 -0.2811  0.5310
17386WAT      O71348   7.108   8.847   4.601 -0.1503  0.1281 -0.6992
17386WAT     H171349   7.156   8.789   4.542 -0.2903 -0.5959 -0.1280
17386WAT     H271350   7.136   8.819   4.689 -0.9227  0.3055 -0.3866
17386WAT    EPW71351   7.118   8.836   4.605 -0.2706  0.0558 -0.5827
17387WAT      O71352   6.690   6.650   7.233 -0.2082  0.1266  0.8858
17387WAT     H171353   6.724   6.726   7.186 -0.9381 -0.2776 -0.3343
17387WAT     H271354   6.759   6.629   7.296  0.3838  1.2590  0.6527
17387WAT    EPW71355   6.703   6.657   7.235 -0.2267  0.2229  0.6943
17388WAT      O71356   0.177   7.209   6.034 -0.4771  0.7282 -0.0187
17388WAT     H171357   0.128   7.184   6.112 -0.7256  0.9661 -0.0997
17388WAT     H271358   0.258   7.159   6.040 -1.1558 -0.4425 -0.4057
17388WAT    EPW71359   0.182   7.199   6.045 -0.5994  0.6053 -0.0803
17389WAT      O71360   0.303   4.424   3.182  0.1823  0.1056 -0.3326
17389WAT     H171361   0.246   4.501   3.176  1.8886  1.3742 -1.2457
17389WAT     H271362   0.389   4.460   3.205  1.3259 -1.3559 -2.0046
17389WAT    EPW71363   0.307   4.439   3.184  0.5582  0.0801 -0.6735
17390WAT      O71364   8.630   7.585   2.234  0.5704 -0.0384 -0.7026
17390WAT     H171365   8.707   7.531   2.247  0.0505 -0.4510  0.8420
17390WAT     H271366   8.562   7.524   2.204 -0.6506 -0.8061  3.1441
17390WAT    EPW71367   8.631   7.570   2.232  0.3409 -0.1943  0.0085
17391WAT      O71368   9.460   5.729   5.698  0.0458  0.1163 -0.5085
17391WAT     H171369   9.530   5.768   5.751 -0.4202  1.0781 -0.5648
17391WAT     H271370   9.380   5.766   5.735 -0.6416 -2.5131  0.8737
17391WAT    EPW71371   9.459   5.739   5.710 -0.1063 -0.1037 -0.3333
17392WAT      O71372  10.610  10.006   3.260 -0.1468  0.3026 -0.4775
17392WAT     H171373  10.672  10.061   3.211 -0.2629 -0.1643 -1.1650
17392WAT     H271374  10.659   9.927   3.280  0.1858  0.8526  0.9735
17392WAT    EPW71375  10.624  10.003   3.256 -0.1183  0.3128 -0.3768
17393WAT      O71376   7.195   5.990   3.910  0.0169 -0.1393  0.1528
17393WAT     H171377   7.201   6.086   3.917  2.1953 -0.2315  0.2755
17393WAT     H271378   7.107   5.970   3.940 -0.8198  1.8983 -0.7310
17393WAT    EPW71379   7.184   6.000   3.915  0.1938  0.1173  0.0525
17394WAT      O71380  10.011   6.504   6.779  0.3364 -0.0106 -1.0710
17394WAT     H171381   9.973   6.454   6.852  0.8211 -1.3023 -1.6788
17394WAT     H271382   9.950   6.577   6.766 -0.5260 -0.5777 -0.3220
17394WAT    EPW71383   9.998   6.507   6.787  0.2861 -0.2561 -1.0526
17395WAT      O71384   8.514   8.067   7.661 -0.3123 -0.8000  0.1271
17395WAT     H171385   8.542   8.010   7.733 -2.7605 -0.6463  1.2824
17395WAT     H271386   8.486   8.148   7.704 -0.1416 -0.0178 -1.1891
17395WAT    EPW71387   8.514   8.070   7.676 -0.6132 -0.6766  0.1059
17396WAT      O71388   8.988   8.731   3.289 -0.1647  0.1379 -0.2459
17396WAT     H171389   9.014   8.788   3.216 -0.8039 -1.0276 -1.4210
17396WAT     H271390   8.911   8.685   3.256  0.5487 -1.6644  0.5316
17396WAT    EPW71391   8.981   8.733   3.275 -0.1550 -0.2532 -0.2984
17397WAT      O71392   9.421   6.404   2.410 -0.0188  0.6857 -0.2133
17397WAT     H171393   9.384   6.479   2.456 -0.3263 -1.1853  2.8192
17397WAT     H271394   9.515   6.422   2.407 -0.1368  1.3880  0.0510
17397WAT    EPW71395   9.429   6.416   2.416 -0.0749  0.5317  0.2214
17398WAT      O71396   8.820   9.285   3.071  0.0365 -0.0997 -0.4056
17398WAT     H171397   8.892   9.245   3.120  0.4157 -0.1542 -1.0040
17398WAT     H271398   8.771   9.211   3.036  0.0542 -0.0551 -0.5239
17398WAT    EPW71399   8.823   9.270   3.073  0.0887 -0.1006 -0.5002
17399WAT      O71400   9.518   7.409   2.792 -0.9990 -0.0374  0.1607
17399WAT     H171401   9.531   7.325   2.835  0.6668  0.2760  0.3090
17399WAT     H271402   9.446   7.450   2.841 -1.1703 -0.9467  0.6987
17399WAT    EPW71403   9.510   7.403   2.804 -0.8020 -0.1161  0.2512
17400WAT      O71404  10.046   8.099   5.050 -0.7188 -0.1055 -0.1432
17400WAT     H171405  10.094   8.026   5.089 -2.9048 -0.5664  1.9369
17400WAT     H271406   9.982   8.124   5.117 -0.4195  3.4180 -0.9922
17400WAT    EPW71407  10.044   8.092   5.064 -0.9675  0.2985  0.0191
17401WAT      O71408   7.368   6.817   3.504 -0.0821  0.2342  1.0024
17401WAT     H171409   7.425   6.891   3.525 -1.5131  1.5282  0.4996
17401WAT     H271410   7.317   6.802   3.583  0.1798 -0.2214  1.0927
17401WAT    EPW71411   7.369   6.825   3.517 -0.2363  0.3448  0.9480
17402WAT      O71412   9.615   9.322   2.876  0.0892  0.2028  0.7102
17402WAT     H171413   9.529   9.296   2.841 -1.3534  3.3002  1.6420
17402WAT     H271414   9.597   9.350   2.966  2.5744 -1.2945  1.7998
17402WAT    EPW71415   9.601   9.322   2.884  0.2270  0.4139  0.9768
17403WAT      O71416   9.954   8.255   5.293 -0.3566 -0.0306 -0.1429
17403WAT     H171417   9.863   8.231   5.313 -0.3649 -0.5144 -0.7186
17403WAT     H271418   9.950   8.348   5.273 -0.2696  0.6140  2.5114
17403WAT    EPW71419   9.942   8.264   5.293 -0.3467 -0.0095  0.1314
17404WAT      O71420   3.734   8.830   4.792  0.2055 -0.1053  0.0076
17404WAT     H171421   3.696   8.896   4.734 -1.1811 -1.4558 -0.6861
17404WAT     H271422   3.707   8.858   4.880 -1.2041 -0.2518 -0.3539
17404WAT    EPW71423   3.726   8.843   4.796 -0.1633 -0.3028 -0.1316
17405WAT      O71424   6.330   6.325   4.601 -0.5619  0.0337  0.2348
17405WAT     H171425   6.329   6.389   4.529 -1.7089 -1.3927 -1.1073
17405WAT     H271426   6.417   6.285   4.597 -0.2233  0.7492  0.3830
17405WAT    EPW71427   6.341   6.328   4.591 -0.6685 -0.0598  0.0775
17406WAT      O71428   8.127   7.869   3.919 -0.4066  0.2472  0.0023
17406WAT     H171429   8.116   7.884   3.825 -1.3541  1.2725  0.2526
17406WAT     H271430   8.213   7.905   3.939  1.1147 -2.5694 -0.9446
17406WAT    EPW71431   8.137   7.876   3.910 -0.3304  0.0110 -0.0896
17407WAT      O71432   4.902   7.306   4.600  0.5611  0.3559  0.3629
17407WAT     H171433   4.879   7.213   4.589 -0.6006  0.6775 -0.0679
17407WAT     H271434   4.955   7.326   4.523  0.7522  0.0703  0.4168
17407WAT    EPW71435   4.906   7.296   4.588  0.4332  0.3605  0.3133
17408WAT      O71436   9.961   6.997   4.310  0.4244 -0.2129 -0.2892
17408WAT     H171437   9.951   6.994   4.215 -3.7844  0.3670 -0.0286
17408WAT     H271438   9.996   7.084   4.327  0.5676 -0.0616 -1.2764
17408WAT    EPW71439   9.964   7.008   4.299 -0.1121 -0.1163 -0.3853
17409WAT      O71440   9.064   8.278   4.564 -0.9647  0.4816  0.1354
17409WAT     H171441   9.006   8.210   4.599  0.2702 -0.1397  1.0300
17409WAT     H271442   9.094   8.242   4.480 -0.2228 -0.1608  0.6586
17409WAT    EPW71443   9.060   8.264   4.558 -0.7033  0.3147  0.3223
17410WAT      O71444   7.923   6.665   5.035  0.0368  0.5092  0.7515
17410WAT     H171445   7.943   6.658   4.942 -2.6662  0.8046  0.0559
17410WAT     H271446   7.835   6.703   5.038 -0.6965 -1.0798  3.3506
17410WAT    EPW71447   7.914   6.669   5.023 -0.4168  0.3386  1.0023
17411WAT      O71448   7.838   6.115   5.825 -0.9173 -0.2865 -0.1444
17411WAT     H171449   7.804   6.204   5.835  0.1491 -0.0975  3.1561
17411WAT     H271450   7.762   6.059   5.837 -1.1334  0.1876  0.7847
17411WAT    EPW71451   7.824   6.119   5.828 -0.8054 -0.1988  0.4134
17412WAT      O71452   9.370   9.033   7.888 -1.1167 -0.5437  0.0038
17412WAT     H171453   9.458   9.004   7.864 -1.1262  0.0569 -0.7721
17412WAT     H271454   9.359   9.003   7.979 -0.6438 -1.8128 -0.3446
17412WAT    EPW71455   9.380   9.025   7.897 -1.0552 -0.6323 -0.1447
17413WAT      O71456  10.733   0.042   3.449 -0.2385  0.2072  0.4312
17413WAT     H171457  10.665   0.108   3.435 -1.4418 -0.7497  1.5383
17413WAT     H271458  10.815   0.088   3.432 -1.1541  0.8917 -2.9862
17413WAT    EPW71459  10.735   0.057   3.445 -0.5178  0.1717  0.1265
17414WAT      O71460   5.545   8.577   5.017  0.7057 -0.2290 -0.0169
17414WAT     H171461   5.455   8.544   5.018  1.5986 -3.0977  2.5712
17414WAT     H271462   5.555   8.623   5.101  1.7206 -0.2197 -0.1300
17414WAT    EPW71463   5.535   8.579   5.028  0.9573 -0.6061  0.3097
17415WAT      O71464   5.527   8.415   4.382  0.7697  0.8500  0.0744
17415WAT     H171465   5.490   8.419   4.293 -0.6703  2.5390  0.6778
17415WAT     H271466   5.578   8.335   4.383  0.1935  0.3837 -2.0500
17415WAT    EPW71467   5.529   8.405   4.370  0.5038  1.0109 -0.1261
17416WAT      O71468   9.861   7.806   2.415  0.6143  0.6107 -0.0642
17416WAT     H171469   9.836   7.793   2.506  2.0612  0.8816  0.3926
17416WAT     H271470   9.908   7.726   2.391 -0.5934  0.1236 -0.8978
17416WAT    EPW71471   9.864   7.794   2.424  0.6456  0.5822 -0.1141
17417WAT      O71472   8.473   6.073   3.715 -0.1442 -0.0815 -0.3814
17417WAT     H171473   8.397   6.014   3.722 -0.3629  0.3678  1.3336
17417WAT     H271474   8.440   6.149   3.667 -0.9176  0.2910  0.7077
17417WAT    EPW71475   8.458   6.075   3.709 -0.2756  0.0267 -0.0116
17418WAT      O71476  10.868   7.250   1.138 -0.2743  0.0438  0.0254
17418WAT     H171477  10.849   7.206   1.221 -2.6679 -2.5514 -1.7205
17418WAT     H271478  10.939   7.198   1.099 -0.1252  0.3857 -0.1666
17418WAT    EPW71479  10.875   7.237   1.144 -0.5703 -0.2534 -0.2303
17419WAT      O71480   8.862   6.442   3.987 -0.4903  0.2978  0.0465
17419WAT     H171481   8.948   6.401   3.976 -0.7423 -0.4151  0.6849
17419WAT     H271482   8.807   6.373   4.025 -0.5118  1.6557  2.7175
17419WAT    EPW71483   8.866   6.427   3.990 -0.5264  0.3827  0.4830
17420WAT      O71484   3.132   8.773   3.616  0.9181 -0.8189  0.6869
17420WAT     H171485   3.082   8.733   3.545 -1.0026  0.6325  1.1651
17420WAT     H271486   3.222   8.775   3.583  0.3959 -1.9016 -0.9137
17420WAT    EPW71487   3.138   8.768   3.602  0.5959 -0.7701  0.5388
17421WAT      O71488   6.001   9.018   5.716  0.1401 -0.3657 -0.7047
17421WAT     H171489   5.970   9.046   5.630  0.7521 -0.1275 -0.8536
17421WAT     H271490   6.086   8.978   5.699  2.6892  3.9715  0.2314
17421WAT    EPW71491   6.008   9.017   5.702  0.5569  0.2370 -0.6011
17422WAT      O71492   6.764   6.589   5.894  0.3372  0.5850 -0.9844
17422WAT     H171493   6.703   6.596   5.821  0.5608  0.4557 -1.1842
17422WAT     H271494   6.765   6.677   5.933 -2.3288 -0.1288  0.9422
17422WAT    EPW71495   6.756   6.602   5.890  0.0150  0.4737 -0.7567
17423WAT      O71496  10.769   5.519   6.323 -0.3384  1.2444  0.7819
17423WAT     H171497  10.783   5.606   6.287 -0.0822  0.3701 -1.3669
17423WAT     H271498  10.835   5.464   6.282  2.1895  0.6379  5.0508
17423WAT    EPW71499  10.779   5.523   6.313  0.0291  1.0493  1.0617
17424WAT      O71500   8.205   7.313   8.136 -0.4902 -0.3248 -0.3715
17424WAT     H171501   8.282   7.264   8.106 -1.1567 -1.0653 -0.8954
17424WAT     H271502   8.133   7.280   8.083 -0.8966  1.5444 -1.0426
17424WAT    EPW71503   8.206   7.302   8.125 -0.6318 -0.1760 -0.5293
17425WAT      O71504   0.018   5.226   2.473  0.4847  0.0096  0.0563
17425WAT     H171505   0.007   5.183   2.388  0.4464  0.6749 -0.2777
17425WAT     H271506   0.036   5.154   2.534 -0.0692 -0.5250 -0.4073
17425WAT    EPW71507   0.019   5.211   2.470  0.4066  0.0267 -0.0490
17426WAT      O71508   7.892   6.379   8.371 -0.1436 -0.0487 -0.8779
17426WAT     H171509   7.976   6.343   8.343  1.2632  0.7853  1.8664
17426WAT     H271510   7.891   6.468   8.336 -0.2777 -0.3241 -1.5916
17426WAT    EPW71511   7.903   6.386   8.363  0.0246  0.0250 -0.6108
17427WAT      O71512   7.656   7.906   5.063  0.0862  0.5816  0.0851
17427WAT     H171513   7.643   7.861   5.147  1.7385 -0.1670 -0.0163
17427WAT     H271514   7.750   7.901   5.048  0.2218  3.3761 -0.3715
17427WAT    EPW71515   7.666   7.899   5.072  0.3219  0.8516  0.0117
17428WAT      O71516   9.561   7.757   3.976 -0.0582  0.7040  0.6746
17428WAT     H171517   9.610   7.836   3.999 -0.5384  0.6809  1.8446
17428WAT     H271518   9.588   7.692   4.041  0.8467 -0.3246 -0.6926
17428WAT    EPW71519   9.571   7.759   3.988 -0.0024  0.5653  0.6486
17429WAT      O71520   9.538   6.451   3.404 -0.7526  0.2764  0.5309
17429WAT     H171521   9.559   6.397   3.328  0.5267 -0.8583  1.6457
17429WAT     H271522   9.522   6.539   3.368 -2.9170 -0.7764 -1.3305
17429WAT    EPW71523   9.539   6.456   3.389 -0.8698 -0.0122  0.4324
17430WAT      O71524  10.600   7.088   2.238 -0.7016  0.0108  0.1501
17430WAT     H171525  10.601   7.056   2.329  2.0005  1.2558  0.6590
17430WAT     H271526  10.580   7.181   2.246  2.8315  0.9328 -0.0643
17430WAT    EPW71527  10.598   7.096   2.251  0.1211  0.2964  0.1889
17431WAT      O71528  10.105   7.169   1.649 -0.0014 -0.5744  0.5081
17431WAT     H171529  10.127   7.239   1.710  1.9821 -1.0652  0.4281
17431WAT     H271530  10.086   7.214   1.566 -3.1799  0.1322  1.4666
17431WAT    EPW71531  10.105   7.184   1.646 -0.1583 -0.5457  0.6240
17432WAT      O71532   7.111   9.302   2.390 -0.0883 -0.5078  0.3021
17432WAT     H171533   7.206   9.296   2.389  0.1559  1.7988  1.1662
17432WAT     H271534   7.089   9.314   2.483 -1.1115 -0.0818  0.0274
17432WAT    EPW71535   7.120   9.303   2.402 -0.1912 -0.1473  0.3798
17433WAT      O71536   3.495   7.511   0.242 -0.5547 -0.0036 -0.2059
17433WAT     H171537   3.472   7.574   0.174  3.7036  1.0050 -0.9807
17433WAT     H271538   3.489   7.426   0.199 -2.7115  0.1432 -0.2678
17433WAT    EPW71539   3.491   7.508   0.227 -0.2776  0.1490 -0.3163
17434WAT      O71540  10.733   7.657   6.566  0.4875 -0.5741 -0.1063
17434WAT     H171541  10.801   7.644   6.632  0.3891 -2.5269 -0.3485
17434WAT     H271542  10.651   7.645   6.613  0.1380  2.6949  0.4001
17434WAT    EPW71543  10.731   7.654   6.581  0.4282 -0.4008 -0.0715
17435WAT      O71544   7.837   8.003   2.741  0.1253  0.5121 -0.6555
17435WAT     H171545   7.911   7.959   2.784 -1.4754 -0.5480  1.1985
17435WAT     H271546   7.857   7.999   2.648  2.9174  1.2807 -0.1781
17435WAT    EPW71547   7.850   7.997   2.734  0.2825  0.4737 -0.3479
17436WAT      O71548   0.172   4.337   4.794 -0.7606  0.1328 -0.2499
17436WAT     H171549   0.108   4.376   4.735 -2.9410 -0.2032  1.6853
17436WAT     H271550   0.147   4.370   4.881  1.9132  0.1662  0.5965
17436WAT    EPW71551   0.160   4.346   4.798 -0.6955  0.0930  0.1173
17437WAT      O71552  10.936   8.243   6.456 -0.3552 -0.3051  0.4563
17437WAT     H171553  10.992   8.255   6.379 -0.4312  1.0275  0.5923
17437WAT     H271554  10.975   8.168   6.502 -1.1821 -2.0956 -1.6222
17437WAT    EPW71555  10.949   8.235   6.452 -0.4740 -0.3657  0.2003
17438WAT      O71556   9.271   4.786   2.893  0.2247  0.1752  0.7114
17438WAT     H171557   9.247   4.831   2.812  0.9964  1.2280  1.0436
17438WAT     H271558   9.310   4.704   2.863 -1.2657 -0.3490  0.0994
17438WAT    EPW71559   9.273   4.781   2.878  0.1307  0.2451  0.6745
17439WAT      O71560   6.137   8.829   6.170 -0.3429  0.5243 -0.4472
17439WAT     H171561   6.206   8.872   6.119 -0.3208  4.0837  2.1823
17439WAT     H271562   6.101   8.899   6.224 -2.6618 -2.2413  1.8967
17439WAT    EPW71563   6.142   8.844   6.170 -0.6461  0.6289  0.2086
17440WAT      O71564   8.236   9.140   0.449  0.8265  0.2409  0.4012
17440WAT     H171565   8.269   9.121   0.361 -2.0056 -0.9781 -0.5401
17440WAT     H271566   8.174   9.211   0.437  0.8139  0.4450  1.5273
17440WAT    EPW71567   8.232   9.147   0.436  0.4520  0.1073  0.4256
17441WAT      O71568   8.774   8.883   1.956  0.4997  0.3349  0.6986
17441WAT     H171569   8.716   8.893   1.880  2.5819 -0.0880 -1.0396
17441WAT     H271570   8.715   8.872   2.030 -1.6335  1.3069 -0.7700
17441WAT    EPW71571   8.759   8.883   1.955  0.4930  0.4072  0.2757
17442WAT      O71572  10.011   8.309   2.546  0.2263  0.1713  0.6134
17442WAT     H171573   9.971   8.323   2.460 -2.9201  0.2022  1.9234
17442WAT     H271574   9.963   8.234   2.582  1.6366 -0.0056  2.2631
17442WAT    EPW71575   9.999   8.301   2.540 -0.0029  0.1526  1.0036
17443WAT      O71576   9.386   7.979   3.649  0.2186  0.0200 -0.2119
17443WAT     H171577   9.426   7.896   3.623 -0.1810 -0.3329  0.2699
17443WAT     H271578   9.441   8.010   3.721  0.1428 -0.0188 -0.1376
17443WAT    EPW71579   9.398   7.972   3.655  0.1559 -0.0315 -0.1385
17444WAT      O71580   9.453   8.675   3.286 -0.3903 -0.5099 -0.0452
17444WAT     H171581   9.541   8.639   3.295  0.5352  1.3052 -1.2383
17444WAT     H271582   9.426   8.695   3.376  1.5602  1.4040  0.1991
17444WAT    EPW71583   9.461   8.673   3.299 -0.0110 -0.0181 -0.1702
17445WAT      O71584   7.865   7.254   2.326  0.6584 -1.0794 -0.4615
17445WAT     H171585   7.941   7.278   2.379 -0.1405  0.4605  0.0211
17445WAT     H271586   7.820   7.188   2.379  0.2254 -0.0383  0.5100
17445WAT    EPW71587   7.869   7.248   2.340  0.4957 -0.7391 -0.2698
17446WAT      O71588  10.686   7.743   1.477  0.1947  0.2684  0.2637
17446WAT     H171589  10.653   7.661   1.439 -1.4356 -0.0944  2.2748
17446WAT     H271590  10.678   7.730   1.571  0.3112  2.5978  0.6530
17446WAT    EPW71591  10.681   7.730   1.484 -0.0052  0.5279  0.5803
17447WAT      O71592   4.987   2.527   2.781  0.1516 -0.4104  0.3094
17447WAT     H171593   5.080   2.505   2.774  0.6093  0.5456  2.4268
17447WAT     H271594   4.950   2.457   2.835 -0.6480 -1.4043 -1.4699
17447WAT    EPW71595   4.995   2.515   2.787  0.1066 -0.4156  0.3541
17448WAT      O71596   4.245   0.582   5.804 -0.4897  0.8718 -0.3836
17448WAT     H171597   4.295   0.633   5.869 -1.0933  2.9532 -1.4576
17448WAT     H271598   4.234   0.642   5.730 -2.9363 -0.1657 -0.9499
17448WAT    EPW71599   4.250   0.597   5.803 -0.8919  1.0095 -0.5999
17449WAT      O71600   9.176   9.915   4.105  0.0694 -0.7347 -0.3338
17449WAT     H171601   9.096   9.910   4.053  0.1773 -0.7027 -0.5058
17449WAT     H271602   9.222   9.992   4.070 -0.7569  0.4576  1.0949
17449WAT    EPW71603   9.171   9.925   4.094 -0.0257 -0.5732 -0.1678
17450WAT      O71604   9.131   7.221   4.374  0.0373 -0.2102 -0.2235
17450WAT     H171605   9.094   7.303   4.407  2.5839  0.1709  1.9809
17450WAT     H271606   9.054   7.166   4.356 -1.6691  1.3451  1.8160
17450WAT    EPW71607   9.116   7.224   4.376  0.1478  0.0448  0.3359
17451WAT      O71608  10.322   7.665   2.869  0.5653  0.4888 -0.5276
17451WAT     H171609  10.298   7.621   2.951 -0.3316  1.4671 -0.2438
17451WAT     H271610  10.392   7.725   2.894 -0.1178  1.2209 -0.3459
17451WAT    EPW71611  10.328   7.667   2.883  0.3572  0.7145 -0.4662
17452WAT      O71612  10.531   9.635   5.704 -0.3868  0.4034 -0.0767
17452WAT     H171613  10.493   9.559   5.658 -0.8330  1.4136 -1.4494
17452WAT     H271614  10.455   9.682   5.738 -0.1222  0.3705  0.5597
17452WAT    EPW71615  10.516   9.631   5.702 -0.4110  0.5322 -0.1740
17453WAT      O71616  10.454   9.691   7.751  0.6782  0.0768  0.2627
17453WAT     H171617  10.516   9.709   7.680  2.0071  2.0490  1.8215
17453WAT     H271618  10.376   9.741   7.728  0.9068  0.2856 -0.0607
17453WAT    EPW71619  10.452   9.700   7.738  0.8841  0.3638  0.4256
17454WAT      O71620   6.183   8.898   3.105 -0.3640 -0.8132 -0.3136
17454WAT     H171621   6.178   8.816   3.056  1.5501 -2.6273  2.2574
17454WAT     H271622   6.216   8.872   3.191 -3.2669  2.1529  1.9624
17454WAT    EPW71623   6.186   8.884   3.110 -0.4945 -0.6609  0.3258
17455WAT      O71624   6.158   8.531   5.053  0.1352  0.7838 -0.0522
17455WAT     H171625   6.213   8.490   4.986  1.4076  2.9650 -0.4354
17455WAT     H271626   6.139   8.460   5.114  0.2459 -0.9124 -1.8659
17455WAT    EPW71627   6.163   8.516   5.052  0.3178  0.8483 -0.3421
17456WAT      O71628   8.546   8.493   4.620  0.0109 -0.3915  0.0798
17456WAT     H171629   8.528   8.516   4.711  1.3344  0.9247  0.0563
17456WAT     H271630   8.642   8.486   4.616  0.1701  1.6842 -1.6331
17456WAT    EPW71631   8.556   8.495   4.631  0.2069  0.0553 -0.1495
17457WAT      O71632  10.827   0.184   8.098  0.1199  0.1358  0.0849
17457WAT     H171633  10.792   0.248   8.160 -0.5196 -0.6713  0.5826
17457WAT     H271634  10.874   0.121   8.152  0.5467  0.0548 -0.3723
17457WAT    EPW71635  10.828   0.184   8.113  0.0920  0.0186  0.0906
17458WAT      O71636   3.455   3.190   2.843 -0.3242 -0.1361  0.1023
17458WAT     H171637   3.405   3.221   2.767  0.0564 -0.1864 -0.1720
17458WAT     H271638   3.533   3.151   2.806  0.8975  1.7069  0.5837
17458WAT    EPW71639   3.459   3.189   2.828 -0.1129  0.1004  0.1296
17459WAT      O71640   0.355   7.286   2.178  0.1118  0.0492 -0.0262
17459WAT     H171641   0.383   7.324   2.095  4.1011  0.0409  1.1512
17459WAT     H271642   0.364   7.192   2.165 -0.0681  0.0035  0.1757
17459WAT    EPW71643   0.360   7.279   2.165  0.6142  0.0422  0.1556
17460WAT      O71644   0.175   6.342   5.156  0.2245 -0.0791 -0.1727
17460WAT     H171645   0.115   6.415   5.138 -1.3275 -1.4024 -0.6749
17460WAT     H271646   0.131   6.291   5.224  0.5428 -1.3184 -0.8547
17460WAT    EPW71647   0.161   6.345   5.163  0.0618 -0.4172 -0.3288
17461WAT      O71648   0.340   9.077   1.781 -0.1939  0.2423 -0.6572
17461WAT     H171649   0.329   8.992   1.738 -0.1617 -1.2003  1.9872
17461WAT     H271650   0.334   9.058   1.874  1.4380  2.9383  0.1138
17461WAT    EPW71651   0.338   9.063   1.787  0.0256  0.4077 -0.2067
17462WAT      O71652   2.401   9.230   4.147 -0.4062 -0.0489  0.0285
17462WAT     H171653   2.471   9.277   4.193  1.9795 -4.3445  1.3193
17462WAT     H271654   2.437   9.211   4.061 -1.9667  1.5833 -1.0671
17462WAT    EPW71655   2.415   9.234   4.142 -0.2974 -0.4001  0.0541
17463WAT      O71656   0.976   7.236   2.199  0.1978 -0.1961 -0.4348
17463WAT     H171657   0.901   7.230   2.259  0.2629 -0.0880 -0.3426
17463WAT     H271658   1.050   7.256   2.256  0.3758 -0.7391 -0.4710
17463WAT    EPW71659   0.976   7.238   2.215  0.2299 -0.2534 -0.4275
17464WAT      O71660   4.915   4.988   0.757  0.6691 -0.3116  0.3650
17464WAT     H171661   4.947   4.971   0.668  2.0438 -0.7062  0.9207
17464WAT     H271662   4.823   4.961   0.754  0.6453 -0.1867 -0.9694
17464WAT    EPW71663   4.907   4.982   0.745  0.8473 -0.3471  0.2623
17465WAT      O71664   7.462   5.729   4.938 -0.0385 -0.6411  0.2530
17465WAT     H171665   7.540   5.678   4.916  1.2627  1.2961  0.1561
17465WAT     H271666   7.402   5.715   4.865  1.4636  0.2506 -1.1963
17465WAT    EPW71667   7.464   5.720   4.926  0.3312 -0.2677  0.0491
17466WAT      O71668  10.388   9.079   2.530  0.7569  0.5254 -0.0205
17466WAT     H171669  10.352   9.055   2.615 -0.4234  2.1464 -0.0209
17466WAT     H271670  10.428   9.165   2.544  1.5285  0.3136 -0.8539
17466WAT    EPW71671  10.389   9.087   2.543  0.7033  0.7110 -0.1305
17467WAT      O71672   9.587   5.597   4.235 -0.0853  0.2223 -0.6765
17467WAT     H171673   9.564   5.672   4.181 -1.3948  1.3706  1.3323
17467WAT     H271674   9.666   5.562   4.196 -1.6551  0.1338 -4.0955
17467WAT    EPW71675   9.594   5.602   4.223 -0.4654  0.3619 -0.8624
17468WAT      O71676   9.724   8.777   2.280 -0.3597 -0.0407 -0.5484
17468WAT     H171677   9.734   8.682   2.284  0.2881 -0.2516 -4.2026
17468WAT     H271678   9.714   8.804   2.372  0.3159 -3.4896  0.6728
17468WAT    EPW71679   9.724   8.768   2.293 -0.1855 -0.5231 -0.8693
17469WAT      O71680   7.119   8.984   5.265 -0.2944  0.0815 -0.0266
17469WAT     H171681   7.065   9.030   5.329 -0.6772  0.7700 -0.8304
17469WAT     H271682   7.058   8.961   5.194 -0.3863 -2.6385  0.8022
17469WAT    EPW71683   7.104   8.987   5.264 -0.3569 -0.1864 -0.0231
17470WAT      O71684   1.721   9.562   3.588 -0.1248  0.0539 -0.5523
17470WAT     H171685   1.645   9.580   3.643  0.8361 -1.1857  1.2636
17470WAT     H271686   1.713   9.470   3.564  0.0151  0.3148 -1.6943
17470WAT    EPW71687   1.710   9.552   3.592  0.0204 -0.0758 -0.4632
17471WAT      O71688   1.804   6.714   5.548  0.6273  0.2598 -0.6893
17471WAT     H171689   1.743   6.702   5.476  0.7013  1.4413 -0.9698
17471WAT     H271690   1.853   6.631   5.552  0.3852  0.0533 -1.7590
17471WAT    EPW71691   1.803   6.701   5.539  0.6051  0.3886 -0.8674
17472WAT      O71692   1.736   0.185   8.522  0.3861 -0.2974 -0.2869
17472WAT     H171693   1.697   0.143   8.445 -0.7573  0.2559 -0.0320
17472WAT     H271694   1.690   0.269   8.530 -0.2815 -0.7934  1.6215
17472WAT    EPW71695   1.725   0.191   8.513  0.1472 -0.2898 -0.0014
17473WAT      O71696   7.722   9.757   5.833  0.5348  0.0943  0.1900
17473WAT     H171697   7.641   9.785   5.877  0.1016  3.2043 -2.2033
17473WAT     H271698   7.736   9.823   5.765  4.2958 -1.2008 -0.5250
17473WAT    EPW71699   7.713   9.770   5.830  0.9739  0.3343 -0.2201
17474WAT      O71700   8.285   6.290   4.094 -0.4922 -0.6323  1.0867
17474WAT     H171701   8.269   6.382   4.114  0.1723 -0.5005  0.9985
17474WAT     H271702   8.226   6.271   4.022  1.3125  0.4632 -0.7646
17474WAT    EPW71703   8.275   6.300   4.087 -0.1664 -0.4704  0.8307
17475WAT      O71704   0.737   9.559   6.535 -0.1461  0.2194 -0.2940
17475WAT     H171705   0.757   9.466   6.526  0.1274  0.4266 -2.2084
17475WAT     H271706   0.706   9.568   6.625  0.5052 -1.5850  0.1527
17475WAT    EPW71707   0.735   9.548   6.545 -0.0241  0.0086 -0.4878
17476WAT      O71708   3.174   1.588   5.177  0.2485  0.1706 -0.8113
17476WAT     H171709   3.235   1.524   5.139 -1.6648 -1.3172 -1.5568
17476WAT     H271710   3.203   1.672   5.141  1.9356 -0.4447 -0.9933
17476WAT    EPW71711   3.186   1.591   5.167  0.2185 -0.1068 -0.9336
17477WAT      O71712   9.613   6.802   0.818 -0.4947 -0.0447  0.1498
17477WAT     H171713   9.590   6.725   0.766 -0.7910 -0.1045  0.3684
17477WAT     H271714   9.544   6.865   0.799  0.0245  0.3612 -0.4316
17477WAT    EPW71715   9.601   6.800   0.809 -0.4659  0.0007  0.1019
17478WAT      O71716   0.604   7.791   2.681  0.1977 -0.1128 -0.6561
17478WAT     H171717   0.690   7.758   2.708  0.3914 -0.1962 -1.3350
17478WAT     H271718   0.618   7.821   2.591 -0.0533  1.5253 -0.1702
17478WAT    EPW71719   0.617   7.790   2.673  0.1901  0.0920 -0.6816
17479WAT      O71720   1.673   1.245   6.163 -0.3307  0.5285  0.3424
17479WAT     H171721   1.641   1.277   6.247  1.5453 -0.4405  1.5081
17479WAT     H271722   1.733   1.174   6.186 -2.0509 -1.8878 -1.9592
17479WAT    EPW71723   1.677   1.240   6.177 -0.3101  0.0820  0.1926
17480WAT      O71724  10.628   5.712   3.903 -0.2104  0.6962  0.5935
17480WAT     H171725  10.574   5.747   3.832  0.3810 -2.0953 -1.4167
17480WAT     H271726  10.697   5.778   3.915 -0.6396  1.5100 -1.0728
17480WAT    EPW71727  10.630   5.725   3.895 -0.1888  0.4356  0.1087
17481WAT      O71728  10.855   7.627   3.814  0.0516 -0.9121  0.5232
17481WAT     H171729  10.787   7.685   3.778 -1.1287 -0.1609  3.6067
17481WAT     H271730  10.871   7.563   3.745 -1.3692  0.8582 -1.5888
17481WAT    EPW71731  10.848   7.626   3.800 -0.2918 -0.5798  0.6514
17482WAT      O71732  10.882   7.979   4.247  0.3311  0.0701  0.4679
17482WAT     H171733  10.788   7.964   4.238  0.4133 -1.3790  1.6887
17482WAT     H271734  10.894   8.069   4.217 -1.5337  0.5126  0.9038
17482WAT    EPW71735  10.871   7.989   4.242  0.0958 -0.0627  0.6862
17483WAT      O71736   9.449   9.076   5.531  0.2414 -0.2872 -0.6049
17483WAT     H171737   9.443   8.994   5.580  1.8767  0.2826  0.6536
17483WAT     H271738   9.425   9.053   5.441  0.8430 -2.1771 -0.3124
17483WAT    EPW71739   9.445   9.062   5.526  0.5374 -0.4611 -0.4005
17484WAT      O71740   6.772   8.745   6.635  0.0636 -0.0401  0.1583
17484WAT     H171741   6.705   8.771   6.572  1.4204  0.2717 -1.2316
17484WAT     H271742   6.803   8.826   6.673 -0.5425 -0.2073  1.0240
17484WAT    EPW71743   6.767   8.759   6.631  0.1628 -0.0205  0.0892
17485WAT      O71744   9.813   9.544   3.109 -0.2096 -0.2458  0.0269
17485WAT     H171745   9.771   9.627   3.086  1.1523  0.5315  0.2331
17485WAT     H271746   9.872   9.566   3.181  1.2156 -1.0812 -0.8270
17485WAT    EPW71747   9.815   9.558   3.115  0.1578 -0.2537 -0.0584
17486WAT      O71748   9.193   9.200   5.685  0.1177 -0.2060  0.4148
17486WAT     H171749   9.157   9.276   5.641 -0.5790  0.2256  1.6695
17486WAT     H271750   9.260   9.167   5.625  1.0843  1.9313  0.2166
17486WAT    EPW71751   9.197   9.205   5.672  0.1531  0.1326  0.5543
17487WAT      O71752   1.531   7.121   2.645 -0.6957  0.9683  0.3138
17487WAT     H171753   1.624   7.103   2.648 -0.5237  1.7910  0.2481
17487WAT     H271754   1.498   7.064   2.575  0.4503  3.3821 -2.4205
17487WAT    EPW71755   1.539   7.111   2.636 -0.5219  1.3952 -0.0554
17488WAT      O71756   6.956   7.488   2.610 -0.3775 -0.7889  0.0698
17488WAT     H171757   6.915   7.541   2.678  1.5828  0.2859  0.5008
17488WAT     H271758   7.003   7.551   2.555  0.0678 -1.8636 -0.8374
17488WAT    EPW71759   6.957   7.503   2.612 -0.0601 -0.7889  0.0069
17489WAT      O71760   0.227   7.494   3.367  0.0277  0.0799 -0.0896
17489WAT     H171761   0.222   7.567   3.429  1.0045  0.0835  0.0081
17489WAT     H271762   0.320   7.486   3.348 -0.3099  0.8468 -2.4842
17489WAT    EPW71763   0.239   7.503   3.372  0.1120  0.1817 -0.3924
17490WAT      O71764   0.370   0.138   2.658 -0.4666 -0.4598  0.0545
17490WAT     H171765   0.368   0.230   2.632 -0.2181  0.0543  1.7195
17490WAT     H271766   0.423   0.137   2.738 -1.7190 -1.7997  0.9345
17490WAT    EPW71767   0.377   0.150   2.665 -0.5990 -0.5687  0.3902
17491WAT      O71768  10.013   9.230   4.467 -0.3025  0.4767  0.8229
17491WAT     H171769  10.034   9.137   4.469  0.2996  0.5182 -0.9699
17491WAT     H271770  10.046   9.264   4.550  0.7742 -0.6670  0.8949
17491WAT    EPW71771  10.020   9.222   4.478 -0.0806  0.3309  0.5958
17492WAT      O71772   3.040   0.097   6.748 -0.4005 -0.2923 -0.0698
17492WAT     H171773   3.006   0.018   6.790 -1.0406 -0.1806 -0.3598
17492WAT     H271774   2.962   0.146   6.722 -0.0686 -0.6448 -1.9284
17492WAT    EPW71775   3.025   0.093   6.750 -0.4412 -0.3240 -0.3531
17493WAT      O71776  10.554   8.481   3.077 -0.7649 -0.4616  0.5989
17493WAT     H171777  10.487   8.422   3.045 -1.6416 -0.3719  2.1617
17493WAT     H271778  10.618   8.487   3.006 -0.8657 -2.9419  0.2365
17493WAT    EPW71779  10.554   8.474   3.064 -0.8936 -0.7768  0.7572
17494WAT      O71780   0.745   6.861   4.751  0.5038 -0.7211  0.3567
17494WAT     H171781   0.671   6.920   4.735 -0.3368 -1.6185  0.7810
17494WAT     H271782   0.782   6.844   4.664 -0.3757 -0.9726  0.0221
17494WAT    EPW71783   0.740   6.866   4.737  0.2769 -0.8726  0.3684
17495WAT      O71784  10.953   8.415   3.956 -0.1118 -0.1360 -0.0974
17495WAT     H171785  11.015   8.398   3.885  0.4461 -1.5973  0.6926
17495WAT     H271786  10.889   8.476   3.918  0.0098 -1.0700 -1.9388
17495WAT    EPW71787  10.953   8.421   3.941 -0.0224 -0.4520 -0.2360
17496WAT      O71788  10.657   8.125   5.667  0.0895 -0.2400  0.3097
17496WAT     H171789  10.644   8.153   5.576 -0.2824 -2.8828 -0.5525
17496WAT     H271790  10.622   8.196   5.720 -1.3871  0.5876 -1.6780
17496WAT    EPW71791  10.650   8.138   5.662 -0.1545 -0.4792 -0.0663
17497WAT      O71792   8.513   9.343   6.575 -0.0910 -1.0315  0.6476
17497WAT     H171793   8.487   9.415   6.632 -2.8959 -2.0658  0.8427
17497WAT     H271794   8.466   9.359   6.493  2.7918 -0.3142 -1.0130
17497WAT    EPW71795   8.504   9.354   6.572 -0.0811 -1.0734  0.4542
17498WAT      O71796   9.372   9.576   5.696 -0.4770  0.2601 -0.0514
17498WAT     H171797   9.346   9.541   5.782 -2.9557 -0.7297 -1.1037
17498WAT     H271798   9.377   9.498   5.640 -0.9829  1.0854 -1.2752
17498WAT    EPW71799   9.369   9.561   5.700 -0.8707  0.2389 -0.3514
17499WAT      O71800   3.006   1.938   2.590 -0.0411 -0.0733 -0.1485
17499WAT     H171801   3.087   1.938   2.642  0.3829 -1.0273 -0.7716
17499WAT     H271802   3.031   1.977   2.506 -0.5075  0.6622  0.0523
17499WAT    EPW71803   3.020   1.943   2.586 -0.0467 -0.1021 -0.2043
17500WAT      O71804  10.364  10.132   4.658 -0.4136  0.3688  0.2513
17500WAT     H171805  10.364  10.186   4.579 -2.8987 -0.8757 -0.6909
17500WAT     H271806  10.284  10.158   4.704 -0.5144 -0.9940  0.8699
17500WAT    EPW71807  10.353  10.143   4.654 -0.7548  0.0253  0.2089
17501WAT      O71808   8.907   7.805   6.656 -0.4372 -0.1727  0.1018
17501WAT     H171809   8.985   7.767   6.615 -1.9013 -1.7212 -1.4310
17501WAT     H271810   8.936   7.890   6.689  1.9081 -0.7478 -0.2853
17501WAT    EPW71811   8.921   7.811   6.655 -0.3214 -0.4528 -0.1514
17502WAT      O71812  10.054   6.151   1.373  0.6176 -0.4365  0.7535
17502WAT     H171813  10.101   6.160   1.290  2.7469  0.6420  2.0045
17502WAT     H271814  10.020   6.062   1.371 -0.7661  0.0365 -1.9133
17502WAT    EPW71815  10.056   6.141   1.362  0.7157 -0.2322  0.5667
17503WAT      O71816  10.520   8.195   5.361 -1.0312 -0.2346  0.1560
17503WAT     H171817  10.501   8.277   5.315 -1.2420 -0.1478  0.3925
17503WAT     H271818  10.436   8.169   5.399 -0.9185 -0.4489  0.2611
17503WAT    EPW71819  10.506   8.202   5.360 -1.0443 -0.2513  0.2010
17504WAT      O71820   5.565  10.334   3.540  0.1022  0.5566  0.0418
17504WAT     H171821   5.571  10.283   3.620  2.0583  1.4395  0.5170
17504WAT     H271822   5.598  10.421   3.564  2.4530  0.3600 -2.0654
17504WAT    EPW71823   5.570  10.339   3.554  0.6702  0.6475 -0.1734
17505WAT      O71824   0.100   6.467   2.480 -0.3266  0.8445  0.1442
17505WAT     H171825   0.108   6.528   2.554 -0.2672  1.9118 -0.7125
17505WAT     H271826   0.020   6.494   2.435 -1.7399 -1.3592  1.1727
17505WAT    EPW71827   0.091   6.479   2.484 -0.5051  0.6948  0.1669
17506WAT      O71828   8.449   8.951   5.640  0.5150  0.0821  0.2860
17506WAT     H171829   8.384   8.883   5.658  1.7373 -1.5054 -0.9646
17506WAT     H271830   8.508   8.911   5.576  0.6595  2.7190 -1.3685
17506WAT    EPW71831   8.448   8.937   5.634  0.6952  0.2208 -0.0973
17507WAT      O71832   8.560   8.129   6.379 -0.7522  0.1303 -0.1832
17507WAT     H171833   8.626   8.162   6.317 -1.0013 -1.2112 -1.2125
17507WAT     H271834   8.476   8.157   6.342 -0.8768 -0.2191 -0.1672
17507WAT    EPW71835   8.558   8.137   6.366 -0.8011 -0.0925 -0.3169
17508WAT      O71836   7.758   6.209   1.782  0.3732 -1.0348 -0.7247
17508WAT     H171837   7.752   6.305   1.782  0.2199 -1.0313 -2.2349
17508WAT     H271838   7.816   6.189   1.709  5.1868 -1.8694  2.7620
17508WAT    EPW71839   7.765   6.219   1.773  0.9880 -1.1446 -0.4640
17509WAT      O71840   8.330   7.763   5.074 -0.2382  0.1843 -0.4373
17509WAT     H171841   8.276   7.818   5.017  0.4141  0.2019 -1.0476
17509WAT     H271842   8.384   7.825   5.123 -0.4243  0.1448 -0.1836
17509WAT    EPW71843   8.330   7.779   5.073 -0.1764  0.1814 -0.4845
17510WAT      O71844  10.697   4.687   4.609 -0.4798  0.0176 -0.5637
17510WAT     H171845  10.742   4.754   4.557  0.9644  1.5069  2.3821
17510WAT     H271846  10.606   4.719   4.615 -0.5442  0.0884 -1.6573
17510WAT    EPW71847  10.691   4.700   4.603 -0.2980  0.2236 -0.3195
17511WAT      O71848   0.650   0.280   0.241 -0.2172  1.1967  0.4773
17511WAT     H171849   0.584   0.248   0.180  0.9851 -1.2010  0.3115
17511WAT     H271850   0.635   0.231   0.321  0.3473  1.8256  0.9881
17511WAT    EPW71851   0.640   0.270   0.243  0.0158  0.9634  0.5228
17512WAT      O71852   1.269   7.344   4.590 -0.2619  0.7896  0.2154
17512WAT     H171853   1.342   7.357   4.651 -0.2865  0.0414  0.4097
17512WAT     H271854   1.296   7.389   4.510 -0.4046  2.1526  0.8976
17512WAT    EPW71855   1.282   7.352   4.587 -0.2839  0.8707  0.3309
17513WAT      O71856   6.211   4.520   0.146 -0.0799  0.7009 -0.3783
17513WAT     H171857   6.266   4.558   0.078  0.7705  1.3307  0.6424
17513WAT     H271858   6.270   4.504   0.220 -0.6811 -1.3047 -0.2492
17513WAT    EPW71859   6.226   4.523   0.147 -0.0470  0.5195 -0.2266
17514WAT      O71860   4.092   1.145   4.092 -0.2097 -0.1823  0.2765
17514WAT     H171861   4.001   1.166   4.070  0.0883  1.0359  0.1705
17514WAT     H271862   4.144   1.195   4.029  0.5563 -0.0427  1.0127
17514WAT    EPW71863   4.087   1.154   4.081 -0.0694 -0.0032  0.3593
17515WAT      O71864   2.671   7.008   2.331 -0.4431 -0.2123 -0.1484
17515WAT     H171865   2.701   7.099   2.331  1.0910 -0.6459  2.1854
17515WAT     H271866   2.732   6.962   2.388 -2.6082 -2.2338  0.6946
17515WAT    EPW71867   2.683   7.014   2.338 -0.5263 -0.5362  0.2705
17516WAT      O71868   7.920   8.214   4.802 -0.1600 -0.5349 -0.4968
17516WAT     H171869   7.996   8.188   4.854  0.3034  0.9275 -0.3948
17516WAT     H271870   7.884   8.289   4.849  0.7786  1.4005 -2.6877
17516WAT    EPW71871   7.925   8.221   4.815  0.0248 -0.0868 -0.7725
17517WAT      O71872  10.500   9.280   4.121  0.2880 -0.2530 -0.0130
17517WAT     H171873  10.409   9.294   4.149 -0.3751  0.7882 -2.4275
17517WAT     H271874  10.541   9.366   4.132  0.6093 -0.3812 -0.2049
17517WAT    EPW71875  10.494   9.293   4.126  0.2427 -0.1326 -0.3567
17518WAT      O71876   1.299   7.526   3.124 -0.7568  0.3707  0.3617
17518WAT     H171877   1.369   7.579   3.162 -3.4159  1.6258  4.1067
17518WAT     H271878   1.263   7.580   3.054 -0.4516  1.4308  1.0115
17518WAT    EPW71879   1.304   7.540   3.120 -1.0673  0.6759  0.9414
17519WAT      O71880   9.937   9.554   4.261  0.5547  0.2650  0.7879
17519WAT     H171881   9.917   9.464   4.238  0.8018  0.1145  1.1650
17519WAT     H271882  10.010   9.549   4.322  0.8310  0.7418  0.5072
17519WAT    EPW71883   9.944   9.542   4.266  0.6237  0.3076  0.8004
17520WAT      O71884  10.566   9.039   5.015  0.4212  0.1610 -0.0695
17520WAT     H171885  10.557   8.952   5.053 -0.7457 -0.3957 -1.5511
17520WAT     H271886  10.604   9.092   5.086  0.7829 -1.4355  0.9768
17520WAT    EPW71887  10.570   9.035   5.029  0.3147 -0.1225 -0.1268
17521WAT      O71888   3.030   8.286   3.250 -0.0206  0.0844  0.4074
17521WAT     H171889   3.058   8.195   3.259 -1.2323 -0.2743  0.6886
17521WAT     H271890   2.935   8.283   3.261 -0.0816  1.3776  0.3499
17521WAT    EPW71891   3.022   8.273   3.253 -0.1884  0.2079  0.4369
17522WAT      O71892   9.737   8.068   3.662 -0.2031  0.3993  0.5747
17522WAT     H171893   9.763   8.122   3.587  1.0392 -0.2797  0.4795
17522WAT     H271894   9.812   8.072   3.721 -0.3203 -0.7389  0.8257
17522WAT    EPW71895   9.750   8.076   3.660 -0.0548  0.1597  0.5952
17523WAT      O71896   8.756   7.784   1.314  0.3725  0.5605 -0.5734
17523WAT     H171897   8.826   7.849   1.311  0.7288  0.1409 -1.6609
17523WAT     H271898   8.777   7.730   1.391 -0.2048  1.9973  0.6526
17523WAT    EPW71899   8.768   7.786   1.324  0.3428  0.6948 -0.5552
17524WAT      O71900  10.125   9.975   4.527 -0.1345  0.0752  0.0346
17524WAT     H171901  10.209  10.018   4.513  0.6574 -2.1940 -3.1155
17524WAT     H271902  10.145   9.903   4.587  0.2486 -0.6301 -0.9317
17524WAT    EPW71903  10.138   9.971   4.533  0.0205 -0.3171 -0.5083
17525WAT      O71904   6.396   7.250   6.923 -0.2800 -0.2254  0.0547
17525WAT     H171905   6.402   7.248   6.828  0.1526 -0.2478  0.0814
17525WAT     H271906   6.375   7.341   6.944 -3.0538 -0.7177 -0.2002
17525WAT    EPW71907   6.394   7.262   6.913 -0.5889 -0.2930  0.0243
17526WAT      O71908   9.111   6.706   3.692  0.1318 -0.4102 -0.0140
17526WAT     H171909   9.171   6.735   3.623 -0.2818 -1.5534 -0.8862
17526WAT     H271910   9.024   6.711   3.652 -0.5187  2.0667  1.5101
17526WAT    EPW71911   9.108   6.710   3.678 -0.0086 -0.2341  0.0720
17527WAT      O71912   0.920   0.777   3.692  0.1240 -0.1946 -0.9770
17527WAT     H171913   0.926   0.858   3.743 -0.9891 -0.2289 -0.7727
17527WAT     H271914   0.856   0.723   3.739 -0.7595 -0.3214 -2.2697
17527WAT    EPW71915   0.912   0.780   3.705 -0.1394 -0.2158 -1.1204
17528WAT      O71916  10.229   6.301   1.563  0.6881 -0.6877 -0.0129
17528WAT     H171917  10.185   6.340   1.487  1.1500 -1.0169 -0.4532
17528WAT     H271918  10.308   6.353   1.574  0.3417 -0.2790  0.6026
17528WAT    EPW71919  10.233   6.313   1.554  0.7033 -0.6773  0.0103
17529WAT      O71920  10.659   9.480   2.877  0.0838 -0.5137  0.4750
17529WAT     H171921  10.621   9.559   2.839  1.2238 -0.0114  0.3497
17529WAT     H271922  10.592   9.449   2.938 -1.0835 -0.4143 -0.7105
17529WAT    EPW71923  10.645   9.487   2.880  0.0801 -0.4339  0.3021
17530WAT      O71924   7.684   8.725   5.608 -1.0605  0.1971  0.1398
17530WAT     H171925   7.721   8.773   5.682 -0.4721  0.4352 -0.3041
17530WAT     H271926   7.654   8.642   5.646 -1.3323  0.5652  0.7576
17530WAT    EPW71927   7.685   8.721   5.623 -1.0188  0.2775  0.1628
17531WAT      O71928   3.756   8.233   1.467  0.1301 -0.8584 -0.0890
17531WAT     H171929   3.668   8.196   1.468 -0.4049  0.3551  0.8761
17531WAT     H271930   3.791   8.214   1.554  0.0713  0.2933  0.2094
17531WAT    EPW71931   3.749   8.226   1.479  0.0517 -0.5465  0.0776
17532WAT      O71932   1.228   9.617   1.154 -0.2993  0.4451 -0.1269
17532WAT     H171933   1.300   9.554   1.154 -0.4824  0.1982  1.2080
17532WAT     H271934   1.268   9.700   1.180 -0.6659  0.0381  1.8876
17532WAT    EPW71935   1.243   9.619   1.157 -0.3718  0.3591  0.3149
17533WAT      O71936   0.601   7.232   5.666  0.7655  0.4768  0.2409
17533WAT     H171937   0.640   7.268   5.586 -1.0764 -0.4132 -1.1139
17533WAT     H271938   0.673   7.233   5.730  2.5464  0.4088 -1.6571
17533WAT    EPW71939   0.616   7.237   5.664  0.7574  0.3505 -0.1884
17534WAT      O71940   9.357   9.489   6.286  0.2393  0.0988 -0.0967
17534WAT     H171941   9.425   9.479   6.218  0.4664  2.3502 -0.2673
17534WAT     H271942   9.375   9.574   6.325 -0.4695 -0.7378  2.2041
17534WAT    EPW71943   9.369   9.499   6.282  0.1755  0.2856  0.1843
17535WAT      O71944   9.037   7.143   2.226  0.0271  0.2011 -0.3729
17535WAT     H171945   9.069   7.189   2.149  1.2497 -0.1808 -0.1152
17535WAT     H271946   9.098   7.070   2.238 -0.8686 -0.4821  0.2333
17535WAT    EPW71947   9.049   7.139   2.218  0.0701  0.0606 -0.2590
17536WAT      O71948   1.722  10.273   6.492 -0.2351  0.4427 -0.3505
17536WAT     H171949   1.635  10.306   6.514  0.7657  2.0882  1.6009
17536WAT     H271950   1.721  10.261   6.398 -1.8346  2.8262 -0.7273
17536WAT    EPW71951   1.711  10.276   6.483 -0.3141  0.9747 -0.1428
17537WAT      O71952  10.495   7.415   0.804  0.4575  0.8917  0.3479
17537WAT     H171953  10.585   7.399   0.776  0.8619  0.9676  1.5495
17537WAT     H271954  10.458   7.470   0.735  1.1876  0.4935 -0.3803
17537WAT    EPW71955  10.502   7.420   0.791  0.6070  0.8490  0.4104
17538WAT      O71956   0.018   9.463   6.225  0.3496 -0.3237  0.5159
17538WAT     H171957   0.067   9.452   6.307 -0.7756  0.2806  1.3007
17538WAT     H271958  -0.029   9.380   6.215 -0.1890 -0.0857  0.9719
17538WAT    EPW71959   0.018   9.451   6.235  0.1302 -0.2131  0.6797
17539WAT      O71960   7.670   9.271   6.059  0.1862  0.3620  0.2409
17539WAT     H171961   7.688   9.350   6.008  0.9020 -0.3013 -0.5632
17539WAT     H271962   7.695   9.199   6.002 -0.9978 -0.4824  0.7484
17539WAT    EPW71963   7.676   9.272   6.045  0.1245  0.1636  0.2019
17540WAT      O71964   6.746   5.916   5.914 -0.3489 -0.0263  0.3328
17540WAT     H171965   6.767   5.979   5.983  0.7201 -0.0605  0.0562
17540WAT     H271966   6.830   5.875   5.893 -0.0264  1.9040 -2.9161
17540WAT    EPW71967   6.760   5.919   5.920 -0.1652  0.2239 -0.1326
17541WAT      O71968   7.825   5.802   4.825 -0.1107 -0.6590  0.1886
17541WAT     H171969   7.767   5.862   4.779 -1.4169 -1.9445  0.0887
17541WAT     H271970   7.908   5.849   4.831 -1.0937  1.1795  0.2012
17541WAT    EPW71971   7.828   5.816   4.820 -0.4127 -0.5858  0.1769
17542WAT      O71972   9.219   7.574   2.163  0.1410 -0.1328  0.1079
17542WAT     H171973   9.144   7.600   2.216  0.1822 -0.5722  0.3896
17542WAT     H271974   9.185   7.505   2.105  0.0056  0.5942 -0.6962
17542WAT    EPW71975   9.204   7.568   2.162  0.1283 -0.0949  0.0391
17543WAT      O71976   4.904   6.865   4.356 -0.1435  0.4503 -0.0573
17543WAT     H171977   4.981   6.902   4.401 -2.9990  0.8773  5.3788
17543WAT     H271978   4.906   6.772   4.379 -1.8829  0.7505  1.5578
17543WAT    EPW71979   4.914   6.858   4.365 -0.7496  0.5460  0.8729
17544WAT      O71980   7.329   7.558   8.177  0.0157 -0.7366  0.0619
17544WAT     H171981   7.416   7.593   8.192  0.1498 -1.5331  1.3132
17544WAT     H271982   7.306   7.587   8.089 -0.0581  2.8355  1.0991
17544WAT    EPW71983   7.337   7.566   8.167  0.0241 -0.3705  0.3638
17545WAT      O71984   5.575   6.660   5.004 -0.5665 -0.2558  0.2005
17545WAT     H171985   5.587   6.690   4.914 -0.0283  1.3497  0.7541
17545WAT     H271986   5.660   6.625   5.030 -0.3892  0.3246  0.4244
17545WAT    EPW71987   5.587   6.660   4.996 -0.4723  0.0327  0.3030
17546WAT      O71988   9.635   5.881   4.353 -0.4272  0.1470  0.2570
17546WAT     H171989   9.676   5.967   4.359 -0.8464  0.4121 -0.5100
17546WAT     H271990   9.668   5.843   4.271 -0.9764 -0.0159  0.1004
17546WAT    EPW71991   9.644   5.887   4.343 -0.5550  0.1607  0.1349
17547WAT      O71992   1.244   5.967   6.963  0.2379 -0.5378  0.2611
17547WAT     H171993   1.243   6.023   7.041 -4.4531 -0.6124  0.5269
17547WAT     H271994   1.301   6.012   6.901 -1.3437  3.3204  1.3299
17547WAT    EPW71995   1.252   5.980   6.965 -0.5894 -0.0389  0.4370
17548WAT      O71996   8.565   9.368   4.655 -0.6870 -0.5579  0.2199
17548WAT     H171997   8.569   9.335   4.745  0.0086  0.6026  0.6343
17548WAT     H271998   8.499   9.313   4.613 -2.6933  0.2806  2.0401
17548WAT    EPW71999   8.557   9.357   4.662 -0.8597 -0.2942  0.5147
17549WAT      O72000   8.150   8.708   1.322 -0.3610 -0.0990  0.1238
17549WAT     H172001   8.189   8.793   1.299  0.7677 -0.0198  2.1276
17549WAT     H272002   8.172   8.695   1.414 -2.8592 -1.3347  0.6387
17549WAT    EPW72003   8.158   8.717   1.331 -0.5422 -0.2518  0.4560
17550WAT      O72004  10.585   8.388   1.500  0.1398  0.2095 -0.0468
17550WAT     H172005  10.619   8.333   1.429 -0.4211  1.1459 -1.0766
17550WAT     H272006  10.537   8.458   1.455 -0.6465  0.5544  1.2808
17550WAT    EPW72007  10.583   8.390   1.485 -0.0377  0.3786 -0.0076
17551WAT      O72008   1.414   8.252   2.730  0.5350 -0.0382 -0.0470
17551WAT     H172009   1.337   8.196   2.727 -1.2512  2.3138 -1.4751
17551WAT     H272010   1.462   8.233   2.649 -0.7062  1.2304 -1.1331
17551WAT    EPW72011   1.410   8.242   2.719  0.1357  0.4392 -0.3787
17552WAT      O72012  10.413   6.581   5.523 -0.4087 -0.1527 -0.1421
17552WAT     H172013  10.502   6.614   5.533 -0.3531 -0.4956  0.5625
17552WAT     H272014  10.368   6.608   5.604 -0.9890  0.1556 -0.5595
17552WAT    EPW72015  10.419   6.589   5.535 -0.4773 -0.1574 -0.1042
17553WAT      O72016   6.479   7.477   3.639  0.1242 -0.8836  0.3356
17553WAT     H172017   6.400   7.447   3.684  0.1458  0.5572  1.4180
17553WAT     H272018   6.464   7.571   3.625  1.4294 -0.6987  0.0887
17553WAT    EPW72019   6.467   7.485   3.643  0.2992 -0.6690  0.4457
17554WAT      O72020   4.050   0.112   6.195 -0.2331  0.4778  0.5614
17554WAT     H172021   4.094   0.117   6.280 -0.5090 -2.4344  0.9717
17554WAT     H272022   4.066   0.198   6.155  1.4355  1.3044  2.7831
17554WAT    EPW72023   4.058   0.124   6.201 -0.0494  0.2027  0.9086
17555WAT      O72024   9.200  10.262   8.476  0.2149  0.3306 -0.3423
17555WAT     H172025   9.140  10.267   8.550 -3.0877  0.7838 -2.7990
17555WAT     H272026   9.151  10.214   8.409  1.1012  3.6614 -3.7585
17555WAT    EPW72027   9.186  10.256   8.477 -0.1040  0.8292 -1.1168
17556WAT      O72028   6.029   1.023   7.866 -0.0456  0.0041  0.6620
17556WAT     H172029   5.933   1.022   7.861 -0.1007  1.0526  1.3499
17556WAT     H272030   6.053   1.111   7.840  1.0693 -1.4026 -4.1860
17556WAT    EPW72031   6.019   1.034   7.862  0.0944 -0.0431  0.1132
17557WAT      O72032   3.019   9.168   2.891 -0.1566 -0.0953  0.1732
17557WAT     H172033   3.031   9.262   2.881  0.1892 -0.1998 -0.5089
17557WAT     H272034   3.083   9.129   2.831  1.5184 -0.8193  2.3270
17557WAT    EPW72035   3.029   9.175   2.882  0.1099 -0.2041  0.3673
17558WAT      O72036  10.070   6.950   2.940  0.3692 -0.1691  1.0230
17558WAT     H172037  10.123   7.029   2.933 -0.4394  0.5064  2.1452
17558WAT     H272038  10.083   6.920   3.031  0.1643 -0.9647  0.8035
17558WAT    EPW72039  10.079   6.956   2.951  0.2356 -0.1850  1.1420
17559WAT      O72040   1.481   9.027   5.042 -0.4205 -0.1269 -0.3284
17559WAT     H172041   1.400   9.069   5.072 -1.9906 -3.1674  0.0346
17559WAT     H272042   1.503   8.965   5.111  3.2886  1.6939  0.4010
17559WAT    EPW72043   1.473   9.024   5.055 -0.1383 -0.2880 -0.1843
17560WAT      O72044  10.804   7.430   2.807 -0.7911 -0.5553 -0.1102
17560WAT     H172045  10.752   7.443   2.727 -1.9894 -1.6175  0.4680
17560WAT     H272046  10.852   7.349   2.791  0.2355  0.0757 -0.3708
17560WAT    EPW72047  10.803   7.421   2.794 -0.8140 -0.6120 -0.0683
17561WAT      O72048   0.802   6.881   6.302 -0.0026  0.1885  0.0355
17561WAT     H172049   0.827   6.904   6.392  0.9204 -1.1768  0.1567
17561WAT     H272050   0.873   6.825   6.271  0.0133  1.1283 -1.7925
17561WAT    EPW72051   0.815   6.877   6.310  0.1212  0.1326 -0.1898
17562WAT      O72052   9.441   9.931   3.157  0.1362  0.3778 -0.0286
17562WAT     H172053   9.417   9.853   3.207  1.3176  1.3861  2.2398
17562WAT     H272054   9.357   9.970   3.134 -0.4792  0.0141  1.4505
17562WAT    EPW72055   9.427   9.926   3.161  0.2112  0.4630  0.4656
17563WAT      O72056   0.689   5.963   3.990  0.2748 -0.5885 -0.5259
17563WAT     H172057   0.755   5.894   3.977  1.7631  0.1931  2.1075
17563WAT     H272058   0.716   6.034   3.932  1.1105 -0.7165 -0.3051
17563WAT    EPW72059   0.701   5.963   3.981  0.5813 -0.5023 -0.1494
17564WAT      O72060   0.289   6.664   3.491 -0.4728 -0.7927 -0.5601
17564WAT     H172061   0.371   6.622   3.514  1.6010  2.9400 -0.4021
17564WAT     H272062   0.235   6.658   3.570  0.2252 -1.9378 -0.1493
17564WAT    EPW72063   0.293   6.658   3.504 -0.1072 -0.4516 -0.4851
17565WAT      O72064   8.385   7.369   6.000 -0.4387 -0.6291 -0.1239
17565WAT     H172065   8.315   7.433   5.993  0.6165  0.4534 -1.3947
17565WAT     H272066   8.361   7.300   5.938  0.8686  1.0670 -2.7135
17565WAT    EPW72067   8.373   7.369   5.991 -0.1273 -0.2627 -0.6332
17566WAT      O72068  10.560   7.912   4.429  0.3458  0.5392 -0.2258
17566WAT     H172069  10.474   7.936   4.464  0.8220 -0.8882  2.1788
17566WAT     H272070  10.608   7.994   4.425 -1.3300  1.5317 -2.5089
17566WAT    EPW72071  10.555   7.926   4.433  0.1879  0.4818 -0.2098
17567WAT      O72072   8.868   6.279   4.849 -0.1618 -0.5726 -0.1348
17567WAT     H172073   8.804   6.223   4.892 -0.0168  1.1204  2.5113
17567WAT     H272074   8.902   6.335   4.919 -0.8457  3.3601 -2.5995
17567WAT    EPW72075   8.864   6.279   4.864 -0.2327  0.1693 -0.1109
17568WAT      O72076  10.667   9.226   5.208 -0.6193  0.1480  0.2042
17568WAT     H172077  10.665   9.176   5.290 -1.0598  0.8634  0.6401
17568WAT     H272078  10.608   9.300   5.224 -0.2400  0.6228 -0.5487
17568WAT    EPW72079  10.659   9.229   5.221 -0.6270  0.3047  0.1628
17569WAT      O72080   9.611  10.209   0.854  0.2843 -0.2054 -0.5672
17569WAT     H172081   9.688  10.265   0.864  0.6498 -0.4437 -1.8861
17569WAT     H272082   9.616  10.149   0.929 -0.5217  1.9418  1.3045
17569WAT    EPW72083   9.622  10.208   0.865  0.2265  0.0463 -0.4943
17570WAT      O72084   9.862   8.961   5.941 -0.3974 -0.4153  0.3020
17570WAT     H172085   9.809   8.888   5.909 -1.1553  0.5026 -0.5691
17570WAT     H272086   9.940   8.919   5.977 -1.1167 -1.7002  0.4270
17570WAT    EPW72087   9.865   8.946   5.942 -0.5927 -0.4635  0.2036
17571WAT      O72088   0.466   9.621   8.001  0.3197  0.3515 -0.4328
17571WAT     H172089   0.469   9.678   8.078 -0.0861 -1.1939  0.7820
17571WAT     H272090   0.533   9.656   7.942 -0.2151  2.3126  0.0731
17571WAT    EPW72091   0.475   9.633   8.003  0.1957  0.4063 -0.2060
17572WAT      O72092   6.631   9.677   2.174  0.3203 -0.0948 -0.3961
17572WAT     H172093   6.558   9.632   2.132  0.8860 -0.1752 -1.3130
17572WAT     H272094   6.590   9.748   2.224 -0.3617  0.0122 -1.0971
17572WAT    EPW72095   6.616   9.681   2.175  0.3049 -0.0916 -0.6095
17573WAT      O72096   9.282   8.968   3.336  0.6938 -0.3191 -0.3562
17573WAT     H172097   9.255   8.916   3.261 -0.3653  0.4987 -0.5617
17573WAT     H272098   9.300   8.904   3.405  0.9814 -1.0286 -1.0775
17573WAT    EPW72099   9.281   8.952   3.336  0.5918 -0.3047 -0.4785
17574WAT      O72100   2.587   6.988   5.300 -0.5703  0.1815  0.3608
17574WAT     H172101   2.674   6.952   5.285 -0.2624  1.1107 -0.1203
17574WAT     H272102   2.603   7.071   5.345 -1.1618  0.7412 -0.4433
17574WAT    EPW72103   2.601   6.994   5.304 -0.6077  0.3779  0.1915
17575WAT      O72104   8.369   7.302   5.185 -0.2870 -0.1407 -1.0445
17575WAT     H172105   8.346   7.391   5.159 -0.8058  0.3500  0.9465
17575WAT     H272106   8.459   7.309   5.216  0.1081 -0.5923 -2.0343
17575WAT    EPW72107   8.378   7.315   5.186 -0.3033 -0.1354 -0.9124
17576WAT      O72108   6.764   9.562   6.017  0.5893 -0.2145 -0.1996
17576WAT     H172109   6.819   9.493   5.980  0.6353  0.8270 -2.1994
17576WAT     H272110   6.682   9.556   5.968  1.0579  1.9351 -1.3644
17576WAT    EPW72111   6.760   9.552   6.006  0.6571  0.2065 -0.6173
17577WAT      O72112   0.858   9.370   4.264  0.3165 -0.2603  0.4627
17577WAT     H172113   0.854   9.449   4.318 -2.8506  2.0029 -2.5940
17577WAT     H272114   0.881   9.402   4.177 -2.0435 -2.4453 -1.1306
17577WAT    EPW72115   0.860   9.384   4.259 -0.4125 -0.2499 -0.1507
17578WAT      O72116   7.639   6.624   6.153  0.6174 -0.6658  0.3847
17578WAT     H172117   7.705   6.559   6.128  0.8564  0.5597 -2.5386
17578WAT     H272118   7.565   6.606   6.095 -0.3040  0.0996  1.2978
17578WAT    EPW72119   7.638   6.613   6.142  0.5276 -0.4032  0.1197
17579WAT      O72120   0.604   9.443   6.103  0.3072 -0.3482 -0.4929
17579WAT     H172121   0.618   9.517   6.162 -1.3885 -0.3511 -0.0572
17579WAT     H272122   0.678   9.448   6.042  0.3062  1.6422 -0.4109
17579WAT    EPW72123   0.616   9.454   6.102  0.0834 -0.0863 -0.4246
17580WAT      O72124   3.464   7.497   6.922  0.0059 -0.1137 -0.4751
17580WAT     H172125   3.494   7.467   7.008  1.6302 -0.3625 -1.0973
17580WAT     H272126   3.472   7.420   6.866  2.6130  0.9247 -1.6984
17580WAT    EPW72127   3.469   7.483   6.926  0.5641 -0.0093 -0.7186
17581WAT      O72128   9.700   7.095   3.699  0.1578 -0.0411  0.2383
17581WAT     H172129   9.780   7.146   3.683  0.1199  0.0770  0.4239
17581WAT     H272130   9.650   7.148   3.761  1.6056 -1.7903  3.1252
17581WAT    EPW72131   9.704   7.109   3.705  0.3438 -0.2563  0.6436
17582WAT      O72132   2.902   8.957   5.300 -0.7457  0.2279 -0.5736
17582WAT     H172133   2.887   9.049   5.322  0.9614  0.7057 -1.3127
17582WAT     H272134   2.970   8.928   5.361 -2.8530 -1.2766  1.2386
17582WAT    EPW72135   2.909   8.966   5.311 -0.7985  0.0925 -0.4320
17583WAT      O72136  10.979   7.531   4.021 -0.3258 -0.2542  0.1256
17583WAT     H172137  10.957   7.556   3.931 -0.0871 -1.3352 -0.2483
17583WAT     H272138  11.055   7.475   4.012  1.4495  1.8317  1.2426
17583WAT    EPW72139  10.986   7.527   4.008 -0.0596 -0.1218  0.2236
17584WAT      O72140   8.742   7.766   6.398 -0.7733 -0.6084  0.3889
17584WAT     H172141   8.732   7.707   6.323  1.0346 -0.7794  0.2254
17584WAT     H272142   8.788   7.713   6.463 -1.8376 -0.2887  1.4178
17584WAT    EPW72143   8.747   7.751   6.396 -0.6752 -0.5889  0.5031
17585WAT      O72144   9.028   8.727   8.127 -0.0515 -0.1290 -0.3195
17585WAT     H172145   8.961   8.791   8.106  0.6291  0.2451 -1.4143
17585WAT     H272146   9.062   8.699   8.042  1.2753 -0.2020  0.2147
17585WAT    EPW72147   9.024   8.732   8.113  0.2131 -0.0892 -0.3934
17586WAT      O72148   0.751   5.669   6.366 -0.2210  0.2305  0.2876
17586WAT     H172149   0.660   5.642   6.368 -0.4231  0.7275 -1.0533
17586WAT     H272150   0.795   5.610   6.427 -1.3190 -0.4388  0.4539
17586WAT    EPW72151   0.745   5.658   6.374 -0.3925  0.2079  0.1326
17587WAT      O72152   7.847   7.965   6.608 -0.3118  0.4402 -0.5530
17587WAT     H172153   7.839   7.933   6.519 -2.6140  0.6080 -0.4590
17587WAT     H272154   7.776   7.922   6.656  1.4331 -0.3902  1.4654
17587WAT    EPW72155   7.837   7.955   6.603 -0.3855  0.3529 -0.2744
17588WAT      O72156   9.396   9.936   1.070 -0.1366 -0.8631  0.1318
17588WAT     H172157   9.335   9.896   1.133  1.7716 -0.9807  2.0381
17588WAT     H272158   9.374  10.029   1.072 -0.7937 -1.0125  0.1449
17588WAT    EPW72159   9.385   9.943   1.079  0.0286 -0.8984  0.3849
17589WAT      O72160   1.308  10.334   3.259  0.5123 -0.2984 -0.1888
17589WAT     H172161   1.264  10.406   3.213 -2.0771 -0.4345  1.8566
17589WAT     H272162   1.310  10.362   3.350  4.9767 -0.2779 -0.0590
17589WAT    EPW72163   1.302  10.347   3.265  0.7596 -0.3142  0.0980
17590WAT      O72164   3.429   0.341   3.821 -0.4262  0.6535  0.2165
17590WAT     H172165   3.371   0.294   3.882  0.0393 -1.1220 -0.6400
17590WAT     H272166   3.481   0.272   3.780  0.2585  1.9441 -1.1656
17590WAT    EPW72167   3.428   0.325   3.823 -0.2745  0.5896 -0.0788
17591WAT      O72168   9.140   9.057   8.250  0.2464  0.1659 -0.4158
17591WAT     H172169   9.082   9.095   8.184 -0.4031 -0.3501 -0.1589
17591WAT     H272170   9.199   9.000   8.200 -0.6891 -0.7629 -0.5044
17591WAT    EPW72171   9.140   9.054   8.234  0.0372 -0.0243 -0.3939
17592WAT      O72172   9.038   9.598   7.188  0.4741  0.9995  0.7786
17592WAT     H172173   9.124   9.576   7.150 -1.1982 -1.4175 -2.0398
17592WAT     H272174   9.008   9.516   7.227 -1.4966  1.0743 -0.4366
17592WAT    EPW72175   9.046   9.584   7.188 -0.0062  0.6905  0.2465
17593WAT      O72176   9.062   9.230   4.090  1.0195 -0.6026 -0.7473
17593WAT     H172177   9.126   9.161   4.070  2.2064  0.1721  0.1816
17593WAT     H272178   9.085   9.258   4.179  0.9898  1.4163 -1.3158
17593WAT    EPW72179   9.074   9.225   4.099  1.1721 -0.2341 -0.6998
17594WAT      O72180   6.437   5.794   5.923  0.6384 -0.2765  0.0617
17594WAT     H172181   6.360   5.847   5.943  1.3979  1.0395 -0.4083
17594WAT     H272182   6.402   5.708   5.900 -0.5766 -0.2016  1.5351
17594WAT    EPW72183   6.423   5.790   5.922  0.5784 -0.0932  0.1943
17595WAT      O72184   9.558   6.034   2.646 -0.3400 -0.3711 -0.0275
17595WAT     H172185   9.470   6.037   2.682 -0.5300  0.5174 -0.5373
17595WAT     H272186   9.615   6.053   2.720 -0.6484  0.1679  0.0732
17595WAT    EPW72187   9.554   6.037   2.660 -0.4058 -0.1829 -0.0815
17596WAT      O72188  10.018   8.175   2.889 -0.5046  0.4792 -0.8494
17596WAT     H172189   9.976   8.150   2.807 -0.5766  1.0646 -0.9964
17596WAT     H272190  10.060   8.258   2.869  2.2124 -0.8761 -1.2259
17596WAT    EPW72191  10.018   8.183   2.876 -0.1559  0.3781 -0.9184
17597WAT      O72192   2.070   0.575   5.128  0.0697  0.4400 -0.5385
17597WAT     H172193   2.095   0.665   5.148  2.2407 -0.1749 -0.1809
17597WAT     H272194   2.153   0.527   5.123 -1.0356 -1.6866 -0.0947
17597WAT    EPW72195   2.084   0.580   5.130  0.2103  0.0784 -0.4327
17598WAT      O72196  10.342   7.569   4.187  0.0081  0.9214 -0.1008
17598WAT     H172197  10.352   7.657   4.223  1.2055  0.6422  0.2817
17598WAT     H272198  10.421   7.522   4.213 -1.8306 -1.1960  2.2678
17598WAT    EPW72199  10.354   7.574   4.195 -0.0763  0.6053  0.2623
17599WAT      O72200  10.995   8.665   4.898 -0.5132  0.2992 -1.1716
17599WAT     H172201  11.073   8.630   4.857  0.1184  1.8768 -1.3985
17599WAT     H272202  11.027   8.732   4.959 -1.5555 -0.5306  0.3668
17599WAT    EPW72203  11.009   8.670   4.901 -0.5674  0.3972 -0.9987
17600WAT      O72204   8.354  10.073   5.191 -0.0504  0.2324 -0.0955
17600WAT     H172205   8.280  10.018   5.168  1.5071 -1.3927 -1.5443
17600WAT     H272206   8.376  10.120   5.111  0.4914  0.6679  0.2977
17600WAT    EPW72207   8.347  10.072   5.178  0.2260  0.0753 -0.2348
17601WAT      O72208   8.475   9.497   3.409 -0.3387 -0.5840 -0.7756
17601WAT     H172209   8.411   9.508   3.479 -0.4922 -2.1570 -0.6480
17601WAT     H272210   8.508   9.408   3.420 -0.1381 -0.7531 -2.5033
17601WAT    EPW72211   8.471   9.487   3.419 -0.3333 -0.8135 -0.9866
17602WAT      O72212   6.384   7.247   7.708  1.1043  0.0864  0.4835
17602WAT     H172213   6.469   7.281   7.681  0.5677  0.8381 -0.2876
17602WAT     H272214   6.385   7.156   7.679  0.7945  0.6908 -1.5539
17602WAT    EPW72215   6.395   7.240   7.701  0.9925  0.2651  0.1130
17603WAT      O72216   8.851   9.724   3.376  0.0511 -0.9603  0.1790
17603WAT     H172217   8.785   9.683   3.320  0.5388 -1.7513  0.1664
17603WAT     H272218   8.902   9.780   3.317 -0.0498 -1.0387  0.0180
17603WAT    EPW72219   8.849   9.726   3.361  0.1020 -1.0753  0.1560
17604WAT      O72220   2.391   0.487   2.505  0.2991 -0.2806 -0.1443
17604WAT     H172221   2.376   0.556   2.441 -0.4564  0.1621  0.4889
17604WAT     H272222   2.481   0.500   2.533 -0.3277  1.5705  1.2261
17604WAT    EPW72223   2.401   0.498   2.500  0.1168  0.0219  0.1199
17605WAT      O72224   8.824   8.466   3.396  0.6336  0.3533 -0.7527
17605WAT     H172225   8.878   8.423   3.462  0.5635  0.5344 -0.5755
17605WAT     H272226   8.783   8.539   3.443 -0.4175 -0.2668 -0.6710
17605WAT    EPW72227   8.826   8.470   3.411  0.4859  0.2956 -0.7186
17606WAT      O72228   0.429   5.616   5.307  1.4635  0.4580  0.5453
17606WAT     H172229   0.484   5.677   5.258  0.9403  0.3334 -0.2204
17606WAT     H272230   0.473   5.531   5.298  2.9891  0.9154  2.8360
17606WAT    EPW72231   0.442   5.613   5.299  1.5957  0.5019  0.7465
17607WAT      O72232   9.510   9.376   7.070 -0.7769  0.7546 -0.1555
17607WAT     H172233   9.544   9.286   7.072 -1.6193  0.4491  1.3712
17607WAT     H272234   9.586   9.430   7.092  0.0645  0.5872 -2.3170
17607WAT    EPW72235   9.524   9.371   7.073 -0.7768  0.6924 -0.2396
17608WAT      O72236   8.875   8.044   6.273 -0.5577 -0.2017 -0.0695
17608WAT     H172237   8.887   8.050   6.367  1.5392 -0.4201 -0.2714
17608WAT     H272238   8.830   7.960   6.260  0.8058 -1.0827  0.6481
17608WAT    EPW72239   8.871   8.034   6.283 -0.1011 -0.3471 -0.0014
17609WAT      O72240   0.450   2.658   4.753 -0.3904  0.6111  0.2116
17609WAT     H172241   0.489   2.574   4.730  1.1448  0.7538  2.0540
17609WAT     H272242   0.369   2.636   4.798  0.4587  0.0279  1.5195
17609WAT    EPW72243   0.445   2.644   4.756 -0.0759  0.5530  0.6273
17610WAT      O72244  10.857  10.120   6.193  0.2389 -0.2344 -0.2956
17610WAT     H172245  10.911  10.121   6.272 -0.5294  0.1074  0.2373
17610WAT     H272246  10.819  10.208   6.189 -0.4951 -0.5549 -0.5016
17610WAT    EPW72247  10.859  10.132   6.203  0.0405 -0.2313 -0.2525
17611WAT      O72248   2.281   7.899   5.872 -0.2200 -0.0314 -0.1569
17611WAT     H172249   2.272   7.860   5.959  1.8758 -1.7263 -0.6281
17611WAT     H272250   2.371   7.932   5.870 -1.1857  2.9140 -0.6175
17611WAT    EPW72251   2.291   7.898   5.883 -0.0710  0.1333 -0.2799
17612WAT      O72252   7.191   9.347   1.874 -0.1946  0.3831  0.0778
17612WAT     H172253   7.272   9.300   1.854 -1.2131 -0.6910 -1.8089
17612WAT     H272254   7.172   9.399   1.796  0.0832  2.8587  1.5417
17612WAT    EPW72255   7.199   9.348   1.861 -0.2923  0.5679  0.0221
17613WAT      O72256   4.619   0.478   4.298  0.9952  1.1394  0.8815
17613WAT     H172257   4.598   0.562   4.339 -1.4824  1.3755 -0.6667
17613WAT     H272258   4.604   0.413   4.367  1.3645  1.8542  1.6416
17613WAT    EPW72259   4.614   0.480   4.312  0.7172  1.2648  0.7775
17614WAT      O72260   1.874   0.161   2.088  0.2555  0.4484  0.2074
17614WAT     H172261   1.794   0.185   2.135  1.4526 -0.7245  3.1383
17614WAT     H272262   1.922   0.106   2.151  1.7394 -1.8902 -2.7251
17614WAT    EPW72263   1.870   0.157   2.103  0.6091 -0.0147  0.2072
17615WAT      O72264   0.130   6.750   3.263  0.2698 -0.1532 -0.5550
17615WAT     H172265   0.197   6.797   3.214  0.9248 -1.5049 -1.0030
17615WAT     H272266   0.172   6.725   3.345 -0.3956  0.8876  0.1360
17615WAT    EPW72267   0.144   6.753   3.267  0.2684 -0.1945 -0.5230
17616WAT      O72268  10.208   7.248   2.308 -0.1740 -0.6152  0.4953
17616WAT     H172269  10.260   7.304   2.251 -0.1108 -1.7278 -0.5828
17616WAT     H272270  10.120   7.285   2.304  0.0025 -0.2100  0.3274
17616WAT    EPW72271  10.203   7.260   2.300 -0.1421 -0.7088  0.3309
17617WAT      O72272   7.488   7.781   8.641 -0.2894  0.0322  0.1191
17617WAT     H172273   7.476   7.686   8.634  1.0492 -0.0317 -2.1911
17617WAT     H272274   7.553   7.802   8.574  0.1922  2.4706  1.2334
17617WAT    EPW72275   7.495   7.771   8.631 -0.0494  0.3452 -0.0386
17618WAT      O72276  10.902   6.758   5.927 -0.3992 -0.8011 -0.7320
17618WAT     H172277  10.836   6.824   5.903 -0.0948  0.5250  1.6561
17618WAT     H272278  10.981   6.785   5.880 -0.5463 -0.0362 -0.5570
17618WAT    EPW72279  10.904   6.771   5.918 -0.3786 -0.5252 -0.3939
17619WAT      O72280   0.690   0.308   6.597 -0.0619  0.7540  0.1749
17619WAT     H172281   0.671   0.277   6.685 -2.1829 -2.3643 -1.2118
17619WAT     H272282   0.612   0.356   6.571 -0.8213 -1.0551 -1.0463
17619WAT    EPW72283   0.677   0.310   6.605 -0.4418  0.1041 -0.1688
17620WAT      O72284   4.341   3.278   1.256  0.4991  0.7308 -0.3904
17620WAT     H172285   4.265   3.315   1.211 -0.4734 -0.2312  0.4017
17620WAT     H272286   4.340   3.320   1.343  2.2370  2.4207 -1.1143
17620WAT    EPW72287   4.330   3.288   1.262  0.6001  0.8268 -0.3814
17621WAT      O72288   1.550   5.989   3.310  0.9931 -0.0577  0.6152
17621WAT     H172289   1.590   5.982   3.397  0.9304 -1.5678  0.5486
17621WAT     H272290   1.549   6.083   3.292  1.7975  0.2226  1.8755
17621WAT    EPW72291   1.556   6.001   3.319  1.0908 -0.2201  0.7726
17622WAT      O72292   0.806   8.607   6.476 -0.1607  0.0232  0.5489
17622WAT     H172293   0.859   8.648   6.408  1.1848  1.4993  2.3678
17622WAT     H272294   0.810   8.513   6.457 -2.2595  0.4799 -3.0125
17622WAT    EPW72295   0.814   8.600   6.465 -0.2601  0.2785  0.3190
17623WAT      O72296   1.773   7.782   2.643  0.2852  0.1404  0.1950
17623WAT     H172297   1.857   7.805   2.602  0.1992 -2.0510 -1.3673
17623WAT     H272298   1.734   7.718   2.583  1.0854 -5.1192  4.5351
17623WAT    EPW72299   1.779   7.777   2.629  0.3794 -0.8423  0.5615
17624WAT      O72300   0.835   7.744   4.959 -0.3871 -0.4102 -0.6802
17624WAT     H172301   0.915   7.735   4.908 -0.7948  0.1609 -1.4379
17624WAT     H272302   0.853   7.697   5.040  1.1226  0.6714 -0.3562
17624WAT    EPW72303   0.848   7.737   4.963 -0.2417 -0.1919 -0.7374
17625WAT      O72304   3.276   0.657   4.569 -0.5882 -0.3174  0.6362
17625WAT     H172305   3.194   0.631   4.612 -0.3788 -0.4108  0.9796
17625WAT     H272306   3.302   0.580   4.519 -1.2339  0.0474 -0.2749
17625WAT    EPW72307   3.269   0.644   4.568 -0.6458 -0.2816  0.5615
17626WAT      O72308   3.470   1.542   1.169 -0.2495  0.6258 -0.0021
17626WAT     H172309   3.503   1.573   1.084  1.4256 -1.1281 -0.0442
17626WAT     H272310   3.449   1.450   1.154 -0.1384  0.3524  1.4489
17626WAT    EPW72311   3.471   1.534   1.156 -0.0139  0.3584  0.1838
17627WAT      O72312   2.306   2.875   2.565  0.1485  0.7373 -0.7218
17627WAT     H172313   2.342   2.934   2.632 -1.3244  0.4976  0.3306
17627WAT     H272314   2.336   2.913   2.482  3.9572 -0.2235  0.0152
17627WAT    EPW72315   2.315   2.888   2.563  0.4567  0.5790 -0.4858
17628WAT      O72316   6.859   0.100   3.094 -0.7098 -0.1632  0.3171
17628WAT     H172317   6.848   0.195   3.102 -0.9314 -0.2750  1.5771
17628WAT     H272318   6.884   0.072   3.183  3.1139 -0.7938 -0.7486
17628WAT    EPW72319   6.861   0.109   3.107 -0.2348 -0.2612  0.3427
17629WAT      O72320   7.001   5.650   8.370 -0.2744  0.4739  0.2754
17629WAT     H172321   7.021   5.743   8.360 -0.0407  0.1977 -2.5935
17629WAT     H272322   7.055   5.606   8.305  0.0820 -1.8034  1.9633
17629WAT    EPW72323   7.011   5.657   8.360 -0.1962  0.1369  0.1197
17630WAT      O72324   7.081   1.104   1.159 -0.2774  0.2354 -0.0194
17630WAT     H172325   7.164   1.147   1.139 -0.7827  1.8384  1.1189
17630WAT     H272326   7.106   1.024   1.206  0.6153  1.2392  1.2745
17630WAT    EPW72327   7.095   1.099   1.162 -0.2265  0.5792  0.3014
17631WAT      O72328   2.476   0.005   3.219  0.0342 -0.2255  0.2079
17631WAT     H172329   2.467  -0.064   3.153  0.4742 -1.9714  1.9029
17631WAT     H272330   2.569   0.005   3.241  0.6284  2.8626 -1.6857
17631WAT    EPW72331   2.487  -0.004   3.213  0.1702 -0.0486  0.1816
17632WAT      O72332   6.612   0.877   2.893 -0.0346  0.0539  0.8079
17632WAT     H172333   6.701   0.854   2.922 -0.5499 -1.6775  1.1628
17632WAT     H272334   6.557   0.862   2.970 -1.2806 -3.6419 -0.5545
17632WAT    EPW72335   6.617   0.872   2.907 -0.2668 -0.6619  0.6752
17633WAT      O72336   0.589   9.625   4.045  0.8847  0.1068 -1.0692
17633WAT     H172337   0.561   9.569   3.972  1.5378 -0.3719 -0.9605
17633WAT     H272338   0.602   9.564   4.118 -2.0415  0.8005  0.2096
17633WAT    EPW72339   0.587   9.610   4.045  0.5849  0.1349 -0.8860
17634WAT      O72340   3.381   9.467   1.249 -0.1810  0.4674  0.2629
17634WAT     H172341   3.445   9.400   1.224  0.7289  1.4241 -0.0871
17634WAT     H272342   3.296   9.425   1.238  0.3994 -1.1764  1.7282
17634WAT    EPW72343   3.378   9.453   1.244  0.0155  0.3772  0.4100
17635WAT      O72344   2.351  10.284   3.952  0.6506 -0.3021 -0.4738
17635WAT     H172345   2.375  10.282   4.044  1.3075  0.3517 -0.6189
17635WAT     H272346   2.426  10.244   3.907  1.4862  1.6681 -0.9296
17635WAT    EPW72347   2.364  10.278   3.958  0.8473  0.0439 -0.5531
17636WAT      O72348   4.211   4.658   3.669 -0.5645  0.1378 -0.3438
17636WAT     H172349   4.150   4.584   3.672 -0.1424 -0.1953  1.6756
17636WAT     H272350   4.257   4.654   3.753  1.2452  1.2238 -1.2270
17636WAT    EPW72351   4.209   4.648   3.681 -0.2701  0.2372 -0.1941
17637WAT      O72352   0.917   9.284   1.773 -0.5436  0.0879 -0.7011
17637WAT     H172353   1.001   9.295   1.819  0.0933 -1.7236 -1.3143
17637WAT     H272354   0.863   9.233   1.834 -0.1950 -1.1009 -1.3415
17637WAT    EPW72355   0.921   9.279   1.787 -0.4136 -0.3080 -0.8665
17638WAT      O72356   2.516   9.294   1.040  0.1889  0.0771 -0.1609
17638WAT     H172357   2.609   9.271   1.040  0.0217 -0.6984 -1.1772
17638WAT     H272358   2.503   9.340   0.957 -0.8278 -2.1209 -1.3019
17638WAT    EPW72359   2.527   9.297   1.029  0.0327 -0.3157 -0.4454
17639WAT      O72360   3.434  10.055   4.072 -0.1954 -0.2963  0.8566
17639WAT     H172361   3.365  10.119   4.087  0.4229  0.7640 -0.5974
17639WAT     H272362   3.409   9.979   4.126 -1.8887  0.4698  1.2049
17639WAT    EPW72363   3.422  10.053   4.081 -0.3371 -0.0558  0.7105
17640WAT      O72364   7.975   2.081   4.442 -0.4251  0.2376 -0.9929
17640WAT     H172365   8.061   2.108   4.411 -0.0483  0.5360  0.2582
17640WAT     H272366   7.991   2.046   4.530 -1.5330 -0.0266 -0.8804
17640WAT    EPW72367   7.988   2.080   4.450 -0.5217  0.2421 -0.8130
17641WAT      O72368   1.625  10.334   1.662  0.2591  0.0262  0.1208
17641WAT     H172369   1.594  10.315   1.751 -2.7817 -1.0632 -1.0788
17641WAT     H272370   1.663  10.252   1.632 -0.2314 -0.1005 -0.1598
17641WAT    EPW72371   1.626  10.321   1.670 -0.2066 -0.1340 -0.0744
17642WAT      O72372   9.703   8.927   3.006  0.3677 -0.5617  0.2523
17642WAT     H172373   9.738   9.014   3.026  0.8466 -0.4564 -0.9389
17642WAT     H272374   9.685   8.889   3.091  2.1451 -0.0888  0.8942
17642WAT    EPW72375   9.705   8.934   3.020  0.6647 -0.4859  0.1799
17643WAT      O72376  10.317   8.279   8.129 -0.2499  0.5660 -0.0781
17643WAT     H172377  10.326   8.346   8.197 -0.7115 -0.2138  0.7698
17643WAT     H272378  10.317   8.196   8.177 -0.7464  0.0100 -1.0177
17643WAT    EPW72379  10.318   8.277   8.144 -0.3762  0.3901 -0.0896
17644WAT      O72380  10.008  10.324   1.681 -0.1988  0.8297 -0.4870
17644WAT     H172381  10.096  10.352   1.703 -1.0253  4.0834 -0.8527
17644WAT     H272382   9.974  10.287   1.763  1.0559  0.6947 -0.0101
17644WAT    EPW72383  10.015  10.323   1.695 -0.1421  1.2407 -0.4724
17645WAT      O72384   3.673   7.079   3.674  0.0282 -0.0846 -0.0455
17645WAT     H172385   3.724   7.009   3.715 -2.4465 -3.0037 -1.4682
17645WAT     H272386   3.723   7.158   3.690  2.2830 -1.9095  3.0732
17645WAT    EPW72387   3.686   7.080   3.681 -0.0007 -0.7105  0.1781
17646WAT      O72388   5.916   1.796   1.582  0.3686 -0.7362 -0.0041
17646WAT     H172389   6.000   1.840   1.570 -0.8365  1.2400 -1.7175
17646WAT     H272390   5.940   1.711   1.620  3.1689 -0.4196 -0.7861
17646WAT    EPW72391   5.930   1.790   1.585  0.5789 -0.4339 -0.3332
17647WAT      O72392   2.950   9.591   2.680  0.0509  0.0138 -0.0075
17647WAT     H172393   2.991   9.605   2.595  1.2988 -2.0580  0.1586
17647WAT     H272394   2.887   9.520   2.665 -1.5918  1.3650  0.3034
17647WAT    EPW72395   2.947   9.583   2.667 -0.0013 -0.0806  0.0554
17648WAT      O72396   1.682   6.738   3.251  0.1466 -0.0583 -0.3229
17648WAT     H172397   1.617   6.795   3.210 -2.6580  0.1494  3.7714
17648WAT     H272398   1.658   6.650   3.223 -2.5408 -0.0517  1.4902
17648WAT    EPW72399   1.670   6.734   3.242 -0.5778 -0.0298  0.4563
17649WAT      O72400   6.583   0.356   0.317 -0.0605 -0.0425 -0.5106
17649WAT     H172401   6.501   0.398   0.343  0.1743  0.2431 -0.2312
17649WAT     H272402   6.606   0.300   0.392  0.0525 -0.0463 -0.5479
17649WAT    EPW72403   6.575   0.354   0.330 -0.0148 -0.0053 -0.4786
17650WAT      O72404  10.299   8.383   2.775 -0.2044 -0.6185  0.1835
17650WAT     H172405  10.381   8.333   2.782  0.7343  0.6893 -0.8964
17650WAT     H272406  10.310   8.456   2.836 -0.2035  0.0110 -0.5547
17650WAT    EPW72407  10.311   8.386   2.784 -0.0806 -0.3633 -0.0563
17651WAT      O72408   1.584   8.813   3.899 -0.0642  0.2169 -0.2245
17651WAT     H172409   1.610   8.807   3.991  1.2371 -2.8443 -0.7037
17651WAT     H272410   1.654   8.863   3.858  1.4702 -1.8319 -0.2097
17651WAT    EPW72411   1.596   8.819   3.906  0.3098 -0.4573 -0.2856
17652WAT      O72412  10.311   8.289   1.653 -0.0592 -0.1792  0.0191
17652WAT     H172413  10.231   8.240   1.633 -0.4711 -0.5733  2.3403
17652WAT     H272414  10.280   8.374   1.682  0.6147  1.1774 -2.9060
17652WAT    EPW72415  10.296   8.293   1.654 -0.0248 -0.0520 -0.0605
17653WAT      O72416   1.078   0.721   1.631 -0.5594  0.4216 -0.6792
17653WAT     H172417   1.007   0.681   1.582  0.2705  0.0168 -1.5824
17653WAT     H272418   1.140   0.750   1.564 -0.1394  1.3003  0.0596
17653WAT    EPW72419   1.077   0.720   1.616 -0.3945  0.4841 -0.7009
17654WAT      O72420   4.351   0.348   5.121  0.6025 -0.2763 -0.2456
17654WAT     H172421   4.344   0.321   5.030 -2.6660 -1.4037  0.1914
17654WAT     H272422   4.272   0.312   5.163  0.4840  2.5658  2.3840
17654WAT    EPW72423   4.339   0.340   5.115  0.1559 -0.0502  0.1590
17655WAT      O72424   1.680   8.931   3.313  0.3244 -0.3331  0.5854
17655WAT     H172425   1.731   8.857   3.345 -0.8096  0.0765  3.6877
17655WAT     H272426   1.658   8.981   3.391 -2.9869  0.6829 -0.8063
17655WAT    EPW72427   1.684   8.928   3.327 -0.2618 -0.1454  0.8109
17656WAT      O72428   0.919  10.223   3.554  0.0568  0.6574  0.5673
17656WAT     H172429   1.006  10.186   3.543  0.6402  2.2146 -0.3303
17656WAT     H272430   0.871  10.197   3.476  0.2931  1.3191  0.1992
17656WAT    EPW72431   0.924  10.215   3.543  0.1649  0.9494  0.4003
17657WAT      O72432   8.750   8.644   3.150  0.4083  0.5702  0.0908
17657WAT     H172433   8.784   8.558   3.124  2.2616  0.8700  1.3001
17657WAT     H272434   8.678   8.624   3.209 -0.4427 -0.1190 -1.1411
17657WAT    EPW72435   8.745   8.630   3.154  0.5403  0.5193  0.0877
17658WAT      O72436  10.551   1.546   8.170  0.5918 -0.7039 -0.2803
17658WAT     H172437  10.472   1.600   8.183 -1.7674 -4.1749  1.2842
17658WAT     H272438  10.621   1.595   8.213 -0.9691  1.8409 -0.4268
17658WAT    EPW72439  10.550   1.560   8.177  0.0749 -0.8261 -0.0930
17659WAT      O72440   3.921   9.717   0.879 -0.6430  0.0267  0.5734
17659WAT     H172441   3.873   9.796   0.856  0.4419  0.8717  1.0676
17659WAT     H272442   3.953   9.682   0.796 -1.4975 -0.1591  0.3115
17659WAT    EPW72443   3.919   9.723   0.865 -0.6126  0.1140  0.6040
17660WAT      O72444   0.404   8.453   7.609 -0.8982  0.5963  0.0690
17660WAT     H172445   0.348   8.385   7.572 -0.5259 -0.0051  0.5971
17660WAT     H272446   0.353   8.490   7.681 -1.2738  1.1789 -0.4851
17660WAT    EPW72447   0.390   8.449   7.613 -0.8987  0.5937  0.0653
17661WAT      O72448   5.860   1.194   1.585 -0.0966 -0.7761  0.2347
17661WAT     H172449   5.789   1.255   1.603  0.5536  0.1682 -0.3274
17661WAT     H272450   5.867   1.141   1.664 -0.0100  0.5454  1.1410
17661WAT    EPW72451   5.852   1.195   1.598  0.0002 -0.4773  0.2800
17662WAT      O72452   1.112   9.289   4.315 -0.1436  0.9540  0.4183
17662WAT     H172453   1.024   9.317   4.289 -0.5768 -0.6233  0.0660
17662WAT     H272454   1.097   9.212   4.370  0.9293  2.0563  2.3779
17662WAT    EPW72455   1.098   9.282   4.319 -0.0592  0.8917  0.6301
17663WAT      O72456   4.098   2.711   1.034 -0.2035 -0.8968  0.2711
17663WAT     H172457   4.032   2.772   1.001  0.4730 -0.6206 -0.6114
17663WAT     H272458   4.119   2.655   0.958 -0.0459 -1.5404  0.7746
17663WAT    EPW72459   4.092   2.711   1.019 -0.0935 -0.9453  0.2211
17664WAT      O72460   1.845   6.444   4.448  0.4302 -0.6834  0.3121
17664WAT     H172461   1.891   6.469   4.528  1.2954 -3.0189  0.6511
17664WAT     H272462   1.914   6.438   4.382 -0.2657  1.1563 -0.6513
17664WAT    EPW72463   1.860   6.446   4.449  0.4526 -0.7489  0.2298
17665WAT      O72464   3.348   9.770   0.389  0.1963  0.6121 -0.7952
17665WAT     H172465   3.406   9.811   0.453 -1.4553  2.6972 -0.5204
17665WAT     H272466   3.272   9.742   0.441 -0.9563  1.9048 -1.7115
17665WAT    EPW72467   3.345   9.772   0.404 -0.1736  1.0576 -0.8798
17666WAT      O72468   2.418   8.150   4.443  0.4552  0.3538  0.4176
17666WAT     H172469   2.508   8.122   4.460  1.1895  0.5969 -2.5631
17666WAT     H272470   2.417   8.243   4.465  1.1898  0.5332 -0.2447
17666WAT    EPW72471   2.430   8.159   4.448  0.6489  0.4096 -0.0627
17667WAT      O72472   9.941   7.774   2.090  0.7253 -0.1531 -0.1867
17667WAT     H172473  10.003   7.788   2.019  2.6336 -0.3715  1.3714
17667WAT     H272474   9.952   7.850   2.147 -0.9622  0.1498 -0.1981
17667WAT    EPW72475   9.950   7.786   2.088  0.7544 -0.1421  0.0172
17668WAT      O72476   0.908  10.012   4.104 -0.2414  0.6197 -0.3360
17668WAT     H172477   0.943  10.095   4.071 -0.4573  0.1319 -1.8316
17668WAT     H272478   0.828   9.998   4.055  0.8397 -1.4783 -1.6471
17668WAT    EPW72479   0.902  10.021   4.093 -0.1273  0.2789 -0.7062
17669WAT      O72480   1.151   9.439   3.698  0.7488  0.1543  0.2747
17669WAT     H172481   1.195   9.432   3.613  1.6423  1.6001  0.5684
17669WAT     H272482   1.191   9.371   3.752  0.7372 -0.2634 -0.2440
17669WAT    EPW72483   1.162   9.429   3.694  0.8652  0.2899  0.2450
17670WAT      O72484   1.338   9.199   4.844  0.4142 -0.4791  0.6865
17670WAT     H172485   1.378   9.118   4.876  0.2126 -0.8967 -0.1030
17670WAT     H272486   1.408   9.242   4.795  0.0366 -1.0076 -0.3397
17670WAT    EPW72487   1.353   9.194   4.842  0.3378 -0.6037  0.4470
17671WAT      O72488   4.902   1.067   3.958 -0.0831 -0.3160 -0.8205
17671WAT     H172489   4.984   1.051   3.911  0.2896  1.9284 -1.0294
17671WAT     H272490   4.925   1.054   4.050 -0.2226 -2.3798 -1.0367
17671WAT    EPW72491   4.916   1.063   3.964 -0.0522 -0.2922 -0.8765
17672WAT      O72492   5.680   0.077   2.490  0.2791  1.0055 -0.5062
17672WAT     H172493   5.699   0.138   2.562 -1.4532  3.0848 -1.7173
17672WAT     H272494   5.729   0.112   2.416  0.4239  0.0497 -0.8696
17672WAT    EPW72495   5.689   0.090   2.490  0.0699  1.1537 -0.7139
17673WAT      O72496   9.246   5.826   8.211 -0.4823  0.2338  0.0678
17673WAT     H172497   9.334   5.806   8.178 -1.3486 -0.6711 -1.8458
17673WAT     H272498   9.222   5.907   8.167 -0.7249  0.3407  0.3933
17673WAT    EPW72499   9.255   5.834   8.201 -0.6285  0.1285 -0.1421
17674WAT      O72500   0.526   8.903   3.961 -0.7005 -0.0603 -0.0157
17674WAT     H172501   0.457   8.969   3.968 -0.6136 -0.0056  0.3720
17674WAT     H272502   0.595   8.945   3.911 -1.7473 -0.7926 -2.1705
17674WAT    EPW72503   0.526   8.917   3.956 -0.8271 -0.1497 -0.2488
17675WAT      O72504   8.662   0.838   0.806 -0.1818 -0.1486  0.3870
17675WAT     H172505   8.697   0.925   0.786 -0.1228 -0.5323 -1.3043
17675WAT     H272506   8.671   0.830   0.901  3.7295  0.0904  0.2174
17675WAT    EPW72507   8.668   0.848   0.816  0.3424 -0.1677  0.1415
17676WAT      O72508   6.674   1.348   3.976  0.2478  0.7893  0.6536
17676WAT     H172509   6.745   1.411   3.991  1.7615 -1.1196  2.0551
17676WAT     H272510   6.643   1.327   4.064  1.1385 -1.8210  0.4428
17676WAT    EPW72511   6.680   1.353   3.990  0.5651  0.1932  0.8106
17677WAT      O72512   3.472   9.330   2.046 -0.8648  0.2421 -0.0060
17677WAT     H172513   3.559   9.344   2.008 -0.3926 -0.2932  0.8406
17677WAT     H272514   3.411   9.352   1.975 -0.0784  1.7105 -0.2583
17677WAT    EPW72515   3.475   9.334   2.031 -0.6989  0.3648  0.0724
17678WAT      O72516   1.549   8.508   3.362 -0.1920 -0.5389 -0.0394
17678WAT     H172517   1.544   8.598   3.397 -1.2878 -0.6868  0.2222
17678WAT     H272518   1.523   8.453   3.436 -3.0039 -0.8416 -1.1199
17678WAT    EPW72519   1.545   8.513   3.377 -0.7074 -0.5984 -0.1476
17679WAT      O72520   3.490   0.330   1.685 -0.2007 -0.2202  0.4110
17679WAT     H172521   3.503   0.425   1.688  1.0876 -0.2747 -1.3709
17679WAT     H272522   3.539   0.297   1.760  0.4753  0.4483  0.2854
17679WAT    EPW72523   3.499   0.338   1.695  0.0583 -0.1392  0.1594
17680WAT      O72524   3.020   9.806   0.040  0.2141 -0.9203  0.5939
17680WAT     H172525   3.057   9.729  -0.003 -0.0016 -0.8835  0.3399
17680WAT     H272526   3.035   9.877  -0.022  1.2453 -0.5637  1.2185
17680WAT    EPW72527   3.027   9.805   0.027  0.3214 -0.8681  0.6428
17681WAT      O72528   0.630   9.776   4.811  0.4261  0.0662  0.4159
17681WAT     H172529   0.675   9.821   4.740  0.7898 -1.3059 -0.2554
17681WAT     H272530   0.538   9.776   4.785  0.6903 -1.3899 -0.6381
17681WAT    EPW72531   0.624   9.782   4.798  0.5089 -0.3066  0.1886
17682WAT      O72532   1.165   1.393   1.130 -0.0735  0.0447  0.2109
17682WAT     H172533   1.229   1.454   1.091 -0.4637 -0.5014 -1.3370
17682WAT     H272534   1.156   1.323   1.065 -1.5616 -0.3546  0.8133
17682WAT    EPW72535   1.172   1.392   1.116 -0.3213 -0.0800  0.0862
17683WAT      O72536   4.873   1.388   5.944 -0.2975 -0.1368 -0.0504
17683WAT     H172537   4.790   1.426   5.973 -0.3372 -0.3346  0.0939
17683WAT     H272538   4.940   1.440   5.989 -0.2590  1.5196 -1.8969
17683WAT    EPW72539   4.871   1.400   5.954 -0.2978  0.0556 -0.2749
17684WAT      O72540   0.241   9.217   5.443 -0.0759 -0.0330  0.1381
17684WAT     H172541   0.323   9.193   5.485 -0.5495  0.2772  1.2737
17684WAT     H272542   0.267   9.251   5.357  0.8890 -0.8729  0.0895
17684WAT    EPW72543   0.255   9.218   5.437 -0.0111 -0.1035  0.2813
17685WAT      O72544   4.125   0.183   5.531  0.4981 -0.6574  0.1120
17685WAT     H172545   4.107   0.204   5.439  1.4623 -0.1610  0.0191
17685WAT     H272546   4.084   0.098   5.545  0.6272 -0.8872 -0.8742
17685WAT    EPW72547   4.117   0.175   5.521  0.6425 -0.6223 -0.0303
17686WAT      O72548   4.375   2.754   2.192 -0.4714 -1.3270  0.3646
17686WAT     H172549   4.330   2.837   2.210  0.0524 -0.8338 -0.5673
17686WAT     H272550   4.337   2.693   2.255 -1.6718 -0.6545  0.3247
17686WAT    EPW72551   4.364   2.757   2.203 -0.5605 -1.1731  0.2365
17687WAT      O72552  10.197   9.027   5.177 -0.5898 -0.8155  0.2887
17687WAT     H172553  10.146   8.974   5.115 -0.1581  0.2415 -1.0117
17687WAT     H272554  10.281   8.982   5.183  0.2573  0.3138 -1.8210
17687WAT    EPW72555  10.201   9.014   5.169 -0.4206 -0.5274 -0.1612
17688WAT      O72556  10.401   8.421   0.283 -0.2302  0.0259  0.3810
17688WAT     H172557  10.468   8.359   0.253  0.0461  1.5752 -2.6238
17688WAT     H272558  10.319   8.372   0.273 -0.0785  0.1532 -2.5524
17688WAT    EPW72559  10.399   8.406   0.277 -0.1740  0.2470 -0.4022
17689WAT      O72560   3.824   3.267   6.381  0.1086 -0.8635  0.0275
17689WAT     H172561   3.852   3.266   6.289  0.4886 -4.0298  0.0706
17689WAT     H272562   3.737   3.226   6.380 -0.1705 -0.3297  1.0351
17689WAT    EPW72563   3.816   3.262   6.369  0.1218 -1.2107  0.1659
17690WAT      O72564   2.657   0.681   5.065  0.2473  0.1527  0.6317
17690WAT     H172565   2.594   0.609   5.072 -3.4744  2.9366 -1.0653
17690WAT     H272566   2.668   0.711   5.155 -3.4023  1.4000  0.8258
17690WAT    EPW72567   2.650   0.675   5.078 -0.7250  0.6844  0.4337
17691WAT      O72568   5.415   0.999   4.520  0.1680  0.4698 -0.0208
17691WAT     H172569   5.423   0.969   4.610 -1.6491  1.8161  0.6386
17691WAT     H272570   5.501   1.035   4.499  0.3423  1.0356  1.5372
17691WAT    EPW72571   5.427   1.000   4.529 -0.0486  0.7220  0.2716
17692WAT      O72572  10.969   9.986   3.313 -0.0375  0.7239  0.1580
17692WAT     H172573  10.961   9.916   3.248  0.5796 -0.6323  1.4989
17692WAT     H272574  10.907  10.053   3.283 -1.2789 -0.7532 -0.7170
17692WAT    EPW72575  10.959   9.986   3.300 -0.1202  0.3500  0.2193
17693WAT      O72576   5.272   0.649   0.444 -0.3670 -0.7013 -1.4471
17693WAT     H172577   5.216   0.721   0.414  0.4490  0.1608 -0.9745
17693WAT     H272578   5.347   0.693   0.484 -1.6458 -1.6701  2.5676
17693WAT    EPW72579   5.274   0.665   0.446 -0.4280 -0.7154 -0.8553
17694WAT      O72580   1.901   1.509   8.719  0.2198  0.1287 -0.2298
17694WAT     H172581   1.980   1.458   8.740  0.9367  1.7745  1.3719
17694WAT     H272582   1.879   1.483   8.630  0.1875 -3.3765  0.6488
17694WAT    EPW72583   1.909   1.499   8.710  0.3100 -0.1165  0.0978
17695WAT      O72584   3.445  10.274   2.075 -0.1539 -0.5986 -0.5234
17695WAT     H172585   3.498  10.196   2.062  1.6664  0.2042  1.5667
17695WAT     H272586   3.467  10.304   2.163  0.1295  2.9572 -1.6694
17695WAT    EPW72587   3.455  10.268   2.085  0.1235 -0.0238 -0.3988
17696WAT      O72588  10.914   6.115   5.705  1.0495 -0.1045 -0.4595
17696WAT     H172589  10.928   6.035   5.654  3.0239 -0.5995  0.7376
17696WAT     H272590  10.827   6.105   5.743  1.0915 -1.4697 -0.6979
17696WAT    EPW72591  10.904   6.103   5.703  1.3151 -0.3500 -0.3331
17697WAT      O72592   4.961   2.441   4.203 -0.2123 -0.5154  0.1782
17697WAT     H172593   4.941   2.410   4.114 -0.4362 -0.8075  0.3288
17697WAT     H272594   4.913   2.523   4.211 -1.1991 -1.1092  0.4640
17697WAT    EPW72595   4.952   2.448   4.192 -0.3719 -0.6323  0.2358
17698WAT      O72596   3.321   7.997   1.652 -0.7446  0.2878 -0.0132
17698WAT     H172597   3.323   7.903   1.671  0.8655  0.3605  0.3073
17698WAT     H272598   3.233   8.013   1.620 -0.9095 -1.4213 -0.4932
17698WAT    EPW72599   3.310   7.987   1.651 -0.5537  0.0718 -0.0342
17699WAT      O72600   6.043   9.935   2.893  0.3161  0.3532  0.1206
17699WAT     H172601   6.058   9.987   2.814 -1.3941  2.3592  1.0159
17699WAT     H272602   5.948   9.919   2.893  0.4523 -0.5779  1.2007
17699WAT    EPW72603   6.032   9.940   2.883  0.1087  0.4954  0.3812
17700WAT      O72604   2.083   1.892   1.581  0.9618 -0.3423  0.2449
17700WAT     H172605   2.138   1.964   1.551  1.5010 -0.0641  1.8380
17700WAT     H272606   2.071   1.837   1.503  1.4055  0.9066 -0.7271
17700WAT    EPW72607   2.089   1.894   1.566  1.0915 -0.1408  0.3268
17701WAT      O72608   5.959   0.899   3.225 -0.6715  0.3218 -0.4982
17701WAT     H172609   5.989   0.815   3.188  1.2043  0.4497  0.6214
17701WAT     H272610   5.867   0.903   3.201 -0.9212 -2.2329 -0.3093
17701WAT    EPW72611   5.951   0.888   3.217 -0.4568  0.0017 -0.3254
17702WAT      O72612   5.024   0.722   0.707  0.0012 -0.1024  0.6998
17702WAT     H172613   4.989   0.803   0.744  1.6662  0.8349  0.3677
17702WAT     H272614   5.111   0.714   0.747  1.3109  0.2174 -1.8718
17702WAT    EPW72615   5.031   0.731   0.717  0.3934  0.0634  0.3168
17703WAT      O72616   7.967  10.122   4.069 -0.0127 -0.1877  0.5313
17703WAT     H172617   8.059  10.101   4.059 -0.3012 -1.2430 -0.0938
17703WAT     H272618   7.946  10.178   3.994 -1.2182 -4.8071 -3.0841
17703WAT    EPW72619   7.976  10.127   4.058 -0.2100 -0.9360 -0.0281
17704WAT      O72620   2.219   8.467   5.933  0.4327  0.2675 -0.4739
17704WAT     H172621   2.300   8.417   5.941 -0.2510 -1.2906 -2.3971
17704WAT     H272622   2.178   8.460   6.019 -0.0711 -3.4426 -0.8421
17704WAT    EPW72623   2.224   8.459   5.946  0.2760 -0.4272 -0.7761
17705WAT      O72624   2.752  10.172   0.505  0.2880  0.2207 -0.1503
17705WAT     H172625   2.809  10.132   0.571  0.0282  3.3303  2.2226
17705WAT     H272626   2.664  10.139   0.526  0.6335 -1.5929 -1.3535
17705WAT    EPW72627   2.748  10.162   0.517  0.2992  0.3910  0.0039
17706WAT      O72628   6.041   2.771   1.015 -0.2683  0.3967 -0.1743
17706WAT     H172629   5.970   2.743   0.957 -1.5198  1.1563  0.9379
17706WAT     H272630   6.015   2.859   1.044  1.2712  0.8144  0.0500
17706WAT    EPW72631   6.028   2.779   1.011 -0.2303  0.5522  0.0020
17707WAT      O72632   6.598   4.155   7.229 -0.6259 -0.1493 -0.0493
17707WAT     H172633   6.674   4.140   7.286 -0.3485 -1.5243 -0.7514
17707WAT     H272634   6.608   4.247   7.201 -0.6893  0.5130  1.9408
17707WAT    EPW72635   6.610   4.165   7.233 -0.5975 -0.2434  0.1204
17708WAT      O72636   4.232   0.381   1.143 -0.5057 -0.3199  0.0485
17708WAT     H172637   4.315   0.363   1.100 -1.4647 -1.7946 -1.3135
17708WAT     H272638   4.183   0.299   1.135 -1.4421 -0.0578  2.3853
17708WAT    EPW72639   4.236   0.368   1.136 -0.7553 -0.4798  0.1771
17709WAT      O72640   7.732   1.225   2.464 -0.3944  0.6864 -0.0930
17709WAT     H172641   7.757   1.172   2.389  1.2614 -1.2148  1.6699
17709WAT     H272642   7.764   1.313   2.444 -0.8568  0.4515 -1.9807
17709WAT    EPW72643   7.740   1.230   2.452 -0.2370  0.4047 -0.1096
17710WAT      O72644   6.882   3.006   5.518  0.4654 -0.3761  0.3459
17710WAT     H172645   6.844   3.090   5.544  1.6480  0.1225  0.5259
17710WAT     H272646   6.808   2.955   5.486 -0.3585  0.5310  0.7657
17710WAT    EPW72647   6.867   3.010   5.517  0.5126 -0.1906  0.4249
17711WAT      O72648   2.118   9.975   1.474 -0.0588 -0.2734  0.2377
17711WAT     H172649   2.048  10.036   1.496 -0.2472 -0.4185  0.0440
17711WAT     H272650   2.079   9.915   1.410  0.4199  0.0099 -0.3307
17711WAT    EPW72651   2.104   9.975   1.469 -0.0206 -0.2556  0.1371
17712WAT      O72652   8.865   0.779   1.111  0.9177 -0.6929 -0.5065
17712WAT     H172653   8.925   0.764   1.184 -0.1209 -0.7556  0.3578
17712WAT     H272654   8.877   0.703   1.054  1.7691 -0.6216 -0.4476
17712WAT    EPW72655   8.875   0.767   1.113  0.8931 -0.6917 -0.3848
17713WAT      O72656   8.153   4.112   7.707 -0.0483 -0.2184 -0.0081
17713WAT     H172657   8.060   4.103   7.726 -0.3278 -0.2584 -1.3359
17713WAT     H272658   8.196   4.101   7.792 -1.1966 -0.9495  0.4940
17713WAT    EPW72659   8.146   4.110   7.721 -0.2365 -0.3200 -0.1168
17714WAT      O72660   5.306   8.800   5.159  0.2653 -0.2116  0.9558
17714WAT     H172661   5.264   8.825   5.077  0.6508 -1.3984  0.3724
17714WAT     H272662   5.239   8.748   5.205 -0.3346  1.3240  1.9081
17714WAT    EPW72663   5.291   8.796   5.154  0.2370 -0.1655  1.0047
17715WAT      O72664   5.412   2.513   4.731  0.4587  0.2966 -0.4635
17715WAT     H172665   5.441   2.602   4.710  1.9083 -0.1139 -0.2881
17715WAT     H272666   5.430   2.463   4.652 -0.9617  0.2686 -0.7938
17715WAT    EPW72667   5.418   2.518   4.718  0.4628  0.2388 -0.4840
17716WAT      O72668   0.551   9.321   2.476  0.0429  0.2713  0.3869
17716WAT     H172669   0.644   9.316   2.456 -0.0182 -0.8133  0.2825
17716WAT     H272670   0.544   9.293   2.567 -0.1909  0.1764  0.3428
17716WAT    EPW72671   0.562   9.317   2.485  0.0040  0.1154  0.3672
17717WAT      O72672   1.945   2.306   5.276  0.0431 -0.8469  0.3224
17717WAT     H172673   1.912   2.245   5.209 -0.7784 -0.4370  0.3368
17717WAT     H272674   2.029   2.270   5.302 -1.4792 -3.4232  2.1381
17717WAT    EPW72675   1.951   2.293   5.270 -0.2660 -1.1326  0.5639
17718WAT      O72676   6.495   0.474   4.182  0.1025  0.5846 -0.3916
17718WAT     H172677   6.565   0.437   4.237 -0.0804  0.7086 -0.0706
17718WAT     H272678   6.519   0.566   4.172  0.3677  0.4632 -0.8907
17718WAT    EPW72679   6.507   0.481   4.188  0.1132  0.5850 -0.4151
17719WAT      O72680   9.517   8.497   3.856 -1.1388 -0.2408 -0.7226
17719WAT     H172681   9.513   8.495   3.760  1.0299 -2.0379 -0.8421
17719WAT     H272682   9.583   8.564   3.875 -0.0223 -1.3278 -0.6227
17719WAT    EPW72683   9.525   8.506   3.846 -0.7057 -0.6218 -0.7253
17720WAT      O72684   2.487   9.974   2.236  0.6320  0.2808  0.2274
17720WAT     H172685   2.532   9.948   2.317 -0.5304  1.8414  1.4169
17720WAT     H272686   2.397   9.991   2.263 -0.0203 -0.0582 -1.5988
17720WAT    EPW72687   2.481   9.973   2.250  0.3927  0.4420  0.1435
17721WAT      O72688   0.192   8.600   8.469  0.2668 -0.4785  0.0574
17721WAT     H172689   0.226   8.595   8.380  0.0870 -2.4378  0.0451
17721WAT     H272690   0.256   8.553   8.523  0.8578  1.4833  1.1653
17721WAT    EPW72691   0.205   8.593   8.465  0.3210 -0.4778  0.2017
17722WAT      O72692   2.558   8.384   2.631 -0.2506  0.7092  0.6033
17722WAT     H172693   2.546   8.467   2.585  0.4116  1.6635  2.1065
17722WAT     H272694   2.504   8.392   2.710 -1.0032 -0.7181  0.2712
17722WAT    EPW72695   2.549   8.396   2.635 -0.2624  0.6466  0.7578
17723WAT      O72696   8.892   1.752   2.294  0.2764 -0.1583  0.0362
17723WAT     H172697   8.955   1.813   2.254  1.3467 -1.4655 -0.3279
17723WAT     H272698   8.807   1.792   2.276  0.8958  0.7773 -0.9854
17723WAT    EPW72699   8.889   1.765   2.286  0.4992 -0.2072 -0.1466
17724WAT      O72700   5.525   0.258   1.080 -0.4591 -0.3512 -0.1637
17724WAT     H172701   5.507   0.276   1.173 -0.7068 -0.4275 -0.1966
17724WAT     H272702   5.443   0.280   1.035 -1.5126 -3.4472  0.0111
17724WAT    EPW72703   5.512   0.264   1.086 -0.6309 -0.7696 -0.1450
17725WAT      O72704   6.795   3.126   4.665 -0.1790 -0.6592 -0.4214
17725WAT     H172705   6.728   3.171   4.613 -1.0619 -0.3199  0.9471
17725WAT     H272706   6.746   3.083   4.736  1.1729  1.5030  2.0181
17725WAT    EPW72707   6.780   3.126   4.668 -0.1173 -0.3294  0.0808
17726WAT      O72708   3.172   4.041   3.263  0.1671  0.6112  0.3966
17726WAT     H172709   3.106   4.099   3.226 -1.0285 -1.0104 -0.1313
17726WAT     H272710   3.208   4.089   3.337 -0.0061  2.4312 -0.6596
17726WAT    EPW72711   3.168   4.055   3.268 -0.0134  0.6373  0.1878
17727WAT      O72712   1.677   9.310   6.597  0.5754  0.0959  0.0910
17727WAT     H172713   1.652   9.402   6.605  1.0137  0.1203  1.5437
17727WAT     H272714   1.604   9.268   6.552 -0.6461  0.7534  1.4025
17727WAT    EPW72715   1.664   9.317   6.592  0.4721  0.1860  0.4554
17728WAT      O72716   5.822   1.095   4.055 -0.0003  0.1407 -0.6395
17728WAT     H172717   5.742   1.142   4.079 -1.2893 -1.9139 -0.6644
17728WAT     H272718   5.800   1.051   3.973  0.2687 -2.3361  0.5137
17728WAT    EPW72719   5.808   1.096   4.048 -0.1352 -0.4570 -0.4907
17729WAT      O72720   2.635  10.247   0.153  0.6611  0.4787 -0.1498
17729WAT     H172721   2.581  10.326   0.161  0.9175  0.9064 -2.1284
17729WAT     H272722   2.699  10.256   0.224 -0.7354  0.8431  1.1221
17729WAT    EPW72723   2.636  10.259   0.164  0.5107  0.5832 -0.2430
17730WAT      O72724   9.884   3.951   7.871 -0.6681  0.3621  0.0910
17730WAT     H172725   9.946   3.953   7.798  0.0621 -1.5943  0.6012
17730WAT     H272726   9.804   3.915   7.832 -0.1200 -1.1745  0.3126
17730WAT    EPW72727   9.882   3.946   7.856 -0.4997 -0.0986  0.1872
17731WAT      O72728   4.693   8.709   4.860  0.2502  0.1980  0.1211
17731WAT     H172729   4.675   8.762   4.782  0.7726 -0.7224 -0.6426
17731WAT     H272730   4.627   8.640   4.857  1.3277 -0.8368 -0.4694
17731WAT    EPW72731   4.682   8.707   4.849  0.4611 -0.0596 -0.0575
17732WAT      O72732   5.891   0.732   0.354  0.1319  0.6087  0.3837
17732WAT     H172733   5.955   0.760   0.289 -0.2868 -3.1631 -1.9349
17732WAT     H272734   5.939   0.673   0.412 -0.5105  0.4351  0.7478
17732WAT    EPW72735   5.905   0.728   0.353 -0.0079  0.0883  0.1259
17733WAT      O72736   5.842   1.959   1.333  0.2635  0.0439  0.1187
17733WAT     H172737   5.755   1.921   1.337 -0.6170  2.0089  0.7269
17733WAT     H272738   5.885   1.929   1.413 -0.8714  1.2993  1.2477
17733WAT    EPW72739   5.836   1.950   1.344 -0.0026  0.4687  0.3479
17734WAT      O72740   5.393   2.739   4.099  0.7389  0.5343 -0.1597
17734WAT     H172741   5.324   2.803   4.118 -1.8239 -1.0293 -3.1707
17734WAT     H272742   5.370   2.663   4.151  0.5776  0.2645 -0.6137
17734WAT    EPW72743   5.381   2.737   4.108  0.3796  0.2925 -0.6166
17735WAT      O72744   4.937   1.385   2.581 -0.0712  0.0050 -0.3554
17735WAT     H172745   4.882   1.412   2.654  0.4094  0.6987 -0.2340
17735WAT     H272746   4.999   1.323   2.620 -0.6004 -0.5820 -0.4401
17735WAT    EPW72747   4.938   1.381   2.596 -0.0775  0.0191 -0.3505
17736WAT      O72748   2.360   0.086   2.370 -0.3131 -0.1374 -0.1316
17736WAT     H172749   2.297   0.158   2.376 -0.6797 -0.5374  0.9934
17736WAT     H272750   2.437   0.118   2.417 -1.3447 -1.3482  2.5579
17736WAT    EPW72751   2.362   0.100   2.377 -0.4976 -0.3498  0.3715
17737WAT      O72752   9.770   3.952   8.418  0.7581  0.2849 -0.1409
17737WAT     H172753   9.700   3.933   8.480 -1.2270  1.1338 -1.9838
17737WAT     H272754   9.792   3.867   8.380 -0.6724  0.2293 -0.9034
17737WAT    EPW72755   9.764   3.938   8.421  0.3076  0.3895 -0.4849
17738WAT      O72756   3.635   1.549   6.626 -0.1929  0.3507 -0.0144
17738WAT     H172757   3.650   1.555   6.721  0.3716  1.1711 -0.1465
17738WAT     H272758   3.552   1.593   6.612  0.0468  0.8135  0.0174
17738WAT    EPW72759   3.626   1.555   6.637 -0.0869  0.5199 -0.0277
17739WAT      O72760   4.462   2.584   4.087  0.6816 -0.7121 -0.2725
17739WAT     H172761   4.464   2.530   4.008 -0.0134  0.0905 -0.8630
17739WAT     H272762   4.369   2.596   4.105  0.8027  0.5656 -0.3742
17739WAT    EPW72763   4.450   2.579   4.079  0.6056 -0.4376 -0.3638
17740WAT      O72764   0.520   9.307   4.622 -0.0780  0.4915  0.1046
17740WAT     H172765   0.614   9.291   4.624 -0.3178 -1.0555  0.4071
17740WAT     H272766   0.481   9.220   4.628 -1.5465  1.2101  1.8780
17740WAT    EPW72767   0.527   9.294   4.623 -0.3033  0.3824  0.3786
17741WAT      O72768  10.048   2.851   0.087 -0.1377 -0.2036  0.5174
17741WAT     H172769  10.051   2.945   0.102 -2.3530 -0.3966  3.0317
17741WAT     H272770  10.080   2.839  -0.002  0.5675  2.8640  0.2662
17741WAT    EPW72771  10.052   2.862   0.077 -0.3371  0.1756  0.8159
17742WAT      O72772   0.422  10.319   4.892  0.2122  0.2123 -0.1439
17742WAT     H172773   0.432  10.309   4.987  0.2583 -0.4090 -0.2105
17742WAT     H272774   0.351  10.382   4.882  0.1462  0.2127  0.3067
17742WAT    EPW72775   0.414  10.326   4.904  0.2096  0.1307 -0.0930
17743WAT      O72776   7.474   3.408   4.066 -0.0832  0.1584 -0.3305
17743WAT     H172777   7.514   3.323   4.048  1.7712  1.1831 -1.3449
17743WAT     H272778   7.494   3.461   3.989  1.4102  2.4131  1.4765
17743WAT    EPW72779   7.482   3.404   4.054  0.3583  0.5909 -0.2260
17744WAT      O72780   3.282   0.122   3.552  0.3473  0.4179  0.1168
17744WAT     H172781   3.368   0.102   3.589 -0.2302  0.2483  1.4178
17744WAT     H272782   3.224   0.055   3.589 -0.3130  0.3953 -0.9164
17744WAT    EPW72783   3.286   0.110   3.562  0.1841  0.3926  0.1521
17745WAT      O72784   6.602  10.371   1.182 -0.0044 -0.0842 -0.2055
17745WAT     H172785   6.612  10.463   1.203  0.1262 -0.1983  0.2377
17745WAT     H272786   6.640  10.362   1.095  0.7516  0.1221  0.0955
17745WAT    EPW72787   6.609  10.382   1.173  0.1125 -0.0720 -0.1073
17746WAT      O72788   7.928   3.206   1.685 -0.1890 -0.1316  0.0379
17746WAT     H172789   7.997   3.213   1.752  1.2060 -0.2899 -1.3177
17746WAT     H272790   7.959   3.137   1.627 -2.0077 -0.8901 -0.0706
17746WAT    EPW72791   7.941   3.198   1.686 -0.2446 -0.2524 -0.1552
17747WAT      O72792   4.432   9.962   1.784  0.1364  0.1327 -1.0268
17747WAT     H172793   4.520   9.995   1.765  0.3858 -0.8373 -1.6147
17747WAT     H272794   4.380   9.991   1.709  0.3640 -0.8176 -1.5619
17747WAT    EPW72795   4.437   9.970   1.772  0.1993 -0.1202 -1.1749
17748WAT      O72796   7.286   3.432   0.134  0.5154  0.3402 -0.9590
17748WAT     H172797   7.318   3.500   0.075  1.9513 -0.6554 -1.4011
17748WAT     H272798   7.219   3.475   0.187 -1.0609  1.1871 -3.4981
17748WAT    EPW72799   7.282   3.447   0.133  0.4969  0.3207 -1.3522
17749WAT      O72800   8.850   4.999   6.146 -0.9652 -0.5359  0.1592
17749WAT     H172801   8.800   5.059   6.202 -1.1818  0.7877 -1.3900
17749WAT     H272802   8.847   4.915   6.193 -0.1186  0.7474  2.7152
17749WAT    EPW72803   8.843   4.996   6.160 -0.8817 -0.1922  0.2918
17750WAT      O72804   5.330   2.084   3.735  0.2907 -0.1388 -0.2646
17750WAT     H172805   5.401   2.076   3.799  1.2745 -0.4171 -1.3610
17750WAT     H272806   5.357   2.028   3.662 -0.3612  0.9082 -1.3371
17750WAT    EPW72807   5.343   2.075   3.734  0.3345 -0.0376 -0.5506
17751WAT      O72808   8.562   8.221   1.349 -0.9564 -0.0965 -0.2009
17751WAT     H172809   8.593   8.235   1.439 -0.6964  3.1720 -0.6764
17751WAT     H272810   8.635   8.248   1.294 -1.8419 -0.0682 -1.4049
17751WAT    EPW72811   8.576   8.226   1.354 -1.0390  0.3386 -0.4224
17752WAT      O72812   2.923   2.480   3.462  0.5920  0.0148  0.3455
17752WAT     H172813   2.929   2.448   3.371 -0.7011  0.0474  0.2383
17752WAT     H272814   3.009   2.459   3.499  2.1593  2.3327 -1.6120
17752WAT    EPW72815   2.935   2.473   3.455  0.6282  0.3247  0.0734
17753WAT      O72816   8.686   1.145   5.601  0.3440 -0.3826 -1.0408
17753WAT     H172817   8.617   1.090   5.563  0.6288 -0.4384 -1.4882
17753WAT     H272818   8.640   1.224   5.631 -0.6298 -2.1543  2.5994
17753WAT    EPW72819   8.671   1.148   5.600  0.2527 -0.6237 -0.6196
17754WAT      O72820   3.498   7.796   3.323  0.2204 -0.4072  0.1189
17754WAT     H172821   3.457   7.726   3.374 -0.4854 -0.1560 -0.0872
17754WAT     H272822   3.425   7.840   3.280  0.6976  0.1705 -0.1177
17754WAT    EPW72823   3.483   7.792   3.324  0.1904 -0.2978  0.0607
17755WAT      O72824   3.460   9.531   2.232  0.0495 -0.1301  0.0001
17755WAT     H172825   3.442   9.454   2.179 -0.7825  0.8567 -1.2104
17755WAT     H272826   3.381   9.586   2.222  0.2419  0.4804  1.5514
17755WAT    EPW72827   3.447   9.528   2.224 -0.0348  0.0806  0.0452
17756WAT      O72828   2.449   9.504   2.645 -0.0488  0.0864  0.0829
17756WAT     H172829   2.354   9.519   2.641 -0.4065 -1.4136  1.5273
17756WAT     H272830   2.459   9.412   2.623  0.8529 -0.2508  1.7663
17756WAT    EPW72831   2.437   9.494   2.642  0.0230 -0.1559  0.4953
17757WAT      O72832  10.216   5.910   5.731 -0.7698  0.2674  0.7703
17757WAT     H172833  10.154   5.955   5.674  0.3402  1.4745  0.4765
17757WAT     H272834  10.230   5.971   5.804 -0.2995 -0.2026  1.0816
17757WAT    EPW72835  10.209   5.924   5.733 -0.5612  0.3648  0.7722
17758WAT      O72836   7.167   2.687   3.447 -0.3310 -0.7322  0.3792
17758WAT     H172837   7.219   2.608   3.433  1.2396  0.3338  0.0594
17758WAT     H272838   7.126   2.674   3.533  2.5680 -0.4865  1.8995
17758WAT    EPW72839   7.168   2.675   3.456  0.2587 -0.5592  0.5376
17759WAT      O72840   6.395  10.055   3.710 -0.4089 -0.2668  0.0478
17759WAT     H172841   6.382  10.145   3.679 -1.5340 -0.4621 -0.0879
17759WAT     H272842   6.312  10.033   3.754  0.3282 -0.7882  1.2234
17759WAT    EPW72843   6.382  10.064   3.712 -0.4599 -0.3614  0.1851
17760WAT      O72844   9.276   6.324   6.892  0.1192 -0.2111  0.5420
17760WAT     H172845   9.270   6.418   6.910  1.1809  0.0661 -0.4570
17760WAT     H272846   9.359   6.297   6.931 -0.8419 -1.0695  2.0906
17760WAT    EPW72847   9.286   6.333   6.899  0.1326 -0.2875  0.6146
17761WAT      O72848   3.559   1.617   5.201 -0.2860 -0.0747  0.4472
17761WAT     H172849   3.647   1.584   5.219  0.3455  0.7077 -1.0096
17761WAT     H272850   3.564   1.650   5.112 -1.3765  2.2062  1.1490
17761WAT    EPW72851   3.571   1.617   5.192 -0.3464  0.3294  0.3476
17762WAT      O72852   5.718   2.845   0.571 -0.6774 -0.0780  0.0598
17762WAT     H172853   5.722   2.776   0.505 -1.5752  0.0919 -0.1917
17762WAT     H272854   5.632   2.834   0.611 -0.9845  1.1206 -0.2394
17762WAT    EPW72855   5.707   2.834   0.568 -0.8361  0.1024 -0.0128
17763WAT      O72856   4.785   0.676   1.157  0.1173  0.4482 -0.7023
17763WAT     H172857   4.855   0.646   1.100  0.5996 -0.6749  0.4146
17763WAT     H272858   4.732   0.734   1.103 -0.0024 -1.3200 -2.5627
17763WAT    EPW72859   4.787   0.680   1.142  0.1652  0.0668 -0.8004
17764WAT      O72860   2.825   4.122   4.234  0.2689  0.5843  0.7580
17764WAT     H172861   2.742   4.156   4.202  0.2292 -0.5519 -0.4406
17764WAT     H272862   2.801   4.045   4.285  0.5950  0.0252  0.0819
17764WAT    EPW72863   2.811   4.116   4.237  0.3067  0.3607  0.5107
17765WAT      O72864   9.761   2.480   2.957  0.0295  0.4638  0.5744
17765WAT     H172865   9.774   2.536   3.033 -0.6588 -0.6377  1.5377
17765WAT     H272866   9.718   2.536   2.893 -0.8586  1.0034  1.5977
17765WAT    EPW72867   9.757   2.495   2.959 -0.1788  0.3897  0.8364
17766WAT      O72868   4.750   2.096   2.377  0.1890 -0.2041  0.2426
17766WAT     H172869   4.777   2.087   2.285  0.9201 -0.8103  0.5114
17766WAT     H272870   4.775   2.013   2.417 -0.3244 -0.0237  0.9473
17766WAT    EPW72871   4.757   2.084   2.370  0.2177 -0.2604  0.3709
17767WAT      O72872   5.452   1.926   3.533 -0.3244  0.0018 -0.1066
17767WAT     H172873   5.509   1.864   3.578  1.0520  1.3294  0.0842
17767WAT     H272874   5.509   2.001   3.514 -1.2368  0.1650 -2.6384
17767WAT    EPW72875   5.467   1.928   3.536 -0.2635  0.1984 -0.4153
17768WAT      O72876   4.328   9.812   2.717 -0.8322  0.2275 -0.1331
17768WAT     H172877   4.341   9.770   2.802 -0.7463  2.9492  1.3089
17768WAT     H272878   4.405   9.866   2.706  1.5456 -3.3803 -4.2812
17768WAT    EPW72879   4.339   9.813   2.727 -0.5069  0.1106 -0.4900
17769WAT      O72880   5.481   0.976   0.702  0.2615  0.0357  0.0286
17769WAT     H172881   5.508   0.903   0.647 -3.3986 -2.1642  0.8100
17769WAT     H272882   5.561   1.003   0.747  2.0398 -2.6141 -1.3056
17769WAT    EPW72883   5.495   0.970   0.701  0.0131 -0.6039 -0.0443
17770WAT      O72884   6.097   3.020   3.213  0.0339 -0.0149 -0.3760
17770WAT     H172885   6.073   3.108   3.184  1.2712 -0.3210 -2.5442
17770WAT     H272886   6.192   3.016   3.199 -0.2093 -2.1699 -1.8006
17770WAT    EPW72887   6.107   3.031   3.208  0.1650 -0.3395 -0.8498
17771WAT      O72888   7.425   0.524   3.467 -0.4049 -0.0334 -0.3339
17771WAT     H172889   7.425   0.428   3.468  0.4200 -0.0447 -0.7398
17771WAT     H272890   7.515   0.548   3.444 -0.6438  0.8398 -0.3922
17771WAT    EPW72891   7.437   0.515   3.464 -0.3276  0.0803 -0.3951
17772WAT      O72892   1.379   9.138   2.192 -0.3610 -0.1574 -0.1220
17772WAT     H172893   1.343   9.161   2.106 -1.3990 -1.7796 -0.1561
17772WAT     H272894   1.337   9.200   2.251 -0.7368  0.0589 -0.6015
17772WAT    EPW72895   1.369   9.149   2.188 -0.5475 -0.3428 -0.1898
17773WAT      O72896   3.112   3.296   8.311  0.2482  0.4395  0.0374
17773WAT     H172897   3.026   3.302   8.269  1.0162  1.5815 -1.4687
17773WAT     H272898   3.139   3.387   8.325  1.6254  0.1503 -0.4859
17773WAT    EPW72899   3.105   3.309   8.307  0.5312  0.5518 -0.2303
17774WAT      O72900   5.477   1.401   2.169  0.9691 -0.3015  0.9557
17774WAT     H172901   5.453   1.481   2.122 -1.6410 -1.3574  0.3584
17774WAT     H272902   5.543   1.360   2.112 -1.0709 -0.8323 -1.1687
17774WAT    EPW72903   5.483   1.406   2.155  0.3560 -0.5108  0.5968
17775WAT      O72904   0.936   8.450   3.073 -0.8226  0.2911 -1.1919
17775WAT     H172905   1.024   8.450   3.110 -0.8921  1.4792 -0.9673
17775WAT     H272906   0.897   8.369   3.105 -0.0838  0.1442 -0.6100
17775WAT    EPW72907   0.943   8.439   3.082 -0.7343  0.4282 -1.0855
17776WAT      O72908   9.077   1.431   3.770  0.0644 -0.3238  0.2995
17776WAT     H172909   9.044   1.364   3.830 -3.5101  2.2376  1.5127
17776WAT     H272910   9.080   1.511   3.822  0.1716  1.3058 -2.0420
17776WAT    EPW72911   9.073   1.433   3.784 -0.3929  0.2289  0.1506
17777WAT      O72912   8.902   1.145   2.309 -0.1499 -0.2154  0.0929
17777WAT     H172913   8.876   1.054   2.299 -0.7478  0.0049 -0.3969
17777WAT     H272914   8.931   1.171   2.222 -0.2350  0.1393  0.1684
17777WAT    EPW72915   8.903   1.137   2.296 -0.2398 -0.1396  0.0383
17778WAT      O72916   5.592   2.500   2.128  0.5857 -0.0626  0.0326
17778WAT     H172917   5.536   2.571   2.161  2.1717  1.0828  0.3661
17778WAT     H272918   5.557   2.421   2.169  0.3266  0.8648  1.6719
17778WAT    EPW72919   5.580   2.499   2.137  0.7606  0.2106  0.2928
17779WAT      O72920   2.535   4.156   2.758  0.1989 -0.1915 -0.7342
17779WAT     H172921   2.505   4.247   2.752  1.3020  0.1994 -0.5646
17779WAT     H272922   2.603   4.149   2.691  0.8559 -0.5813 -0.0457
17779WAT    EPW72923   2.540   4.167   2.749  0.4311 -0.1912 -0.6210
17780WAT      O72924   1.022  10.236   4.316  0.2945 -0.2715 -0.4671
17780WAT     H172925   1.052  10.207   4.402 -0.6672  1.0169  0.3515
17780WAT     H272926   0.927  10.223   4.318 -0.7145  4.7800  0.9595
17780WAT    EPW72927   1.014  10.231   4.328  0.0346  0.5646 -0.1709
17781WAT      O72928   3.206   8.554   1.054  0.5837 -0.4247  0.4913
17781WAT     H172929   3.180   8.512   1.136 -0.1471  1.3765  1.2372
17781WAT     H272930   3.124   8.590   1.019  1.0023 -0.5916 -0.7120
17781WAT    EPW72931   3.191   8.553   1.060  0.5425 -0.2084  0.4310
17782WAT      O72932   3.810   9.611   0.050  0.0219 -0.1954  0.6677
17782WAT     H172933   3.860   9.678   0.004  1.7331 -2.5544 -1.1414
17782WAT     H272934   3.768   9.658   0.122 -1.7477  3.5050 -2.3811
17782WAT    EPW72935   3.811   9.626   0.053  0.0142 -0.0186  0.0270
17783WAT      O72936   5.394   0.242   1.645  0.1444  0.3815 -0.8494
17783WAT     H172937   5.337   0.291   1.705 -1.0546 -1.5876 -0.2619
17783WAT     H272938   5.361   0.152   1.650  2.3871 -0.5597 -1.6536
17783WAT    EPW72939   5.382   0.236   1.654  0.2823 -0.0024 -0.8779
17784WAT      O72940   5.979   5.302   0.483  0.2457  0.2745  0.5193
17784WAT     H172941   5.967   5.286   0.389  0.3700 -0.3806  0.6116
17784WAT     H272942   5.999   5.216   0.520 -2.8728 -0.0859  1.6513
17784WAT    EPW72943   5.980   5.289   0.475 -0.1493  0.1402  0.6808
17785WAT      O72944   4.955   2.619   1.150 -0.7106 -0.3408  0.5526
17785WAT     H172945   4.906   2.629   1.068  1.1925 -0.0751 -0.6188
17785WAT     H272946   4.996   2.705   1.164  1.3633 -1.1877  0.1233
17785WAT    EPW72947   4.954   2.632   1.141 -0.1860 -0.4174  0.3415
17786WAT      O72948   0.883   9.594   4.403  0.2368  0.4078 -0.0701
17786WAT     H172949   0.965   9.575   4.449  0.8350 -3.5113 -2.3319
17786WAT     H272950   0.910   9.653   4.332  0.3603  1.8960  1.1606
17786WAT    EPW72951   0.898   9.600   4.399  0.3319  0.0873 -0.2062
17787WAT      O72952   5.175   0.436   1.864 -0.3652 -0.6741 -0.3678
17787WAT     H172953   5.085   0.456   1.889 -0.1025  0.0141  0.0828
17787WAT     H272954   5.210   0.387   1.939  0.2318  0.8385  0.4044
17787WAT    EPW72955   5.168   0.432   1.877 -0.2515 -0.3838 -0.2065
17788WAT      O72956   3.915   3.486   3.340  0.8752 -0.5817  0.0671
17788WAT     H172957   3.890   3.431   3.414  0.6303 -1.3503 -0.5680
17788WAT     H272958   4.005   3.460   3.320  0.8819 -0.5017 -0.0084
17788WAT    EPW72959   3.924   3.476   3.347  0.8438 -0.6726 -0.0266
17789WAT      O72960   3.087   1.293   3.283  0.8144 -0.4623  0.0187
17789WAT     H172961   3.067   1.339   3.365 -2.6869 -0.2875 -0.7848
17789WAT     H272962   3.087   1.362   3.217 -0.2055 -1.0607 -0.6235
17789WAT    EPW72963   3.085   1.308   3.285  0.2182 -0.5182 -0.1720
17790WAT      O72964   1.012   1.054   0.804 -0.7857 -0.0602 -0.7509
17790WAT     H172965   0.926   1.022   0.777 -0.2600 -1.1875 -1.1167
17790WAT     H272966   0.992   1.120   0.871 -1.9290 -0.4965 -0.6352
17790WAT    EPW72967   0.998   1.058   0.810 -0.8671 -0.2664 -0.7839
17791WAT      O72968   3.852   3.534   2.827  0.4957 -0.4498 -0.2812
17791WAT     H172969   3.831   3.513   2.736  1.9755  0.1619 -0.8005
17791WAT     H272970   3.792   3.606   2.849  1.1691  0.4726 -1.3233
17791WAT    EPW72971   3.841   3.541   2.818  0.7797 -0.2476 -0.4872
17792WAT      O72972   8.606   2.920   0.982 -0.8371  0.5547  0.4986
17792WAT     H172973   8.528   2.887   1.025 -0.0707  0.1237  1.6009
17792WAT     H272974   8.651   2.842   0.950 -0.1424  0.6783  1.1479
17792WAT    EPW72975   8.602   2.906   0.983 -0.6447  0.5141  0.7296
17793WAT      O72976   6.795   4.491   5.691 -0.2591 -0.6475  0.7379
17793WAT     H172977   6.792   4.497   5.596  2.1902 -1.9830  0.5001
17793WAT     H272978   6.707   4.516   5.719 -0.4269  2.0037 -1.7032
17793WAT    EPW72979   6.783   4.495   5.682  0.0417 -0.4742  0.3843
17794WAT      O72980   5.910   0.061   0.408 -0.1053  0.2839  0.2762
17794WAT     H172981   5.919  -0.028   0.441 -0.6767  0.1121 -0.0265
17794WAT     H272982   5.897   0.115   0.487 -2.7601 -0.2847  0.3134
17794WAT    EPW72983   5.910   0.057   0.423 -0.5307  0.1862  0.2412
17795WAT      O72984   7.569   2.770   4.359  0.1968  0.0848  0.2788
17795WAT     H172985   7.536   2.831   4.293  0.4503  0.3921  0.4364
17795WAT     H272986   7.632   2.716   4.311 -0.3092 -0.3219  0.0446
17795WAT    EPW72987   7.573   2.771   4.344  0.1636  0.0716  0.2687
17796WAT      O72988   0.085   9.176   0.492  0.6201  0.3546 -0.2857
17796WAT     H172989   0.158   9.161   0.553  2.4956  0.4843 -2.3677
17796WAT     H272990   0.052   9.263   0.516  0.9946  0.2158  0.8247
17796WAT    EPW72991   0.090   9.185   0.504  0.9168  0.3538 -0.4139
17797WAT      O72992   6.947   2.460   4.464 -0.4174  0.2850 -0.8899
17797WAT     H172993   6.860   2.449   4.504  0.4057 -2.4131  0.3984
17797WAT     H272994   6.928   2.489   4.375 -2.7003 -0.5958 -0.7772
17797WAT    EPW72995   6.933   2.462   4.457 -0.6099 -0.1870 -0.7050
17798WAT      O72996   3.327   8.067   0.609  0.8284  0.0890  0.3908
17798WAT     H172997   3.379   8.071   0.689  1.5584 -0.7182 -0.0304
17798WAT     H272998   3.370   8.000   0.555  0.0132  0.2073 -0.4371
17798WAT    EPW72999   3.339   8.059   0.612  0.8172 -0.0014  0.2261
17799WAT      O73000   3.117   4.721   0.478 -0.4879 -0.1497 -1.1013
17799WAT     H173001   3.054   4.679   0.537  1.0339 -1.3098 -0.2105
17799WAT     H273002   3.175   4.650   0.452  2.2769  1.3294  0.5442
17799WAT    EPW73003   3.116   4.706   0.483  0.0774 -0.1075 -0.7667
17800WAT      O73004   1.911   1.208   3.011 -0.3355  0.0120  0.2782
17800WAT     H173005   1.959   1.126   3.000  1.7081  1.0782  0.7546
17800WAT     H273006   1.820   1.185   2.993 -0.2654 -2.9350  2.8743
17800WAT    EPW73007   1.906   1.194   3.007 -0.0567 -0.2362  0.6834
17801WAT      O73008   2.468  10.325   4.202  0.9464  0.2652 -0.6611
17801WAT     H173009   2.410  10.362   4.269  0.6929  0.7757 -1.1485
17801WAT     H273010   2.516  10.256   4.247  1.8820  1.5780  0.4611
17801WAT    EPW73011   2.467  10.321   4.216  1.0364  0.5054 -0.5774
17802WAT      O73012   6.709   1.767   2.161 -0.5581  0.7474 -0.2876
17802WAT     H173013   6.679   1.847   2.204 -1.7268 -1.2926  3.0822
17802WAT     H273014   6.804   1.770   2.171 -0.3462  2.6209 -2.1526
17802WAT    EPW73015   6.718   1.778   2.168 -0.6843  0.7254 -0.0892
17803WAT      O73016   8.025   2.231   5.537 -0.0775 -0.1377 -0.6109
17803WAT     H173017   7.939   2.273   5.540  0.4042  0.8301  0.5076
17803WAT     H273018   8.074   2.279   5.471 -0.5076 -0.9624 -1.5567
17803WAT    EPW73019   8.020   2.243   5.529 -0.0710 -0.1189 -0.5879
17804WAT      O73020   7.764   0.705   4.633  0.3459 -0.3541 -0.0023
17804WAT     H173021   7.684   0.657   4.653 -0.2117  0.3495 -0.5015
17804WAT     H273022   7.800   0.661   4.556 -0.7108  0.6266 -1.0940
17804WAT    EPW73023   7.759   0.693   4.625  0.1330 -0.1320 -0.2122
17805WAT      O73024   5.435   4.047   2.710 -0.5929  0.1438 -0.1974
17805WAT     H173025   5.438   4.138   2.678 -1.0819 -0.0087 -0.7064
17805WAT     H273026   5.352   4.013   2.675 -1.3176  0.0590  1.5217
17805WAT    EPW73027   5.425   4.055   2.701 -0.7529  0.1123 -0.0378
17806WAT      O73028   7.939   4.027   3.322  0.2482 -0.2017  0.0360
17806WAT     H173029   7.891   3.945   3.309  0.3246 -0.2613  0.1304
17806WAT     H273030   7.891   4.092   3.270  0.0216 -0.2450  0.1931
17806WAT    EPW73031   7.927   4.025   3.313  0.2286 -0.2155  0.0691
17807WAT      O73032   7.164   9.925   2.176  0.8299 -0.0327  0.2348
17807WAT     H173033   7.083   9.965   2.207  1.1894  0.6158  0.3553
17807WAT     H273034   7.216   9.912   2.256  0.9903 -0.1107  0.1175
17807WAT    EPW73035   7.160   9.928   2.191  0.8986  0.0424  0.2351
17808WAT      O73036   6.397   0.479   2.553  0.1792  0.4778  0.5095
17808WAT     H173037   6.377   0.541   2.482  2.6732  0.1064 -0.6468
17808WAT     H273038   6.438   0.533   2.621  0.9647  0.3553  0.1474
17808WAT    EPW73039   6.400   0.495   2.553  0.6118  0.4127  0.3092
17809WAT      O73040   9.557   6.827   6.914  0.4337 -0.2164  0.4059
17809WAT     H173041   9.635   6.868   6.951 -0.3170  1.0366  0.6789
17809WAT     H273042   9.515   6.896   6.863 -0.4465 -0.8873  0.1799
17809WAT    EPW73043   9.562   6.841   6.912  0.2193 -0.1395  0.4122
17810WAT      O73044   8.488   2.639   0.397  0.3878  0.5378  0.2327
17810WAT     H173045   8.579   2.614   0.417  0.8696  0.9367 -1.3023
17810WAT     H273046   8.466   2.587   0.320 -1.5900 -1.3854  1.9661
17810WAT    EPW73047   8.497   2.629   0.390  0.1907  0.3369  0.2588
17811WAT      O73048   8.176   3.225   1.823 -0.0961 -0.2346  0.1854
17811WAT     H173049   8.247   3.179   1.779  0.5483  1.5073 -0.6876
17811WAT     H273050   8.219   3.295   1.872 -1.0991 -0.1066  0.9168
17811WAT    EPW73051   8.191   3.228   1.824 -0.1431  0.0119  0.1668
17812WAT      O73052   7.312   1.409   3.995 -0.0394 -0.0768  0.0921
17812WAT     H173053   7.240   1.424   3.933  0.4748 -0.9658 -0.7502
17812WAT     H273054   7.315   1.488   4.047 -0.5673  0.6624 -0.9574
17812WAT    EPW73055   7.303   1.421   3.993 -0.0412 -0.0966 -0.1575
17813WAT      O73056   9.599   1.056   3.693 -0.1969 -0.0838 -0.3862
17813WAT     H173057   9.686   1.077   3.728 -0.8568  0.9142  0.7030
17813WAT     H273058   9.549   1.137   3.702 -1.1398 -0.5236 -1.3852
17813WAT    EPW73059   9.604   1.069   3.699 -0.4082 -0.0101 -0.3743
17814WAT      O73060   5.310   1.367   5.405  0.3956 -0.3497  0.5873
17814WAT     H173061   5.280   1.393   5.317  1.2365 -0.0918  0.3722
17814WAT     H273062   5.365   1.290   5.389 -0.8104 -1.3564  1.0690
17814WAT    EPW73063   5.313   1.360   5.391  0.3471 -0.4485  0.6223
17815WAT      O73064   0.367   9.983   4.221  0.3749 -0.0556  0.9434
17815WAT     H173065   0.285  10.023   4.250 -0.4289  0.5002 -1.7738
17815WAT     H273066   0.430  10.054   4.222  0.1886  0.1149  0.7530
17815WAT    EPW73067   0.364   9.997   4.225  0.2443  0.0401  0.5598
17816WAT      O73068   2.323   6.412   4.366  0.5746  0.0353 -0.1343
17816WAT     H173069   2.354   6.326   4.394 -0.6877 -1.0462 -1.9097
17816WAT     H273070   2.304   6.458   4.448 -2.6692 -2.8797  0.9908
17816WAT    EPW73071   2.324   6.407   4.381 -0.0198 -0.4919 -0.2201
17817WAT      O73072   4.632   2.744   1.725 -0.1501 -0.0482  0.2017
17817WAT     H173073   4.560   2.771   1.667 -0.1123 -2.3144 -1.0171
17817WAT     H273074   4.707   2.795   1.695 -0.8670  1.2261  0.4839
17817WAT    EPW73075   4.632   2.754   1.714 -0.2398 -0.1791  0.0782
17818WAT      O73076   6.381   2.458   4.358  0.1851 -0.0583 -0.0352
17818WAT     H173077   6.386   2.548   4.392 -1.3954  0.1472 -0.3028
17818WAT     H273078   6.319   2.464   4.285  1.0380 -1.1326 -0.8813
17818WAT    EPW73079   6.374   2.471   4.353  0.0889 -0.1729 -0.1822
17819WAT      O73080   7.974   3.091   6.698 -0.5271  0.7721  0.0317
17819WAT     H173081   7.898   3.052   6.653 -0.5288 -0.4503  1.0553
17819WAT     H273082   7.936   3.146   6.766 -0.5038  0.2807  0.4456
17819WAT    EPW73083   7.959   3.093   6.701 -0.5243  0.5461  0.2213
17820WAT      O73084   3.893   0.838   2.875  0.6476  0.2194  0.1307
17820WAT     H173085   3.909   0.912   2.817  0.2582  0.4557  0.3206
17820WAT     H273086   3.900   0.874   2.963  2.8934 -0.4764  0.2912
17820WAT    EPW73087   3.896   0.852   2.879  0.8924  0.1588  0.1769
17821WAT      O73088   2.600   9.921   3.138 -0.2329  0.0680 -0.1078
17821WAT     H173089   2.664   9.983   3.104  0.6436 -0.1046  1.1753
17821WAT     H273090   2.516   9.968   3.132  0.2602  0.9681 -0.1585
17821WAT    EPW73091   2.597   9.935   3.133 -0.0523  0.1645  0.0547
17822WAT      O73092   5.995   0.792   1.338 -0.5418  0.1240  0.2482
17822WAT     H173093   6.066   0.850   1.365 -0.6726  0.2989  0.2198
17822WAT     H273094   6.033   0.705   1.341 -0.8831  0.0065  2.1453
17822WAT    EPW73095   6.010   0.788   1.342 -0.6042  0.1316  0.4947
17823WAT      O73096   5.313   1.276   3.822  0.0175  0.0451  0.1737
17823WAT     H173097   5.357   1.221   3.887  0.1110  0.1873  0.2316
17823WAT     H273098   5.385   1.310   3.768 -0.0724 -0.1861 -0.0917
17823WAT    EPW73099   5.329   1.273   3.823  0.0176  0.0334  0.1463
17824WAT      O73100   2.138   0.747   2.153  0.0083 -0.1134  0.0343
17824WAT     H173101   2.087   0.674   2.189  0.9127 -1.7453 -1.7813
17824WAT     H273102   2.140   0.729   2.059  0.6538  2.0438 -0.3994
17824WAT    EPW73103   2.131   0.735   2.145  0.2127 -0.0442 -0.2624
17825WAT      O73104   5.757   3.411   2.201 -0.1697 -0.0951  0.3930
17825WAT     H173105   5.765   3.330   2.150  0.6486  0.2744 -0.0891
17825WAT     H273106   5.710   3.385   2.280 -1.1738 -0.7541 -0.3925
17825WAT    EPW73107   5.752   3.397   2.205 -0.1943 -0.1333  0.2258
17826WAT      O73108   0.704   7.339   4.049 -0.1499 -0.2324 -1.0569
17826WAT     H173109   0.786   7.289   4.044  0.7288  1.0585 -0.3007
17826WAT     H273110   0.635   7.273   4.044  0.9599 -1.5232 -0.1849
17826WAT    EPW73111   0.706   7.323   4.048  0.1123 -0.2322 -0.8419
17827WAT      O73112   3.738   0.096   2.219  0.5648 -0.2465 -0.4413
17827WAT     H173113   3.724   0.091   2.314  0.6685  0.0781 -0.4084
17827WAT     H273114   3.768   0.185   2.204 -1.3563  0.3478 -1.0270
17827WAT    EPW73115   3.740   0.107   2.230  0.3251 -0.1253 -0.5140
17828WAT      O73116   6.256   3.296   2.148  0.0652  0.4589 -0.2503
17828WAT     H173117   6.303   3.299   2.065 -0.6658 -1.3084 -0.7775
17828WAT     H273118   6.231   3.387   2.165  1.6404  1.0950 -1.1063
17828WAT    EPW73119   6.259   3.308   2.139  0.1769  0.3097 -0.4328
17829WAT      O73120   9.568   3.240   8.704  0.5368  0.0458  0.0043
17829WAT     H173121   9.614   3.161   8.678  2.3290  0.3289  2.0073
17829WAT     H273122   9.486   3.209   8.741 -0.0413 -0.6259 -1.7510
17829WAT    EPW73123   9.563   3.226   8.706  0.6971 -0.0054  0.0367
17830WAT      O73124   6.351   1.628   3.549  0.4654 -0.1215  0.4841
17830WAT     H173125   6.410   1.619   3.623  0.2370  0.3482  0.7333
17830WAT     H273126   6.378   1.709   3.506 -0.9093  0.9114  1.4682
17830WAT    EPW73127   6.362   1.638   3.553  0.2542  0.0767  0.6467
17831WAT      O73128   7.781   0.390   1.324  0.0346 -0.2641 -0.2153
17831WAT     H173129   7.763   0.311   1.273  0.1638 -0.8429  0.6287
17831WAT     H273130   7.846   0.363   1.388 -0.2174  0.4323  0.3454
17831WAT    EPW73131   7.787   0.376   1.326  0.0184 -0.2486 -0.0300
17832WAT      O73132   8.144   3.859   3.178 -0.0137  0.4617  0.6943
17832WAT     H173133   8.153   3.954   3.190  2.7622  0.1290  2.0661
17832WAT     H273134   8.072   3.834   3.237 -0.2618  1.5864  0.8928
17832WAT    EPW73135   8.135   3.868   3.188  0.3195  0.5661  0.9015
17833WAT      O73136   5.140   3.157   1.796  0.6599 -0.0824  0.0267
17833WAT     H173137   5.218   3.102   1.801  0.6112 -0.2683 -1.0016
17833WAT     H273138   5.070   3.103   1.833  0.7757 -0.3886 -0.1965
17833WAT    EPW73139   5.141   3.143   1.802  0.6688 -0.1475 -0.1384
17834WAT      O73140   4.853   0.934   5.594 -0.5783  0.5943  0.3324
17834WAT     H173141   4.779   0.993   5.609  2.4612  4.2827  2.8045
17834WAT     H273142   4.852   0.876   5.670 -0.5181  1.2507  0.8545
17834WAT    EPW73143   4.843   0.934   5.606 -0.1695  1.1673  0.7272
17835WAT      O73144   3.685  10.123   4.155 -0.0577  0.0575  0.3962
17835WAT     H173145   3.743  10.146   4.082  1.0167  3.9742  2.2558
17835WAT     H273146   3.601  10.103   4.113  1.0326  0.1148 -1.9853
17835WAT    EPW73147   3.681  10.123   4.140  0.2278  0.5817  0.3271
17836WAT      O73148  10.877   9.254   0.292 -0.4510  0.7144 -0.6538
17836WAT     H173149  10.913   9.220   0.374  2.1135  0.4663 -1.7899
17836WAT     H273150  10.815   9.321   0.319  0.8283  1.1292  1.5118
17836WAT    EPW73151  10.874   9.258   0.307  0.0558  0.7367 -0.5180
17837WAT      O73152   8.055   0.822   1.630  0.4743 -0.3121  0.2805
17837WAT     H173153   8.026   0.841   1.720  1.0985  2.5445 -0.0193
17837WAT     H273154   8.151   0.823   1.635  0.5139 -0.4871 -0.3575
17837WAT    EPW73155   8.064   0.825   1.643  0.5622  0.0416  0.1568
17838WAT      O73156   7.280   0.678   2.865  0.4295  0.4726  0.4937
17838WAT     H173157   7.204   0.622   2.851 -0.4198  1.4618  0.9614
17838WAT     H273158   7.355   0.620   2.855 -0.4324 -0.9346  1.7800
17838WAT    EPW73159   7.280   0.663   2.862  0.2041  0.4175  0.7249
17839WAT      O73160   9.298   2.815   4.340  0.1542  0.2497 -0.2120
17839WAT     H173161   9.223   2.836   4.284 -0.6571  0.9849  1.1014
17839WAT     H273162   9.267   2.831   4.429  2.5488  2.9204  0.3089
17839WAT    EPW73163   9.284   2.820   4.344  0.3633  0.6988  0.0300
17840WAT      O73164   5.886   3.050   2.899 -0.1090  0.6523 -0.7673
17840WAT     H173165   5.885   3.058   2.995 -1.9410 -0.0335 -0.6972
17840WAT     H273166   5.924   3.133   2.869 -2.2592  2.2073  0.4797
17840WAT    EPW73167   5.891   3.062   2.908 -0.6344  0.7670 -0.5937
17841WAT      O73168   6.796   0.554   4.902  0.2444  0.0025 -0.3877
17841WAT     H173169   6.865   0.609   4.865  0.0329  0.7113  0.2641
17841WAT     H273170   6.810   0.468   4.861  1.4718  0.1501 -0.3158
17841WAT    EPW73171   6.807   0.550   4.892  0.3784  0.1155 -0.2923
17842WAT      O73172   6.712   3.074   4.937  0.1471 -0.0030 -0.0776
17842WAT     H173173   6.693   3.167   4.953 -0.0114 -0.3625  1.9692
17842WAT     H273174   6.632   3.041   4.896  0.3459  0.8162 -1.1967
17842WAT    EPW73175   6.699   3.082   4.933  0.1523  0.0577  0.0446
17843WAT      O73176   9.804   6.687   8.657  0.2371 -0.2005  0.7190
17843WAT     H173177   9.834   6.668   8.746  1.5930  0.0509  0.3373
17843WAT     H273178   9.838   6.614   8.605 -0.5906 -0.3711  0.4097
17843WAT    EPW73179   9.812   6.675   8.662  0.3071 -0.1898  0.6270
17844WAT      O73180   0.554   7.611   8.709 -0.0047 -0.1841  0.0959
17844WAT     H173181   0.498   7.541   8.674  0.3319  0.4939 -1.8975
17844WAT     H273182   0.619   7.626   8.641  0.7537  1.1551  1.0761
17844WAT    EPW73183   0.555   7.603   8.696  0.1397  0.0818 -0.0381
17845WAT      O73184   6.602   2.652   1.029  0.5720 -0.0372  0.3918
17845WAT     H173185   6.521   2.680   1.072  0.3725 -0.8802  0.5862
17845WAT     H273186   6.600   2.694   0.944 -0.6399 -0.9481 -0.0508
17845WAT    EPW73187   6.591   2.662   1.024  0.3858 -0.2686  0.3591
17846WAT      O73188   6.284   0.413   3.766  0.3913  0.3347 -0.1175
17846WAT     H173189   6.280   0.480   3.698  1.6111  0.9356  0.3805
17846WAT     H273190   6.290   0.462   3.848  1.3572 -0.3714  0.2461
17846WAT    EPW73191   6.284   0.428   3.767  0.6795  0.3208 -0.0038
17847WAT      O73192   8.101   0.471   0.389 -0.5483 -0.5048  0.3560
17847WAT     H173193   8.152   0.530   0.333  1.5062 -0.4312  2.1541
17847WAT     H273194   8.014   0.511   0.394 -0.2580  0.4184 -1.3087
17847WAT    EPW73195   8.096   0.484   0.382 -0.2389 -0.3733  0.3736
17848WAT      O73196   5.798   3.590   1.293  0.4861 -0.0547 -1.0096
17848WAT     H173197   5.806   3.670   1.241 -0.0525 -0.1539 -1.2567
17848WAT     H273198   5.745   3.532   1.238 -1.0844  0.2407  0.1143
17848WAT    EPW73199   5.792   3.593   1.279  0.2079 -0.0290 -0.8939
17849WAT      O73200   9.973   9.204   5.184  0.4019 -0.3482 -0.2970
17849WAT     H173201  10.056   9.165   5.157  2.6053  2.7014  1.4170
17849WAT     H273202   9.998   9.278   5.239 -3.5188  0.3260  0.9151
17849WAT    EPW73203   9.987   9.209   5.188  0.1760  0.1431  0.0889
17850WAT      O73204   7.615   0.213   2.992  0.6703 -0.0295  0.8404
17850WAT     H173205   7.614   0.301   3.030  3.6902 -0.1997  1.6535
17850WAT     H273206   7.615   0.155   3.068  0.9443 -0.6230  0.3958
17850WAT    EPW73207   7.615   0.217   3.007  1.1051 -0.1303  0.8889
17851WAT      O73208  10.264   1.982   3.205  0.0086  0.1240 -0.4335
17851WAT     H173209  10.308   2.018   3.282  2.1516  0.8029 -1.8839
17851WAT     H273210  10.179   1.952   3.237  0.7869  0.4932  2.1421
17851WAT    EPW73211  10.258   1.983   3.219  0.3939  0.2623 -0.2851
17852WAT      O73212   7.542   0.158   4.599  0.0365  0.4751  0.0608
17852WAT     H173213   7.528   0.174   4.506  0.8659 -2.2044 -0.6301
17852WAT     H273214   7.624   0.108   4.603 -0.0010  0.4699  2.2202
17852WAT    EPW73215   7.551   0.153   4.588  0.1409  0.1210  0.2546
17853WAT      O73216   8.476   1.321   4.491  0.4715 -0.1623  0.3261
17853WAT     H173217   8.472   1.226   4.497  1.0553 -0.1338  1.4253
17853WAT     H273218   8.440   1.341   4.405 -0.8471 -1.2974  0.5754
17853WAT    EPW73219   8.471   1.311   4.480  0.3743 -0.3083  0.5038
17854WAT      O73220   3.787   9.324   1.293  0.7383  0.2668 -0.6219
17854WAT     H173221   3.726   9.342   1.365 -0.4109  0.4244 -1.5996
17854WAT     H273222   3.789   9.405   1.243  1.1239 -0.0082 -1.0564
17854WAT    EPW73223   3.779   9.337   1.296  0.6377  0.2518 -0.8082
17855WAT      O73224   6.561   0.859   3.915  0.1075 -0.0890  0.4320
17855WAT     H173225   6.598   0.773   3.896 -1.7938 -1.5926  2.9875
17855WAT     H273226   6.467   0.849   3.901  0.0441  2.2148 -1.2044
17855WAT    EPW73227   6.554   0.846   3.911 -0.1514  0.0165  0.5534
17856WAT      O73228   4.959   9.485   2.870  0.8248  0.4754 -0.4304
17856WAT     H173229   4.913   9.414   2.825  2.3244 -2.0598  1.7207
17856WAT     H273230   4.890   9.533   2.916 -0.2665  0.7048 -2.2116
17856WAT    EPW73231   4.944   9.482   2.870  0.8788  0.1717 -0.3816
17857WAT      O73232   2.223   9.779   0.449 -0.3383  0.5419  0.2519
17857WAT     H173233   2.168   9.721   0.397  0.4666 -0.3387  0.3442
17857WAT     H273234   2.166   9.811   0.519 -0.6004 -0.7818  0.6715
17857WAT    EPW73235   2.209   9.775   0.452 -0.2667  0.2508  0.3194
17858WAT      O73236   3.276   3.462   3.061  0.2824 -0.0542  0.0224
17858WAT     H173237   3.263   3.552   3.092 -3.3920 -0.0799 -1.0069
17858WAT     H273238   3.308   3.415   3.138  1.2753  1.8810  0.8736
17858WAT    EPW73239   3.279   3.468   3.076 -0.0713  0.1976 -0.0011
17859WAT      O73240   3.517   1.600   1.444 -0.0703 -0.3327  0.1605
17859WAT     H173241   3.443   1.656   1.469 -0.9509 -0.7955 -1.3219
17859WAT     H273242   3.515   1.599   1.349  2.0810 -0.0898  0.0778
17859WAT    EPW73243   3.507   1.607   1.435  0.0973 -0.3617 -0.0459
17860WAT      O73244   6.652   0.611   1.270  0.1337 -0.0627 -0.4046
17860WAT     H173245   6.650   0.650   1.357  0.8742 -0.7258 -0.0768
17860WAT     H273246   6.711   0.666   1.220 -0.5190  0.4894 -0.5812
17860WAT    EPW73247   6.659   0.623   1.275  0.1454 -0.0773 -0.3846
17861WAT      O73248   7.436   1.814   1.854  0.0071 -0.2381 -0.3168
17861WAT     H173249   7.354   1.765   1.849  0.5270 -1.2170  0.4773
17861WAT     H273250   7.500   1.759   1.807  0.1343  0.7108 -1.2974
17861WAT    EPW73251   7.434   1.800   1.847  0.0927 -0.2421 -0.3414
17862WAT      O73252   0.798   9.262   4.577  0.6759  0.1394  0.3737
17862WAT     H173253   0.848   9.197   4.527  1.8516  0.5124  1.0583
17862WAT     H273254   0.861   9.302   4.637 -0.6057  0.0231  1.8692
17862WAT    EPW73255   0.813   9.259   4.578  0.6619  0.1736  0.6614
17863WAT      O73256   2.726   4.086   3.004  0.6390  0.1317 -0.0139
17863WAT     H173257   2.637   4.112   2.979  0.1160 -0.3831  1.2155
17863WAT     H273258   2.756   4.031   2.932  0.3954  1.1960 -0.9593
17863WAT    EPW73259   2.718   4.082   2.991  0.5379  0.2041  0.0236
17864WAT      O73260   9.280   5.910   7.571 -0.0338 -0.0033 -0.2023
17864WAT     H173261   9.353   5.871   7.620 -0.3542  0.5806  0.7715
17864WAT     H273262   9.289   5.874   7.483  0.5479 -1.1055  0.2831
17864WAT    EPW73263   9.291   5.900   7.566  0.0005 -0.0715 -0.0098
17865WAT      O73264   1.058   7.739   3.449 -0.7311  0.3723 -0.5044
17865WAT     H173265   1.027   7.649   3.455  0.3520 -0.0131 -0.3659
17865WAT     H273266   1.151   7.733   3.471 -1.2175  1.9226  2.5528
17865WAT    EPW73267   1.066   7.726   3.453 -0.6525  0.5257 -0.0830
17866WAT      O73268   3.682  10.024   3.622 -0.1331 -0.0604  0.5026
17866WAT     H173269   3.764  10.002   3.667 -0.3839 -0.2165  0.8844
17866WAT     H273270   3.698   9.998   3.531  0.2742 -0.0029  0.5546
17866WAT    EPW73271   3.695  10.018   3.616 -0.1125 -0.0730  0.5598
17867WAT      O73272   6.172   1.462   2.507  0.3733  0.4501  0.0093
17867WAT     H173273   6.129   1.405   2.571  0.4430  1.8499  1.3669
17867WAT     H273274   6.260   1.426   2.498  0.4828  0.4261  1.0053
17867WAT    EPW73275   6.178   1.450   2.514  0.3972  0.6315  0.3196
17868WAT      O73276   4.981   2.076   6.140  0.2957 -0.2145 -0.9976
17868WAT     H173277   5.046   2.023   6.094  0.2485 -0.3314 -0.9322
17868WAT     H273278   4.999   2.166   6.114  2.1241  0.0814  0.9693
17868WAT    EPW73279   4.992   2.081   6.131  0.5310 -0.1910 -0.7296
17869WAT      O73280  10.849   5.155   8.312 -0.4375 -0.2366 -0.2997
17869WAT     H173281  10.808   5.161   8.226  0.7397 -1.4367 -0.9754
17869WAT     H273282  10.778   5.126   8.370 -1.5975  1.9271 -0.5152
17869WAT    EPW73283  10.834   5.152   8.308 -0.4349 -0.1094 -0.4168
17870WAT      O73284   6.175   2.636   1.949 -0.4365  0.3452  0.0790
17870WAT     H173285   6.108   2.601   1.890 -0.6327 -0.3405  0.6885
17870WAT     H273286   6.233   2.561   1.965 -0.5445  0.4516  0.9702
17870WAT    EPW73287   6.174   2.622   1.943 -0.4768  0.2688  0.2770
17871WAT      O73288   3.208  10.327   5.120  0.3236  0.1576  0.1523
17871WAT     H173289   3.242  10.254   5.173 -0.7544  0.3691  1.1725
17871WAT     H273290   3.213  10.403   5.178  0.5011  0.6948 -0.5623
17871WAT    EPW73291   3.213  10.327   5.135  0.2047  0.2561  0.1926
17872WAT      O73292   4.834   0.587   2.895 -0.4617  0.4135 -0.1888
17872WAT     H173293   4.885   0.584   2.814 -0.2852  1.8850 -0.1632
17872WAT     H273294   4.828   0.680   2.916 -0.1305  0.0515  1.7298
17872WAT    EPW73295   4.840   0.599   2.887 -0.3946  0.5598  0.0675
17873WAT      O73296   0.861   8.713   3.947 -0.0923  1.2495  0.4042
17873WAT     H173297   0.770   8.684   3.943 -1.0586  3.6165  2.6296
17873WAT     H273298   0.909   8.638   3.982 -0.9254 -0.3922 -1.7812
17873WAT    EPW73299   0.856   8.699   3.951 -0.3297  1.3452  0.4095
17874WAT      O73300   7.177   0.052   2.634 -0.1434 -0.0550 -0.4479
17874WAT     H173301   7.114  -0.015   2.660  0.3544  0.2286  1.7161
17874WAT     H273302   7.244   0.048   2.702  0.1601  2.2974 -0.5512
17874WAT    EPW73303   7.178   0.042   2.647 -0.0377  0.2926 -0.1761
17875WAT      O73304   4.396   3.886   3.728  0.4083 -0.2390  0.5568
17875WAT     H173305   4.329   3.854   3.668 -0.0667 -0.1261  1.0289
17875WAT     H273306   4.348   3.929   3.798  0.8817 -1.6011  1.7745
17875WAT    EPW73307   4.381   3.888   3.729  0.4082 -0.4038  0.7796
17876WAT      O73308   5.508   0.301   2.638 -0.1005 -0.2420 -0.0360
17876WAT     H173309   5.542   0.306   2.727  0.1505  0.5837 -0.1701
17876WAT     H273310   5.473   0.388   2.621 -1.3369 -0.7681 -0.2829
17876WAT    EPW73311   5.508   0.313   2.647 -0.2303 -0.2025 -0.0862
17877WAT      O73312   5.805   1.211   4.324  0.2680 -0.5266  0.0683
17877WAT     H173313   5.872   1.261   4.369 -0.4347  0.0784  0.4644
17877WAT     H273314   5.853   1.150   4.269  1.1421 -0.4836  0.7614
17877WAT    EPW73315   5.820   1.209   4.323  0.2904 -0.4411  0.2120
17878WAT      O73316   2.836   1.308   0.089  0.6187 -0.0512 -0.1201
17878WAT     H173317   2.773   1.240   0.113 -2.3331  1.9384 -1.5473
17878WAT     H273318   2.894   1.266   0.026  0.7478 -1.9746  1.2089
17878WAT    EPW73319   2.835   1.293   0.084  0.2465 -0.0424 -0.1330
17879WAT      O73320   6.269   1.921   4.667 -0.4350  0.0539 -0.1123
17879WAT     H173321   6.175   1.933   4.651 -0.8281 -4.1278 -2.3570
17879WAT     H273322   6.306   1.909   4.580  2.4154  2.1239  0.6818
17879WAT    EPW73323   6.261   1.921   4.654 -0.1109 -0.2246 -0.3037
17880WAT      O73324   7.602   7.542   8.296  0.3079  0.2253 -0.5147
17880WAT     H173325   7.682   7.500   8.264  1.0988  1.2099  0.0931
17880WAT     H273326   7.634   7.607   8.359 -1.0060  0.3637  0.0295
17880WAT    EPW73327   7.617   7.545   8.300  0.2389  0.3736 -0.3633
17881WAT      O73328   8.152   1.590   5.577 -0.4183 -0.5108 -0.0036
17881WAT     H173329   8.241   1.621   5.589  0.2879 -1.1778 -2.7586
17881WAT     H273330   8.131   1.612   5.486 -2.8441 -0.9258  0.3872
17881WAT    EPW73331   8.161   1.597   5.567 -0.6452 -0.6535 -0.3154
17882WAT      O73332   0.173   6.464   4.248 -0.0291 -0.0121  0.2966
17882WAT     H173333   0.222   6.397   4.295 -1.8284  0.5504  3.2429
17882WAT     H273334   0.223   6.545   4.262 -1.4479  0.5312  3.1667
17882WAT    EPW73335   0.186   6.466   4.256 -0.4535  0.1340  1.0636
17883WAT      O73336   7.976   0.687   1.321 -0.0842 -0.0183 -0.8067
17883WAT     H173337   7.926   0.768   1.337 -1.8707 -0.4294 -3.6198
17883WAT     H273338   8.018   0.669   1.405 -2.7569  1.7159  1.0970
17883WAT    EPW73339   7.975   0.696   1.335 -0.6723  0.1562 -0.9267
17884WAT      O73340   9.472   8.092   4.209 -0.2469 -0.8004 -0.8589
17884WAT     H173341   9.481   8.003   4.244  1.8256 -0.0357  0.7368
17884WAT     H273342   9.475   8.149   4.286  1.4295  0.7829 -1.9937
17884WAT    EPW73343   9.474   8.088   4.223  0.2475 -0.4907 -0.7980
17885WAT      O73344  10.975   3.241   6.798 -0.6341  0.2406  0.2467
17885WAT     H173345  11.044   3.284   6.846 -0.3951 -0.5637  0.6439
17885WAT     H273346  10.983   3.148   6.821 -1.0727 -0.0397 -0.6412
17885WAT    EPW73347  10.985   3.234   6.807 -0.6604  0.0974  0.1822
17886WAT      O73348   1.490   9.063   0.506  0.0699 -0.0038 -0.3857
17886WAT     H173349   1.553   8.991   0.512 -0.3666 -0.4942 -1.5165
17886WAT     H273350   1.477   9.091   0.597  0.2522 -1.3472  0.0751
17886WAT    EPW73351   1.497   9.057   0.519  0.0364 -0.2456 -0.4741
17887WAT      O73352   3.410   1.885   1.851  0.3038 -0.5746 -0.0827
17887WAT     H173353   3.482   1.880   1.788 -0.6334  1.2499 -1.3726
17887WAT     H273354   3.436   1.954   1.913 -0.1105 -0.2286 -0.2850
17887WAT    EPW73355   3.423   1.893   1.851  0.1254 -0.2884 -0.2795
17888WAT      O73356   3.870   1.673   3.109 -0.3490  0.5796  0.2333
17888WAT     H173357   3.951   1.633   3.076  0.4338  1.0386  1.5546
17888WAT     H273358   3.822   1.698   3.030  2.1277  2.9875 -0.6483
17888WAT    EPW73359   3.874   1.671   3.094  0.0809  0.9578  0.2912
17889WAT      O73360   9.391   7.164   7.159  0.7241  0.0851  0.4327
17889WAT     H173361   9.385   7.069   7.167 -1.9292  0.2134  0.6563
17889WAT     H273362   9.347   7.184   7.076 -1.7538  1.3039  1.9305
17889WAT    EPW73363   9.385   7.154   7.149  0.0472  0.2627  0.6597
17890WAT      O73364  10.395   1.611   4.852  0.0669 -0.2825  0.0217
17890WAT     H173365  10.426   1.672   4.785  0.5785 -0.1002  0.4168
17890WAT     H273366  10.299   1.612   4.842 -0.3163  3.2862  2.2343
17890WAT    EPW73367  10.386   1.619   4.842  0.0834  0.2122  0.3655
17891WAT      O73368   1.771   4.138   1.967 -0.6176  0.0108 -0.2367
17891WAT     H173369   1.679   4.138   1.944 -0.3965  0.4840 -1.1430
17891WAT     H273370   1.774   4.097   2.054 -1.7496  0.7199  0.1511
17891WAT    EPW73371   1.760   4.132   1.975 -0.7378  0.1667 -0.3051
17892WAT      O73372   2.404   4.853   1.766  0.4128 -0.1190  0.8095
17892WAT     H173373   2.402   4.872   1.672  0.9522  0.2820  0.8718
17892WAT     H273374   2.439   4.933   1.805 -2.6862  0.9421  1.6923
17892WAT    EPW73375   2.408   4.866   1.759  0.0751  0.0739  0.9342
17893WAT      O73376   6.226   1.971   3.809  0.0245 -0.5122 -0.1018
17893WAT     H173377   6.298   1.966   3.872 -0.0187  5.1402  0.9369
17893WAT     H273378   6.151   1.998   3.861 -0.6641  1.7462 -2.0835
17893WAT    EPW73379   6.226   1.974   3.824 -0.0720  0.5311 -0.2261
17894WAT      O73380   8.630   0.634   5.762  0.8189  0.1510  0.1371
17894WAT     H173381   8.663   0.722   5.742 -1.6132  1.6760  2.1685
17894WAT     H273382   8.560   0.620   5.697  0.6057  0.1115  0.3766
17894WAT    EPW73383   8.625   0.644   5.750  0.4706  0.3469  0.4363
17895WAT      O73384   2.209   7.646   0.078 -0.1171  0.0205 -0.1317
17895WAT     H173385   2.160   7.713   0.125  1.1963 -1.0021  2.9400
17895WAT     H273386   2.255   7.693   0.008 -3.1603  1.4071 -1.3730
17895WAT    EPW73387   2.208   7.661   0.075 -0.3452  0.0687  0.1098
17896WAT      O73388   1.596   9.056   4.773  0.1192  0.3497  0.7681
17896WAT     H173389   1.643   9.048   4.857  0.9535  1.3047  0.4103
17896WAT     H273390   1.543   8.976   4.768  1.6704 -0.7723  1.2231
17896WAT    EPW73391   1.596   9.044   4.784  0.4337  0.3271  0.7811
17897WAT      O73392   7.994   2.021   0.510 -0.3694  0.7204  0.3594
17897WAT     H173393   7.948   1.947   0.472 -0.6402  1.2941 -0.4568
17897WAT     H273394   8.023   1.990   0.596  0.3510 -0.6422 -0.3413
17897WAT    EPW73395   7.992   2.007   0.516 -0.3099  0.6164  0.1594
17898WAT      O73396  10.164   0.098   0.730  0.3348  0.2878 -0.0945
17898WAT     H173397  10.160   0.008   0.698  0.6115  0.7351 -1.4184
17898WAT     H273398  10.078   0.112   0.771 -0.6955  0.2086 -2.0967
17898WAT    EPW73399  10.152   0.088   0.731  0.2360  0.3364 -0.5332
17899WAT      O73400   4.944   0.362   6.533  0.4169  0.3196 -0.1020
17899WAT     H173401   4.931   0.376   6.440 -0.0378 -0.6950 -0.2064
17899WAT     H273402   4.917   0.271   6.548  2.4219 -0.2173  0.6418
17899WAT    EPW73403   4.939   0.352   6.523  0.6213  0.1150 -0.0179
17900WAT      O73404   3.511   0.877   1.944 -1.0832 -0.2804 -0.1398
17900WAT     H173405   3.502   0.808   2.010 -1.5029  0.7726  0.9550
17900WAT     H273406   3.512   0.831   1.860 -2.4732 -1.5338  0.4977
17900WAT    EPW73407   3.510   0.862   1.942 -1.3219 -0.3068  0.0887
17901WAT      O73408   8.751   0.690   0.462  0.0916  0.6102 -0.1903
17901WAT     H173409   8.736   0.670   0.555 -1.2473 -4.1108 -1.1290
17901WAT     H273410   8.843   0.666   0.447  0.6216  2.3858  0.0495
17901WAT    EPW73411   8.761   0.684   0.472 -0.0153  0.2217 -0.2825
17902WAT      O73412   4.357   2.564   4.412 -0.3181  0.2586  0.1651
17902WAT     H173413   4.411   2.485   4.418  0.0036  0.4935  0.4788
17902WAT     H273414   4.325   2.566   4.322  2.8599  1.8223 -1.0901
17902WAT    EPW73415   4.360   2.554   4.401  0.1433  0.4958  0.0410
17903WAT      O73416   8.997   5.311   5.719 -0.4577  0.7764  0.4181
17903WAT     H173417   8.952   5.247   5.774 -2.0135  1.9243  0.5557
17903WAT     H273418   9.083   5.273   5.703 -1.7866 -2.0610 -0.7072
17903WAT    EPW73419   9.002   5.297   5.724 -0.8383  0.5536  0.2878
17904WAT      O73420   7.205   2.710   2.732 -0.3595 -0.4446  0.1120
17904WAT     H173421   7.213   2.783   2.670  2.1089  0.8971  1.8170
17904WAT     H273422   7.251   2.638   2.690  1.5958  0.5537  0.3842
17904WAT    EPW73423   7.212   2.710   2.718  0.2239 -0.1359  0.3728
17905WAT      O73424   7.724   4.155   4.824  0.4217  0.2041 -0.5195
17905WAT     H173425   7.732   4.250   4.818 -1.5544  1.0920  4.8748
17905WAT     H273426   7.629   4.138   4.822  0.5120 -1.0834  1.8689
17905WAT    EPW73427   7.712   4.165   4.823  0.1731  0.1516  0.5069
17906WAT      O73428   4.433   5.201   3.854 -0.7576 -0.0212  0.7052
17906WAT     H173429   4.366   5.181   3.788 -1.9957  0.2079  1.8631
17906WAT     H273430   4.483   5.120   3.861 -1.6406 -0.5875  0.6594
17906WAT    EPW73431   4.431   5.187   3.846 -1.0374 -0.0658  0.8520
17907WAT      O73432   8.740   1.984   0.196  0.6397 -0.1245  0.8144
17907WAT     H173433   8.670   1.921   0.207 -0.7426  1.4023  1.1431
17907WAT     H273434   8.742   2.032   0.279  3.5312 -1.4711  1.6761
17907WAT    EPW73435   8.731   1.982   0.209  0.8388 -0.1007  0.9714
17908WAT      O73436   7.329   5.738   0.809  0.4502 -0.0419 -0.1226
17908WAT     H173437   7.339   5.782   0.893  1.9047  3.1405 -1.8009
17908WAT     H273438   7.418   5.712   0.784  0.1680 -0.1024 -1.1144
17908WAT    EPW73439   7.342   5.740   0.817  0.6049  0.3695 -0.4748
17909WAT      O73440   7.133   2.909   4.220  0.2534  0.0639 -0.4990
17909WAT     H173441   7.135   2.891   4.126 -1.0875 -0.3409 -0.4782
17909WAT     H273442   7.089   2.994   4.226 -2.5669 -1.3043 -0.1379
17909WAT    EPW73443   7.127   2.918   4.208 -0.2956 -0.1700 -0.4485
17910WAT      O73444   5.019   7.204   2.425  0.2131 -0.2287  0.1789
17910WAT     H173445   5.067   7.283   2.451 -1.3602  0.6930  0.3573
17910WAT     H273446   4.945   7.236   2.374  0.4536 -1.7130 -1.1790
17910WAT    EPW73447   5.016   7.218   2.422  0.0374 -0.3028  0.0235
17911WAT      O73448   2.410  10.220   1.045 -0.0377  0.5797  0.2456
17911WAT     H173449   2.503  10.245   1.043 -0.2644  1.5425 -1.8441
17911WAT     H273450   2.402  10.161   1.119  2.3434  0.1275  0.2154
17911WAT    EPW73451   2.421  10.216   1.054  0.2465  0.6471 -0.0339
17912WAT      O73452   7.203   1.364   2.723  0.2269 -0.3068 -0.1906
17912WAT     H173453   7.171   1.304   2.657 -0.0163  0.9967 -1.3026
17912WAT     H273454   7.292   1.385   2.695  0.4629 -0.4678  0.4214
17912WAT    EPW73455   7.211   1.359   2.711  0.2263 -0.1560 -0.2567
17913WAT      O73456   9.876   2.513   2.622  0.5504 -0.1191 -0.3189
17913WAT     H173457   9.857   2.457   2.546  1.3102 -0.0079 -0.5957
17913WAT     H273458   9.930   2.458   2.678 -0.8931 -0.5902  0.6792
17913WAT    EPW73459   9.881   2.498   2.619  0.4601 -0.1665 -0.2238
17914WAT      O73460   5.881   4.002   4.856 -0.2493 -0.0988  0.3410
17914WAT     H173461   5.893   4.071   4.791 -1.9244  0.6220  0.7392
17914WAT     H273462   5.799   3.958   4.830 -0.6222 -0.1981  1.5909
17914WAT    EPW73463   5.872   4.005   4.844 -0.5195 -0.0169  0.5584
17915WAT      O73464   6.828   1.125   1.478  0.5065  0.0080 -0.5314
17915WAT     H173465   6.804   1.081   1.560  0.3557 -1.1262 -1.1584
17915WAT     H273466   6.786   1.211   1.484 -1.2069 -0.7979 -0.2703
17915WAT    EPW73467   6.819   1.130   1.489  0.2604 -0.2478 -0.5796
17916WAT      O73468   5.626   2.634   0.882 -0.1114  0.2228 -0.5735
17916WAT     H173469   5.615   2.679   0.966  0.5989  2.1172 -1.4135
17916WAT     H273470   5.715   2.658   0.854 -0.2666 -0.4996 -1.7700
17916WAT    EPW73471   5.637   2.643   0.889 -0.0381  0.3775 -0.8421
17917WAT      O73472   0.290   3.337   0.060  0.3222  0.1312 -0.0136
17917WAT     H173473   0.257   3.271  -0.001  2.2140 -0.7495 -0.1698
17917WAT     H273474   0.230   3.412   0.050 -2.9077 -2.0522  1.3628
17917WAT    EPW73475   0.278   3.338   0.050  0.1457 -0.2730  0.1473
17918WAT      O73476   9.085   5.752   3.348  1.0003  0.4171 -0.2903
17918WAT     H173477   9.157   5.815   3.345  1.3725  0.2568  2.6143
17918WAT     H273478   9.122   5.677   3.396  0.1217 -1.4523 -2.3595
17918WAT    EPW73479   9.099   5.750   3.354  0.9336  0.1495 -0.1802
17919WAT      O73480   7.853   2.221   4.114  0.3186  0.1935  0.5952
17919WAT     H173481   7.797   2.202   4.189 -0.8350  1.9621  0.2272
17919WAT     H273482   7.819   2.165   4.044  0.9269 -0.9029  1.1308
17919WAT    EPW73483   7.841   2.211   4.115  0.2465  0.2822  0.6175
17920WAT      O73484   7.667   5.537   2.104 -0.1780  0.4770 -0.2404
17920WAT     H173485   7.670   5.502   2.015 -0.5286 -1.6766  0.5347
17920WAT     H273486   7.696   5.464   2.159 -0.1657  1.6979  1.4374
17920WAT    EPW73487   7.671   5.523   2.099 -0.2227  0.3541  0.0831
17921WAT      O73488   7.166   3.473   1.369 -0.1681  0.3633  0.1561
17921WAT     H173489   7.169   3.410   1.440  1.6007  1.2178  0.9070
17921WAT     H273490   7.110   3.544   1.402  0.2768  0.5467  0.5308
17921WAT    EPW73491   7.159   3.474   1.383  0.1237  0.5002  0.3045
17922WAT      O73492   6.385   4.728   0.592  0.8544  0.6306  0.4258
17922WAT     H173493   6.290   4.721   0.601  0.8194  2.8412  3.4500
17922WAT     H273494   6.419   4.650   0.636  0.4429  0.4607  0.4445
17922WAT    EPW73495   6.377   4.716   0.599  0.7956  0.8998  0.8271
17923WAT      O73496   3.568   2.265   3.077  0.2831  0.2216  0.3923
17923WAT     H173497   3.623   2.316   3.018  1.8921 -2.3135 -0.4541
17923WAT     H273498   3.622   2.251   3.155 -0.8529  1.3223  1.4300
17923WAT    EPW73499   3.582   2.270   3.080  0.3455  0.0324  0.4176
17924WAT      O73500   3.081   9.252   2.461  0.0550 -0.0461  0.9195
17924WAT     H173501   3.136   9.176   2.444 -0.1363  0.1365 -0.6522
17924WAT     H273502   3.095   9.272   2.554  0.4250 -1.7300  1.2550
17924WAT    EPW73503   3.090   9.245   2.471  0.0786 -0.2441  0.7565
17925WAT      O73504   6.340   0.030   1.363  0.3532  0.2042 -0.6755
17925WAT     H173505   6.402  -0.015   1.421  0.0495  2.5397  1.6631
17925WAT     H273506   6.332  -0.027   1.287 -0.2177 -3.7882  2.1039
17925WAT    EPW73507   6.347   0.017   1.361  0.2379 -0.0144 -0.0004
17926WAT      O73508   0.197   5.376   8.350  0.3504 -0.0258  0.3088
17926WAT     H173509   0.123   5.419   8.306  0.2646 -0.8826 -0.4237
17926WAT     H273510   0.159   5.340   8.430 -0.1770 -0.9351 -0.3275
17926WAT    EPW73511   0.182   5.377   8.355  0.2695 -0.2589  0.1278
17927WAT      O73512   9.400   6.954   7.668  0.5468  0.0196  0.1471
17927WAT     H173513   9.433   6.919   7.585 -1.1173  0.9985 -0.9969
17927WAT     H273514   9.308   6.927   7.671  0.8348 -0.8969  2.2196
17927WAT    EPW73515   9.392   6.946   7.657  0.3648  0.0279  0.2699
17928WAT      O73516   5.261   2.198   3.338 -0.6423  0.1136 -0.5322
17928WAT     H173517   5.249   2.103   3.341  2.3174 -0.3382  1.8793
17928WAT     H273518   5.344   2.211   3.293  0.4498  1.2632  1.6415
17928WAT    EPW73519   5.270   2.188   3.333 -0.1078  0.2056  0.0725
17929WAT      O73520   5.327   3.341   3.957  0.1966 -0.3075  0.4002
17929WAT     H173521   5.348   3.434   3.967  0.1494 -0.1168 -1.0902
17929WAT     H273522   5.232   3.340   3.944  0.3940 -0.3986 -1.1828
17929WAT    EPW73523   5.317   3.353   3.957  0.2162 -0.2944 -0.0052
17930WAT      O73524   5.638   2.289   1.686  0.0668 -0.1925 -0.3789
17930WAT     H173525   5.597   2.300   1.601 -2.9228  0.2347  0.9869
17930WAT     H273526   5.578   2.232   1.735  0.2771  1.6091  2.2359
17930WAT    EPW73527   5.625   2.283   1.682 -0.2997  0.1016  0.1462
17931WAT      O73528   1.686   7.581   8.613  0.0489 -0.0653  0.4051
17931WAT     H173529   1.751   7.573   8.682 -0.1226 -0.7811  0.4949
17931WAT     H273530   1.716   7.520   8.545 -0.8197 -0.8420  0.6960
17931WAT    EPW73531   1.698   7.572   8.613 -0.0882 -0.2620  0.4554
17932WAT      O73532   8.770   2.576   3.294  0.5805  0.2030  0.6765
17932WAT     H173533   8.845   2.519   3.277  1.0280  0.2256  2.4562
17932WAT     H273534   8.706   2.549   3.228  2.1732  0.3001 -1.0156
17932WAT    EPW73535   8.772   2.565   3.283  0.8497  0.2187  0.6878
17933WAT      O73536   0.209   5.178   8.097  0.7482 -0.2210  0.6676
17933WAT     H173537   0.184   5.264   8.130 -0.0480  0.1960 -0.9356
17933WAT     H273538   0.278   5.196   8.033 -0.7559 -0.5534 -1.1088
17933WAT    EPW73539   0.215   5.192   8.093  0.4448 -0.2098  0.2222
17934WAT      O73540   7.061   4.034   1.568 -0.3185 -0.2756  0.0641
17934WAT     H173541   7.048   4.128   1.577 -1.5034 -0.5191  1.0791
17934WAT     H273542   7.056   4.000   1.657  0.3934 -1.2694 -0.2621
17934WAT    EPW73543   7.059   4.042   1.581 -0.3812 -0.4387  0.1550
17935WAT      O73544   9.145   1.954   2.446 -0.2443  0.4581 -0.1781
17935WAT     H173545   9.090   2.008   2.503  1.2669  1.1658  0.6497
17935WAT     H273546   9.210   2.015   2.411  1.5057 -0.7902  0.7814
17935WAT    EPW73547   9.146   1.969   2.449  0.1860  0.3868  0.0576
17936WAT      O73548   7.809   3.404   4.620  0.5136 -0.6872 -0.5131
17936WAT     H173549   7.796   3.456   4.700  0.0624 -0.3600 -0.7927
17936WAT     H273550   7.754   3.327   4.633 -0.4682 -0.0844 -0.9922
17936WAT    EPW73551   7.800   3.401   4.632  0.3247 -0.5645 -0.6135
17937WAT      O73552   9.501   7.960   8.758  0.5557  0.3580  0.2306
17937WAT     H173553   9.487   7.928   8.847 -1.0000  0.6619  0.1280
17937WAT     H273554   9.429   8.022   8.743  1.2741  0.9537 -0.9422
17937WAT    EPW73555   9.489   7.964   8.768  0.4454  0.4768  0.0629
17938WAT      O73556   5.280   3.220   3.599  0.0846  0.2308 -0.0236
17938WAT     H173557   5.248   3.288   3.539  1.0855  0.7524  0.0117
17938WAT     H273558   5.223   3.145   3.582 -1.6015  1.3039  0.5047
17938WAT    EPW73559   5.268   3.219   3.589 -0.0060  0.4413  0.0507
17939WAT      O73560   3.308   2.763   4.438  0.3400  0.0842  0.7479
17939WAT     H173561   3.257   2.836   4.473 -3.2557 -1.3903 -0.8895
17939WAT     H273562   3.263   2.685   4.470  3.5412 -1.5327  1.7416
17939WAT    EPW73563   3.295   2.762   4.447  0.2879 -0.3235  0.6630
17940WAT      O73564   9.950  10.079   1.516  0.5467 -0.1369 -0.0880
17940WAT     H173565   9.960  10.085   1.421  1.4275 -1.6968 -0.1141
17940WAT     H273566   9.984  10.163   1.548  1.0564  0.0633 -1.0926
17940WAT    EPW73567   9.956  10.091   1.508  0.7300 -0.3161 -0.2239
17941WAT      O73568   5.183   0.204   4.611 -0.3916  0.4668 -0.0785
17941WAT     H173569   5.148   0.115   4.613  0.2858  0.2051  0.3968
17941WAT     H273570   5.152   0.243   4.693 -1.0398  0.8193 -0.4771
17941WAT    EPW73571   5.174   0.197   4.622 -0.3877  0.4788 -0.0684
17942WAT      O73572   6.976   3.086   1.500 -0.5220  0.0865  0.5717
17942WAT     H173573   7.025   3.152   1.547  0.2428 -0.2289  0.2380
17942WAT     H273574   6.978   3.115   1.408 -0.9676  0.0746  0.5549
17942WAT    EPW73575   6.983   3.098   1.494 -0.4799  0.0433  0.5255
17943WAT      O73576   8.973   3.516   5.726  1.1269 -0.1595 -0.3162
17943WAT     H173577   8.928   3.556   5.800  0.1831 -1.6191 -0.0644
17943WAT     H273578   9.058   3.490   5.760  1.8192  1.6449 -0.5142
17943WAT    EPW73579   8.978   3.518   5.740  1.0934 -0.1141 -0.3095
17944WAT      O73580   6.248   2.225   4.826 -0.1134 -0.6832  0.5943
17944WAT     H173581   6.321   2.239   4.886 -1.1750  1.5990  1.4929
17944WAT     H273582   6.285   2.173   4.755  1.9744 -0.8817  1.7414
17944WAT    EPW73583   6.262   2.220   4.825  0.0217 -0.4084  0.8640
17945WAT      O73584   8.852   1.387   4.173 -0.4644  0.3274 -0.5307
17945WAT     H173585   8.770   1.340   4.187 -0.1484 -0.6389 -1.7365
17945WAT     H273586   8.868   1.380   4.079  1.9747 -1.1845 -0.0858
17945WAT    EPW73587   8.843   1.380   4.162 -0.1011  0.0004 -0.6311
17946WAT      O73588   7.280   2.003   4.756  0.4937  0.8459  0.6815
17946WAT     H173589   7.229   1.949   4.696 -0.3080  0.6519  1.5002
17946WAT     H273590   7.371   1.974   4.744  0.1953 -0.0292  0.4266
17946WAT    EPW73591   7.285   1.992   4.747  0.3486  0.7048  0.7558
17947WAT      O73592   6.144   1.395   1.308  0.1500 -0.3010 -0.0759
17947WAT     H173593   6.068   1.453   1.311 -0.3794 -0.9842 -0.0783
17947WAT     H273594   6.210   1.439   1.362 -0.6044 -0.2190  0.7835
17947WAT    EPW73595   6.143   1.409   1.315 -0.0191 -0.3803  0.0371
17948WAT      O73596   6.011   0.170   1.646  0.4213  0.0142  0.3003
17948WAT     H173597   5.937   0.142   1.700  1.3195  1.3552  2.3341
17948WAT     H273598   6.017   0.103   1.577 -1.6610 -0.9826  1.0089
17948WAT    EPW73599   6.002   0.157   1.644  0.2654  0.0596  0.6620
17949WAT      O73600   6.868   2.667   2.199  0.4767 -0.9096  0.1837
17949WAT     H173601   6.779   2.694   2.225  1.2901 -0.1191  2.4773
17949WAT     H273602   6.874   2.576   2.226  0.6231 -0.7061  0.8644
17949WAT    EPW73603   6.857   2.659   2.206  0.6032 -0.7784  0.5760
17950WAT      O73604   1.042   9.640   0.549 -0.8163 -0.2708 -0.0004
17950WAT     H173605   1.070   9.689   0.472  1.0549  1.9146  1.8881
17950WAT     H273606   1.111   9.576   0.563 -1.5814 -1.2421 -0.5834
17950WAT    EPW73607   1.055   9.638   0.541 -0.6704 -0.1101  0.1718
17951WAT      O73608   6.391   3.368   4.805 -0.4921  0.4251  0.5264
17951WAT     H173609   6.332   3.444   4.806 -0.3183  0.5699  0.0589
17951WAT     H273610   6.340   3.298   4.767 -0.2002  0.6952 -0.3916
17951WAT    EPW73611   6.377   3.369   4.800 -0.4308  0.4798  0.3438
17952WAT      O73612   5.413   9.653   6.848  0.3573  0.2856  0.0347
17952WAT     H173613   5.462   9.732   6.828 -0.2627  1.0552  1.4135
17952WAT     H273614   5.360   9.676   6.924 -0.3919 -1.2329  0.0176
17952WAT    EPW73615   5.412   9.667   6.855  0.1767  0.1869  0.2141
17953WAT      O73616   5.832   1.691   2.320  0.5320  0.6118 -0.0961
17953WAT     H173617   5.761   1.723   2.376 -1.5353 -0.3600 -1.9868
17953WAT     H273618   5.798   1.609   2.283  3.4977 -1.0391  0.4866
17953WAT    EPW73619   5.818   1.684   2.322  0.6506  0.2659 -0.2686
17954WAT      O73620   4.763   4.584   2.651  0.3406  0.7383 -0.4183
17954WAT     H173621   4.719   4.663   2.619 -0.0399 -0.0115 -1.8425
17954WAT     H273622   4.742   4.518   2.586  0.4061 -0.6289  0.8986
17954WAT    EPW73623   4.754   4.586   2.638  0.2990  0.4590 -0.4325
17955WAT      O73624   6.004   5.831   2.812 -0.3085 -0.4061 -0.1278
17955WAT     H173625   6.017   5.745   2.853 -0.9231 -0.6119 -0.3631
17955WAT     H273626   6.018   5.893   2.883  0.9732 -0.6531 -0.1324
17955WAT    EPW73627   6.008   5.828   2.827 -0.2205 -0.4659 -0.1594
17956WAT      O73628   8.274   2.779   4.775  0.0732 -0.0993 -0.4499
17956WAT     H173629   8.196   2.729   4.797 -1.7005  2.6006 -0.1183
17956WAT     H273630   8.344   2.714   4.771 -2.0271 -2.5387 -0.0524
17956WAT    EPW73631   8.273   2.764   4.777 -0.4377 -0.0648 -0.3538
17957WAT      O73632   9.882   2.604   3.438  0.1938 -0.3614 -0.4009
17957WAT     H173633   9.901   2.623   3.529 -0.6455  1.3534 -0.5586
17957WAT     H273634   9.816   2.534   3.441 -0.1677  0.0057  0.3112
17957WAT    EPW73635   9.876   2.597   3.450  0.0358 -0.0869 -0.3278
17958WAT      O73636   6.717   3.306   1.360 -0.0023 -0.3205 -0.6619
17958WAT     H173637   6.749   3.309   1.270 -0.5756 -0.5283 -0.8769
17958WAT     H273638   6.623   3.319   1.352  0.1792  1.8426  0.0676
17958WAT    EPW73639   6.709   3.308   1.347 -0.0539 -0.0625 -0.5940
17959WAT      O73640   8.593   0.899   6.115 -0.2914  0.0983  0.3707
17959WAT     H173641   8.511   0.935   6.147 -0.2026  0.1065  0.5889
17959WAT     H273642   8.640   0.873   6.194  0.5659  1.4706  0.3432
17959WAT    EPW73643   8.589   0.900   6.129 -0.1669  0.2804  0.3955
17960WAT      O73644   0.422   1.058   6.625 -0.1297 -0.4331 -0.1015
17960WAT     H173645   0.415   1.041   6.531  2.7888 -1.3262 -0.2502
17960WAT     H273646   0.449   1.150   6.631 -2.5998  0.3623  0.0659
17960WAT    EPW73647   0.425   1.068   6.613 -0.0706 -0.4460 -0.0992
17961WAT      O73648   4.365   4.018   1.862 -0.2622  0.2226  0.0982
17961WAT     H173649   4.447   4.023   1.813  1.2152 -0.1763  2.3441
17961WAT     H273650   4.306   3.970   1.805  0.7560  1.2617 -1.9501
17961WAT    EPW73651   4.368   4.012   1.848  0.0670  0.3071  0.1243
17962WAT      O73652  10.775   2.035   3.909  0.0065 -0.1582  0.6002
17962WAT     H173653  10.734   2.040   3.823 -0.8423 -0.9900  0.9365
17962WAT     H273654  10.702   2.020   3.969  0.4039  1.7561  1.6506
17962WAT    EPW73655  10.760   2.033   3.906 -0.0529 -0.0155  0.7832
17963WAT      O73656   8.492   4.982   1.669  0.0033 -0.2176 -0.0307
17963WAT     H173657   8.485   5.060   1.724 -1.9542 -0.4921  0.1744
17963WAT     H273658   8.506   5.017   1.580  5.3125  0.2241  0.6448
17963WAT    EPW73659   8.493   4.997   1.664  0.4449 -0.1955  0.0854
17964WAT      O73660   6.239   2.562   3.873  0.6089  0.5095 -0.4730
17964WAT     H173661   6.328   2.550   3.840  1.4906  4.6272 -0.1152
17964WAT     H273662   6.200   2.626   3.814 -0.1267  2.8876  2.3622
17964WAT    EPW73663   6.246   2.569   3.861  0.6280  1.3664 -0.0519
17965WAT      O73664   8.449   3.898   5.063 -0.3043 -0.7231 -0.2243
17965WAT     H173665   8.440   3.945   4.980 -0.6134  0.7055  0.5868
17965WAT     H273666   8.544   3.896   5.079 -0.2225 -1.2757 -0.7490
17965WAT    EPW73667   8.461   3.904   5.054 -0.3343 -0.6076 -0.1864
17966WAT      O73668   4.205   3.443   2.209  0.4443  0.7384  0.2460
17966WAT     H173669   4.166   3.529   2.222 -3.4431 -0.7935  0.0156
17966WAT     H273670   4.266   3.433   2.282  0.3539  3.3134  0.7562
17966WAT    EPW73671   4.208   3.453   2.220 -0.0803  0.8759  0.2829
17967WAT      O73672   5.197   1.505   1.980 -0.1691  0.3966  0.9220
17967WAT     H173673   5.248   1.502   1.900 -0.4487  2.1592  0.6390
17967WAT     H273674   5.173   1.597   1.990 -0.8818  0.0706  2.5625
17967WAT    EPW73675   5.200   1.516   1.971 -0.3002  0.5860  1.1010
17968WAT      O73676   3.117   4.284   2.443 -0.5498  1.2574  0.1890
17968WAT     H173677   3.030   4.305   2.478 -1.1888 -1.8978  0.7351
17968WAT     H273678   3.121   4.189   2.443  2.9609  1.2863  0.1901
17968WAT    EPW73679   3.106   4.274   2.448 -0.1711  0.8447  0.2612
17969WAT      O73680   6.209   0.523   5.056 -0.2445  0.4521 -0.3023
17969WAT     H173681   6.129   0.489   5.096  0.5064  0.4902  1.3088
17969WAT     H273682   6.195   0.618   5.052 -0.1278  0.5053  0.3746
17969WAT    EPW73683   6.197   0.531   5.061 -0.1299  0.4641 -0.0002
17970WAT      O73684   4.547   4.181   3.701 -0.5361  0.5211  0.1815
17970WAT     H173685   4.564   4.260   3.754 -0.5195  1.5604 -1.3085
17970WAT     H273686   4.532   4.112   3.766  2.5662  1.0023  1.6262
17970WAT    EPW73687   4.547   4.183   3.717 -0.1245  0.7215  0.1755
17971WAT      O73688   8.566   2.359   2.789 -0.6872 -0.4719 -0.2961
17971WAT     H173689   8.608   2.303   2.854 -0.7481 -0.8851 -0.6057
17971WAT     H273690   8.502   2.302   2.746 -0.3526 -0.3238 -1.0081
17971WAT    EPW73691   8.563   2.344   2.792 -0.6514 -0.5069 -0.4309
17972WAT      O73692   5.087   0.731   4.120  0.3379  0.1886 -0.0905
17972WAT     H173693   5.160   0.715   4.060  0.2909  0.9112 -0.3500
17972WAT     H273694   5.126   0.721   4.207  0.2445 -1.6025 -0.2075
17972WAT    EPW73695   5.102   0.728   4.123  0.3195  0.0477 -0.1402
17973WAT      O73696   5.938   3.684   0.188 -0.1885 -0.3479  0.3016
17973WAT     H173697   5.988   3.745   0.134 -1.4055  0.7310  0.3576
17973WAT     H273698   5.971   3.699   0.277 -0.0310 -0.2284  0.2236
17973WAT    EPW73699   5.949   3.694   0.193 -0.3283 -0.1898  0.2987
17974WAT      O73700   8.662   4.164   7.058  0.8019  0.0880  0.2012
17974WAT     H173701   8.640   4.112   7.136  0.6661 -1.9918 -1.1555
17974WAT     H273702   8.758   4.168   7.059  0.8562 -0.8635 -0.0693
17974WAT    EPW73703   8.672   4.157   7.069  0.7915 -0.3121 -0.0131
17975WAT      O73704  10.356   3.272   3.742 -0.3071  0.2783  0.4518
17975WAT     H173705  10.399   3.279   3.828 -0.0851 -1.0164  0.4737
17975WAT     H273706  10.406   3.204   3.696 -0.1487  1.2628 -0.8916
17975WAT    EPW73707  10.368   3.264   3.748 -0.2570  0.2373  0.2775
17976WAT      O73708   8.130   2.058   3.965  0.4504  0.2068  0.4590
17976WAT     H173709   8.064   2.091   3.903  1.9735  0.6646 -0.9821
17976WAT     H273710   8.164   2.137   4.007  0.7292  0.0550  0.5196
17976WAT    EPW73711   8.126   2.073   3.963  0.6881  0.2471  0.2770
17977WAT      O73712   6.076   0.667   2.485 -0.4613  0.4986  0.1121
17977WAT     H173713   6.085   0.572   2.484  1.0970  0.6075 -0.3108
17977WAT     H273714   6.023   0.687   2.408 -1.0415 -0.0354  0.3671
17977WAT    EPW73715   6.071   0.657   2.474 -0.3321  0.4425  0.0900
17978WAT      O73716   5.918   2.556   2.192  0.9209  0.7899  0.0276
17978WAT     H173717   5.849   2.512   2.142 -1.7375  0.8097  3.2968
17978WAT     H273718   5.929   2.640   2.148 -1.9931  1.2010 -0.1435
17978WAT    EPW73719   5.910   2.562   2.180  0.1862  0.8467  0.4363
17979WAT      O73720   4.890   0.280   1.004 -0.1038  0.2694 -0.7742
17979WAT     H173721   4.893   0.326   0.921 -0.0120  0.9032 -0.4239
17979WAT     H273722   4.806   0.305   1.043  0.0072  0.2540 -0.5206
17979WAT    EPW73723   4.879   0.289   0.998 -0.0768  0.3509 -0.6945
17980WAT      O73724   3.493   3.384   3.917  0.1213 -0.6237 -0.1412
17980WAT     H173725   3.427   3.314   3.922  0.4723 -1.1669 -2.2599
17980WAT     H273726   3.511   3.393   3.823  0.8687  1.6030  0.1664
17980WAT    EPW73727   3.486   3.376   3.905  0.2662 -0.4017 -0.3802
17981WAT      O73728   1.711  10.173   2.634  0.0782 -0.3087 -0.1144
17981WAT     H173729   1.702  10.265   2.662  3.0236 -0.0661  0.3832
17981WAT     H273730   1.621  10.139   2.634 -1.1983  2.6995 -0.8792
17981WAT    EPW73731   1.698  10.181   2.638  0.2983  0.1206 -0.1496
17982WAT      O73732   7.824   0.760   2.887 -0.4487 -0.0674 -0.2010
17982WAT     H173733   7.919   0.753   2.879 -0.4140 -0.3991  0.4420
17982WAT     H273734   7.809   0.761   2.982 -1.2258 -1.8392 -0.2827
17982WAT    EPW73735   7.835   0.760   2.899 -0.5467 -0.3448 -0.1270
17983WAT      O73736   5.986   1.951   4.102 -0.5175 -0.5205  0.6992
17983WAT     H173737   6.035   1.871   4.080 -0.3834 -0.3715  0.4487
17983WAT     H273738   5.963   1.989   4.017  0.5532  0.3967  0.7925
17983WAT    EPW73739   5.990   1.945   4.088 -0.3586 -0.3799  0.6785
17984WAT      O73740   7.715   3.209   2.969 -0.4595 -0.6132  0.1065
17984WAT     H173741   7.705   3.145   3.039 -1.4192  0.2215  0.7457
17984WAT     H273742   7.803   3.244   2.981 -0.5181 -0.6744  0.7202
17984WAT    EPW73743   7.726   3.205   2.980 -0.5939 -0.5112  0.2717
17985WAT      O73744   9.875   5.490   1.037  0.3830 -0.6128 -0.1211
17985WAT     H173745   9.910   5.413   1.081  0.1247 -0.9216 -0.4528
17985WAT     H273746   9.782   5.472   1.028 -0.0587  0.5828  1.5387
17985WAT    EPW73747   9.868   5.478   1.042  0.2904 -0.4954  0.0541
17986WAT      O73748   3.096   9.244   4.248 -0.5621  0.4583  0.2210
17986WAT     H173749   3.122   9.315   4.307 -1.0295  1.1116 -0.3452
17986WAT     H273750   3.179   9.210   4.214 -0.0804 -1.5079  2.9674
17986WAT    EPW73751   3.111   9.249   4.251 -0.5602  0.2851  0.5085
17987WAT      O73752   7.650   2.523   4.667 -0.6044 -0.4360  0.3708
17987WAT     H173753   7.700   2.578   4.727  0.8971 -1.7222  0.3883
17987WAT     H273754   7.558   2.543   4.686 -0.1284  0.7413  1.5908
17987WAT    EPW73755   7.644   2.533   4.678 -0.3436 -0.4503  0.5338
17988WAT      O73756   5.998   3.329   2.837 -0.3213  0.8123  0.1061
17988WAT     H173757   5.933   3.382   2.883  0.7021  0.9905  1.3999
17988WAT     H273758   6.071   3.321   2.899 -0.4673 -2.2209  0.0366
17988WAT    EPW73759   5.999   3.335   2.851 -0.2058  0.4357  0.2675
17989WAT      O73760   6.879   3.082   2.607 -0.2269  0.0391  0.0256
17989WAT     H173761   6.952   3.143   2.618 -0.6207  0.4633  0.3560
17989WAT     H273762   6.821   3.125   2.543 -0.5608  0.0650  0.3428
17989WAT    EPW73763   6.881   3.096   2.600 -0.3231  0.0985  0.1111
17990WAT      O73764   2.659   1.510   1.649 -0.0776 -0.0693  0.3943
17990WAT     H173765   2.616   1.484   1.730 -1.0868 -0.2685 -0.1907
17990WAT     H273766   2.617   1.457   1.581  2.0488 -1.3077 -0.0450
17990WAT    EPW73767   2.648   1.500   1.651  0.0696 -0.2590  0.2592
17991WAT      O73768   9.263   7.586   7.970  0.2743 -0.4425  0.2895
17991WAT     H173769   9.301   7.537   8.043 -1.9745 -1.4632  0.8828
17991WAT     H273770   9.289   7.537   7.892  0.3032 -1.0535  0.6718
17991WAT    EPW73771   9.271   7.573   7.970 -0.0186 -0.6576  0.4182
17992WAT      O73772   6.782   1.067   1.990 -0.6238 -0.5891  0.7567
17992WAT     H173773   6.739   1.090   1.907 -1.2698 -1.2614  0.8978
17992WAT     H273774   6.721   1.096   2.058  0.0848  0.3304  1.0268
17992WAT    EPW73775   6.768   1.074   1.988 -0.6154 -0.5565  0.8110
17993WAT      O73776   5.071   4.964   0.106  0.2663  0.6841  0.7057
17993WAT     H173777   5.015   4.992   0.033 -0.2171 -2.0969 -0.1258
17993WAT     H273778   5.010   4.946   0.177 -0.1908 -2.8937 -0.3749
17993WAT    EPW73779   5.056   4.965   0.106  0.1421 -0.1545  0.4535
17994WAT      O73780  10.040   2.682   2.422 -0.3518 -0.2986 -0.1019
17994WAT     H173781   9.971   2.696   2.357 -1.3331 -2.0970  0.5023
17994WAT     H273782   9.997   2.638   2.495  1.8509 -4.1481 -0.8197
17994WAT    EPW73783  10.025   2.678   2.423 -0.1912 -1.0436 -0.1168
17995WAT      O73784   6.844   2.181   3.004  0.1215 -0.6835  0.5741
17995WAT     H173785   6.818   2.272   3.008  1.0022 -0.3594 -0.5296
17995WAT     H273786   6.842   2.159   2.911 -1.9862 -2.3858  0.9562
17995WAT    EPW73787   6.840   2.190   2.992 -0.0403 -0.8652  0.4789
17996WAT      O73788   4.412   1.144   2.258 -0.0907 -0.7348 -0.0003
17996WAT     H173789   4.413   1.118   2.350  1.4702 -2.1923 -0.3869
17996WAT     H273790   4.419   1.062   2.210 -0.6604  0.0200 -1.4344
17996WAT    EPW73791   4.413   1.130   2.264  0.0401 -0.8274 -0.2404
17997WAT      O73792   4.497   3.963   3.396  0.4474  0.1054 -0.1963
17997WAT     H173793   4.500   3.874   3.429 -0.1256 -0.0868 -0.6401
17997WAT     H273794   4.585   3.979   3.361  0.5389 -0.2986 -0.1560
17997WAT    EPW73795   4.509   3.954   3.396  0.3839  0.0268 -0.2495
17998WAT      O73796   7.603  10.000   3.682 -0.5149 -0.1130  0.2728
17998WAT     H173797   7.559   9.968   3.603 -0.2954  1.6429 -0.6124
17998WAT     H273798   7.544   9.974   3.754  0.0555 -3.1536 -0.2081
17998WAT    EPW73799   7.589   9.992   3.681 -0.4108 -0.2818  0.0925
17999WAT      O73800   5.276   3.985   3.268 -0.1195 -0.9576 -0.2007
17999WAT     H173801   5.211   3.970   3.200 -2.2014 -0.6931  1.6223
17999WAT     H273802   5.311   3.898   3.287 -1.4429 -1.4279  0.1746
17999WAT    EPW73803   5.272   3.971   3.262 -0.5686 -0.9848  0.0892
18000WAT      O73804   7.622   4.450   0.953 -0.3350 -0.1845 -0.1637
18000WAT     H173805   7.542   4.493   0.985  0.8411  0.7771  1.7059
18000WAT     H273806   7.658   4.511   0.889  0.5664  1.0524  1.4243
18000WAT    EPW73807   7.616   4.464   0.949 -0.0613  0.1056  0.2923
18001WAT      O73808   8.236   0.854   3.445 -0.0793  0.0980 -0.3526
18001WAT     H173809   8.284   0.781   3.486 -0.3443 -0.5652 -1.1826
18001WAT     H273810   8.167   0.811   3.395 -0.7515  0.9812 -0.1981
18001WAT    EPW73811   8.233   0.838   3.444 -0.2031  0.1270 -0.4418
18002WAT      O73812   9.630   4.602   2.562 -0.1475  0.0441 -0.6525
18002WAT     H173813   9.593   4.514   2.574  1.2714 -0.3246  1.6344
18002WAT     H273814   9.715   4.598   2.606 -1.2506  3.3257  2.2442
18002WAT    EPW73815   9.636   4.590   2.570 -0.1059  0.4284  0.0314
18003WAT      O73816   7.350   1.679   4.123  0.1366 -0.0185  0.0922
18003WAT     H173817   7.434   1.688   4.168  0.4770 -0.4986 -0.4275
18003WAT     H273818   7.288   1.728   4.177  0.6399 -0.1270  0.7813
18003WAT    EPW73819   7.353   1.686   4.136  0.2480 -0.0961  0.1144
18004WAT      O73820   9.510   3.007   7.654 -0.4250 -0.4450 -0.0180
18004WAT     H173821   9.507   3.064   7.578 -0.6321  3.1666  2.4803
18004WAT     H273822   9.603   2.993   7.670 -0.1256  2.5743  1.5090
18004WAT    EPW73823   9.522   3.012   7.646 -0.4134  0.4296  0.5128
18005WAT      O73824   7.464   2.693   2.907 -0.4048  0.4117  0.2041
18005WAT     H173825   7.457   2.746   2.987 -1.4257  1.2549 -0.4126
18005WAT     H273826   7.412   2.741   2.842 -0.6538 -0.9231 -0.6170
18005WAT    EPW73827   7.456   2.706   2.909 -0.5722  0.3468  0.0144
18006WAT      O73828   4.720   3.459   0.772  0.2233  0.2411 -0.4356
18006WAT     H173829   4.694   3.373   0.803 -1.0001  0.5920 -0.4304
18006WAT     H273830   4.805   3.475   0.811  0.3500 -0.8617 -0.2481
18006WAT    EPW73831   4.727   3.450   0.781  0.0787  0.1420 -0.4101
18007WAT      O73832   8.665   2.183   2.963 -0.1473 -0.0942 -0.2549
18007WAT     H173833   8.591   2.147   3.013  0.3613 -1.0647 -0.1760
18007WAT     H273834   8.716   2.106   2.937  0.0302  0.4522 -1.5893
18007WAT    EPW73835   8.662   2.168   2.966 -0.0567 -0.1502 -0.4202
18008WAT      O73836   6.047   2.431   6.536  0.2086 -0.0757  0.1441
18008WAT     H173837   5.957   2.426   6.505  0.7072 -1.5771 -1.1557
18008WAT     H273838   6.040   2.424   6.631 -0.8704 -4.6249 -0.0512
18008WAT    EPW73839   6.034   2.430   6.545  0.1318 -0.8738 -0.0529
18009WAT      O73840   5.805  10.287   2.681 -0.1146 -0.5097 -0.2044
18009WAT     H173841   5.815  10.377   2.710 -2.4254  0.2036 -1.4030
18009WAT     H273842   5.883  10.270   2.628  1.3003  0.0750  1.5940
18009WAT    EPW73843   5.816  10.296   2.678 -0.2327 -0.3376 -0.1254
18010WAT      O73844   9.807   8.853   6.716 -0.1888  0.0861 -0.1946
18010WAT     H173845   9.819   8.855   6.621 -0.3294  2.1565 -0.2291
18010WAT     H273846   9.765   8.937   6.736 -1.0346 -0.7100  1.5984
18010WAT    EPW73847   9.803   8.864   6.706 -0.3185  0.2537  0.0372
18011WAT      O73848  10.274   6.421   8.288 -0.3402  0.5409 -0.3705
18011WAT     H173849  10.213   6.436   8.215 -1.6053  0.0886  0.5674
18011WAT     H273850  10.226   6.451   8.365 -0.0233 -1.3246  0.5990
18011WAT    EPW73851  10.260   6.427   8.288 -0.4654  0.2351 -0.1192
18012WAT      O73852   8.109   1.507   3.589 -0.0434 -1.0065  0.1624
18012WAT     H173853   8.058   1.441   3.636 -1.1039 -0.5189 -0.2734
18012WAT     H273854   8.108   1.476   3.498 -0.5260 -0.4218 -0.0403
18012WAT    EPW73855   8.102   1.494   3.583 -0.2470 -0.8650  0.0783
18013WAT      O73856   6.693   1.640   5.461 -0.4575 -0.0514  0.8395
18013WAT     H173857   6.631   1.589   5.410 -0.7680 -0.3103  1.4692
18013WAT     H273858   6.690   1.727   5.421  1.3987 -0.9084 -1.4173
18013WAT    EPW73859   6.685   1.645   5.449 -0.2539 -0.1986  0.6249
18014WAT      O73860   4.881   4.350   0.697  0.8673  0.0384 -0.8165
18014WAT     H173861   4.916   4.432   0.733  2.5193 -0.5018 -1.1114
18014WAT     H273862   4.882   4.289   0.771  0.5797  0.0070 -0.8377
18014WAT    EPW73863   4.886   4.353   0.712  1.0474 -0.0367 -0.8582
18015WAT      O73864   7.603   3.165   3.985  0.2471 -0.5738  0.3324
18015WAT     H173865   7.672   3.167   3.918  1.3335  0.3999  1.4379
18015WAT     H273866   7.566   3.077   3.978  2.1950 -1.4447  0.2692
18015WAT    EPW73867   7.607   3.154   3.975  0.6473 -0.5602  0.4698
18016WAT      O73868  10.415   5.605   4.289 -0.0768 -0.0669  0.5977
18016WAT     H173869  10.471   5.532   4.314  1.0222  0.8321  0.8557
18016WAT     H273870  10.330   5.585   4.328  0.7069 -0.3044  2.2750
18016WAT    EPW73871  10.411   5.593   4.297  0.1712  0.0205  0.8528
18017WAT      O73872   6.284   1.499   2.173  0.2384  0.6787 -0.6563
18017WAT     H173873   6.227   1.546   2.234  1.1317 -0.7120  1.3406
18017WAT     H273874   6.287   1.556   2.096 -3.7162  0.8727 -0.8780
18017WAT    EPW73875   6.277   1.513   2.171 -0.1652  0.5208 -0.4221
18018WAT      O73876   5.634   1.493   4.271  0.0332  0.0428  0.7514
18018WAT     H173877   5.688   1.532   4.339  2.0008 -0.7002 -0.3203
18018WAT     H273878   5.688   1.497   4.192 -1.4390 -0.8394 -0.3512
18018WAT    EPW73879   5.648   1.499   4.269  0.0987 -0.1715  0.4647
18019WAT      O73880  10.764   6.416   8.092  0.9234 -0.1810 -0.1571
18019WAT     H173881  10.669   6.413   8.093  0.9469 -1.9061 -0.4621
18019WAT     H273882  10.791   6.325   8.078  2.5893  0.4683 -1.5469
18019WAT    EPW73883  10.755   6.404   8.090  1.1458 -0.3223 -0.3805
18020WAT      O73884   7.828   3.356   4.082  0.1780  0.4957 -0.2320
18020WAT     H173885   7.903   3.296   4.081  0.5385  0.6038  3.8800
18020WAT     H273886   7.773   3.324   4.153 -1.9140  2.4938 -0.8448
18020WAT    EPW73887   7.831   3.344   4.091 -0.0508  0.7734  0.2294
18021WAT      O73888   5.023   2.048   4.384  0.6313 -0.4032 -0.1107
18021WAT     H173889   5.038   2.125   4.440  2.8427  0.2012 -1.4358
18021WAT     H273890   5.059   1.975   4.434  2.3249  0.0902 -0.5526
18021WAT    EPW73891   5.030   2.049   4.398  1.1463 -0.2583 -0.3436
18022WAT      O73892   7.363   3.183   1.495 -0.8551 -0.4407 -0.2322
18022WAT     H173893   7.289   3.232   1.531 -1.8107 -2.2910  0.4611
18022WAT     H273894   7.324   3.102   1.462  0.4777 -0.2102 -2.5286
18022WAT    EPW73895   7.348   3.178   1.496 -0.8056 -0.6545 -0.4437
18023WAT      O73896   4.469   5.369   4.156 -0.1259  0.2036  0.6141
18023WAT     H173897   4.398   5.317   4.194 -0.5065  1.0789  1.1390
18023WAT     H273898   4.527   5.305   4.116  0.2911 -0.7899  2.6703
18023WAT    EPW73899   4.467   5.354   4.156 -0.1211  0.1881  0.9544
18024WAT      O73900   6.523   2.369   2.765  1.2273  0.0807 -0.2214
18024WAT     H173901   6.555   2.452   2.728  1.8954 -0.3072 -0.5181
18024WAT     H273902   6.476   2.328   2.692  0.4022  0.4446  0.0863
18024WAT    EPW73903   6.521   2.375   2.750  1.2064  0.0776 -0.2198
18025WAT      O73904   6.246   1.402   3.276 -0.4408  0.4694 -0.0379
18025WAT     H173905   6.218   1.480   3.324  1.0594  0.9296  0.1450
18025WAT     H273906   6.334   1.383   3.310  0.3482  0.3310 -2.0324
18025WAT    EPW73907   6.254   1.409   3.287 -0.1388  0.5119 -0.2770
18026WAT      O73908   5.047   8.921   2.202 -0.2672  0.0259  0.4117
18026WAT     H173909   5.110   8.940   2.132  0.0395  0.2788  0.7492
18026WAT     H273910   5.068   8.831   2.228 -1.2933 -0.5835 -0.7470
18026WAT    EPW73911   5.058   8.911   2.196 -0.3619 -0.0215  0.3034
18027WAT      O73912   5.243   6.552   3.198 -0.6513  0.9027  0.1626
18027WAT     H173913   5.177   6.522   3.136  0.3926  1.6408 -1.3626
18027WAT     H273914   5.240   6.648   3.191  0.7637  0.9373 -0.1527
18027WAT    EPW73915   5.234   6.561   3.189 -0.3271  1.0047 -0.0801
18028WAT      O73916   9.352   1.245   5.260  0.4942  0.5960 -0.1963
18028WAT     H173917   9.301   1.281   5.188  1.8327  0.7172 -1.1358
18028WAT     H273918   9.419   1.191   5.216 -0.2317 -1.4510  1.0727
18028WAT    EPW73919   9.354   1.242   5.244  0.5755  0.3420 -0.1528
18029WAT      O73920   8.226   1.277   2.405  0.3016 -0.2985 -0.4452
18029WAT     H173921   8.215   1.255   2.313 -0.9869 -1.2954 -0.0837
18029WAT     H273922   8.159   1.225   2.450  0.6248  0.4904  1.0041
18029WAT    EPW73923   8.216   1.267   2.399  0.1740 -0.3259 -0.2065
18030WAT      O73924   3.452   0.626   4.041  0.4001 -0.1739 -0.4109
18030WAT     H173925   3.512   0.554   4.061  1.1671  0.1983 -1.3004
18030WAT     H273926   3.504   0.686   3.988 -0.7550  0.1904 -1.1552
18030WAT    EPW73927   3.467   0.625   4.037  0.3489 -0.0768 -0.6266
18031WAT      O73928   6.161   2.072   7.075 -0.1061 -0.0824 -0.1116
18031WAT     H173929   6.150   2.167   7.075 -1.6610 -0.1924  1.8303
18031WAT     H273930   6.174   2.049   7.167  0.4270 -1.7473 -0.5678
18031WAT    EPW73931   6.161   2.082   7.087 -0.2410 -0.3166  0.0842
18032WAT      O73932   5.545   3.122   3.480  0.5225 -0.2507  0.1176
18032WAT     H173933   5.565   3.179   3.406  3.4284  1.9460  2.3291
18032WAT     H273934   5.468   3.163   3.521 -1.6091 -1.9339 -1.9325
18032WAT    EPW73935   5.538   3.135   3.476  0.6247 -0.1830  0.1388
18033WAT      O73936   6.700   0.248   1.818 -0.6517 -0.3228 -0.1376
18033WAT     H173937   6.630   0.191   1.850 -0.4946 -1.1046 -1.1425
18033WAT     H273938   6.660   0.295   1.744  0.1055 -1.3458 -1.2087
18033WAT    EPW73939   6.685   0.247   1.812 -0.5310 -0.5609 -0.4115
18034WAT      O73940   6.609   1.998   2.257 -0.4451 -0.0370  0.2919
18034WAT     H173941   6.623   2.070   2.318 -2.9802  1.2660 -0.5406
18034WAT     H273942   6.552   2.035   2.189  2.6740 -1.1644 -3.3085
18034WAT    EPW73943   6.604   2.012   2.256 -0.3679 -0.0139 -0.2928
18035WAT      O73944   5.020   3.344   3.626 -0.4702 -0.8215 -0.2178
18035WAT     H173945   5.054   3.410   3.687  0.1863 -0.5471 -0.8642
18035WAT     H273946   5.052   3.261   3.660 -0.7032 -0.7422  0.2057
18035WAT    EPW73947   5.029   3.342   3.639 -0.4144 -0.7747 -0.2474
18036WAT      O73948   7.168   3.449   4.094  0.5234  0.2971 -0.0165
18036WAT     H173949   7.155   3.358   4.120 -0.9980  0.7804  1.1021
18036WAT     H273950   7.262   3.463   4.101  0.5646 -0.6350  1.8685
18036WAT    EPW73951   7.178   3.439   4.099  0.3281  0.2379  0.3793
18037WAT      O73952   8.138   0.952   2.201 -0.5540 -0.2270 -0.3932
18037WAT     H173953   8.142   0.881   2.264  1.3457 -0.9941 -1.2964
18037WAT     H273954   8.229   0.981   2.192 -1.1643  1.7233 -0.7222
18037WAT    EPW73955   8.151   0.947   2.208 -0.3843 -0.0709 -0.5558
18038WAT      O73956   7.680   0.895   1.875  0.2770 -0.1938  0.7080
18038WAT     H173957   7.705   0.809   1.907  2.2377  0.0770  0.0852
18038WAT     H273958   7.640   0.879   1.789 -2.0018 -0.6580  1.7986
18038WAT    EPW73959   7.678   0.882   1.868  0.2348 -0.2193  0.7697
18039WAT      O73960   4.214   0.230   0.477 -0.6783  0.2219 -0.4082
18039WAT     H173961   4.204   0.234   0.382 -0.6864 -0.5162 -0.4487
18039WAT     H273962   4.224   0.321   0.505  2.2892  0.3155 -1.4516
18039WAT    EPW73963   4.214   0.242   0.468 -0.2880  0.1369 -0.5511
18040WAT      O73964   1.697   9.619   2.367  0.2535 -0.0315 -0.1229
18040WAT     H173965   1.694   9.535   2.411  1.0259  0.7676  1.5302
18040WAT     H273966   1.703   9.597   2.274 -3.8603 -1.7810 -0.1666
18040WAT    EPW73967   1.697   9.605   2.360 -0.1872 -0.1574  0.0894
18041WAT      O73968   7.462   3.376   5.622  0.5165  0.2446  0.6508
18041WAT     H173969   7.389   3.330   5.664  1.4523 -1.2890  0.6890
18041WAT     H273970   7.514   3.408   5.696  0.4508  0.3735  0.6397
18041WAT    EPW73971   7.459   3.374   5.637  0.6313  0.0592  0.6542
18042WAT      O73972   0.760   4.502   5.982  0.3778 -0.1690 -0.2067
18042WAT     H173973   0.682   4.449   6.000  2.6363 -3.6062  0.1966
18042WAT     H273974   0.797   4.520   6.068  0.2501  1.1887 -0.4166
18042WAT    EPW73975   0.754   4.498   5.995  0.6589 -0.4435 -0.1812
18043WAT      O73976   9.044   8.285   8.916  0.3291 -0.1139  0.4283
18043WAT     H173977   8.973   8.279   8.979 -0.0465 -0.3396 -0.0155
18043WAT     H273978   9.005   8.328   8.840  0.5808 -0.5398  0.0588
18043WAT    EPW73979   9.030   8.290   8.914  0.3128 -0.1998  0.3209
18044WAT      O73980   4.717   3.284   3.702 -0.2855  0.1140 -0.0534
18044WAT     H173981   4.672   3.367   3.684 -0.8254  0.0002  0.7254
18044WAT     H273982   4.809   3.302   3.684 -0.4813  0.6986 -0.5080
18044WAT    EPW73983   4.723   3.297   3.697 -0.3827  0.1761 -0.0106
18045WAT      O73984   4.869   2.803   5.594 -0.4001  0.3765 -0.2811
18045WAT     H173985   4.963   2.791   5.582 -0.3088  0.6918  0.0870
18045WAT     H273986   4.852   2.890   5.558 -0.6333  0.1295 -0.7703
18045WAT    EPW73987   4.879   2.813   5.588 -0.4189  0.3855 -0.2968
18046WAT      O73988   0.835   9.133   1.068  0.0216 -0.3118  0.5643
18046WAT     H173989   0.851   9.213   1.117 -0.4077 -1.6175  2.9538
18046WAT     H273990   0.764   9.156   1.007 -0.0313  1.1122  1.1192
18046WAT    EPW73991   0.828   9.147   1.066 -0.0420 -0.2966  0.9527
18047WAT      O73992   6.775   0.176   0.038  0.0023  0.3203 -0.4490
18047WAT     H173993   6.716   0.103   0.054 -0.0016  0.3787 -0.2007
18047WAT     H273994   6.830   0.181   0.116  0.9174 -0.2749 -1.0265
18047WAT    EPW73995   6.775   0.167   0.050  0.1225  0.2495 -0.4924
18048WAT      O73996   1.769   2.649   3.538  0.9299  0.4102 -0.4258
18048WAT     H173997   1.835   2.581   3.549  2.3630  1.9792  1.1866
18048WAT     H273998   1.742   2.641   3.446  3.0832 -0.5294 -1.0494
18048WAT    EPW73999   1.774   2.639   3.527  1.4030  0.4933 -0.2953
18049WAT      O74000   6.987   1.969   1.418  0.5696 -0.4387  0.1758
18049WAT     H174001   6.967   1.920   1.498 -2.0010  2.3442  1.4612
18049WAT     H274002   6.968   1.908   1.347 -1.6612 -1.6441  1.6614
18049WAT    EPW74003   6.982   1.954   1.419 -0.0637 -0.2307  0.5413
18050WAT      O74004   6.593   3.547   4.701 -0.4054  0.2352 -0.6181
18050WAT     H174005   6.536   3.476   4.674  0.7871 -1.1336  0.2909
18050WAT     H274006   6.655   3.557   4.629 -0.3340  0.0788 -0.5787
18050WAT    EPW74007   6.594   3.539   4.688 -0.2389  0.0340 -0.4930
18051WAT      O74008   5.928   8.977   0.999  0.1675 -0.9755 -0.2613
18051WAT     H174009   6.004   9.034   1.013 -0.3448  0.3462 -2.3509
18051WAT     H274010   5.853   9.035   1.008 -0.3868 -1.3485 -2.0617
18051WAT    EPW74011   5.928   8.992   1.002  0.0267 -0.8502 -0.7743
18052WAT      O74012   7.804   3.732   5.729  0.4818 -0.1175  0.6802
18052WAT     H174013   7.838   3.767   5.811  0.3417 -0.1106  0.7362
18052WAT     H274014   7.815   3.637   5.738  1.2349 -0.0708  0.3629
18052WAT    EPW74015   7.810   3.724   5.741  0.5627 -0.1104  0.6456
18053WAT      O74016   7.572   1.637   4.253 -0.6282 -0.2637 -0.5218
18053WAT     H174017   7.533   1.624   4.339  0.3496 -1.1760 -0.2028
18053WAT     H274018   7.661   1.668   4.272 -0.7478  0.5399 -1.2190
18053WAT    EPW74019   7.579   1.640   4.267 -0.5150 -0.2781 -0.5720
18054WAT      O74020   5.979   2.282   4.350  1.0954 -0.6060  0.1485
18054WAT     H174021   5.938   2.329   4.277 -0.1258  1.0082  1.7731
18054WAT     H274022   6.016   2.350   4.406  0.7942 -1.6626  1.7285
18054WAT    EPW74023   5.978   2.297   4.348  0.8948 -0.5325  0.5713
18055WAT      O74024   8.686   2.448   3.528  0.2458  0.8144 -0.4097
18055WAT     H174025   8.691   2.531   3.481  0.9886  1.2792  0.4672
18055WAT     H274026   8.732   2.463   3.610 -0.9117 -0.0081  0.4381
18055WAT    EPW74027   8.693   2.461   3.533  0.1907  0.7672 -0.1823
18056WAT      O74028   9.818   2.685   6.200 -0.7510 -0.7992 -0.3778
18056WAT     H174029   9.864   2.705   6.119 -1.2070 -1.4386 -0.8087
18056WAT     H274030   9.865   2.733   6.268  1.4084 -2.5194 -0.5735
18056WAT    EPW74031   9.830   2.694   6.198 -0.5260 -1.1106 -0.4604
18057WAT      O74032   3.318   9.354   2.949 -0.0841 -0.1620 -0.2512
18057WAT     H174033   3.270   9.285   2.994  0.6106 -1.3724 -1.3049
18057WAT     H274034   3.296   9.434   2.997  0.5938 -1.3667  2.2377
18057WAT    EPW74035   3.309   9.355   2.961  0.0970 -0.4802 -0.0620
18058WAT      O74036   1.942  10.151   3.304  0.4218  0.3474  0.0656
18058WAT     H174037   1.991  10.227   3.271 -0.5339  0.0023 -2.3305
18058WAT     H274038   1.853  10.165   3.273 -0.4500 -0.3714  2.0710
18058WAT    EPW74039   1.937  10.163   3.295  0.1808  0.2079  0.0141
18059WAT      O74040   8.908   3.634   3.868 -0.2605  0.8729  0.0038
18059WAT     H174041   8.979   3.584   3.906  0.0200  1.7410  0.6523
18059WAT     H274042   8.950   3.710   3.829 -0.7694  1.0686 -0.1741
18059WAT    EPW74043   8.923   3.637   3.868 -0.2909  1.0133  0.0658
18060WAT      O74044   6.309   0.894   2.231  0.1526 -0.1897 -0.2219
18060WAT     H174045   6.310   0.979   2.276  1.0514 -0.2135 -0.1826
18060WAT     H274046   6.231   0.898   2.176 -0.1352  0.4361  0.2142
18060WAT    EPW74047   6.299   0.906   2.229  0.2334 -0.1103 -0.1593
18061WAT      O74048   2.581   5.527   1.877  0.0801 -0.5263 -0.1394
18061WAT     H174049   2.669   5.514   1.913  0.3231 -0.2395 -0.6173
18061WAT     H274050   2.523   5.482   1.938  0.3556  0.9807  1.2709
18061WAT    EPW74051   2.585   5.519   1.890  0.1485 -0.2897 -0.0164
18062WAT      O74052   5.978   1.324   5.144 -0.4888 -0.3902  0.0871
18062WAT     H174053   6.060   1.294   5.185  0.3685  0.1781 -1.1311
18062WAT     H274054   5.993   1.417   5.127 -1.6208 -0.1508  0.3591
18062WAT    EPW74055   5.991   1.332   5.147 -0.5250 -0.2837 -0.0377
18063WAT      O74056   9.694   3.266   3.405  0.1653 -0.3771 -0.3019
18063WAT     H174057   9.766   3.265   3.342 -0.9753 -1.8797 -1.6544
18063WAT     H274058   9.635   3.197   3.375 -2.3057  1.3813  0.2136
18063WAT    EPW74059   9.696   3.257   3.392 -0.3109 -0.3433 -0.4122
18064WAT      O74060   4.507   0.940   3.791 -0.0834  0.6639  0.0441
18064WAT     H174061   4.446   0.873   3.822 -2.5906  2.8457  0.2470
18064WAT     H274062   4.477   0.961   3.702  1.7720  0.2999 -0.6986
18064WAT    EPW74063   4.495   0.934   3.783 -0.1693  0.9037 -0.0271
18065WAT      O74064   3.767   2.230   2.463 -0.7883  0.2945  0.3197
18065WAT     H174065   3.715   2.191   2.392  0.2171 -2.5950  1.0281
18065WAT     H274066   3.809   2.306   2.422 -1.8003 -0.1144 -1.6186
18065WAT    EPW74067   3.766   2.235   2.448 -0.7893 -0.1404  0.1574
18066WAT      O74068  10.852   1.866   0.925  0.3373  0.4525 -0.1835
18066WAT     H174069  10.859   1.778   0.963 -0.8074 -0.1757 -1.3219
18066WAT     H274070  10.771   1.863   0.874  1.6049  1.3030 -2.3983
18066WAT    EPW74071  10.842   1.854   0.923  0.3533  0.4818 -0.6258
18067WAT      O74072   6.649   4.936   5.890  0.4729  0.3994  0.5071
18067WAT     H174073   6.744   4.948   5.890  0.9287 -1.6519  4.3345
18067WAT     H274074   6.635   4.852   5.934 -3.1375  0.2131 -0.6357
18067WAT    EPW74075   6.660   4.926   5.896  0.0567  0.1044  0.8614
18068WAT      O74076   6.049   6.690   8.348 -0.1883 -0.4038  0.2483
18068WAT     H174077   6.133   6.651   8.370 -0.0947 -0.1669  0.3196
18068WAT     H274078   6.046   6.690   8.252  0.8053  1.4616  0.1731
18068WAT    EPW74079   6.059   6.685   8.338 -0.0446 -0.1266  0.2484
18069WAT      O74080   4.021   9.453   4.426 -0.1218 -0.5445 -0.2849
18069WAT     H174081   4.054   9.483   4.341 -1.9111 -0.3979 -0.9859
18069WAT     H274082   4.063   9.510   4.490 -3.7076  4.1729 -1.5391
18069WAT    EPW74083   4.031   9.465   4.423 -0.8307  0.0973 -0.5426
18070WAT      O74084   8.784   2.045   4.036  0.7385  0.5027 -0.3741
18070WAT     H174085   8.819   2.110   3.974  0.9135  0.0105 -0.7966
18070WAT     H274086   8.715   2.092   4.083 -0.1049  0.6073 -1.6626
18070WAT    EPW74087   8.779   2.060   4.034  0.6504  0.4517 -0.5999
18071WAT      O74088   4.415   4.317   0.577 -1.3704  0.2908  0.3462
18071WAT     H174089   4.409   4.339   0.484  0.2709  1.4971  0.4759
18071WAT     H274090   4.501   4.276   0.586  0.1347  3.4112  1.8380
18071WAT    EPW74091   4.425   4.315   0.566 -0.9553  0.8616  0.5601
18072WAT      O74092   8.631   3.785   5.496 -0.4296  0.9057  0.4729
18072WAT     H174093   8.636   3.690   5.501 -0.1053  0.8608 -0.4564
18072WAT     H274094   8.537   3.803   5.487 -0.3247  0.4443 -2.5375
18072WAT    EPW74095   8.619   3.775   5.495 -0.3734  0.8390 -0.0467
18073WAT      O74096   0.714   8.620   1.992  0.1374  0.2861  0.3946
18073WAT     H174097   0.710   8.543   1.937 -0.1105  0.8609 -0.4100
18073WAT     H274098   0.808   8.639   2.001  0.2313 -0.5032  1.1750
18073WAT    EPW74099   0.726   8.613   1.986  0.1171  0.2575  0.3914
18074WAT      O74100   8.604   0.977   3.167  0.1352 -0.3810  0.2158
18074WAT     H174101   8.644   0.940   3.246  0.8709  0.0727  0.0644
18074WAT     H274102   8.622   0.912   3.099  0.0856 -0.4640  0.2824
18074WAT    EPW74103   8.612   0.963   3.168  0.2255 -0.3321  0.2047
18075WAT      O74104   3.752   1.778   4.167  0.4512 -0.1032  1.0766
18075WAT     H174105   3.704   1.810   4.091 -0.7137 -0.2402  1.7224
18075WAT     H274106   3.820   1.722   4.131 -0.7411 -1.0240  0.1476
18075WAT    EPW74107   3.754   1.775   4.152  0.1403 -0.2427  1.0393
18076WAT      O74108   6.754   3.011   3.469  0.3661  1.0122 -0.5429
18076WAT     H174109   6.733   2.957   3.394  0.2946  1.0869 -0.5773
18076WAT     H274110   6.692   3.084   3.464 -0.1387  0.6280  0.0039
18076WAT    EPW74111   6.743   3.014   3.459  0.2899  0.9713 -0.4754
18077WAT      O74112   6.176   3.033   2.167 -0.5769 -0.0662 -0.3095
18077WAT     H174113   6.213   3.119   2.184 -0.0308 -0.9199  3.8258
18077WAT     H274114   6.082   3.048   2.155 -0.6612  1.0651  1.4386
18077WAT    EPW74115   6.169   3.046   2.168 -0.5157 -0.0294  0.4665
18078WAT      O74116   1.255   9.825   3.938 -0.0601  0.1012  0.5625
18078WAT     H174117   1.297   9.762   3.997  1.3923  1.1819  0.7143
18078WAT     H274118   1.180   9.777   3.903  0.5665 -1.4667  1.2528
18078WAT    EPW74119   1.251   9.810   3.941  0.2141  0.0372  0.6737
18079WAT      O74120   6.913   1.800   1.208 -0.1918  1.0210  0.4918
18079WAT     H174121   6.969   1.820   1.133  0.6910  0.7598  1.0584
18079WAT     H274122   6.876   1.714   1.189  0.3997  0.7453  0.5501
18079WAT    EPW74123   6.916   1.791   1.196  0.0026  0.9502  0.5742
18080WAT      O74124   0.897   8.456   8.802  0.3803  1.0295  1.0915
18080WAT     H174125   0.986   8.429   8.780 -0.4241 -0.5264 -0.5159
18080WAT     H274126   0.863   8.384   8.856 -0.8482  0.1183 -0.8156
18080WAT    EPW74127   0.904   8.443   8.807  0.1121  0.7043  0.6280
18081WAT      O74128   4.760   1.474   3.294  0.2068  0.3806 -0.4326
18081WAT     H174129   4.794   1.546   3.241  1.3057 -0.4697 -0.9092
18081WAT     H274130   4.835   1.416   3.308 -0.4810 -0.3118  0.5651
18081WAT    EPW74131   4.774   1.476   3.289  0.2608  0.1770 -0.3638
18082WAT      O74132   4.031   0.346   3.681 -0.7820 -0.3385 -0.7478
18082WAT     H174133   3.957   0.316   3.734  0.4817 -0.7503  0.8875
18082WAT     H274134   4.108   0.316   3.729  0.4745  0.7095 -2.0090
18082WAT    EPW74135   4.031   0.338   3.694 -0.4497 -0.2546 -0.6984
18083WAT      O74136   5.278   0.929   1.984 -0.3759  0.8361 -0.3833
18083WAT     H174137   5.350   0.870   1.961 -0.6535 -0.1742  1.1753
18083WAT     H274138   5.212   0.913   1.917  0.2929  0.7558 -1.0338
18083WAT    EPW74139   5.279   0.919   1.972 -0.3245  0.6923 -0.2635
18084WAT      O74140   9.424   1.640   0.405  0.1806 -0.0867 -0.7987
18084WAT     H174141   9.505   1.597   0.432  0.4850  0.8375 -0.1599
18084WAT     H274142   9.452   1.728   0.379 -0.5464  0.0460 -1.1619
18084WAT    EPW74143   9.439   1.646   0.405  0.1249  0.0527 -0.7623
18085WAT      O74144   7.229   5.947   0.682 -0.8499 -0.4269 -0.2977
18085WAT     H174145   7.283   5.876   0.718  0.3972  1.9043  2.8450
18085WAT     H274146   7.186   5.986   0.758 -0.9960  2.5524 -1.7675
18085WAT    EPW74147   7.231   5.942   0.697 -0.7045  0.2732 -0.0771
18086WAT      O74148  10.638   9.836   2.083  0.4613  0.2752 -0.2089
18086WAT     H174149  10.641   9.776   2.157 -0.8763 -1.5030 -1.5055
18086WAT     H274150  10.725   9.832   2.044  0.2860 -1.1842 -0.5076
18086WAT    EPW74151  10.650   9.828   2.087  0.2623 -0.1521 -0.4193
18087WAT      O74152   8.623   4.828   3.094  0.3053  0.4102  0.3241
18087WAT     H174153   8.669   4.761   3.144 -0.5350 -1.6657 -1.5337
18087WAT     H274154   8.534   4.794   3.085  0.4245  0.6654 -2.5557
18087WAT    EPW74155   8.617   4.815   3.100  0.2108  0.1700 -0.3006
18088WAT      O74156   9.357   3.123   5.256 -0.5021  0.6140  0.1480
18088WAT     H174157   9.288   3.184   5.230  1.7806  3.1055 -0.4893
18088WAT     H274158   9.372   3.070   5.178 -0.0669  1.7339 -0.5574
18088WAT    EPW74159   9.350   3.124   5.242 -0.1440  1.0904 -0.0293
18089WAT      O74160   7.076   5.489   2.032  0.1250 -0.0040 -0.0612
18089WAT     H174161   7.167   5.485   2.001  0.4665 -0.7886  1.0246
18089WAT     H274162   7.061   5.405   2.073 -1.3682 -0.1836 -0.9170
18089WAT    EPW74163   7.086   5.478   2.033 -0.0267 -0.1311 -0.0309
18090WAT      O74164   4.537   3.057   1.715 -0.1240 -0.4874 -0.3222
18090WAT     H174165   4.457   3.032   1.762 -0.1408 -1.7698 -0.9890
18090WAT     H274166   4.527   3.151   1.700 -1.1232 -0.4709  0.3247
18090WAT    EPW74167   4.525   3.066   1.719 -0.2580 -0.6543 -0.3248
18091WAT      O74168   7.366   2.060   4.417 -0.3238 -0.3562 -0.0466
18091WAT     H174169   7.358   2.155   4.432  0.4145 -0.0517 -1.4204
18091WAT     H274170   7.436   2.052   4.352 -0.2010 -1.8736  0.2383
18091WAT    EPW74171   7.374   2.072   4.411 -0.2100 -0.5161 -0.1900
18092WAT      O74172   3.903   1.990   1.098  0.2236  0.5714 -0.5335
18092WAT     H174173   3.926   1.899   1.077  1.1970  0.8357 -0.6483
18092WAT     H274174   3.868   1.986   1.187 -0.8199 -0.0757 -0.9470
18092WAT    EPW74175   3.902   1.977   1.107  0.2145  0.5210 -0.6032
18093WAT      O74176   5.855   3.528   2.681 -0.1760  0.2517  0.0916
18093WAT     H174177   5.877   3.621   2.676  0.4699  0.1858  1.3425
18093WAT     H274178   5.939   3.483   2.684 -0.4266 -0.5719 -2.7433
18093WAT    EPW74179   5.869   3.534   2.681 -0.1237  0.1345 -0.1174
18094WAT      O74180   7.464   1.797   3.228 -0.1566  0.1342  0.3769
18094WAT     H174181   7.380   1.773   3.189  0.3651 -0.3286 -0.4880
18094WAT     H274182   7.528   1.782   3.158  0.5363  1.3568  0.7135
18094WAT    EPW74183   7.461   1.792   3.214  0.0036  0.2344  0.3073
18095WAT      O74184   3.781   9.447   2.992  0.4939  0.4677 -0.3031
18095WAT     H174185   3.759   9.401   3.074  0.9955 -1.4805 -1.2126
18095WAT     H274186   3.728   9.403   2.926  3.4735 -1.2167 -1.7833
18095WAT    EPW74187   3.771   9.435   2.994  0.9531 -0.0114 -0.6182
18096WAT      O74188   8.617   8.061   8.838 -0.1087 -0.3520  0.5560
18096WAT     H174189   8.582   8.023   8.757 -2.2490  0.2919  1.1010
18096WAT     H274190   8.711   8.063   8.825 -0.3439 -0.9078 -1.6353
18096WAT    EPW74191   8.625   8.056   8.825 -0.4220 -0.3400  0.3390
18097WAT      O74192  10.553   9.417   4.404  0.6373  0.6348 -0.2789
18097WAT     H174193  10.511   9.503   4.402  0.9657  0.8048 -2.8391
18097WAT     H274194  10.636   9.429   4.358  0.8951 -0.9475 -0.2974
18097WAT    EPW74195  10.558   9.430   4.398  0.7148  0.4482 -0.6189
18098WAT      O74196   9.661   2.825   2.902 -0.4672 -0.1068 -0.2412
18098WAT     H174197   9.578   2.872   2.909 -1.0435 -1.1392  0.2168
18098WAT     H274198   9.645   2.760   2.834  0.2868  0.2923 -0.8077
18098WAT    EPW74199   9.648   2.822   2.894 -0.4435 -0.1904 -0.2555
18099WAT      O74200   3.897   2.348   6.069 -0.6806 -0.4599 -0.4333
18099WAT     H174201   3.894   2.260   6.108  0.4736  0.4036  1.7973
18099WAT     H274202   3.931   2.334   5.981  0.3479 -2.1946  0.1866
18099WAT    EPW74203   3.902   2.334   6.063 -0.3927 -0.5747 -0.0575
18100WAT      O74204   8.160   1.398   3.876  0.2439 -0.4863  0.2907
18100WAT     H174205   8.215   1.452   3.819 -1.1709  1.5987  0.8202
18100WAT     H274206   8.124   1.458   3.940 -2.4797 -1.7814  0.1279
18100WAT    EPW74207   8.162   1.413   3.877 -0.3014 -0.3821  0.3390
18101WAT      O74208   6.147   3.829   3.914  0.1176  0.3497 -0.0675
18101WAT     H174209   6.059   3.863   3.901 -0.1244 -0.4208 -0.5093
18101WAT     H274210   6.177   3.807   3.826  0.7540  0.5999  0.0805
18101WAT    EPW74211   6.139   3.831   3.901  0.1695  0.2811 -0.1061
18102WAT      O74212   5.600   3.835   0.050  0.1745  0.3526 -0.2401
18102WAT     H174213   5.659   3.902   0.017 -0.8837 -0.0955 -3.4292
18102WAT     H274214   5.657   3.773   0.096  1.3405  2.6673  1.6274
18102WAT    EPW74215   5.615   3.836   0.052  0.1888  0.5988 -0.4144
18103WAT      O74216   5.253   3.874   5.050 -0.2905 -0.8641  0.3712
18103WAT     H174217   5.347   3.874   5.066 -0.2917 -0.1199  0.4096
18103WAT     H274218   5.233   3.964   5.024 -0.7146 -1.3919 -1.2898
18103WAT    EPW74219   5.262   3.886   5.048 -0.3464 -0.8355  0.1574
18104WAT      O74220   6.592   3.820   3.818  0.0681 -0.5496 -0.1594
18104WAT     H174221   6.528   3.871   3.867  1.1551 -1.3950  2.2877
18104WAT     H274222   6.621   3.879   3.748  0.2612  1.7043  1.7092
18104WAT    EPW74223   6.588   3.835   3.815  0.2370 -0.3637  0.4098
18105WAT      O74224   4.671   9.416   0.813  0.7134  0.1128  0.3652
18105WAT     H174225   4.580   9.386   0.817  1.1808 -1.6113 -0.6968
18105WAT     H274226   4.702   9.385   0.728  2.4013  0.3310  0.8722
18105WAT    EPW74227   4.663   9.408   0.802  0.9975 -0.0863  0.2920
18106WAT      O74228   8.675   2.877   5.452  0.9578  0.5840  0.3658
18106WAT     H174229   8.613   2.815   5.490  2.4449 -0.4829  1.1009
18106WAT     H274230   8.635   2.901   5.368  1.3302 -3.0869 -1.0541
18106WAT    EPW74231   8.661   2.872   5.446  1.2031 -0.0410  0.2756
18107WAT      O74232   5.388   3.644   2.807 -0.1534  0.4888  0.8790
18107WAT     H174233   5.312   3.607   2.763  0.8517 -0.6358  0.0652
18107WAT     H274234   5.425   3.706   2.744  0.4815 -0.1009  0.6604
18107WAT    EPW74235   5.383   3.648   2.793  0.0629  0.2626  0.7428
18108WAT      O74236   2.484   8.473   8.856 -0.7185 -0.0539 -0.5839
18108WAT     H174237   2.516   8.563   8.867 -0.2501 -0.3256  0.4091
18108WAT     H274238   2.435   8.475   8.774 -0.6571  1.0946 -0.6107
18108WAT    EPW74239   2.482   8.485   8.847 -0.6485  0.0620 -0.4559
18109WAT      O74240   6.535   1.745   5.918  0.1388 -0.6568  0.2195
18109WAT     H174241   6.547   1.703   5.833 -0.1054 -1.2409  0.4664
18109WAT     H274242   6.576   1.684   5.980  1.6869  0.4758  0.3752
18109WAT    EPW74243   6.542   1.731   5.915  0.3111 -0.5845  0.2728
18110WAT      O74244   3.058   4.792   3.572  0.6124 -0.3196  0.2505
18110WAT     H174245   3.116   4.748   3.635  0.2829 -0.0415  0.7494
18110WAT     H274246   3.097   4.773   3.487  1.9638  0.6277  0.6261
18110WAT    EPW74247   3.071   4.783   3.569  0.7472 -0.1576  0.3657
18111WAT      O74248  10.983   4.373   2.112 -0.1771  0.2243  0.8055
18111WAT     H174249  10.920   4.439   2.140 -0.7555 -0.9730  2.4244
18111WAT     H274250  11.021   4.339   2.193 -1.1865 -2.6795  0.1604
18111WAT    EPW74251  10.980   4.377   2.126 -0.3867 -0.3166  0.9340
18112WAT      O74252   6.589   3.365   0.206  0.1288  0.0354 -0.0616
18112WAT     H174253   6.619   3.274   0.211 -2.0036 -0.7059  0.0497
18112WAT     H274254   6.550   3.382   0.291 -0.3828  0.7220 -0.4268
18112WAT    EPW74255   6.588   3.355   0.218 -0.2201  0.0283 -0.0951
18113WAT      O74256   7.277   3.755   3.049 -0.1230 -0.1154 -0.4919
18113WAT     H174257   7.239   3.746   3.136  0.8042  1.1373  0.0775
18113WAT     H274258   7.234   3.832   3.012  0.2271 -0.0331 -0.7331
18113WAT    EPW74259   7.266   3.764   3.055  0.0455  0.0607 -0.4487
18114WAT      O74260   8.199   5.494   4.724 -0.2701  0.0680  0.1498
18114WAT     H174261   8.207   5.587   4.743  1.4066  0.3122 -1.4640
18114WAT     H274262   8.279   5.455   4.758 -1.1553 -0.8944  1.2063
18114WAT    EPW74263   8.210   5.501   4.731 -0.1664 -0.0267  0.0763
18115WAT      O74264   9.886   4.298   2.470 -0.7683 -0.1054 -0.1403
18115WAT     H174265   9.953   4.250   2.423 -1.2630 -1.1550  0.1895
18115WAT     H274266   9.930   4.377   2.502  1.4496 -2.4472  3.2886
18115WAT    EPW74267   9.900   4.302   2.468 -0.5407 -0.5524  0.3555
18116WAT      O74268  10.329   1.459   3.992  1.3139 -0.5935 -0.4179
18116WAT     H174269  10.393   1.499   4.053  1.4978 -2.5157  0.7248
18116WAT     H274270  10.379   1.393   3.945  0.5606 -0.8711 -0.8413
18116WAT    EPW74271  10.344   1.456   3.994  1.2383 -0.8837 -0.3231
18117WAT      O74272   6.228   4.244   4.297 -0.1410 -0.3447 -0.2934
18117WAT     H174273   6.216   4.315   4.234  0.6305 -1.0507 -1.2784
18117WAT     H274274   6.272   4.284   4.371 -2.3400  0.8167  0.4592
18117WAT    EPW74275   6.232   4.259   4.298 -0.3293 -0.2847 -0.3242
18118WAT      O74276  10.502   6.519   2.102 -0.5638 -0.0828  0.0011
18118WAT     H174277  10.504   6.482   2.014 -0.0505 -0.7687  0.2869
18118WAT     H274278  10.572   6.585   2.102 -1.1189  0.5082 -0.3486
18118WAT    EPW74279  10.512   6.523   2.091 -0.5693 -0.0951 -0.0073
18119WAT      O74280  10.604   3.412   3.105 -0.8313 -0.7283 -0.3313
18119WAT     H174281  10.566   3.332   3.141  1.1084 -2.1133 -1.1556
18119WAT     H274282  10.698   3.405   3.125 -0.8038  2.2329  1.1321
18119WAT    EPW74283  10.611   3.400   3.113 -0.5717 -0.5203 -0.2470
18120WAT      O74284   3.736   9.037   2.617  0.1968  0.1930  0.6208
18120WAT     H174285   3.661   9.074   2.570 -0.4308 -0.2088  1.2779
18120WAT     H274286   3.703   9.021   2.706  1.5761  1.7274  1.4705
18120WAT    EPW74287   3.722   9.040   2.623  0.2960  0.3428  0.8196
18121WAT      O74288   6.594   4.453   2.788  0.0370 -0.1856  0.3300
18121WAT     H174289   6.659   4.435   2.856  0.6194 -1.4017 -0.5199
18121WAT     H274290   6.623   4.536   2.750  1.9382 -1.3309 -0.9262
18121WAT    EPW74291   6.607   4.462   2.792  0.3648 -0.4971  0.0521
18122WAT      O74292   6.544   3.602   4.173  0.0906  0.4302  0.1625
18122WAT     H174293   6.523   3.544   4.247 -2.2823  0.9253 -0.0382
18122WAT     H274294   6.534   3.545   4.096 -0.4235  0.6390  0.0711
18122WAT    EPW74295   6.540   3.587   4.172 -0.2902  0.5231  0.1237
18123WAT      O74296   0.026   4.062   1.023 -0.1016 -0.4512 -0.3900
18123WAT     H174297  -0.059   4.040   0.983 -0.4024 -0.6445  0.3481
18123WAT     H274298   0.017   4.154   1.050 -0.2794 -0.6380  0.1975
18123WAT    EPW74299   0.013   4.072   1.021 -0.1647 -0.5012 -0.2152
18124WAT      O74300   6.638   2.767   5.434  0.0180  0.2836  0.4596
18124WAT     H174301   6.704   2.730   5.494  0.7463 -0.9326 -1.0268
18124WAT     H274302   6.599   2.691   5.391 -1.4472  1.0614  0.3405
18124WAT    EPW74303   6.642   2.752   5.436 -0.0792  0.2258  0.2480
18125WAT      O74304   7.413   2.949   4.209 -0.2720 -0.3358 -0.1949
18125WAT     H174305   7.319   2.928   4.204 -0.1219 -0.8009 -1.4458
18125WAT     H274306   7.446   2.932   4.121  1.5602 -2.8286  0.8667
18125WAT    EPW74307   7.405   2.944   4.196 -0.0105 -0.7259 -0.2196
18126WAT      O74308   6.333   7.959   2.722 -0.0098  0.3187 -0.0217
18126WAT     H174309   6.411   7.909   2.746  1.2585  2.4301  0.5729
18126WAT     H274310   6.322   7.943   2.628  2.3329  1.4226 -0.5613
18126WAT    EPW74311   6.342   7.950   2.713  0.4666  0.7429 -0.0145
18127WAT      O74312   6.887   3.419   2.292  0.3888  0.3466  0.0531
18127WAT     H174313   6.934   3.376   2.221 -1.0026 -0.0922 -0.6486
18127WAT     H274314   6.794   3.410   2.268 -0.2810 -1.6359  2.8903
18127WAT    EPW74315   6.881   3.412   2.280  0.1171  0.0274  0.3347
18128WAT      O74316   7.234   3.611   3.360  0.2825 -1.0648 -0.0067
18128WAT     H174317   7.193   3.563   3.288  0.4884  2.2353 -2.5420
18128WAT     H274318   7.169   3.678   3.384  1.4638 -0.1513  0.7498
18128WAT    EPW74319   7.220   3.614   3.354  0.4654 -0.5089 -0.2413
18129WAT      O74320   6.555   2.800   3.021  0.3406  1.0522  0.3536
18129WAT     H174321   6.527   2.750   2.945  0.4386  0.6081  0.6051
18129WAT     H274322   6.481   2.857   3.041  0.2799  1.1050 -0.0208
18129WAT    EPW74323   6.542   2.801   3.014  0.3452  1.0008  0.3374
18130WAT      O74324   3.289   1.773   1.513  0.1337  0.1611  0.6214
18130WAT     H174325   3.246   1.814   1.588  0.7436 -0.8227  1.5190
18130WAT     H274326   3.236   1.802   1.438 -1.3798 -0.0407  1.5607
18130WAT    EPW74327   3.276   1.783   1.513  0.0145  0.0047  0.8637
18131WAT      O74328   5.422   4.404   4.602  0.5207  0.4377  0.4292
18131WAT     H174329   5.489   4.342   4.572 -0.5330  0.0948 -1.3491
18131WAT     H274330   5.342   4.352   4.605 -0.1081  1.3845  0.3061
18131WAT    EPW74331   5.421   4.389   4.598  0.2990  0.5174  0.1783
18132WAT      O74332   7.495   3.927   5.360  0.5221  0.4293 -0.5957
18132WAT     H174333   7.466   3.839   5.335  0.5787  0.4408 -0.7013
18132WAT     H274334   7.456   3.985   5.294  1.1275  0.4020 -0.9852
18132WAT    EPW74335   7.486   3.923   5.348  0.6094  0.4274 -0.6609
18133WAT      O74336   6.586   2.636   4.603 -0.3744 -0.1067  0.0428
18133WAT     H174337   6.624   2.723   4.591  1.3008 -0.8848 -0.7218
18133WAT     H274338   6.495   2.645   4.573 -0.2206  1.3655 -0.0422
18133WAT    EPW74339   6.579   2.649   4.597 -0.1333 -0.0151 -0.0694
18134WAT      O74340   6.441   4.368   1.245  0.2664  0.4381 -0.5271
18134WAT     H174341   6.424   4.282   1.207  1.4355  1.0369 -2.5611
18134WAT     H274342   6.494   4.413   1.180 -0.2873  2.7139  0.4897
18134WAT    EPW74343   6.446   4.362   1.232  0.3476  0.8173 -0.6612
18135WAT      O74344   9.406   3.864   2.658  0.0300 -0.0955  0.7715
18135WAT     H174345   9.319   3.884   2.694 -0.2173 -0.2052  0.2393
18135WAT     H274346   9.467   3.904   2.721 -0.4148  0.5285  0.8174
18135WAT    EPW74347   9.402   3.872   2.671 -0.0610 -0.0277  0.7074
18136WAT      O74348   8.585   4.118   4.623  0.2966 -0.4744 -0.5856
18136WAT     H174349   8.494   4.137   4.600  0.1664  0.6671  0.7763
18136WAT     H274350   8.632   4.198   4.603  0.7221 -0.5290  0.1519
18136WAT    EPW74351   8.579   4.131   4.617  0.3357 -0.3312 -0.3088
18137WAT      O74352   5.075   2.384   2.531  0.2076  1.0707  0.3495
18137WAT     H174353   5.086   2.465   2.581 -0.1882  0.0211  2.2230
18137WAT     H274354   4.993   2.397   2.482 -1.7299  0.5979  3.2372
18137WAT    EPW74355   5.065   2.396   2.531 -0.1004  0.8700  0.9774
18138WAT      O74356   9.837   3.328   3.875  0.4778  0.0119  0.7761
18138WAT     H174357   9.852   3.403   3.818  0.5208  0.2288  1.0709
18138WAT     H274358   9.914   3.273   3.863 -0.0924 -0.5781 -0.3489
18138WAT    EPW74359   9.849   3.331   3.866  0.4082 -0.0374  0.6665
18139WAT      O74360   7.367   4.180   4.150 -0.2628 -0.4891 -0.4383
18139WAT     H174361   7.351   4.158   4.242 -0.3817 -0.1074 -0.3684
18139WAT     H274362   7.368   4.275   4.147  1.2346 -0.4787 -0.5693
18139WAT    EPW74363   7.365   4.189   4.162 -0.0806 -0.4375 -0.4463
18140WAT      O74364   9.970   7.554   3.222 -0.2233 -0.5717 -0.3080
18140WAT     H174365  10.065   7.542   3.211  0.0701  0.5640  0.7462
18140WAT     H274366   9.932   7.517   3.142  1.1543 -0.4152 -1.0747
18140WAT    EPW74367   9.978   7.548   3.210 -0.0029 -0.4010 -0.2701
18141WAT      O74368   8.597   7.426   1.062  0.1671 -0.0656  0.2214
18141WAT     H174369   8.537   7.434   0.989 -1.9374 -0.6790  1.7926
18141WAT     H274370   8.593   7.333   1.086 -0.9066  0.4941  2.4309
18141WAT    EPW74371   8.589   7.415   1.056 -0.2518 -0.0730  0.7201
18142WAT      O74372   9.027   3.351   0.894  1.3687 -0.5068  0.3609
18142WAT     H174373   9.069   3.286   0.951  1.7901 -1.7292 -1.2421
18142WAT     H274374   9.088   3.425   0.894  1.2615 -0.4091  1.6329
18142WAT    EPW74375   9.041   3.352   0.901  1.4100 -0.6552  0.3172
18143WAT      O74376   7.675   3.061   3.186 -0.1932  0.8934  0.7762
18143WAT     H174377   7.642   2.979   3.150  2.0134 -1.0668  2.8538
18143WAT     H274378   7.602   3.096   3.237 -0.9548 -0.1863  0.4569
18143WAT    EPW74379   7.661   3.055   3.188 -0.0024  0.4925  1.0082
18144WAT      O74380   8.635   1.900   1.865  0.1853  0.7453 -0.2521
18144WAT     H174381   8.706   1.905   1.802 -0.1383  1.4829 -0.5674
18144WAT     H274382   8.564   1.952   1.827 -1.1722 -1.3430 -0.7651
18144WAT    EPW74383   8.635   1.907   1.852 -0.0367  0.5671 -0.3614
18145WAT      O74384  10.818   1.909   4.925 -0.3492  0.2105 -0.0744
18145WAT     H174385  10.858   1.885   4.841 -1.4004 -1.3641 -0.1881
18145WAT     H274386  10.730   1.940   4.902  0.1162  1.9172  0.3032
18145WAT    EPW74387  10.812   1.910   4.911 -0.4268  0.2278 -0.0396
18146WAT      O74388   9.815   4.665   4.531 -0.2573 -0.3863  0.1226
18146WAT     H174389   9.850   4.742   4.487 -0.9614 -1.0302 -1.6329
18146WAT     H274390   9.829   4.683   4.624 -0.2073  1.7472 -0.2425
18146WAT    EPW74391   9.822   4.677   4.538 -0.3438 -0.1895 -0.1569
18147WAT      O74392  10.885   1.796   4.058  0.6865  0.9115  0.6941
18147WAT     H174393  10.886   1.859   3.987  1.3205 -0.6623 -0.7642
18147WAT     H274394  10.928   1.718   4.022 -1.3538 -0.8991  1.9031
18147WAT    EPW74395  10.891   1.794   4.044  0.5007  0.4652  0.6611
18148WAT      O74396   7.550   3.752   2.686 -0.0899  0.3340  0.3076
18148WAT     H174397   7.480   3.814   2.708 -0.6514  0.2004 -1.0157
18148WAT     H274398   7.630   3.796   2.715 -0.5736  1.2267  0.3426
18148WAT    EPW74399   7.552   3.766   2.692 -0.2277  0.4340  0.1377
18149WAT      O74400   6.754   2.916   3.722  0.1608  0.1958 -0.3238
18149WAT     H174401   6.681   2.854   3.717 -0.3923  0.8178 -0.0766
18149WAT     H274402   6.741   2.975   3.648 -1.1568  1.9595  1.1934
18149WAT    EPW74403   6.742   2.915   3.712 -0.0861  0.5105 -0.0912
18150WAT      O74404  10.399   3.013   4.828  0.4153  0.0648 -0.2303
18150WAT     H174405  10.355   3.024   4.913 -4.3799 -0.4369 -2.3179
18150WAT     H274406  10.394   3.100   4.788  2.8624  0.3557 -0.0745
18150WAT    EPW74407  10.392   3.026   4.834  0.1059  0.0370 -0.4852
18151WAT      O74408  10.676   3.789   5.571  0.0694  0.0685  0.4402
18151WAT     H174409  10.592   3.744   5.563 -0.2500  0.4863  1.3394
18151WAT     H274410  10.656   3.881   5.552  0.8434 -0.2170 -2.1205
18151WAT    EPW74411  10.662   3.795   5.567  0.1292  0.0858  0.2210
18152WAT      O74412   0.096   2.325   4.157 -0.1658  0.0989 -0.4576
18152WAT     H174413   0.002   2.325   4.171  0.2390  1.4710  3.6103
18152WAT     H274414   0.110   2.389   4.087 -2.2156 -1.0419 -2.0259
18152WAT    EPW74415   0.086   2.334   4.149 -0.3828  0.1295 -0.1280
18153WAT      O74416   2.831   2.455   2.568 -0.1000  0.3144  0.0070
18153WAT     H174417   2.843   2.405   2.488 -0.0616 -0.6422  0.5979
18153WAT     H274418   2.872   2.402   2.636  0.5122  1.4497  0.5591
18153WAT    EPW74419   2.838   2.442   2.567 -0.0141  0.3381  0.1580
18154WAT      O74420   9.034   4.441   3.699 -0.6121 -0.4554  0.3918
18154WAT     H174421   9.013   4.348   3.706  0.6802 -0.8511 -0.6973
18154WAT     H274422   8.950   4.485   3.715 -1.0018 -1.7221  2.2364
18154WAT    EPW74423   9.020   4.435   3.702 -0.4930 -0.6747  0.4915
18155WAT      O74424   8.456   5.039   3.433  0.7802  0.4244  0.0865
18155WAT     H174425   8.492   5.110   3.380  0.4081  0.8360  0.3777
18155WAT     H274426   8.377   5.011   3.386  2.5989 -2.0217 -1.7912
18155WAT    EPW74427   8.450   5.045   3.419  0.9713  0.1562 -0.1225
18156WAT      O74428   8.817   3.070   3.160  0.1978 -0.6387  0.0620
18156WAT     H174429   8.845   3.069   3.251 -2.6660  0.3973  1.0574
18156WAT     H274430   8.789   2.980   3.142 -0.5314 -0.5519  0.6995
18156WAT    EPW74431   8.817   3.058   3.170 -0.2756 -0.4907  0.2774
18157WAT      O74432   7.741   2.625   3.325  0.0548 -0.4378 -0.2446
18157WAT     H174433   7.706   2.539   3.348 -1.3427 -0.2709 -1.5736
18157WAT     H274434   7.825   2.607   3.284  0.4564 -1.0361  0.7778
18157WAT    EPW74435   7.747   2.611   3.323 -0.0768 -0.4948 -0.2850
18158WAT      O74436   6.789   3.187   3.869  0.3951 -0.1901 -0.3439
18158WAT     H174437   6.801   3.096   3.841  1.5432 -0.4794  0.9639
18158WAT     H274438   6.872   3.229   3.850  0.4034  0.1813  0.4611
18158WAT    EPW74439   6.801   3.181   3.863  0.5476 -0.1793 -0.0652
18159WAT      O74440   8.144   6.434   0.551 -0.1467  0.4957  0.1290
18159WAT     H174441   8.067   6.488   0.572  0.5121  2.6476 -2.5075
18159WAT     H274442   8.171   6.398   0.636 -2.0416  2.4083  1.6556
18159WAT    EPW74443   8.137   6.436   0.565 -0.3099  1.0316 -0.0174
18160WAT      O74444   6.332   4.424   4.792 -0.4091 -0.4731  0.6906
18160WAT     H174445   6.308   4.480   4.718  1.0602 -0.3209  0.3026
18160WAT     H274446   6.249   4.392   4.826 -1.2037  0.8406  0.0516
18160WAT    EPW74447   6.318   4.427   4.787 -0.3202 -0.2794  0.5550
18161WAT      O74448  10.222   2.772   5.037 -0.9488 -0.5129  0.3515
18161WAT     H174449  10.243   2.862   5.064  0.5769 -0.6385 -0.3162
18161WAT     H274450  10.225   2.721   5.118 -0.4765 -0.1852  0.5448
18161WAT    EPW74451  10.225   2.777   5.051 -0.6847 -0.4861  0.2890
18162WAT      O74452   6.383   3.895   1.944  0.0165  0.0682 -0.4927
18162WAT     H174453   6.474   3.899   1.915  0.4114 -1.5318  0.4083
18162WAT     H274454   6.333   3.886   1.863  0.7269  0.2582 -0.9609
18162WAT    EPW74455   6.389   3.894   1.929  0.1621 -0.1178 -0.4357
18163WAT      O74456   6.921   4.895   3.528  0.2881 -0.1060  0.0587
18163WAT     H174457   6.949   4.808   3.555  1.8114  0.8360  1.6934
18163WAT     H274458   6.834   4.881   3.492  0.3693 -2.2564  0.5313
18163WAT    EPW74459   6.913   4.882   3.527  0.4995 -0.2654  0.3366
18164WAT      O74460   6.535   3.856   4.689  0.1882 -0.2354 -1.2155
18164WAT     H174461   6.496   3.831   4.605  1.8061 -0.3437 -1.9750
18164WAT     H274462   6.502   3.791   4.751  0.1836 -1.0933 -2.0843
18164WAT    EPW74463   6.525   3.844   4.686  0.4010 -0.3629 -1.4303
18165WAT      O74464   0.700   2.830   5.182  0.6227 -0.0212  0.2677
18165WAT     H174465   0.650   2.880   5.118  1.5552  1.8789  0.9493
18165WAT     H274466   0.635   2.803   5.247 -0.1069 -0.8215 -0.7623
18165WAT    EPW74467   0.685   2.833   5.182  0.6495  0.1240  0.2217
18166WAT      O74468  10.214   2.668   0.515 -0.0501  0.0452 -0.4704
18166WAT     H174469  10.145   2.617   0.473 -0.3815  1.5576 -1.8405
18166WAT     H274470  10.259   2.713   0.443  1.3760  0.3128  0.5297
18166WAT    EPW74471  10.211   2.667   0.500  0.0949  0.2801 -0.5192
18167WAT      O74472   3.694   3.073   1.827 -0.0416  0.5654  0.5600
18167WAT     H174473   3.776   3.064   1.874  0.7917  0.6742 -0.8024
18167WAT     H274474   3.704   3.015   1.751  0.6215  3.7120 -2.0074
18167WAT    EPW74475   3.706   3.064   1.823  0.1558  0.9948  0.0416
18168WAT      O74476   7.793   4.663   2.252 -0.3367  0.1897 -0.1433
18168WAT     H174477   7.852   4.738   2.246  0.2771 -0.3496 -1.3432
18168WAT     H274478   7.846   4.593   2.290  0.0536 -0.4866 -1.8224
18168WAT    EPW74479   7.808   4.664   2.256 -0.2043  0.0293 -0.5231
18169WAT      O74480   9.618   3.528   3.443  0.0042 -0.4072  0.0329
18169WAT     H174481   9.690   3.572   3.398  0.1579 -0.6832  0.0069
18169WAT     H274482   9.638   3.435   3.435  0.9342 -0.4316  2.1659
18169WAT    EPW74483   9.630   3.521   3.436  0.1473 -0.4468  0.3109
18170WAT      O74484   9.137  10.065   8.802 -0.0392  0.1671 -0.8034
18170WAT     H174485   9.193  10.060   8.880 -2.9424 -1.5133  1.3485
18170WAT     H274486   9.085   9.985   8.804 -1.4972  0.9045 -3.5537
18170WAT    EPW74487   9.138  10.054   8.812 -0.6142  0.0429 -0.8821
18171WAT      O74488   4.595   0.129   8.838  0.2248  0.1796  0.2102
18171WAT     H174489   4.681   0.102   8.807 -0.3335 -1.3072 -0.1079
18171WAT     H274490   4.610   0.162   8.926  1.1432  0.1082  0.0820
18171WAT    EPW74491   4.608   0.130   8.845  0.2725 -0.0259  0.1516
18172WAT      O74492   8.048   4.416   5.142 -0.2780  0.3677 -0.1007
18172WAT     H174493   8.073   4.502   5.173 -2.0324  1.8014 -2.2954
18172WAT     H274494   8.039   4.426   5.047  0.2158 -2.4498 -0.5436
18172WAT    EPW74495   8.050   4.429   5.133 -0.4444  0.1853 -0.4487
18173WAT      O74496   7.996   5.905   2.909  0.3486  0.1679  0.9684
18173WAT     H174497   8.029   5.959   2.837  1.9250 -0.4380  1.2016
18173WAT     H274498   7.956   5.968   2.970  1.1438  0.9461  0.7094
18173WAT    EPW74499   7.995   5.921   2.907  0.6614  0.1905  0.9650
18174WAT      O74500   6.140   2.722   3.669 -0.6335 -0.0039 -0.2148
18174WAT     H174501   6.210   2.784   3.687 -1.1176  0.2650  0.8631
18174WAT     H274502   6.084   2.767   3.605 -0.5882  0.3750  0.0075
18174WAT    EPW74503   6.142   2.736   3.663 -0.6914  0.0814 -0.0433
18175WAT      O74504   9.934   4.904   2.946 -0.2100  0.0179 -0.0493
18175WAT     H174505   9.918   4.859   3.029  1.5297  1.6722  1.2323
18175WAT     H274506   9.944   4.832   2.883  1.3288 -1.4201  1.7001
18175WAT    EPW74507   9.933   4.888   2.949  0.2217  0.0463  0.3505
18176WAT      O74508   1.219  10.317   8.080  0.4738  0.6347 -0.3319
18176WAT     H174509   1.302  10.290   8.042  0.3403 -1.7607  0.8560
18176WAT     H274510   1.155  10.309   8.009  1.1988  2.5696 -1.2723
18176WAT    EPW74511   1.221  10.313   8.066  0.5518  0.5741 -0.2999
18177WAT      O74512   5.953   4.686   2.115 -0.1898  0.1039 -0.2670
18177WAT     H174513   5.868   4.722   2.140 -0.4444 -2.3421  2.9773
18177WAT     H274514   5.932   4.620   2.049 -0.9818 -0.9435  0.9757
18177WAT    EPW74515   5.939   4.682   2.109 -0.3278 -0.3567  0.3246
18178WAT      O74516   8.075   3.382   4.776  0.5182  0.2134 -0.4891
18178WAT     H174517   8.079   3.384   4.680  1.7434 -2.9743 -0.6231
18178WAT     H274518   7.995   3.430   4.797 -0.8852 -0.6529 -3.2685
18178WAT    EPW74519   8.065   3.388   4.766  0.4950 -0.3211 -0.8733
18179WAT      O74520   8.145   3.409   3.635  0.0059 -0.7172 -0.0345
18179WAT     H174521   8.070   3.377   3.586  0.6429 -1.2162 -0.7095
18179WAT     H274522   8.188   3.471   3.577 -1.5429  1.9250  1.4773
18179WAT    EPW74523   8.141   3.413   3.621 -0.1144 -0.4345  0.0758
18180WAT      O74524   5.444   3.686   1.753 -0.1109 -0.3356 -0.3892
18180WAT     H174525   5.510   3.733   1.804  0.3840 -0.4410 -0.9308
18180WAT     H274526   5.444   3.728   1.668  0.1584 -1.1418 -0.7977
18180WAT    EPW74527   5.453   3.698   1.749 -0.0098 -0.4557 -0.5145
18181WAT      O74528   8.030   5.797   2.190 -0.1947  0.2090 -0.1225
18181WAT     H174529   7.937   5.792   2.212 -0.4745  1.4735 -0.8591
18181WAT     H274530   8.074   5.748   2.259 -1.2705  1.1959  1.3372
18181WAT    EPW74531   8.023   5.790   2.202 -0.3734  0.5059 -0.0271
18182WAT      O74532   3.783   2.169   2.773 -0.3174 -1.1449 -0.4029
18182WAT     H174533   3.803   2.219   2.694 -0.3259 -0.4588  0.0196
18182WAT     H274534   3.867   2.165   2.820 -0.9100  1.0886  1.0116
18182WAT    EPW74535   3.797   2.175   2.769 -0.3966 -0.7598 -0.1607
18183WAT      O74536   6.759   4.518   5.026 -0.9879 -0.5047 -0.0947
18183WAT     H174537   6.804   4.573   4.962  0.6043 -0.4862  0.9982
18183WAT     H274538   6.726   4.580   5.091 -0.1913 -0.7228  0.5335
18183WAT    EPW74539   6.760   4.534   5.026 -0.6728 -0.5307  0.1323
18184WAT      O74540   6.720   4.300   2.581  0.1677 -0.1534 -0.0255
18184WAT     H174541   6.802   4.340   2.552 -0.3658  0.2852 -0.9512
18184WAT     H274542   6.685   4.361   2.646  0.3290 -0.0980  0.0097
18184WAT    EPW74543   6.727   4.313   2.586  0.1187 -0.0882 -0.1428
18185WAT      O74544   9.032   2.488   1.887  0.1755  0.4184  0.3589
18185WAT     H174545   9.030   2.444   1.972 -1.7140  1.0486  0.6966
18185WAT     H274546   9.001   2.577   1.906 -3.0151 -0.1713 -1.2913
18185WAT    EPW74547   9.027   2.494   1.901 -0.4950  0.4236  0.1858
18186WAT      O74548   9.206   4.700   5.057  0.1354  0.9992 -0.3036
18186WAT     H174549   9.295   4.668   5.072 -1.4154 -3.7923  0.5579
18186WAT     H274550   9.173   4.720   5.145 -0.3847  0.2588 -0.3251
18186WAT    EPW74551   9.213   4.698   5.071 -0.1378  0.2697 -0.1929
18187WAT      O74552   8.930   4.900   2.310  0.9248 -0.0482  0.2638
18187WAT     H174553   8.851   4.883   2.362  2.0454 -1.9953  1.4188
18187WAT     H274554   8.897   4.914   2.221 -1.4288  6.4534  1.5475
18187WAT    EPW74555   8.915   4.900   2.305  0.7625  0.5527  0.5854
18188WAT      O74556  10.082   1.031   4.821  0.3547  0.8821  0.0273
18188WAT     H174557  10.067   1.125   4.831  1.9387  1.1645  0.0109
18188WAT     H274558  10.131   1.005   4.899  2.8742  0.7973 -1.4728
18188WAT    EPW74559  10.086   1.040   4.833  0.8960  0.9082 -0.1726
18189WAT      O74560   6.735   3.329   4.112  1.0119 -0.1286  0.2005
18189WAT     H174561   6.644   3.309   4.135  0.9804  1.2840  1.4888
18189WAT     H274562   6.749   3.286   4.028 -1.6010  1.5055 -1.2223
18189WAT    EPW74563   6.725   3.321   4.104  0.6630  0.2732  0.1826
18190WAT      O74564   9.016   5.867   7.665 -0.4212  1.0422 -0.3989
18190WAT     H174565   8.972   5.944   7.628  0.9801  1.8432 -0.5002
18190WAT     H274566   9.107   5.877   7.638 -0.0676 -0.2708  0.2330
18190WAT    EPW74567   9.022   5.879   7.657 -0.1898  0.9747 -0.3288
18191WAT      O74568   5.482   4.349   1.716  0.3595 -0.7560  0.2912
18191WAT     H174569   5.524   4.278   1.668  3.9205  0.9607  0.5280
18191WAT     H274570   5.519   4.343   1.804  1.8685  2.0731 -0.0248
18191WAT    EPW74571   5.492   4.339   1.722  1.0283 -0.1564  0.2807
18192WAT      O74572   8.654   4.103   5.876 -0.1868  0.4644 -0.0167
18192WAT     H174573   8.716   4.037   5.845  1.8351  2.2414  0.0914
18192WAT     H274574   8.678   4.118   5.967 -1.4282  0.5156  0.3253
18192WAT    EPW74575   8.665   4.096   5.884 -0.0834  0.7057  0.0424
18193WAT      O74576   6.482   4.449   5.041 -0.2932 -0.5790 -0.1231
18193WAT     H174577   6.430   4.467   4.963 -0.9430 -0.0651  0.4264
18193WAT     H274578   6.571   4.475   5.016  0.3235 -3.9066 -1.9894
18193WAT    EPW74579   6.487   4.455   5.027 -0.2978 -0.9503 -0.2968
18194WAT      O74580   8.363   4.788   3.717  0.0376 -0.2944 -0.2581
18194WAT     H174581   8.351   4.737   3.637  0.8357 -0.4126 -0.3047
18194WAT     H274582   8.453   4.770   3.744  0.0872  0.5051  0.1328
18194WAT    EPW74583   8.373   4.779   3.710  0.1493 -0.2043 -0.2128
18195WAT      O74584   0.295   3.778   2.059 -0.3463 -0.9804  0.3171
18195WAT     H174585   0.332   3.732   1.984  1.2061 -1.1441  1.1540
18195WAT     H274586   0.219   3.726   2.084 -0.0120 -1.7400 -0.2226
18195WAT    EPW74587   0.290   3.765   2.052 -0.0975 -1.1022  0.3562
18196WAT      O74588   0.078   2.746   2.371  0.2359  0.2001  0.6682
18196WAT     H174589   0.087   2.652   2.385  0.2836  0.3143  1.4120
18196WAT     H274590  -0.016   2.760   2.360  0.2791 -0.0088 -0.0453
18196WAT    EPW74591   0.067   2.735   2.371  0.2479  0.1876  0.6721
18197WAT      O74592   5.913   4.184   4.635  0.9546 -0.6807  0.3386
18197WAT     H174593   5.986   4.153   4.583  1.6049  0.2778  0.6486
18197WAT     H274594   5.944   4.266   4.674 -0.4816  0.0659  0.0030
18197WAT    EPW74595   5.926   4.191   4.633  0.8507 -0.4554  0.3352
18198WAT      O74596   4.219   3.852   1.665  0.1091 -0.4319 -0.2393
18198WAT     H174597   4.286   3.797   1.623  0.5115 -0.2001  0.0825
18198WAT     H274598   4.156   3.790   1.702  0.1683 -0.6552 -0.5166
18198WAT    EPW74599   4.220   3.836   1.664  0.1700 -0.4307 -0.2335
18199WAT      O74600   8.360   7.227   1.363  0.1780 -0.3218  0.6489
18199WAT     H174601   8.371   7.152   1.422  0.3419 -1.5821 -0.8948
18199WAT     H274602   8.265   7.236   1.353  0.1329  0.2875  1.5580
18199WAT    EPW74603   8.349   7.218   1.369  0.1936 -0.4075  0.5652
18200WAT      O74604   0.569   6.256   1.535 -0.2444  0.1439  0.1065
18200WAT     H174605   0.551   6.337   1.488 -0.7975  0.4785  0.8639
18200WAT     H274606   0.515   6.262   1.614  0.9091 -0.2269  0.9609
18200WAT    EPW74607   0.560   6.268   1.539 -0.1652  0.1392  0.3191
18201WAT      O74608   9.933   1.950   5.778  0.7428 -0.4640  0.1505
18201WAT     H174609   9.859   1.910   5.822 -0.1619 -2.7020 -3.0506
18201WAT     H274610  10.005   1.889   5.792  1.4398  0.5990  1.3958
18201WAT    EPW74611   9.933   1.937   5.786  0.7153 -0.6190 -0.1075
18202WAT      O74612   8.037   4.311   2.754 -0.1393  0.1425 -0.3843
18202WAT     H174613   8.094   4.280   2.824 -0.3324  2.0790  0.6995
18202WAT     H274614   7.955   4.262   2.765  0.8911 -1.9678 -1.3710
18202WAT    EPW74615   8.034   4.300   2.764 -0.0286  0.1197 -0.3715
18203WAT      O74616   7.116   2.272   2.123  0.3442  0.0838 -0.5325
18203WAT     H174617   7.179   2.292   2.191  0.4398 -0.2847 -0.5089
18203WAT     H274618   7.109   2.176   2.124 -1.6148  0.1780  0.7426
18203WAT    EPW74619   7.123   2.262   2.132  0.0982  0.0476 -0.3612
18204WAT      O74620   5.843   3.211   1.645 -0.2151  0.2187 -0.7112
18204WAT     H174621   5.925   3.178   1.609 -1.5175 -1.2920 -2.4395
18204WAT     H274622   5.801   3.256   1.572 -1.5593 -0.2314 -0.2347
18204WAT    EPW74623   5.849   3.213   1.631 -0.5646 -0.0401 -0.8762
18205WAT      O74624   9.674   4.401   2.286  0.8682 -0.1262  0.2903
18205WAT     H174625   9.596   4.447   2.317  0.8342 -0.4551  0.6961
18205WAT     H274626   9.733   4.400   2.362  0.4641 -1.6509  0.6182
18205WAT    EPW74627   9.672   4.407   2.300  0.8101 -0.3705  0.3872
18206WAT      O74628   7.781   4.332   2.142 -0.7225 -0.3360 -0.4896
18206WAT     H174629   7.755   4.359   2.230  3.7738  0.1806  0.9216
18206WAT     H274630   7.767   4.410   2.088 -1.7521 -0.0535  0.1613
18206WAT    EPW74631   7.776   4.346   2.146 -0.2651 -0.2308 -0.2177
18207WAT      O74632   9.118   3.171   4.087 -0.2435 -0.8454  0.3082
18207WAT     H174633   9.046   3.184   4.149  0.1228  1.9718  0.2655
18207WAT     H274634   9.196   3.195   4.136  0.2227 -0.0937 -0.7802
18207WAT    EPW74635   9.119   3.176   4.101 -0.1345 -0.3746  0.1588
18208WAT      O74636   6.709   6.312   2.951  0.7630 -0.0067  0.5634
18208WAT     H174637   6.744   6.223   2.960  1.3105  0.1890  0.4464
18208WAT     H274638   6.727   6.335   2.860  0.3959  0.1309  0.5254
18208WAT    EPW74639   6.716   6.303   2.940  0.7870  0.0372  0.5430
18209WAT      O74640   4.314   1.448   3.161  0.3861  0.0353  0.3596
18209WAT     H174641   4.280   1.359   3.151  0.3079  0.0127  0.8010
18209WAT     H274642   4.404   1.444   3.128 -0.4176  0.3971 -2.0540
18209WAT    EPW74643   4.321   1.436   3.155  0.2694  0.0800  0.0994
18210WAT      O74644   5.962   4.353   5.454  0.1950 -0.4249  0.1637
18210WAT     H174645   6.040   4.380   5.502 -0.3709  0.1541  0.7691
18210WAT     H274646   5.995   4.295   5.385  1.0063 -1.3151  1.2735
18210WAT    EPW74647   5.976   4.349   5.451  0.2275 -0.4661  0.3901
18211WAT      O74648   8.691   3.860   2.666 -0.3111 -0.3890  0.4900
18211WAT     H174649   8.656   3.868   2.577  1.2140  1.3973 -0.0147
18211WAT     H274650   8.620   3.819   2.716 -1.8981  0.2324 -1.1331
18211WAT    EPW74651   8.677   3.855   2.661 -0.3195 -0.0713  0.2093
18212WAT      O74652   5.384   2.971   1.840 -0.5733  0.3159  0.5400
18212WAT     H174653   5.366   2.879   1.821  0.2925 -0.0890  1.5602
18212WAT     H274654   5.420   3.006   1.759  1.1311 -0.8253  0.7521
18212WAT    EPW74655   5.386   2.964   1.827 -0.2346  0.1119  0.7024
18213WAT      O74656   7.592   2.946   4.587  0.4128 -0.3437 -0.4195
18213WAT     H174657   7.603   2.909   4.499  0.7088  0.1298 -0.5834
18213WAT     H274658   7.570   2.870   4.642  1.0100 -0.7651 -0.7457
18213WAT    EPW74659   7.590   2.931   4.582  0.5305 -0.3368 -0.4840
18214WAT      O74660   9.038   4.558   2.997  0.1834  0.3618 -0.1940
18214WAT     H174661   9.133   4.548   2.988  0.1738  0.3029 -0.2326
18214WAT     H274662   9.006   4.470   3.018  0.3449  0.7008  1.6640
18214WAT    EPW74663   9.046   4.545   2.999  0.2031  0.3991  0.0460
18215WAT      O74664  10.208   7.563   1.311  0.7324  0.8838  0.1059
18215WAT     H174665  10.211   7.551   1.216  0.8751  1.1960  0.0699
18215WAT     H274666  10.298   7.548   1.340  0.5993  0.3393  0.2485
18215WAT    EPW74667  10.220   7.559   1.302  0.7339  0.8531  0.1200
18216WAT      O74668   6.494   5.781   0.317 -0.5724 -0.8844  0.2809
18216WAT     H174669   6.464   5.871   0.318 -1.1972 -1.0522 -0.9484
18216WAT     H274670   6.503   5.760   0.224 -0.9102 -2.2318  0.5288
18216WAT    EPW74671   6.491   5.790   0.305 -0.6995 -1.0841  0.1514
18217WAT      O74672   7.990   2.774   2.099 -0.5082 -0.0476 -0.6356
18217WAT     H174673   8.014   2.789   2.190  0.2156 -0.6493 -0.7141
18217WAT     H274674   8.023   2.686   2.079 -0.4097  0.1754 -1.5455
18217WAT    EPW74675   7.998   2.765   2.108 -0.3998 -0.0976 -0.7658
18218WAT      O74676   4.223   5.534   2.490  0.8698  0.2018  0.4266
18218WAT     H174677   4.184   5.520   2.576  0.3489  2.2752  0.5769
18218WAT     H274678   4.149   5.555   2.433  1.2566 -0.7551 -0.4600
18218WAT    EPW74679   4.208   5.535   2.494  0.8519  0.3493  0.3296
18219WAT      O74680   8.779   0.909   2.014  0.3583  0.0841 -0.2408
18219WAT     H174681   8.848   0.857   1.973  0.6887 -0.0167  0.4487
18219WAT     H274682   8.803   1.000   1.994 -0.0900  0.0038 -1.2311
18219WAT    EPW74683   8.791   0.914   2.006  0.3424  0.0603 -0.2803
18220WAT      O74684   7.980   4.586   0.459 -0.2897  0.3216  0.3310
18220WAT     H174685   7.979   4.561   0.552  0.7016  1.0945  0.5618
18220WAT     H274686   7.887   4.589   0.435 -0.5247 -3.3228  0.3096
18220WAT    EPW74687   7.968   4.583   0.468 -0.1903 -0.0570  0.3586
18221WAT      O74688   8.638   4.771   5.014  0.4309  0.1244 -0.3558
18221WAT     H174689   8.626   4.864   5.034 -0.0997 -0.1039  0.4543
18221WAT     H274690   8.725   4.766   4.976  1.0566  0.7812  0.9000
18221WAT    EPW74691   8.648   4.782   5.012  0.4430  0.1810 -0.0834
18222WAT      O74692   4.445   4.629   2.590  0.3337  0.4957 -1.0151
18222WAT     H174693   4.376   4.681   2.631  1.4447 -0.0274  1.6893
18222WAT     H274694   4.438   4.543   2.629 -0.2467 -0.9643 -4.0328
18222WAT    EPW74695   4.435   4.625   2.601  0.4034  0.2339 -1.0564
18223WAT      O74696   6.259   2.362   6.047 -0.6520 -0.1189 -0.0244
18223WAT     H174697   6.205   2.284   6.036 -0.2830 -0.1733 -1.7148
18223WAT     H274698   6.209   2.432   6.005  2.0460 -0.8737 -5.3387
18223WAT    EPW74699   6.245   2.361   6.040 -0.2475 -0.2255 -0.9484
18224WAT      O74700   5.587   4.588   4.723 -0.6105 -0.4131 -0.3251
18224WAT     H174701   5.624   4.627   4.645  1.4897 -1.1730  0.2228
18224WAT     H274702   5.537   4.513   4.691 -0.4017 -0.2697 -0.9949
18224WAT    EPW74703   5.585   4.583   4.709 -0.3059 -0.4947 -0.3412
18225WAT      O74704   1.483   8.245   7.212 -0.5540  0.5039  0.6281
18225WAT     H174705   1.539   8.171   7.191 -0.3299  0.9441 -0.3720
18225WAT     H274706   1.538   8.301   7.267 -0.5973  0.1208  1.0677
18225WAT    EPW74707   1.497   8.243   7.217 -0.5301  0.5112  0.5541
18226WAT      O74708   7.314   5.204   1.762  0.1880 -0.2992  0.0125
18226WAT     H174709   7.240   5.243   1.716  0.4492  1.7256  1.1508
18226WAT     H274710   7.304   5.110   1.749 -0.0104  0.0909 -3.6833
18226WAT    EPW74711   7.303   5.197   1.754  0.1962  0.0191 -0.3248
18227WAT      O74712   6.966   4.317   1.948  0.5707  0.0088 -0.5831
18227WAT     H174713   6.993   4.321   2.040 -1.0613 -1.3251  0.0088
18227WAT     H274714   6.917   4.398   1.935 -1.0607 -0.7714  0.4150
18227WAT    EPW74715   6.963   4.328   1.959  0.1402 -0.2701 -0.3734
18228WAT      O74716   7.417   4.326   0.544  0.1358  0.1090 -0.8234
18228WAT     H174717   7.455   4.356   0.462 -0.4378  0.5013 -0.9547
18228WAT     H274718   7.366   4.401   0.576 -0.4935 -0.3863 -0.6426
18228WAT    EPW74719   7.415   4.340   0.538 -0.0226  0.0956 -0.8168
18229WAT      O74720   0.899   7.769   8.772  0.2481  1.2199 -0.2681
18229WAT     H174721   0.865   7.681   8.756 -0.4978  1.3687  0.4460
18229WAT     H274722   0.834   7.810   8.828  1.0811  1.8904  0.2329
18229WAT    EPW74723   0.886   7.763   8.777  0.2596  1.3280 -0.1078
18230WAT      O74724   6.483   4.280   0.379 -0.6527 -0.3867  0.1527
18230WAT     H174725   6.396   4.318   0.365 -0.4816  0.0111  0.1448
18230WAT     H274726   6.543   4.340   0.333 -0.1925  0.3302  1.6097
18230WAT    EPW74727   6.480   4.293   0.371 -0.5696 -0.2398  0.3439
18231WAT      O74728   9.285   3.886   0.770 -0.0177  0.9677 -0.6824
18231WAT     H174729   9.234   3.851   0.697 -0.6264  0.9797 -0.2729
18231WAT     H274730   9.287   3.816   0.834  0.2313  1.0745 -0.5718
18231WAT    EPW74731   9.278   3.872   0.769 -0.0648  0.9835 -0.6138
18232WAT      O74732   7.017   7.075   0.942 -0.4231 -0.3862 -0.2807
18232WAT     H174733   6.950   7.129   0.900 -0.5199 -0.5210 -0.3029
18232WAT     H274734   7.010   7.097   1.035  1.3847  1.6670 -0.5565
18232WAT    EPW74735   7.007   7.085   0.949 -0.1976 -0.1330 -0.3200
18233WAT      O74736   6.992   5.470   0.489 -0.4731 -0.1157  0.2998
18233WAT     H174737   6.965   5.481   0.398 -2.0320  0.3141  0.7805
18233WAT     H274738   7.009   5.559   0.520  2.7449 -0.4234 -0.2836
18233WAT    EPW74739   6.990   5.483   0.481 -0.2544 -0.0994  0.2863
18234WAT      O74740   9.836   3.241   2.849 -0.6156  0.1434  0.0032
18234WAT     H174741   9.765   3.279   2.901 -0.0191  0.1527  0.8261
18234WAT     H274742   9.916   3.279   2.885 -0.0789 -1.0512  0.1352
18234WAT    EPW74743   9.837   3.251   2.860 -0.4663 -0.0129  0.1292
18235WAT      O74744   7.492   2.495   3.792 -0.0133  0.0771 -0.5318
18235WAT     H174745   7.440   2.440   3.733 -0.1114  2.6323 -3.0391
18235WAT     H274746   7.583   2.469   3.776 -0.1142  0.0310 -1.0316
18235WAT    EPW74747   7.497   2.484   3.782 -0.0398  0.4081 -0.9284
18236WAT      O74748   7.594   5.387   2.574 -0.2470  0.1598  0.2978
18236WAT     H174749   7.593   5.366   2.667  2.1120  0.1307  0.3778
18236WAT     H274750   7.602   5.302   2.530 -1.2399  0.1809  0.0541
18236WAT    EPW74751   7.595   5.373   2.580 -0.0668  0.1588  0.2761
18237WAT      O74752   9.014   4.527   1.612  0.0154  0.0508 -0.8747
18237WAT     H174753   9.002   4.622   1.612  0.2925  0.0833 -1.0172
18237WAT     H274754   8.990   4.499   1.523  2.5138  0.2985 -1.6850
18237WAT    EPW74755   9.009   4.536   1.600  0.3815  0.0877 -1.0003
18238WAT      O74756   9.751   3.621   2.367  0.4081  0.2491  0.0585
18238WAT     H174757   9.671   3.568   2.366 -0.7811  1.9807 -0.8899
18238WAT     H274758   9.808   3.580   2.302  0.8313 -1.6797  1.5345
18238WAT    EPW74759   9.748   3.609   2.358  0.3071  0.2229  0.1283
18239WAT      O74760   7.724   1.879   5.575  0.1574 -0.4221  0.0121
18239WAT     H174761   7.808   1.904   5.614  0.8621 -1.5726 -0.7199
18239WAT     H274762   7.726   1.783   5.574  0.1749 -0.4577 -2.8340
18239WAT    EPW74763   7.735   1.870   5.580  0.2527 -0.5785 -0.4599
18240WAT      O74764   9.227   4.486   2.647 -0.2055  0.1705 -0.9048
18240WAT     H174765   9.243   4.393   2.657  0.5316  0.2086 -1.6439
18240WAT     H274766   9.133   4.496   2.661 -0.1297 -0.5194  0.2456
18240WAT    EPW74767   9.217   4.475   2.650 -0.0982  0.0844 -0.8506
18241WAT      O74768   7.535   4.098   3.778  0.9727  0.1616 -0.2084
18241WAT     H174769   7.451   4.143   3.773  0.3223 -1.1531 -2.1454
18241WAT     H274770   7.562   4.108   3.869 -1.7050 -0.1551  0.7039
18241WAT    EPW74771   7.528   4.105   3.789  0.5338 -0.0536 -0.3436
18242WAT      O74772   6.468   2.101   0.743  0.5915 -0.0153 -0.5195
18242WAT     H174773   6.468   2.053   0.660 -2.4284  1.0299 -1.2743
18242WAT     H274774   6.442   2.190   0.719  0.6862  0.5773  1.4300
18242WAT    EPW74775   6.464   2.107   0.729  0.2055  0.2007 -0.3619
18243WAT      O74776   6.165   3.441   4.581 -0.4943  0.1208 -0.2323
18243WAT     H174777   6.183   3.351   4.606 -0.5114  0.1718 -0.0373
18243WAT     H274778   6.155   3.488   4.664  3.2333  1.0863 -0.1669
18243WAT    EPW74779   6.166   3.436   4.595 -0.0050  0.2550 -0.1979
18244WAT      O74780  10.513   6.355   4.419 -0.3956 -0.1331  0.2985
18244WAT     H174781  10.510   6.360   4.323 -0.9352  1.0097  0.3525
18244WAT     H274782  10.483   6.267   4.439  0.5827 -0.6965 -0.6109
18244WAT    EPW74783  10.509   6.344   4.409 -0.3376 -0.0567  0.1857
18245WAT      O74784   8.010   3.073   3.565 -0.8512 -0.3892  0.1041
18245WAT     H174785   7.976   3.029   3.642 -0.3459 -2.2957 -0.6868
18245WAT     H274786   7.961   3.034   3.492  0.0656 -0.1238 -0.6774
18245WAT    EPW74787   7.999   3.062   3.565 -0.6635 -0.6058 -0.1034
18246WAT      O74788   2.485   1.217   8.877  0.0217 -0.5779 -0.0027
18246WAT     H174789   2.393   1.204   8.903  0.3576 -1.4469  0.8240
18246WAT     H274790   2.489   1.187   8.787 -0.7025  0.3695 -0.3675
18246WAT    EPW74791   2.473   1.212   8.869 -0.0297 -0.5676  0.0577
18247WAT      O74792  10.556   4.537   6.474  0.3666  0.5178 -0.3565
18247WAT     H174793  10.582   4.504   6.560 -0.5878 -0.3550 -0.3794
18247WAT     H274794  10.464   4.511   6.466  0.1905  1.3888 -1.2656
18247WAT    EPW74795  10.548   4.529   6.485  0.2174  0.5174 -0.4795
18248WAT      O74796  10.271   4.997   3.277 -0.4210 -0.3775  0.0052
18248WAT     H174797  10.284   5.000   3.182  2.6412 -1.2295  0.2997
18248WAT     H274798  10.360   4.996   3.313 -1.4899  1.3076  2.9669
18248WAT    EPW74799  10.285   4.997   3.269 -0.1583 -0.2677  0.4346
18249WAT      O74800   9.426   3.932   1.968 -0.0854  0.2604 -0.7813
18249WAT     H174801   9.335   3.959   1.967 -0.7409 -1.6845  0.6222
18249WAT     H274802   9.453   3.939   2.059  0.1165 -2.2665 -0.5688
18249WAT    EPW74803   9.418   3.937   1.980 -0.1454 -0.3295 -0.5682
18250WAT      O74804   5.711   2.693   4.385  0.4146 -0.3321 -0.3237
18250WAT     H174805   5.662   2.744   4.320 -1.6878 -0.4448  1.0884
18250WAT     H274806   5.670   2.607   4.384  1.7553 -1.0086 -0.3030
18250WAT    EPW74807   5.699   2.688   4.376  0.3142 -0.4363 -0.1347
18251WAT      O74808  10.124   1.588   4.831  0.5556  0.3031  0.3361
18251WAT     H174809  10.082   1.605   4.747 -1.2063  0.7179  1.2427
18251WAT     H274810  10.129   1.492   4.836 -0.3857  0.2354  0.2279
18251WAT    EPW74811  10.119   1.577   4.821  0.1988  0.3489  0.4416
18252WAT      O74812   4.879   5.258   3.271 -0.0050 -0.1931 -0.1884
18252WAT     H174813   4.885   5.351   3.293 -0.1985  0.0175 -0.9983
18252WAT     H274814   4.962   5.237   3.229  1.1830 -1.0833  2.4214
18252WAT    EPW74815   4.890   5.267   3.268  0.1261 -0.2830  0.0489
18253WAT      O74816   7.590   0.763   4.870  0.3051  0.6816 -0.5844
18253WAT     H174817   7.628   0.802   4.791 -0.6811  1.7807 -0.5440
18253WAT     H274818   7.662   0.714   4.910  0.6998 -0.3388 -2.4161
18253WAT    EPW74819   7.604   0.761   4.864  0.2272  0.6920 -0.8209
18254WAT      O74820   6.605   4.732   2.692  0.5260  0.4591 -0.0120
18254WAT     H174821   6.625   4.733   2.785 -1.3123 -4.0298  0.7396
18254WAT     H274822   6.515   4.766   2.686 -0.6596 -2.3001  0.5411
18254WAT    EPW74823   6.596   4.736   2.703  0.1276 -0.4969  0.1601
18255WAT      O74824   4.768   5.003   1.529 -0.2828  0.3815  0.0914
18255WAT     H174825   4.852   5.032   1.493 -0.3182  0.9389  0.4360
18255WAT     H274826   4.713   5.082   1.527  0.4261  1.1299  3.5164
18255WAT    EPW74827   4.772   5.018   1.524 -0.1941  0.5538  0.5887
18256WAT      O74828   9.478   5.358   0.825 -0.3591  1.0581  0.3634
18256WAT     H174829   9.520   5.392   0.904  1.3216 -0.2486  0.0893
18256WAT     H274830   9.396   5.407   0.818 -0.7430  0.9525  3.1142
18256WAT    EPW74831   9.473   5.369   0.834 -0.1884  0.8719  0.6900
18257WAT      O74832  10.298   3.975   4.439 -0.0482 -0.7099 -0.1015
18257WAT     H174833  10.301   3.912   4.367 -1.0106 -0.5057 -0.3415
18257WAT     H274834  10.275   3.922   4.516 -0.2028 -0.7557 -0.1776
18257WAT    EPW74835  10.295   3.960   4.440 -0.1955 -0.6890 -0.1433
18258WAT      O74836   5.824   2.360   7.003  0.6239 -0.4839 -0.2735
18258WAT     H174837   5.812   2.266   7.015 -4.7269 -0.5271 -3.0662
18258WAT     H274838   5.887   2.367   6.931  1.1995 -1.9218  0.0563
18258WAT    EPW74839   5.831   2.349   6.995 -0.0062 -0.6791 -0.5982
18259WAT      O74840   7.033   4.178   0.966  0.1707 -0.0702  0.0065
18259WAT     H174841   7.062   4.113   0.903 -1.8658  0.1621 -1.2630
18259WAT     H274842   7.017   4.129   1.046 -0.7512 -1.0539 -0.7565
18259WAT    EPW74843   7.035   4.163   0.968 -0.2196 -0.1693 -0.2616
18260WAT      O74844   9.798   5.987   4.876 -0.6045 -0.9091 -1.3742
18260WAT     H174845   9.892   5.968   4.877 -0.5858 -0.8716  0.4617
18260WAT     H274846   9.763   5.928   4.809  0.6560 -1.2290 -1.7932
18260WAT    EPW74847   9.806   5.977   4.867 -0.4358 -0.9463 -1.1876
18261WAT      O74848   8.650   4.154   2.657 -0.0048 -0.2075  0.5549
18261WAT     H174849   8.644   4.063   2.630 -1.7311  0.2563 -0.7858
18261WAT     H274850   8.667   4.203   2.576  1.9546  0.6189  1.3838
18261WAT    EPW74851   8.651   4.149   2.643  0.0257 -0.0377  0.4876
18262WAT      O74852   8.567   2.888   3.222  0.5200 -0.1390 -0.2214
18262WAT     H174853   8.532   2.956   3.164 -1.4883 -0.8209  0.1185
18262WAT     H274854   8.519   2.809   3.198  0.8680 -0.8286  1.2297
18262WAT    EPW74855   8.556   2.887   3.211  0.3014 -0.3200  0.0149
18263WAT      O74856   6.363   9.571   7.144 -0.0599 -0.2083 -0.1632
18263WAT     H174857   6.407   9.509   7.203  1.3016 -0.1222 -1.0391
18263WAT     H274858   6.328   9.638   7.203 -0.2505 -1.0240  0.6815
18263WAT    EPW74859   6.364   9.571   7.160  0.0947 -0.3042 -0.1674
18264WAT      O74860   7.653   7.813   0.263  0.4161 -0.8413  0.7760
18264WAT     H174861   7.610   7.898   0.254  1.5824 -0.4076 -1.5294
18264WAT     H274862   7.615   7.775   0.342 -3.5148 -0.1458 -0.5647
18264WAT    EPW74863   7.642   7.820   0.272  0.0513 -0.6924  0.2951
18265WAT      O74864   7.872   1.131   1.833  0.2641  0.1748  0.4448
18265WAT     H174865   7.896   1.190   1.904 -1.3351  0.7245  0.5620
18265WAT     H274866   7.837   1.053   1.876  1.9099 -0.6924  0.2820
18265WAT    EPW74867   7.870   1.128   1.848  0.2701  0.1329  0.4389
18266WAT      O74868  10.701   4.593   6.005  0.4420  0.2531 -0.6728
18266WAT     H174869  10.782   4.637   6.029  0.7995 -1.4736  1.7425
18266WAT     H274870  10.728   4.528   5.940  0.9897 -0.1375 -0.0750
18266WAT    EPW74871  10.715   4.590   6.000  0.5617 -0.0265 -0.2754
18267WAT      O74872   0.061   2.435   2.351  0.5284  0.4590 -0.4723
18267WAT     H174873   0.078   2.407   2.441  1.3513 -1.1428 -1.0997
18267WAT     H274874  -0.031   2.413   2.336  0.6234 -0.0458 -0.3037
18267WAT    EPW74875   0.051   2.429   2.361  0.6490  0.1811 -0.5327
18268WAT      O74876   6.470   2.971   4.308  0.2530 -0.0106  0.4209
18268WAT     H174877   6.451   3.005   4.395 -2.1710  0.1108 -0.0962
18268WAT     H274878   6.396   2.915   4.286  0.5545  0.3140 -1.7324
18268WAT    EPW74879   6.458   2.968   4.316 -0.0269  0.0482  0.0687
18269WAT      O74880   6.950   4.151   0.280  0.2018  0.0789  0.2410
18269WAT     H174881   6.958   4.159   0.375 -2.4767  1.5042  0.4368
18269WAT     H274882   6.861   4.121   0.265  1.2993 -2.5568 -1.8193
18269WAT    EPW74883   6.940   4.148   0.291 -0.0069 -0.0811 -0.0049
18270WAT      O74884  10.202   2.868   0.755 -0.0112  0.1998  0.8168
18270WAT     H174885  10.258   2.940   0.727  1.3756 -0.6755  1.2451
18270WAT     H274886  10.190   2.814   0.676 -1.1327  0.9183  0.4712
18270WAT    EPW74887  10.208   2.870   0.741  0.0238  0.1789  0.8277
18271WAT      O74888   0.077   3.668   3.852  0.2204 -0.1787  0.0113
18271WAT     H174889   0.078   3.755   3.892  0.6662  0.5851 -1.5757
18271WAT     H274890   0.169   3.651   3.831  0.1636 -1.1440  0.5018
18271WAT    EPW74891   0.089   3.677   3.855  0.2717 -0.2053 -0.1335
18272WAT      O74892   6.999   5.154   3.535 -0.4487 -0.1416 -0.3364
18272WAT     H174893   7.086   5.163   3.496  0.9115  0.3256  2.5272
18272WAT     H274894   6.979   5.060   3.527  1.1753 -0.6004  0.5895
18272WAT    EPW74895   7.008   5.143   3.529 -0.0548 -0.1404  0.1633
18273WAT      O74896   0.565   8.819   7.565 -0.7365 -0.4685 -0.2943
18273WAT     H174897   0.645   8.854   7.525 -0.7599 -0.2869 -0.1836
18273WAT     H274898   0.505   8.806   7.492 -0.5991 -0.6244 -0.3804
18273WAT    EPW74899   0.568   8.822   7.550 -0.7215 -0.4654 -0.2911
18274WAT      O74900   8.550   5.650   3.444 -0.2407  0.4786  0.1862
18274WAT     H174901   8.457   5.640   3.462 -0.6171 -1.5330 -2.2628
18274WAT     H274902   8.556   5.644   3.348  2.3984  0.5869  0.2807
18274WAT    EPW74903   8.539   5.648   3.434  0.0577  0.2277 -0.1243
18275WAT      O74904   4.038   0.948   6.960  0.3546 -0.1927 -0.1875
18275WAT     H174905   4.078   0.950   6.873  1.1487  1.5436  0.1792
18275WAT     H274906   4.095   1.002   7.014  1.6697 -3.6072  2.2360
18275WAT    EPW74907   4.051   0.955   6.956  0.6325 -0.4140  0.1805
18276WAT      O74908   9.089   5.893   2.815 -0.7218  0.7193 -0.4202
18276WAT     H174909   9.061   5.972   2.860  1.1531  0.0256  2.1991
18276WAT     H274910   9.008   5.846   2.795 -1.7663  2.5475 -0.6336
18276WAT    EPW74911   9.075   5.897   2.818 -0.6132  0.8688 -0.1028
18277WAT      O74912   7.445   3.478   1.419 -0.1900  0.0520 -1.0199
18277WAT     H174913   7.423   3.390   1.389  0.0063  0.1068 -1.3314
18277WAT     H274914   7.362   3.526   1.414 -0.7235 -0.5783  0.8847
18277WAT    EPW74915   7.431   3.473   1.414 -0.2348 -0.0240 -0.8097
18278WAT      O74916   6.462   6.676   2.757  0.5551  0.0240 -0.0310
18278WAT     H174917   6.372   6.680   2.789 -0.8823 -0.5190 -3.5851
18278WAT     H274918   6.516   6.688   2.836 -2.5645  2.0138  2.0325
18278WAT    EPW74919   6.457   6.678   2.772 -0.0460  0.2148 -0.2275
18279WAT      O74920   0.701   7.154   1.497  0.2872 -0.0884 -0.1969
18279WAT     H174921   0.764   7.085   1.477  1.1603  0.4735  0.5916
18279WAT     H274922   0.748   7.235   1.480 -0.5754  0.3365 -0.6271
18279WAT    EPW74923   0.715   7.155   1.492  0.2886  0.0417 -0.1496
18280WAT      O74924  10.427   6.718   6.603  0.0784 -0.0440  0.4524
18280WAT     H174925  10.433   6.627   6.633  1.1293 -0.1316  0.0365
18280WAT     H274926  10.338   6.745   6.624 -0.5451 -1.4664 -0.2289
18280WAT    EPW74927  10.416   6.710   6.609  0.1345 -0.2432  0.3076
18281WAT      O74928   9.856   6.349   1.291 -0.6431  0.2720  0.5095
18281WAT     H174929   9.856   6.309   1.203 -0.0783  0.3059  0.4909
18281WAT     H274930   9.900   6.285   1.346 -1.8070 -0.1661  0.9769
18281WAT    EPW74931   9.862   6.335   1.286 -0.7224  0.2186  0.5686
18282WAT      O74932   1.047   0.060   2.599 -0.4700  0.0553  0.7384
18282WAT     H174933   1.135   0.075   2.635 -0.1622  1.3087 -0.4456
18282WAT     H274934   1.063   0.004   2.523 -0.0735  3.5058 -1.9489
18282WAT    EPW74935   1.061   0.055   2.594 -0.3771  0.6757  0.2278
18283WAT      O74936   8.718   7.854   7.807  0.4698  0.0152  0.2106
18283WAT     H174937   8.716   7.760   7.827  2.0325 -0.1736 -0.4095
18283WAT     H274938   8.810   7.874   7.793 -0.0560  1.1606 -1.9829
18283WAT    EPW74939   8.730   7.844   7.808  0.6065  0.1411 -0.1605
18284WAT      O74940   8.507   2.819   1.649  0.0251 -0.5971  0.0203
18284WAT     H174941   8.578   2.785   1.704  2.1764  0.7628 -1.7457
18284WAT     H274942   8.547   2.829   1.562 -1.6864  2.2440 -0.5635
18284WAT    EPW74943   8.522   2.816   1.645  0.0830 -0.0433 -0.2896
18285WAT      O74944   8.864   5.810   2.680  0.0769 -0.0309 -0.0366
18285WAT     H174945   8.939   5.808   2.620  2.3274  1.3854  2.4701
18285WAT     H274946   8.837   5.902   2.682 -0.9052 -0.3090  0.0568
18285WAT    EPW74947   8.871   5.822   2.672  0.2446  0.1194  0.3062
18286WAT      O74948  10.566   5.281   3.506 -0.0011  0.0727  0.2957
18286WAT     H174949  10.648   5.287   3.555  1.0571  1.1452 -1.5178
18286WAT     H274950  10.555   5.187   3.489  1.9066  0.0321 -1.0726
18286WAT    EPW74951  10.575   5.269   3.510  0.3905  0.2089 -0.1241
18287WAT      O74952   7.844   4.952   4.024 -0.5176  0.6003 -0.1577
18287WAT     H174953   7.789   5.030   4.023  0.2450  1.1570 -0.1869
18287WAT     H274954   7.785   4.880   4.001 -1.1332  1.2321 -0.6012
18287WAT    EPW74955   7.829   4.953   4.021 -0.4983  0.7570 -0.2201
18288WAT      O74956   7.808   4.367   1.559  0.2295 -0.0808 -0.2829
18288WAT     H174957   7.863   4.304   1.606  1.7478  0.7938 -0.8167
18288WAT     H274958   7.868   4.436   1.532 -1.3314  1.4695  0.0143
18288WAT    EPW74959   7.823   4.368   1.562  0.2239  0.2391 -0.3141
18289WAT      O74960   8.762   5.366   1.097  0.1417  0.1453 -0.2162
18289WAT     H174961   8.747   5.331   1.184  0.3098  0.2471 -0.1468
18289WAT     H274962   8.714   5.449   1.096  1.1948  0.7810  0.2174
18289WAT    EPW74963   8.754   5.372   1.108  0.3023  0.2427 -0.1499
18290WAT      O74964   9.686   3.036   3.609  0.6089 -0.1485  0.6834
18290WAT     H174965   9.592   3.028   3.620  0.2148  0.5827 -1.5557
18290WAT     H274966   9.698   3.122   3.568  2.0857 -0.8644 -0.4824
18290WAT    EPW74967   9.675   3.046   3.605  0.7515 -0.1465  0.2342
18291WAT      O74968   3.997   4.708   1.596  0.5000 -0.0863  0.1397
18291WAT     H174969   3.904   4.688   1.607  0.7567 -3.6438 -2.4361
18291WAT     H274970   4.031   4.708   1.685 -1.8880  1.4085  1.1715
18291WAT    EPW74971   3.989   4.705   1.609  0.2189 -0.3583 -0.0640
18292WAT      O74972   8.364   5.802   4.075 -0.2921 -0.9807  0.1014
18292WAT     H174973   8.372   5.754   4.157 -1.0710 -0.6934  0.3608
18292WAT     H274974   8.400   5.743   4.009 -0.7633 -1.7158  0.4848
18292WAT    EPW74975   8.370   5.788   4.077 -0.4573 -1.0400  0.1860
18293WAT      O74976   0.608   7.333   1.733  0.0116 -0.2053  0.2262
18293WAT     H174977   0.572   7.400   1.675  2.3484  1.3576  0.4088
18293WAT     H274978   0.626   7.259   1.675  1.3504  0.9523 -0.9221
18293WAT    EPW74979   0.606   7.332   1.717  0.4964  0.1535  0.0988
18294WAT      O74980   9.115   7.248   3.148  0.0835  0.4490 -0.9762
18294WAT     H174981   9.124   7.315   3.216 -5.0323 -0.7091  1.3315
18294WAT     H274982   9.090   7.297   3.069 -0.8762  1.5040 -0.0624
18294WAT    EPW74983   9.113   7.264   3.147 -0.7172  0.4356 -0.5513
18295WAT      O74984  10.775   7.473   1.774  0.8427  0.3556  0.7971
18295WAT     H174985  10.738   7.561   1.774  1.3121  0.6484 -2.0853
18295WAT     H274986  10.791   7.454   1.866 -0.6588  2.6654  1.6204
18295WAT    EPW74987  10.773   7.482   1.786  0.7067  0.6986  0.5255
18296WAT      O74988   9.889   3.924   4.170  0.2996  0.9306 -0.4825
18296WAT     H174989   9.893   3.927   4.266  1.0160  1.2672 -0.5119
18296WAT     H274990   9.892   3.831   4.149  1.1662  0.8843 -0.2018
18296WAT    EPW74991   9.890   3.912   4.180  0.5088  0.9688 -0.4492
18297WAT      O74992  10.515   6.098   3.121  0.4537  0.4169 -0.4710
18297WAT     H174993  10.489   6.094   3.029 -2.3655  4.3384 -0.1457
18297WAT     H274994  10.583   6.165   3.123 -0.2254  1.1063  0.3386
18297WAT    EPW74995  10.520   6.107   3.109 -0.0076  1.0252 -0.3214
18298WAT      O74996   7.650   7.109   2.042 -0.2951  0.3625  0.5936
18298WAT     H174997   7.718   7.049   2.011 -0.3535  1.5801 -2.1337
18298WAT     H274998   7.617   7.068   2.123  1.4830 -1.8529  0.2910
18298WAT    EPW74999   7.655   7.096   2.049 -0.0682  0.2310  0.1938
18299WAT      O75000   8.243   7.951   3.452  0.7503 -1.3887 -0.2054
18299WAT     H175001   8.249   8.046   3.436  2.6986 -1.0795  1.7948
18299WAT     H275002   8.176   7.942   3.520 -2.5291 -1.9993 -3.2409
18299WAT    EPW75003   8.235   7.962   3.459  0.5746 -1.4286 -0.3418
18300WAT      O75004   8.100   7.025   1.844  0.2610  0.4417  0.2327
18300WAT     H175005   8.082   7.099   1.786 -1.9041  0.2730  0.5778
18300WAT     H275006   8.169   6.976   1.800  2.4726  3.1044  0.4464
18300WAT    EPW75007   8.107   7.028   1.830  0.2670  0.7708  0.3064
18301WAT      O75008   9.490   4.271   1.695  0.7199  1.4190 -0.5862
18301WAT     H175009   9.404   4.312   1.689  0.5448  1.8079  2.8153
18301WAT     H275010   9.497   4.219   1.615 -2.3098  2.0383 -1.3794
18301WAT    EPW75011   9.479   4.269   1.684  0.2975  1.5519 -0.2421
18302WAT      O75012   9.373   5.060   2.677 -0.0372 -0.1216 -0.2753
18302WAT     H175013   9.405   4.995   2.615 -0.2362 -0.9315  0.4565
18302WAT     H275014   9.408   5.143   2.645  1.7565 -0.8081 -0.2007
18302WAT    EPW75015   9.382   5.062   2.664  0.1731 -0.3190 -0.1689
18303WAT      O75016   0.449   8.882   1.334 -0.7439 -0.0185 -0.4335
18303WAT     H175017   0.439   8.798   1.289 -0.0893 -1.1321  1.3745
18303WAT     H275018   0.529   8.920   1.297 -1.9511  0.6656 -2.4769
18303WAT    EPW75019   0.458   8.876   1.323 -0.8168 -0.0749 -0.4646
18304WAT      O75020   8.492   6.365   1.092  0.7535 -0.0136  0.3591
18304WAT     H175021   8.421   6.406   1.141  0.2689  0.1623 -0.4696
18304WAT     H275022   8.572   6.404   1.128  0.5057 -0.9453  1.9874
18304WAT    EPW75023   8.493   6.376   1.103  0.6571 -0.1132  0.4646
18305WAT      O75024   0.896   7.367   1.475  0.4422 -0.5931 -0.1591
18305WAT     H175025   0.874   7.454   1.508 -1.2603 -0.8964 -0.4063
18305WAT     H275026   0.987   7.375   1.444 -0.0702  1.4201 -1.2933
18305WAT    EPW75027   0.905   7.379   1.476  0.1501 -0.3676 -0.3412
18306WAT      O75028   0.232   3.751   0.446  0.5928  0.2381 -0.3832
18306WAT     H175029   0.267   3.816   0.507  1.3624 -0.4909 -0.0214
18306WAT     H275030   0.148   3.726   0.483 -0.3316  1.9611 -1.2213
18306WAT    EPW75031   0.226   3.756   0.459  0.5724  0.3693 -0.4461
18307WAT      O75032   8.844   8.467   4.535 -0.9507  0.4383 -0.1628
18307WAT     H175033   8.846   8.474   4.439  0.7115  1.8688 -0.0712
18307WAT     H275034   8.930   8.433   4.558 -1.9588 -1.6766  0.7838
18307WAT    EPW75035   8.855   8.463   4.525 -0.8645  0.3481 -0.0257
18308WAT      O75036  10.039   6.605   1.300  0.1248 -0.2656  0.1218
18308WAT     H175037   9.974   6.654   1.350 -1.3257 -2.8940  1.0174
18308WAT     H275038   9.991   6.532   1.262  2.2730 -1.5178 -0.3901
18308WAT    EPW75039  10.024   6.602   1.302  0.2170 -0.7775  0.1724
18309WAT      O75040   9.985   0.582   4.693 -0.6588 -0.1203 -0.0773
18309WAT     H175041   9.936   0.531   4.757  0.2867  0.2428  0.9908
18309WAT     H275042  10.077   0.568   4.717 -0.1121 -1.8021 -2.7856
18309WAT    EPW75043   9.991   0.573   4.705 -0.4621 -0.2942 -0.2937
18310WAT      O75044   9.551   9.420   3.116 -0.1913  0.3344 -0.7449
18310WAT     H175045   9.526   9.367   3.193 -0.1222 -0.0496 -0.9853
18310WAT     H275046   9.645   9.435   3.127 -0.2833  0.7181 -0.4875
18310WAT    EPW75047   9.560   9.415   3.128 -0.1941  0.3343 -0.7427
18311WAT      O75048   9.752   6.854   2.608 -0.0262 -0.1583  0.3667
18311WAT     H175049   9.807   6.931   2.619  1.1377 -0.8435 -0.3893
18311WAT     H275050   9.808   6.781   2.634  0.0069 -1.0266 -1.8742
18311WAT    EPW75051   9.766   6.854   2.613  0.1316 -0.3631 -0.0285
18312WAT      O75052  10.323   5.055   0.836 -0.1472  0.1435  0.0012
18312WAT     H175053  10.417   5.058   0.854 -0.1406  0.4503 -0.0775
18312WAT     H275054  10.316   5.007   0.754 -0.0788 -0.0971  0.1344
18312WAT    EPW75055  10.335   5.049   0.828 -0.1378  0.1523  0.0084
18313WAT      O75056  10.906   4.124   4.475 -0.3700  0.0885 -0.1681
18313WAT     H175057  10.992   4.157   4.503 -1.0814 -0.8210  3.7291
18313WAT     H275058  10.854   4.203   4.459  0.2613  0.7452  0.8614
18313WAT    EPW75059  10.911   4.139   4.477 -0.3800  0.0548  0.4816
18314WAT      O75060   7.646   5.898   3.190 -0.8300  0.6131  0.6879
18314WAT     H175061   7.573   5.885   3.130 -0.4993  0.0686  0.3984
18314WAT     H275062   7.721   5.856   3.147 -0.0597  2.1982  0.3980
18314WAT    EPW75063   7.646   5.891   3.176 -0.6847  0.7501  0.6115
18315WAT      O75064   8.266   6.009   0.102 -0.3862  0.0143  0.1112
18315WAT     H175065   8.265   5.958   0.021 -0.4275  1.1482 -0.6303
18315WAT     H275066   8.183   6.057   0.101 -0.3594  0.0811  0.8033
18315WAT    EPW75067   8.255   6.008   0.091 -0.3881  0.1726  0.1047
18316WAT      O75068   1.169   3.190   3.914  0.0403  0.1554 -0.9608
18316WAT     H175069   1.121   3.154   3.839  1.4687  0.2149 -1.9485
18316WAT     H275070   1.104   3.242   3.961 -1.1149 -0.6090 -1.6447
18316WAT    EPW75071   1.154   3.192   3.910  0.0763  0.0625 -1.1812
18317WAT      O75072   8.608   3.926   2.414 -0.1064 -1.1764  0.7844
18317WAT     H175073   8.676   3.883   2.361  0.3842  0.9760 -0.4788
18317WAT     H275074   8.568   3.989   2.354 -1.4410 -0.5510  2.2592
18317WAT    EPW75075   8.612   3.928   2.399 -0.2174 -0.8101  0.8122
18318WAT      O75076  10.791   8.625   0.150 -0.0413  0.8199  0.3448
18318WAT     H175077  10.828   8.625   0.062  0.9731 -0.7538  0.7316
18318WAT     H275078  10.865   8.607   0.207 -1.1414 -1.1012  1.2687
18318WAT    EPW75079  10.805   8.623   0.146 -0.0525  0.3591  0.5177
18319WAT      O75080   9.108   4.797   3.676 -0.2062 -0.0241 -0.8050
18319WAT     H175081   9.147   4.730   3.732  0.7578 -0.3166 -1.7750
18319WAT     H275082   9.119   4.762   3.587  0.4739  1.4761 -1.3470
18319WAT    EPW75083   9.115   4.784   3.672  0.0105  0.1352 -1.0045
18320WAT      O75084  10.529   4.435   1.765 -0.2394 -0.0605 -0.4395
18320WAT     H175085  10.604   4.403   1.816  0.4653 -0.0595 -1.4482
18320WAT     H275086  10.453   4.399   1.810  0.2887  0.8542  1.2648
18320WAT    EPW75087  10.529   4.426   1.778 -0.0768  0.0601 -0.3477
18321WAT      O75088   8.848   4.138   5.438  0.2482  0.2915  0.4875
18321WAT     H175089   8.849   4.042   5.445 -0.9283  0.3384  1.5683
18321WAT     H275090   8.940   4.163   5.449  0.7014 -0.7474 -0.6814
18321WAT    EPW75091   8.861   4.128   5.440  0.1531  0.1607  0.4761
18322WAT      O75092   9.648   4.400   3.429 -0.9772  0.6394 -0.2709
18322WAT     H175093   9.712   4.449   3.481  1.6679 -0.1580 -2.5354
18322WAT     H275094   9.612   4.465   3.368 -1.0473  0.7379 -0.1245
18322WAT    EPW75095   9.652   4.415   3.428 -0.6375  0.5474 -0.5504
18323WAT      O75096   4.281   2.308   8.339 -0.3570 -1.1691  0.9831
18323WAT     H175097   4.218   2.290   8.409 -0.7789 -0.3162  0.8389
18323WAT     H275098   4.260   2.245   8.270 -0.9457 -0.9939  1.0032
18323WAT    EPW75099   4.270   2.297   8.339 -0.4902 -1.0334  0.9670
18324WAT      O75100   0.265   4.843   5.008  0.8973  0.3310 -1.0522
18324WAT     H175101   0.286   4.829   4.915 -1.2097  3.1832 -2.1004
18324WAT     H275102   0.170   4.848   5.010  0.8867  0.1571  1.3521
18324WAT    EPW75103   0.255   4.842   4.996  0.6180  0.6843 -0.8733
18325WAT      O75104   9.390   5.724   1.368  0.0539 -0.6615  0.8328
18325WAT     H175105   9.449   5.716   1.443 -1.1308  2.2894  2.2352
18325WAT     H275106   9.442   5.767   1.301 -0.0356  0.5203  1.5083
18325WAT    EPW75107   9.404   5.728   1.369 -0.1149 -0.1166  1.1068
18326WAT      O75108   6.258   4.402   1.834  0.3636 -0.4335 -0.0337
18326WAT     H175109   6.196   4.424   1.765  0.9309 -0.3236 -0.5173
18326WAT     H275110   6.235   4.313   1.860 -2.6826  0.9432  2.7009
18326WAT    EPW75111   6.247   4.393   1.829  0.0362 -0.2375  0.2632
18327WAT      O75112   9.084   5.311   0.488  0.5268  0.6195 -0.7954
18327WAT     H175113   9.057   5.329   0.578  0.4648  0.5354 -0.7976
18327WAT     H275114   9.161   5.254   0.497  2.3540  2.9329 -0.7029
18327WAT    EPW75115   9.091   5.306   0.501  0.7601  0.9136 -0.7835
18328WAT      O75116   9.424   9.674   8.002  0.3406  0.2968 -0.8354
18328WAT     H175117   9.337   9.669   7.962 -0.0555  0.5407 -0.0324
18328WAT     H275118   9.437   9.767   8.020  0.6070  0.2210 -0.6274
18328WAT    EPW75119   9.414   9.686   7.999  0.3238  0.3185 -0.7024
18329WAT      O75120   5.709   3.406   8.739 -0.4037  0.1891  0.0695
18329WAT     H175121   5.674   3.432   8.824  1.8227  0.9066  0.8303
18329WAT     H275122   5.718   3.310   8.744  0.7803  0.3273  1.1277
18329WAT    EPW75123   5.706   3.396   8.751  0.0460  0.3018  0.3090
18330WAT      O75124   0.807   7.435   3.564  0.2636 -0.8297  0.4300
18330WAT     H175125   0.794   7.341   3.554  0.4971 -0.7729 -0.4416
18330WAT     H275126   0.724   7.474   3.539  0.7256 -0.7102 -0.9719
18330WAT    EPW75127   0.795   7.428   3.560  0.3553 -0.8066  0.1301
18331WAT      O75128   9.502   6.174   2.283  0.2649  0.3410  0.5740
18331WAT     H175129   9.453   6.102   2.322  0.6573  0.7381  1.8406
18331WAT     H275130   9.473   6.252   2.331 -0.6484  1.1844 -1.1968
18331WAT    EPW75131   9.491   6.175   2.294  0.1960  0.5045  0.5076
18332WAT      O75132   2.657   0.579   7.380 -0.3641 -0.2117 -0.5580
18332WAT     H175133   2.667   0.511   7.447  0.5591 -0.0995 -0.5710
18332WAT     H275134   2.747   0.603   7.358 -0.6594 -0.2906 -1.8864
18332WAT    EPW75135   2.670   0.573   7.386 -0.2812 -0.2073 -0.7353
18333WAT      O75136   0.943   7.070   0.053 -0.7210 -0.1453 -0.8633
18333WAT     H175137   0.941   7.040  -0.038  1.1597  0.7696 -1.2641
18333WAT     H275138   0.913   7.161   0.049  0.8492  0.4083 -0.8582
18333WAT    EPW75139   0.939   7.078   0.040 -0.2658  0.0486 -0.9155
18334WAT      O75140   8.224   5.208   4.634 -0.2801  0.1344  0.3278
18334WAT     H175141   8.276   5.280   4.599  1.5110 -0.7461  1.0705
18334WAT     H275142   8.238   5.136   4.572  2.8353 -1.4089  2.5784
18334WAT    EPW75143   8.233   5.208   4.621  0.3667 -0.1853  0.7229
18335WAT      O75144   7.233   6.650   5.928  1.1214  0.3507 -0.2836
18335WAT     H175145   7.316   6.603   5.933  1.3844  0.7656 -0.6944
18335WAT     H275146   7.245   6.727   5.984  0.3325 -0.5871  1.2223
18335WAT    EPW75147   7.245   6.654   5.936  1.0521  0.2818 -0.1392
18336WAT      O75148   5.102   0.171   7.789 -0.0599 -0.4999  0.2139
18336WAT     H175149   5.096   0.220   7.871  0.0039  2.7987 -1.5433
18336WAT     H275150   5.196   0.165   7.772 -0.0618 -1.4424  0.4964
18336WAT    EPW75151   5.114   0.177   7.797 -0.0515 -0.1892  0.0193
18337WAT      O75152   9.524   5.437   0.442  0.0278 -0.1620  0.5649
18337WAT     H175153   9.606   5.431   0.492  0.6578 -0.5510 -0.4749
18337WAT     H275154   9.528   5.363   0.382 -0.3966  0.6654 -0.5157
18337WAT    EPW75155   9.536   5.426   0.441  0.0544 -0.1044  0.2852
18338WAT      O75156   4.896   4.101   1.626 -0.3938  0.4689 -0.2005
18338WAT     H175157   4.943   4.155   1.563  0.6381  0.8775  0.8618
18338WAT     H275158   4.843   4.042   1.573  1.4659 -0.1363 -1.5057
18338WAT    EPW75159   4.895   4.100   1.611 -0.0124  0.4427 -0.2325
18339WAT      O75160   6.336   8.495   2.355 -0.0126  0.4428  0.0803
18339WAT     H175161   6.405   8.442   2.394 -1.1099 -0.4872  0.8263
18339WAT     H275162   6.381   8.548   2.288  1.0313 -1.9590 -1.2549
18339WAT    EPW75163   6.351   8.495   2.351 -0.0198  0.0033  0.0026
18340WAT      O75164  10.505   5.005   3.458 -0.3190 -0.2698  0.1723
18340WAT     H175165  10.446   4.934   3.485 -0.6071 -0.0257  0.1816
18340WAT     H275166  10.583   4.959   3.424  0.5607 -0.6018  2.4810
18340WAT    EPW75167  10.508   4.989   3.457 -0.2413 -0.2813  0.4779
18341WAT      O75168   9.021   5.113   3.995 -0.4037  0.4060  1.0399
18341WAT     H175169   9.022   5.042   4.059  0.5091  0.7589  1.4443
18341WAT     H275170   8.974   5.078   3.920 -0.0629 -0.5874  1.2774
18341WAT    EPW75171   9.015   5.099   3.994 -0.2384  0.3214  1.1245
18342WAT      O75172   7.391   3.688   4.526  0.2411  0.8620  0.3090
18342WAT     H175173   7.331   3.699   4.452  0.9481  0.2383 -0.3847
18342WAT     H275174   7.409   3.594   4.527  0.7632  0.9689  0.8567
18342WAT    EPW75175   7.385   3.677   4.516  0.4032  0.7939  0.2897
18343WAT      O75176   1.360   5.469   1.962  0.3067 -0.1585 -0.0168
18343WAT     H175177   1.269   5.445   1.982  0.5873 -0.2830  1.1393
18343WAT     H275178   1.412   5.428   2.031  1.1483  0.7901 -0.0726
18343WAT    EPW75179   1.355   5.460   1.974  0.4547 -0.0496  0.1284
18344WAT      O75180   1.713   6.884   1.312  0.3368  0.0969  0.2344
18344WAT     H175181   1.705   6.917   1.401 -4.7051 -1.1668  0.5551
18344WAT     H275182   1.720   6.789   1.322 -2.0699 -0.2346 -0.5808
18344WAT    EPW75183   1.713   6.876   1.325 -0.6456 -0.1135  0.1692
18345WAT      O75184   1.493   9.385   8.662  0.6884 -0.0254 -0.4084
18345WAT     H175185   1.480   9.352   8.573  1.3775  0.5823 -0.7404
18345WAT     H275186   1.405   9.407   8.692  0.2293 -1.8123 -0.2942
18345WAT    EPW75187   1.479   9.383   8.654  0.7188 -0.1807 -0.4373
18346WAT      O75188   1.257   4.259   4.182 -0.1044 -0.3048 -0.3309
18346WAT     H175189   1.323   4.315   4.141 -2.8459  1.6095 -2.4701
18346WAT     H275190   1.217   4.211   4.109 -1.3552 -1.1123  0.8316
18346WAT    EPW75191   1.261   4.260   4.167 -0.6309 -0.1588 -0.4599
18347WAT      O75192   9.926   6.668   2.036  0.0201  0.0132 -0.0123
18347WAT     H175193   9.838   6.638   2.060 -2.0618  1.7547 -4.3049
18347WAT     H275194   9.933   6.755   2.076 -1.3810  0.9047 -1.5453
18347WAT    EPW75195   9.915   6.676   2.045 -0.4387  0.3605 -0.7806
18348WAT      O75196   5.736   4.805   2.227 -0.2559  0.0061 -0.1237
18348WAT     H175197   5.685   4.851   2.160  0.4157  0.0555 -0.6118
18348WAT     H275198   5.698   4.717   2.231 -1.8880  0.7064  1.1720
18348WAT    EPW75199   5.724   4.800   2.219 -0.3824  0.1047 -0.0173
18349WAT      O75200  10.197   7.389   1.795  0.6578  0.1755  0.0133
18349WAT     H175201  10.162   7.423   1.713  0.9396 -1.7865 -0.9940
18349WAT     H275202  10.121   7.381   1.852  0.2500  0.4379 -0.4837
18349WAT    EPW75203  10.182   7.392   1.792  0.6413 -0.0489 -0.1851
18350WAT      O75204   8.274   3.912   2.581 -0.0970 -0.4450 -0.0647
18350WAT     H175205   8.179   3.911   2.576 -0.0831  1.1993 -3.0615
18350WAT     H275206   8.295   3.994   2.626 -0.0399 -1.2589  1.4583
18350WAT    EPW75207   8.264   3.923   2.586 -0.0873 -0.3353 -0.2592
18351WAT      O75208   0.823   6.240   2.426  0.1763  0.1624 -0.4530
18351WAT     H175209   0.919   6.238   2.417 -0.0013 -1.0353 -3.4157
18351WAT     H275210   0.805   6.191   2.505  1.9973 -0.3130 -0.2900
18351WAT    EPW75211   0.834   6.234   2.435  0.3930 -0.0582 -0.8223
18352WAT      O75212   9.962   3.990   3.787 -0.3773 -0.1743 -0.2647
18352WAT     H175213  10.010   4.072   3.794  0.5350 -0.8539  2.8955
18352WAT     H275214   9.880   4.006   3.833 -0.6133 -0.7741 -0.4658
18352WAT    EPW75215   9.957   4.003   3.794 -0.2880 -0.3431  0.1256
18353WAT      O75216   7.970   6.135   2.508  0.2485 -0.3957  0.0422
18353WAT     H175217   7.980   6.127   2.413 -1.2991  0.1442 -0.1992
18353WAT     H275218   7.942   6.226   2.522 -0.1631 -0.6482  0.9445
18353WAT    EPW75219   7.967   6.146   2.497 -0.0100 -0.3576  0.1295
18354WAT      O75220   8.049   5.361   2.414 -1.0397 -0.1421  0.3433
18354WAT     H175221   8.024   5.413   2.490 -1.1313  1.4260 -0.6998
18354WAT     H275222   8.139   5.334   2.431 -1.4825 -0.9366  1.5603
18354WAT    EPW75223   8.057   5.364   2.426 -1.1101 -0.0398  0.3661
18355WAT      O75224   2.330   4.309   5.641  0.3857  0.4564 -0.2157
18355WAT     H175225   2.264   4.283   5.704 -0.3736 -0.8882 -1.4884
18355WAT     H275226   2.413   4.283   5.681 -0.0381  0.0510  0.4188
18355WAT    EPW75227   2.333   4.302   5.654  0.2297  0.2260 -0.2997
18356WAT      O75228   5.871   0.023   6.492  0.0377  0.3832  0.2990
18356WAT     H175229   5.847  -0.056   6.540 -0.8971  0.4677 -0.0138
18356WAT     H275230   5.958   0.045   6.524  0.4665 -0.9831  0.1186
18356WAT    EPW75231   5.879   0.016   6.502 -0.0291  0.2136  0.2339
18357WAT      O75232   9.506   7.212   0.579 -0.0462  0.4343  0.2318
18357WAT     H175233   9.414   7.201   0.556 -0.5515 -1.9046  2.7888
18357WAT     H275234   9.512   7.301   0.611 -2.3481 -0.3041  3.1966
18357WAT    EPW75235   9.495   7.222   0.580 -0.4163  0.0286  0.9601
18358WAT      O75236   0.090   5.815   2.091 -0.3074 -0.4698  0.2396
18358WAT     H175237   0.150   5.805   2.165  0.0149  1.4415  0.2821
18358WAT     H275238   0.117   5.897   2.049 -1.6378 -0.5919 -0.9069
18358WAT    EPW75239   0.101   5.825   2.095 -0.4404 -0.2339  0.0941
18359WAT      O75240   0.334   4.958   1.973 -0.5268  0.2722  0.5682
18359WAT     H175241   0.333   4.911   1.890 -3.1288 -1.4818  1.4790
18359WAT     H275242   0.368   5.045   1.951  2.0502 -1.1434 -1.6490
18359WAT    EPW75243   0.338   4.963   1.959 -0.5301 -0.1459  0.3959
18360WAT      O75244   8.642   2.176   3.773 -0.4146 -0.3063  0.4949
18360WAT     H175245   8.689   2.257   3.796 -0.3213 -0.7179  1.8442
18360WAT     H275246   8.595   2.198   3.693 -1.0877  1.3939  1.3024
18360WAT    EPW75247   8.642   2.190   3.766 -0.4907 -0.1364  0.7794
18361WAT      O75248   7.853   4.553   4.240 -0.5266 -0.9211  0.1191
18361WAT     H175249   7.855   4.645   4.265  0.1604 -0.6224 -1.0101
18361WAT     H275250   7.783   4.516   4.294 -1.4657  0.4546 -0.1086
18361WAT    EPW75251   7.844   4.560   4.251 -0.5598 -0.7002 -0.0596
18362WAT      O75252  10.682   5.062   1.237 -0.0092 -0.1738  0.3995
18362WAT     H175253  10.721   4.975   1.243  1.5470  0.4989  0.4206
18362WAT     H275254  10.607   5.050   1.178  1.3036 -1.1494 -1.1449
18362WAT    EPW75255  10.677   5.049   1.230  0.3691 -0.2139  0.1985
18363WAT      O75256   1.540   9.903   2.457 -0.1806  0.1039  0.1451
18363WAT     H175257   1.605   9.894   2.387  0.7394  1.2655  0.8254
18363WAT     H275258   1.462   9.936   2.412 -0.2450 -1.0345 -0.6321
18363WAT    EPW75259   1.538   9.906   2.442 -0.0678  0.1068  0.1324
18364WAT      O75260   7.118   6.005   2.745 -0.1720 -0.3763  0.0798
18364WAT     H175261   7.187   5.939   2.734 -0.7227 -1.4130  2.2948
18364WAT     H275262   7.149   6.059   2.818 -1.5725 -0.7403  0.9755
18364WAT    EPW75263   7.131   6.003   2.753 -0.4294 -0.5615  0.4901
18365WAT      O75264   1.150   9.219   4.613 -0.2690  0.6438 -0.1654
18365WAT     H175265   1.182   9.172   4.690  0.5111  2.6813  0.8100
18365WAT     H275266   1.209   9.191   4.542 -0.8948 -1.1178 -0.0361
18365WAT    EPW75267   1.162   9.209   4.614 -0.2487  0.6809 -0.0196
18366WAT      O75268   8.120   7.620   0.330 -0.5176 -0.3924 -0.0608
18366WAT     H175269   8.045   7.675   0.305 -1.5860 -1.3424  0.9213
18366WAT     H275270   8.159   7.665   0.405 -1.0791 -0.6950  0.4194
18366WAT    EPW75271   8.115   7.633   0.337 -0.7324 -0.5572  0.1320
18367WAT      O75272   8.569   5.562   0.405  0.3509  0.5113  1.1064
18367WAT     H175273   8.484   5.602   0.421  0.1810  1.5368 -1.8188
18367WAT     H275274   8.611   5.559   0.492 -0.5103  4.9847  1.9153
18367WAT    EPW75275   8.564   5.567   0.419  0.2151  1.2364  0.8273
18368WAT      O75276   9.055   7.444   0.771  1.0418 -0.0913  0.4160
18368WAT     H175277   9.080   7.353   0.781  1.6111  0.1479  1.2506
18368WAT     H275278   8.986   7.458   0.835 -2.6065 -1.1559 -2.8623
18368WAT    EPW75279   9.050   7.434   0.781  0.6356 -0.2000  0.0937
18369WAT      O75280   4.869   0.124   8.301  0.1154  0.7143 -0.1161
18369WAT     H175281   4.865   0.053   8.236  0.4335  0.4652  0.1311
18369WAT     H275282   4.777   0.142   8.322  0.0203  0.6014 -0.4270
18369WAT    EPW75283   4.856   0.117   8.295  0.1447  0.6665 -0.1245
18370WAT      O75284   1.819   9.222   4.407 -0.1011  0.3147 -0.4838
18370WAT     H175285   1.764   9.147   4.429  1.2710 -0.5998 -0.0326
18370WAT     H275286   1.781   9.296   4.455  0.7654 -0.8983  2.2509
18370WAT    EPW75287   1.807   9.222   4.416  0.1942  0.0343 -0.0634
18371WAT      O75288   8.306   6.996   3.950 -0.4241 -0.3150  0.6792
18371WAT     H175289   8.301   7.056   4.024  0.7507 -0.3281  0.7852
18371WAT     H275290   8.228   6.942   3.957 -1.2715  0.8961  0.8396
18371WAT    EPW75291   8.295   6.997   3.960 -0.3810 -0.1571  0.7142
18372WAT      O75292  10.751   6.630   1.252  0.2656  0.2097  0.2073
18372WAT     H175293  10.713   6.687   1.185 -0.2490 -1.5129 -1.0223
18372WAT     H275294  10.730   6.674   1.335 -0.1289  1.7716 -0.6758
18372WAT    EPW75295  10.743   6.643   1.254  0.1459  0.1886 -0.0714
18373WAT      O75296   5.851   0.077   8.268  0.1703 -0.4862  0.2300
18373WAT     H175297   5.801   0.010   8.222  0.2415  0.9165 -2.0183
18373WAT     H275298   5.940   0.068   8.235  0.2188  0.5835  0.0222
18373WAT    EPW75299   5.856   0.067   8.258  0.1862 -0.1601 -0.0939
18374WAT      O75300   8.100   7.719   3.297  0.8508 -0.2573 -0.3938
18374WAT     H175301   8.015   7.731   3.338 -0.4037  1.1268 -3.0941
18374WAT     H275302   8.158   7.778   3.344 -0.1832  0.2815  0.2448
18374WAT    EPW75303   8.096   7.728   3.309  0.5488 -0.0036 -0.6659
18375WAT      O75304   8.581   5.314   7.287 -0.3123 -0.0467 -0.5676
18375WAT     H175305   8.557   5.381   7.351 -0.8107 -1.7648  1.1327
18375WAT     H275306   8.506   5.309   7.228 -0.7672  0.1014 -0.0122
18375WAT    EPW75307   8.568   5.322   7.287 -0.4373 -0.2539 -0.2704
18376WAT      O75308   7.147   0.425   6.700  0.3840  0.0949 -0.1812
18376WAT     H175309   7.193   0.406   6.782  0.6372 -1.6437 -0.6839
18376WAT     H275310   7.185   0.364   6.636 -0.3329  0.8863 -1.4134
18376WAT    EPW75311   7.158   0.415   6.702  0.3228 -0.0300 -0.4103
18377WAT      O75312   8.507   3.909   3.632 -0.1957  0.5932 -0.7146
18377WAT     H175313   8.464   3.986   3.594 -0.7786 -0.7874 -3.1049
18377WAT     H275314   8.458   3.891   3.712 -1.6840  1.2572 -1.4334
18377WAT    EPW75315   8.495   3.917   3.637 -0.4683  0.4988 -1.1245
18378WAT      O75316   9.913   5.287   1.564 -0.2573  0.1836 -0.0728
18378WAT     H175317   9.907   5.279   1.659  2.8981 -2.5792  0.0876
18378WAT     H275318   9.957   5.370   1.549 -2.0866  1.3556  0.7081
18378WAT    EPW75319   9.918   5.297   1.575 -0.0825 -0.0260  0.0513
18379WAT      O75320   9.833   5.124   2.302 -0.2247 -0.1677 -0.1213
18379WAT     H175321   9.761   5.097   2.245 -1.3314 -1.1397  1.6369
18379WAT     H275322   9.824   5.219   2.309  1.4610  0.3881 -3.4464
18379WAT    EPW75323   9.822   5.133   2.296 -0.1483 -0.2224 -0.3279
18380WAT      O75324   6.692   4.892   2.007  0.1640  0.1593  0.3554
18380WAT     H175325   6.767   4.870   2.062  1.9108  0.5525 -1.7572
18380WAT     H275326   6.730   4.920   1.924 -2.3480 -1.1079 -1.3629
18380WAT    EPW75327   6.707   4.893   2.003  0.0632  0.0441 -0.1498
18381WAT      O75328   4.629   2.285   8.853 -1.0814 -0.0509 -0.4041
18381WAT     H175329   4.633   2.345   8.928  0.7509  2.5752 -2.4250
18381WAT     H275330   4.672   2.205   8.884 -0.4208  0.9270  1.3672
18381WAT    EPW75331   4.635   2.283   8.867 -0.7527  0.4244 -0.4373
18382WAT      O75332   2.919   9.879   8.482  0.9170  0.1959 -0.7741
18382WAT     H175333   2.916   9.784   8.472  1.3061 -0.0436  1.0359
18382WAT     H275334   2.935   9.912   8.394  0.4179 -1.3904 -1.4873
18382WAT    EPW75335   2.921   9.871   8.469  0.9024 -0.0443 -0.6294
18383WAT      O75336   0.433   8.458   3.792  0.5117 -0.0837  0.1552
18383WAT     H175337   0.338   8.443   3.790  0.3830  0.7407 -0.6894
18383WAT     H275338   0.466   8.414   3.714  0.8754 -0.6219  0.6029
18383WAT    EPW75339   0.425   8.450   3.782  0.5427 -0.0463  0.1028
18384WAT      O75340   6.672   5.443   2.102 -0.4944  0.1601 -0.2162
18384WAT     H175341   6.625   5.509   2.153 -1.9476  0.8563 -2.2824
18384WAT     H275342   6.603   5.389   2.064  0.6130 -1.5583  0.0874
18384WAT    EPW75343   6.657   5.445   2.104 -0.5398  0.0253 -0.4486
18385WAT      O75344   9.865   7.877   5.729 -0.0156  0.1711  0.3786
18385WAT     H175345   9.848   7.868   5.635 -1.4655  0.4272  0.5968
18385WAT     H275346   9.780   7.897   5.767  0.6643  0.7048  1.6836
18385WAT    EPW75347   9.852   7.878   5.721 -0.1173  0.2754  0.5798
18386WAT      O75348   7.455   4.136   3.432  0.0276  0.4767  0.0535
18386WAT     H175349   7.541   4.147   3.471  0.9717 -0.5650 -1.6004
18386WAT     H275350   7.404   4.211   3.463  1.9927  1.9816 -0.1833
18386WAT    EPW75351   7.459   4.147   3.441  0.4113  0.5376 -0.1959
18387WAT      O75352   0.057   4.467   4.141 -0.4168 -0.0154 -0.4373
18387WAT     H175353  -0.028   4.511   4.144 -0.9600 -0.9217 -1.5756
18387WAT     H275354   0.090   4.487   4.053 -1.8198 -3.7914 -2.0446
18387WAT    EPW75355   0.050   4.475   4.129 -0.6735 -0.6330 -0.7994
18388WAT      O75356   7.796   6.986   4.132 -0.4376  0.8886  0.1917
18388WAT     H175357   7.778   6.982   4.226  0.2789 -1.6789  0.3031
18388WAT     H275358   7.711   6.971   4.091 -0.5454  0.7539  0.4612
18388WAT    EPW75359   7.782   6.984   4.139 -0.3576  0.5322  0.2422
18389WAT      O75360   7.321   5.463   1.105  0.0445  0.1506  0.1828
18389WAT     H175361   7.277   5.534   1.153  0.3941  1.3816 -1.2637
18389WAT     H275362   7.283   5.383   1.142 -0.5198  1.0797  1.7067
18389WAT    EPW75363   7.310   5.462   1.117  0.0162  0.4356  0.1929
18390WAT      O75364  10.897   4.165   5.042 -0.1357  0.6921 -0.0932
18390WAT     H175365  10.845   4.245   5.036  0.8204  1.3064 -0.4511
18390WAT     H275366  10.975   4.191   5.091 -0.6342 -0.4792  1.4001
18390WAT    EPW75367  10.900   4.179   5.047 -0.0753  0.6185  0.0565
18391WAT      O75368   8.072   5.549   1.032 -0.6372 -0.4003  0.4800
18391WAT     H175369   8.116   5.633   1.024 -0.1438 -0.7665 -0.8544
18391WAT     H275370   7.984   5.565   0.998 -0.5564 -0.4009  0.2656
18391WAT    EPW75371   8.066   5.562   1.026 -0.5612 -0.4487  0.2758
18392WAT      O75372   6.747   8.254   1.525 -0.0526 -0.0928  0.2821
18392WAT     H175373   6.744   8.186   1.457  0.8019 -0.2588  0.3967
18392WAT     H275374   6.762   8.335   1.476  0.3002 -0.1764  0.2482
18392WAT    EPW75375   6.749   8.256   1.509  0.1066 -0.1259  0.2927
18393WAT      O75376   9.732   4.995   3.433  0.6667  0.5235 -0.3407
18393WAT     H175377   9.737   5.058   3.505  1.0140  1.4718 -1.1725
18393WAT     H275378   9.688   5.043   3.363 -1.2179 -0.9201 -0.2289
18393WAT    EPW75379   9.727   5.010   3.434  0.4640  0.4582 -0.4357
18394WAT      O75380  10.842   2.717   2.727 -0.3944 -0.7710  0.3513
18394WAT     H175381  10.748   2.713   2.743 -0.4939 -2.5687 -0.4370
18394WAT     H275382  10.851   2.698   2.634  0.6550  1.4086 -0.0701
18394WAT    EPW75383  10.831   2.714   2.717 -0.2694 -0.7205  0.1918
18395WAT      O75384  10.794   3.433   6.890  0.3540  0.5701  0.3511
18395WAT     H175385  10.864   3.374   6.862  0.7136  0.7712  0.8221
18395WAT     H275386  10.824   3.520   6.861  1.0010  0.8669  1.8219
18395WAT    EPW75387  10.807   3.437   6.882  0.4869  0.6357  0.6075
18396WAT      O75388   9.728   3.241   6.264 -0.6831 -0.1868  0.1787
18396WAT     H175389   9.798   3.302   6.284 -1.0000  0.3901 -0.4329
18396WAT     H275390   9.764   3.184   6.195 -0.7732  0.0442 -0.0624
18396WAT    EPW75391   9.742   3.241   6.257 -0.7367 -0.0803  0.0663
18397WAT      O75392   1.298   7.631   1.586 -0.3247  0.3430 -0.2703
18397WAT     H175393   1.310   7.668   1.499  1.4527  1.8020  0.5559
18397WAT     H275394   1.217   7.671   1.619  0.1682  1.4608 -0.4136
18397WAT    EPW75395   1.289   7.641   1.579 -0.0252  0.6831 -0.1802
18398WAT      O75396   8.289   6.280   3.637 -0.2588 -0.2667 -0.5610
18398WAT     H175397   8.223   6.265   3.570  0.0065 -1.0230 -0.6601
18398WAT     H275398   8.241   6.277   3.719 -0.2568 -1.5186 -0.5865
18398WAT    EPW75399   8.274   6.278   3.639 -0.2236 -0.5317 -0.5774
18399WAT      O75400   9.320   9.280   3.650  0.0907  0.4711  0.2685
18399WAT     H175401   9.322   9.294   3.744 -0.1792  0.9401  0.2068
18399WAT     H275402   9.372   9.201   3.636 -1.9659 -1.1210  1.0771
18399WAT    EPW75403   9.327   9.272   3.660 -0.2165  0.3228  0.3669
18400WAT      O75404   9.059   7.384   0.122 -0.5088  0.3095  0.1485
18400WAT     H175405   9.111   7.304   0.118 -0.6253  0.2240  0.3542
18400WAT     H275406   9.111   7.449   0.075  0.5607  0.6751  1.7752
18400WAT    EPW75407   9.073   7.382   0.115 -0.3829  0.3464  0.3902
18401WAT      O75408  10.962   7.218   2.798  0.3271  0.3121 -0.3376
18401WAT     H175409  10.968   7.162   2.720  1.1804 -1.7154  1.1101
18401WAT     H275410  11.042   7.271   2.795  0.6134 -0.1263 -0.5709
18401WAT    EPW75411  10.973   7.217   2.787  0.4773 -0.0131 -0.1773
18402WAT      O75412   9.002   4.454   6.109 -0.0438 -0.0357  0.1200
18402WAT     H175413   9.068   4.507   6.155  0.5876 -1.2277  0.6172
18402WAT     H275414   8.923   4.508   6.110  0.7308  1.1392  0.1092
18402WAT    EPW75415   9.000   4.468   6.115  0.1416 -0.0379  0.1841
18403WAT      O75416   0.602   5.126   0.883  0.0873  0.3995  0.0054
18403WAT     H175417   0.580   5.084   0.966 -0.0702  2.1738  0.8984
18403WAT     H275418   0.683   5.175   0.901  1.2398 -0.8585 -1.4800
18403WAT    EPW75419   0.610   5.127   0.896  0.2185  0.4675 -0.0727
18404WAT      O75420   3.298   1.035   2.748  0.1680 -0.2109 -0.0506
18404WAT     H175421   3.363   0.993   2.804  1.9765  1.1310 -1.0355
18404WAT     H275422   3.227   0.971   2.742  0.6858 -1.0953  2.3073
18404WAT    EPW75423   3.297   1.021   2.754  0.4748 -0.1505  0.1304
18405WAT      O75424   0.612   9.285   4.896  0.2602  0.3555  0.1589
18405WAT     H175425   0.580   9.202   4.860 -1.4292  1.8348 -2.0360
18405WAT     H275426   0.580   9.351   4.835  2.3814  2.5751  1.2818
18405WAT    EPW75427   0.603   9.282   4.883  0.3171  0.8430  0.0174
18406WAT      O75428  10.073   7.655   6.792  0.1797 -0.2084 -0.1307
18406WAT     H175429  10.020   7.614   6.723  2.5183 -0.2657 -2.0152
18406WAT     H275430  10.128   7.584   6.824 -0.0542  0.1023  0.9829
18406WAT    EPW75431  10.073   7.640   6.787  0.4568 -0.1750 -0.2322
18407WAT      O75432   1.284   7.903   1.009  0.1989  0.1713  0.3866
18407WAT     H175433   1.300   7.923   0.917  1.7926  1.1357  0.8330
18407WAT     H275434   1.193   7.872   1.012 -0.3782  1.5717 -1.2766
18407WAT    EPW75435   1.274   7.901   0.998  0.3330  0.4833  0.2261
18408WAT      O75436   1.748   6.951   1.604 -0.2749  0.4478  0.5347
18408WAT     H175437   1.818   7.015   1.598 -0.9490  1.0590 -1.8646
18408WAT     H275438   1.676   6.997   1.646 -0.3997  0.9579 -0.2204
18408WAT    EPW75439   1.748   6.965   1.609 -0.3802  0.5958  0.1187
18409WAT      O75440   1.498  10.272   8.584 -0.3592  0.2240  0.0812
18409WAT     H175441   1.561  10.231   8.525 -0.3421 -0.6253  0.6742
18409WAT     H275442   1.413  10.239   8.554 -0.4306  0.4899 -0.0156
18409WAT    EPW75443   1.495  10.263   8.572 -0.3664  0.1473  0.1469
18410WAT      O75444   8.797   6.555   2.871  0.5592 -0.3448  0.6381
18410WAT     H175445   8.827   6.574   2.782 -1.0161  1.3020  0.3919
18410WAT     H275446   8.847   6.615   2.927  1.4612 -1.2942  0.8887
18410WAT    EPW75447   8.807   6.565   2.867  0.4702 -0.2530  0.6386
18411WAT      O75448   2.486   6.861   1.303  0.1825 -0.3008 -0.2698
18411WAT     H175449   2.452   6.949   1.287 -0.5484 -0.5170  0.0289
18411WAT     H275450   2.565   6.856   1.250  0.3516  0.6093 -0.1155
18411WAT    EPW75451   2.492   6.872   1.294  0.1085 -0.2093 -0.2100
18412WAT      O75452   0.237   5.896   0.987 -0.1585 -0.1013  0.0825
18412WAT     H175453   0.183   5.831   0.944  1.1844 -0.4145 -1.2180
18412WAT     H275454   0.327   5.874   0.960  0.4186  1.6288  0.4738
18412WAT    EPW75455   0.242   5.885   0.978  0.0947  0.0856 -0.0374
18413WAT      O75456   8.638   6.175   3.281 -0.3481  0.1990 -0.2699
18413WAT     H175457   8.674   6.110   3.341  2.2892  1.0520 -0.8189
18413WAT     H275458   8.605   6.124   3.207  2.1829 -0.5672 -0.9510
18413WAT    EPW75459   8.638   6.160   3.279  0.3338  0.2103 -0.4321
18414WAT      O75460   1.074   5.053   3.822  0.0507 -0.0245 -0.0462
18414WAT     H175461   1.074   4.968   3.778 -3.3517 -1.2307  1.8992
18414WAT     H275462   1.046   5.115   3.754  1.0178 -0.7118 -1.0996
18414WAT    EPW75463   1.070   5.050   3.807 -0.2705 -0.2739  0.0715
18415WAT      O75464   3.650   0.401   8.891  0.1343  0.0322 -0.6043
18415WAT     H175465   3.592   0.400   8.814  0.1085 -0.7369 -0.5787
18415WAT     H275466   3.731   0.440   8.859  0.3160 -0.7812 -1.1678
18415WAT    EPW75467   3.653   0.406   8.877  0.1550 -0.1765 -0.6757
18416WAT      O75468   2.088   4.838   4.548  0.2044  0.3892 -0.4903
18416WAT     H175469   2.176   4.859   4.579  0.1337 -0.8636  0.6543
18416WAT     H275470   2.030   4.870   4.617 -0.1448  0.0291 -0.6140
18416WAT    EPW75471   2.092   4.845   4.561  0.1489  0.1767 -0.3560
18417WAT      O75472   7.245   5.838   3.245 -0.0756 -0.5230  0.6574
18417WAT     H175473   7.154   5.859   3.226  0.1928 -0.0489 -0.1628
18417WAT     H275474   7.295   5.904   3.197  0.7165 -1.1883  0.5419
18417WAT    EPW75475   7.240   5.849   3.236  0.0641 -0.5484  0.5339
18418WAT      O75476   0.409   1.842   1.658 -0.0925  0.2036  0.2682
18418WAT     H175477   0.437   1.762   1.614 -2.2632 -0.1890 -0.4673
18418WAT     H275478   0.491   1.884   1.684  1.1156 -2.1451  0.5159
18418WAT    EPW75479   0.424   1.837   1.656 -0.2194 -0.1580  0.2038
18419WAT      O75480   6.894   7.880   3.728  0.3358  0.7512  0.4722
18419WAT     H175481   6.985   7.849   3.723  0.2646  0.6923 -0.9184
18419WAT     H275482   6.877   7.918   3.641 -0.7259  1.4597  0.9712
18419WAT    EPW75483   6.904   7.881   3.716  0.1862  0.8371  0.3545
18420WAT      O75484   7.253  10.115   3.331  0.1763  0.6527 -0.2992
18420WAT     H175485   7.329  10.173   3.340 -0.2616  1.0996  0.6951
18420WAT     H275486   7.243  10.075   3.417 -0.0771 -0.2356 -0.7224
18420WAT    EPW75487   7.262  10.117   3.343  0.0851  0.5951 -0.2239
18421WAT      O75488   9.546   4.937   1.134  0.2529  0.2729  0.2023
18421WAT     H175489   9.459   4.961   1.102 -0.6103  0.5119  2.5530
18421WAT     H275490   9.575   4.867   1.076 -1.8669 -0.3946 -0.1150
18421WAT    EPW75491   9.538   4.931   1.122 -0.1411  0.2165  0.4705
18422WAT      O75492   8.506   8.767   1.790  0.4074 -0.6501 -0.1075
18422WAT     H175493   8.552   8.851   1.793  1.6223 -1.3049  2.0465
18422WAT     H275494   8.427   8.782   1.842  1.2938 -1.1488  1.4447
18422WAT    EPW75495   8.502   8.780   1.798  0.6847 -0.8025  0.3814
18423WAT      O75496   3.705   0.186   3.141 -0.5048  0.0664 -0.3875
18423WAT     H175497   3.767   0.131   3.190 -0.3692  0.1348 -0.4827
18423WAT     H275498   3.718   0.274   3.176  0.3009  0.2970 -1.2380
18423WAT    EPW75499   3.715   0.190   3.152 -0.3805  0.1058 -0.5121
18424WAT      O75500   2.316   9.781   2.437 -0.1186  0.5097 -0.4829
18424WAT     H175501   2.256   9.713   2.467 -0.3169  0.4876 -0.9127
18424WAT     H275502   2.283   9.806   2.350  0.9990 -0.1278 -1.1213
18424WAT    EPW75503   2.304   9.776   2.429  0.0026  0.4225 -0.6238
18425WAT      O75504   0.223   8.235   5.838  0.1314  0.3859 -0.5007
18425WAT     H175505   0.155   8.302   5.830 -0.1709 -0.0055 -1.2861
18425WAT     H275506   0.174   8.155   5.857  0.4963  0.3866  0.5097
18425WAT    EPW75507   0.207   8.233   5.840  0.1396  0.3347 -0.4709
18426WAT      O75508  10.809   6.946   1.182 -1.1583 -0.0169  0.2757
18426WAT     H175509  10.785   6.925   1.091 -1.2093 -0.2497  0.3419
18426WAT     H275510  10.903   6.929   1.186 -1.7058 -3.7548  1.2470
18426WAT    EPW75511  10.818   6.941   1.170 -1.2369 -0.5407  0.4126
18427WAT      O75512   4.630   1.499   8.241 -0.1576  0.1185 -0.2521
18427WAT     H175513   4.652   1.549   8.320  0.8180 -0.4755 -0.1372
18427WAT     H275514   4.694   1.428   8.239 -0.6196 -0.2833 -1.2015
18427WAT    EPW75515   4.641   1.496   8.251 -0.0894 -0.0128 -0.3624
18428WAT      O75516   9.800   6.026   2.271  0.2237  0.4375 -0.7355
18428WAT     H175517   9.740   6.002   2.200  1.1109 -2.5713 -0.5739
18428WAT     H275518   9.879   6.057   2.226 -0.7861  3.0456 -0.9376
18428WAT    EPW75519   9.803   6.027   2.255  0.2074  0.3848 -0.7409
18429WAT      O75520   0.843   7.053   5.500 -0.6933 -0.0733  0.4953
18429WAT     H175521   0.819   7.087   5.414 -0.4444  0.2520  0.5521
18429WAT     H275522   0.805   6.966   5.503 -0.2912 -0.2712 -0.1319
18429WAT    EPW75523   0.835   7.046   5.489 -0.6074 -0.0567  0.4203
18430WAT      O75524   8.682   3.856   8.858  0.2691 -0.3682  0.0530
18430WAT     H175525   8.773   3.830   8.853  0.5323  0.3579  0.8696
18430WAT     H275526   8.640   3.788   8.911  0.2718 -0.8454 -0.5494
18430WAT    EPW75527   8.688   3.844   8.864  0.3042 -0.3355  0.0811
18431WAT      O75528   8.909   5.824   1.297 -0.6051 -0.3822  0.0446
18431WAT     H175529   8.862   5.807   1.378  2.3932  1.5076  2.4409
18431WAT     H275530   8.969   5.750   1.288  0.7786  0.5664  1.0421
18431WAT    EPW75531   8.911   5.812   1.306 -0.0277 -0.0079  0.4922
18432WAT      O75532  10.418   7.269   4.305 -0.5291  0.6298 -0.2656
18432WAT     H175533  10.434   7.217   4.226  0.7161 -0.2633  0.5477
18432WAT     H275534  10.323   7.277   4.308 -0.7527 -1.2907 -0.6335
18432WAT    EPW75535  10.408   7.263   4.295 -0.3939  0.2584 -0.2069
18433WAT      O75536  10.809   7.747   5.894 -0.4928 -0.1772  0.5226
18433WAT     H175537  10.768   7.791   5.819  0.1234 -0.3055  0.0985
18433WAT     H275538  10.756   7.774   5.969 -0.0078  1.4896  0.3145
18433WAT    EPW75539  10.797   7.757   5.894 -0.3471  0.0257  0.4394
18434WAT      O75540   2.003   5.137   4.411  0.1171 -0.3751 -0.4136
18434WAT     H175541   2.016   5.183   4.494 -1.3455  2.4514 -1.6264
18434WAT     H275542   1.923   5.087   4.424 -0.7703  0.9922 -0.4415
18434WAT    EPW75543   1.994   5.137   4.424 -0.1928  0.1781 -0.5772
18435WAT      O75544   7.545   0.795   8.066  0.1848 -0.2962 -0.0051
18435WAT     H175545   7.603   0.869   8.084  0.2928  0.1087 -1.7782
18435WAT     H275546   7.572   0.765   7.979 -4.0003  1.6355 -2.2271
18435WAT    EPW75547   7.556   0.800   8.057 -0.3529  0.0120 -0.5317
18436WAT      O75548   7.182   5.006   1.020 -0.1653  0.0546 -0.0347
18436WAT     H175549   7.164   4.929   0.965 -0.6505 -1.3348  1.9452
18436WAT     H275550   7.105   5.061   1.010 -0.0055  0.1014 -1.1420
18436WAT    EPW75551   7.170   5.003   1.012 -0.2084 -0.1225  0.0804
18437WAT      O75552   9.212   8.315   6.203  0.1440  0.0652 -0.5482
18437WAT     H175553   9.207   8.256   6.278 -0.4611  0.4221 -0.2990
18437WAT     H275554   9.236   8.399   6.241  0.0697  0.1934 -0.7887
18437WAT    EPW75555   9.215   8.318   6.218  0.0544  0.1287 -0.5469
18438WAT      O75556   0.531   6.683   4.690  0.0614  0.5461  0.1799
18438WAT     H175557   0.605   6.730   4.726 -0.1952 -0.0787  1.5695
18438WAT     H275558   0.466   6.751   4.670  1.9241  1.4587 -3.6506
18438WAT    EPW75559   0.532   6.698   4.692  0.2732  0.5841 -0.1421
18439WAT      O75560   1.392   6.789   5.991  0.6449 -0.2800  0.5518
18439WAT     H175561   1.370   6.697   5.975 -0.3865 -0.2997  1.9318
18439WAT     H275562   1.476   6.801   5.945  1.6929 -2.3914  1.7217
18439WAT    EPW75563   1.400   6.778   5.983  0.6471 -0.5610  0.8881
18440WAT      O75564   0.001   6.654   3.013 -0.7737  0.2225  0.1268
18440WAT     H175565   0.060   6.675   3.086 -1.5755 -1.4017  1.2864
18440WAT     H275566   0.047   6.587   2.964 -1.0204  0.0112  0.1842
18440WAT    EPW75567   0.015   6.648   3.016 -0.9120 -0.0193  0.2873
18441WAT      O75568   6.755   6.020   1.055  0.3075  0.0711 -0.6574
18441WAT     H175569   6.822   6.041   0.990  0.1928  0.9953 -0.4953
18441WAT     H275570   6.786   6.063   1.135 -1.4006  2.1721 -1.0391
18441WAT    EPW75571   6.768   6.029   1.057  0.0670  0.4699 -0.6864
18442WAT      O75572   7.948   4.151   1.734  0.2283 -0.0363  0.0807
18442WAT     H175573   7.924   4.165   1.825 -1.5947  0.2622 -0.3922
18442WAT     H275574   8.029   4.101   1.737 -0.4290 -1.0767  1.8811
18442WAT    EPW75575   7.955   4.146   1.746 -0.0987 -0.1345  0.2559
18443WAT      O75576   8.453   5.452   0.914 -0.7411 -0.5477 -0.0167
18443WAT     H175577   8.375   5.407   0.945  1.2410 -2.1156  3.2959
18443WAT     H275578   8.472   5.413   0.829 -0.6605 -4.1719  1.4958
18443WAT    EPW75579   8.446   5.441   0.907 -0.4687 -1.2326  0.6197
18444WAT      O75580  10.250   9.664   1.098  0.3131 -0.0167  0.1829
18444WAT     H175581  10.336   9.621   1.094  0.1399 -0.3212 -0.3555
18444WAT     H275582  10.196   9.615   1.036 -0.6181 -0.6334  1.4247
18444WAT    EPW75583  10.254   9.652   1.089  0.1678 -0.1388  0.2757
18445WAT      O75584  10.672   8.303   1.188  0.1913 -0.1889  0.6458
18445WAT     H175585  10.711   8.390   1.195 -0.8436  0.2843  0.6098
18445WAT     H275586  10.713   8.264   1.111 -0.3427  0.7922 -0.1582
18445WAT    EPW75587  10.682   8.309   1.179 -0.0153  0.0029  0.5350
18446WAT      O75588   1.010   7.556   4.594 -0.7053  0.1426  0.0287
18446WAT     H175589   1.064   7.481   4.619  1.0109  2.2060  3.2981
18446WAT     H275590   1.002   7.607   4.675 -0.7993  4.0607 -2.2077
18446WAT    EPW75591   1.016   7.553   4.608 -0.4914  0.9317  0.1647
18447WAT      O75592   1.864   7.249   2.316 -0.0580 -0.5601  0.6186
18447WAT     H175593   1.822   7.173   2.275 -1.9487  1.5936 -1.7967
18447WAT     H275594   1.954   7.247   2.285  0.2330 -2.3114  1.4517
18447WAT    EPW75595   1.870   7.239   2.307 -0.2689 -0.5071  0.4098
18448WAT      O75596   8.908   1.204   8.399  0.5245  0.0650  0.0719
18448WAT     H175597   8.831   1.230   8.450  2.2330  1.2383  2.2254
18448WAT     H275598   8.977   1.190   8.464  2.3986 -0.0652 -1.8078
18448WAT    EPW75599   8.907   1.206   8.414  0.9971  0.2025  0.1082
18449WAT      O75600   4.283   1.338   7.901 -0.0070 -0.5897  0.3324
18449WAT     H175601   4.192   1.342   7.927 -0.6129  1.5085 -1.7482
18449WAT     H275602   4.331   1.376   7.974 -0.6195 -2.4314  1.7872
18449WAT    EPW75603   4.278   1.343   7.914 -0.1676 -0.5560  0.2499
18450WAT      O75604   1.593   5.165   5.062  0.0519  0.5037 -0.4299
18450WAT     H175605   1.612   5.074   5.085 -1.0611  0.1396 -0.9078
18450WAT     H275606   1.666   5.215   5.100  0.7954 -0.6032 -0.3626
18450WAT    EPW75607   1.605   5.160   5.070  0.0031  0.3097 -0.4842
18451WAT      O75608  10.652   8.280   2.073 -0.2982  0.0749 -0.0956
18451WAT     H175609  10.744   8.283   2.101 -0.6539 -1.2913  1.4166
18451WAT     H275610  10.654   8.303   1.981  1.6524 -0.5890 -0.2697
18451WAT    EPW75611  10.665   8.284   2.065 -0.0877 -0.1926  0.0809
18452WAT      O75612   6.629   1.529   7.689  0.3502  0.6584  0.6800
18452WAT     H175613   6.625   1.589   7.763  0.9266 -0.4314  1.6227
18452WAT     H275614   6.558   1.466   7.705  0.1290  0.7345  0.0166
18452WAT    EPW75615   6.619   1.528   7.701  0.3970  0.5246  0.7169
18453WAT      O75616   8.123   9.454   2.310 -0.2574 -0.3655  0.0915
18453WAT     H175617   8.178   9.391   2.356 -0.3290  0.0310  0.7208
18453WAT     H275618   8.064   9.488   2.376  1.4134  2.2243  0.4009
18453WAT    EPW75619   8.123   9.450   2.325 -0.0467  0.0286  0.2153
18454WAT      O75620   4.763   2.724   3.403 -0.1846 -0.7569  0.1746
18454WAT     H175621   4.771   2.819   3.392  1.1671 -1.1250 -2.9707
18454WAT     H275622   4.853   2.695   3.420 -0.4695 -1.5687  0.3243
18454WAT    EPW75623   4.776   2.733   3.404 -0.0441 -0.9124 -0.2205
18455WAT      O75624   9.482   6.127   1.586 -0.4454  0.1233 -0.3427
18455WAT     H175625   9.498   6.212   1.629  3.2780 -1.1504  1.2234
18455WAT     H275626   9.517   6.138   1.498 -1.9356  0.7617 -0.8892
18455WAT    EPW75627   9.489   6.140   1.580 -0.1512  0.0393 -0.2082
18456WAT      O75628   2.209   6.180   4.191 -0.4733 -0.3092  0.0638
18456WAT     H175629   2.237   6.168   4.282  0.8702 -0.1928 -0.3117
18456WAT     H275630   2.290   6.197   4.143 -1.0539 -1.2720 -1.3144
18456WAT    EPW75631   2.224   6.181   4.197 -0.3726 -0.4210 -0.1676
18457WAT      O75632   0.646  10.070   2.020 -0.5152  0.0759  0.0881
18457WAT     H175633   0.727  10.122   2.019 -0.5770  0.1713  0.0468
18457WAT     H275634   0.654  10.014   2.097  0.3321 -1.0757 -0.7883
18457WAT    EPW75635   0.658  10.069   2.030 -0.4116 -0.0639 -0.0329
18458WAT      O75636   9.782  10.329   3.874  0.8183 -0.2966  0.1017
18458WAT     H175637   9.765  10.414   3.832 -1.6243 -0.4120  0.7006
18458WAT     H275638   9.785  10.349   3.968 -0.0860 -0.8862  0.2670
18458WAT    EPW75639   9.780  10.343   3.881  0.3772 -0.3896  0.2027
18459WAT      O75640   9.115   7.364   2.412  0.3122 -0.3732  0.6396
18459WAT     H175641   9.085   7.301   2.346 -2.6979  1.3712  0.1905
18459WAT     H275642   9.207   7.380   2.389 -0.8143  1.1109 -4.0880
18459WAT    EPW75643   9.123   7.358   2.400 -0.2337  0.0527 -0.0432
18460WAT      O75644  10.366   7.249   1.236  0.0310  0.1122 -0.6614
18460WAT     H175645  10.447   7.221   1.278 -1.0469 -0.6565  1.0326
18460WAT     H275646  10.385   7.249   1.143  2.2988  1.0560 -0.2463
18460WAT    EPW75647  10.379   7.245   1.230  0.1879  0.1354 -0.3831
18461WAT      O75648   0.037   6.332   0.826  0.8932  0.2789 -0.4223
18461WAT     H175649   0.013   6.256   0.773  0.7482 -0.1517  0.2489
18461WAT     H275650   0.018   6.306   0.916 -1.4152  1.9441 -0.3363
18461WAT    EPW75651   0.031   6.318   0.830  0.5696  0.4416 -0.3224
18462WAT      O75652   0.047   6.193   2.200 -0.1609 -0.3510  0.4195
18462WAT     H175653   0.112   6.172   2.267  0.0095  1.3311  0.8131
18462WAT     H275654  -0.016   6.120   2.205  0.0408 -0.4526  2.1678
18462WAT    EPW75655   0.047   6.180   2.210 -0.1119 -0.1426  0.7020
18463WAT      O75656   9.615   5.092   3.206  0.2274 -0.2912  0.0446
18463WAT     H175657   9.538   5.141   3.179 -0.6663 -1.8212 -0.3064
18463WAT     H275658   9.686   5.128   3.154 -0.9367 -1.2581 -2.3512
18463WAT    EPW75659   9.614   5.103   3.196 -0.0439 -0.6204 -0.3176
18464WAT      O75660   2.835   9.296   2.387  0.8842 -0.0559 -0.0441
18464WAT     H175661   2.837   9.356   2.312  0.3202  0.0755  0.0446
18464WAT     H275662   2.926   9.268   2.398  1.0843  0.4759 -0.3369
18464WAT    EPW75663   2.847   9.300   2.379  0.8361  0.0315 -0.0709
18465WAT      O75664   0.053   8.371   0.804 -0.1081 -0.6995 -0.2796
18465WAT     H175665   0.047   8.278   0.824  0.2453 -0.4528  1.0658
18465WAT     H275666  -0.033   8.393   0.769 -0.2116 -1.5185 -0.5621
18465WAT    EPW75667   0.041   8.362   0.802 -0.0751 -0.7749 -0.1394
18466WAT      O75668   9.071   7.230   5.183  0.5161 -0.0449 -0.3424
18466WAT     H175669   9.102   7.157   5.129 -0.3008  0.0694 -0.9852
18466WAT     H275670   8.993   7.196   5.226 -1.7521  1.3306 -3.0474
18466WAT    EPW75671   9.065   7.216   5.181  0.1087  0.1516 -0.7837
18467WAT      O75672   0.656   5.280   3.989 -0.4602 -0.4385  0.2280
18467WAT     H175673   0.658   5.282   3.894 -1.7903 -0.0926  0.1907
18467WAT     H275674   0.748   5.289   4.015 -0.2645  1.5435 -0.9786
18467WAT    EPW75675   0.669   5.281   3.980 -0.6098 -0.1316  0.0639
18468WAT      O75676   2.526   9.439   8.915 -0.5853 -0.2650  1.0502
18468WAT     H175677   2.492   9.390   8.840  1.3122 -0.9438  0.5576
18468WAT     H275678   2.522   9.531   8.887  2.8165 -0.6185 -1.2713
18468WAT    EPW75679   2.521   9.445   8.901  0.1135 -0.4015  0.6790
18469WAT      O75680   8.924   7.225   1.600 -0.4629 -0.5044  0.0430
18469WAT     H175681   8.985   7.286   1.640 -0.9227 -0.4100  0.6109
18469WAT     H275682   8.884   7.274   1.528 -1.0527 -0.0288  0.6843
18469WAT    EPW75683   8.927   7.239   1.596 -0.6008 -0.4292  0.2025
18470WAT      O75684   7.527   8.288   3.366  0.5329 -0.6278 -0.4860
18470WAT     H175685   7.565   8.291   3.278  1.2417  0.1615 -0.1649
18470WAT     H275686   7.498   8.198   3.376 -0.2788 -0.5422 -1.8317
18470WAT    EPW75687   7.528   8.277   3.355  0.5195 -0.5126 -0.6212
18471WAT      O75688   8.724   5.025   4.445 -0.5220  0.3048 -0.1790
18471WAT     H175689   8.663   4.976   4.390 -1.3755 -0.8035  1.6566
18471WAT     H275690   8.668   5.078   4.502  0.1994 -0.3863  1.2331
18471WAT    EPW75691   8.708   5.026   4.445 -0.5398  0.0675  0.2494
18472WAT      O75692   1.290   8.108   0.718  0.1105  1.2897 -0.7055
18472WAT     H175693   1.352   8.035   0.720 -2.4245 -1.0162 -1.2412
18472WAT     H275694   1.311   8.154   0.636  0.5819  0.0756 -1.2857
18472WAT    EPW75695   1.301   8.105   0.707 -0.1617  0.8254 -0.8526
18473WAT      O75696  10.673   6.174   2.109 -0.0923 -0.0567 -0.1264
18473WAT     H175697  10.580   6.159   2.125  0.1335 -1.1962  0.2257
18473WAT     H275698  10.712   6.087   2.109  0.8951  0.3607 -0.8476
18473WAT    EPW75699  10.666   6.161   2.111  0.0677 -0.1519 -0.1751
18474WAT      O75700   1.247   8.992   2.822  0.2686 -1.0243 -0.6379
18474WAT     H175701   1.254   9.067   2.881  0.9695  0.9718 -3.0831
18474WAT     H275702   1.304   8.926   2.860  2.9833  1.2115 -0.4570
18474WAT    EPW75703   1.255   8.993   2.834  0.7191 -0.4663 -0.9366
18475WAT      O75704   7.218   5.401   2.934  0.7085  0.3364 -0.1025
18475WAT     H175705   7.164   5.445   2.999  0.8582  2.7040 -1.4279
18475WAT     H275706   7.274   5.341   2.984  0.4183  1.6202  1.8685
18475WAT    EPW75707   7.219   5.399   2.949  0.6895  0.8180 -0.0173
18476WAT      O75708   8.549   6.622   2.983 -0.2800 -0.6278 -0.4594
18476WAT     H175709   8.553   6.654   3.073  1.6143  0.5930 -0.9178
18476WAT     H275710   8.634   6.580   2.970 -0.0090  0.3646 -2.0707
18476WAT    EPW75711   8.561   6.620   2.993  0.0057 -0.3357 -0.7323
18477WAT      O75712   1.347   7.732   3.562  0.5344  0.0013  0.6253
18477WAT     H175713   1.293   7.763   3.635 -0.5916 -0.1795 -0.1011
18477WAT     H275714   1.397   7.660   3.598 -0.1850 -0.2398  1.1704
18477WAT    EPW75715   1.346   7.727   3.576  0.2910 -0.0544  0.6014
18478WAT      O75716   7.770   6.969   4.394 -0.7334  0.2187  0.5618
18478WAT     H175717   7.675   6.960   4.399 -0.8358  0.9394  0.1418
18478WAT     H275718   7.789   7.046   4.447 -0.3977  0.1596  0.5262
18478WAT    EPW75719   7.760   6.978   4.401 -0.7029  0.3059  0.5021
18479WAT      O75720   2.455   9.531   8.167  0.6366 -0.3005 -0.4486
18479WAT     H175721   2.422   9.574   8.245  0.6111  0.0225 -0.6364
18479WAT     H275722   2.542   9.500   8.191 -0.2827 -2.3640  0.4975
18479WAT    EPW75723   2.462   9.533   8.180  0.5120 -0.5302 -0.3486
18480WAT      O75724   0.858   6.946   3.186  0.7031 -0.6225  0.2624
18480WAT     H175725   0.889   7.037   3.193 -0.5763 -0.1482  0.1130
18480WAT     H275726   0.921   6.904   3.129  1.1022  0.2917  0.0051
18480WAT    EPW75727   0.870   6.953   3.179  0.5870 -0.4392  0.2086
18481WAT      O75728   0.458   9.270   0.679  0.1265 -0.4076  0.1121
18481WAT     H175729   0.530   9.218   0.643  0.3594 -0.0648  0.0771
18481WAT     H275730   0.391   9.206   0.703 -0.4616 -0.6012 -1.8582
18481WAT    EPW75731   0.458   9.255   0.677  0.0796 -0.3886 -0.1524
18482WAT      O75732  10.580   7.491   6.360  0.2905 -0.1621  0.0904
18482WAT     H175733  10.584   7.447   6.276 -0.9026  0.3995 -0.2883
18482WAT     H275734  10.669   7.487   6.394  0.7013 -0.7375 -1.0136
18482WAT    EPW75735  10.592   7.485   6.354  0.1874 -0.1643 -0.1049
18483WAT      O75736   0.623   8.093   0.222 -0.1744 -0.5763 -0.3574
18483WAT     H175737   0.529   8.101   0.237 -0.0614 -0.0244  0.1098
18483WAT     H275738   0.644   8.005   0.253 -0.9462 -1.7297 -2.8227
18483WAT    EPW75739   0.613   8.082   0.228 -0.2612 -0.6557 -0.6209
18484WAT      O75740   2.440   7.229   2.476 -0.0394  0.0365 -0.8416
18484WAT     H175741   2.356   7.257   2.514 -0.7708 -2.2362 -0.6327
18484WAT     H275742   2.476   7.169   2.541  0.3953 -1.1955 -2.1756
18484WAT    EPW75743   2.434   7.225   2.490 -0.0786 -0.4256 -0.9899
18485WAT      O75744   9.605   6.782   2.278 -0.7966 -0.7237 -0.2330
18485WAT     H175745   9.573   6.802   2.366 -1.0073 -1.7584 -0.0572
18485WAT     H275746   9.699   6.772   2.289 -0.3549  2.1521 -0.7195
18485WAT    EPW75747   9.613   6.783   2.291 -0.7663 -0.4809 -0.2741
18486WAT      O75748   0.205   7.803   6.449  0.0727  0.4984 -0.6868
18486WAT     H175749   0.280   7.845   6.491  1.5887 -2.4169 -0.1746
18486WAT     H275750   0.241   7.721   6.414 -3.1246 -1.8743  1.0427
18486WAT    EPW75751   0.220   7.798   6.450 -0.1491 -0.1991 -0.3910
18487WAT      O75752  10.822  10.184   2.426  0.5345  0.4587  0.0983
18487WAT     H175753  10.795  10.156   2.338  1.6368  1.9887 -0.7723
18487WAT     H275754  10.742  10.177   2.478  0.0925 -1.4650 -0.7238
18487WAT    EPW75755  10.808  10.179   2.421  0.6213  0.4067 -0.1252
18488WAT      O75756   5.678   8.296   4.604 -0.4900  0.8161  0.0873
18488WAT     H175757   5.650   8.247   4.681 -1.4673  2.8101  1.0760
18488WAT     H275758   5.739   8.361   4.638 -0.1166  1.0533 -0.9988
18488WAT    EPW75759   5.682   8.298   4.619 -0.5696  1.1106  0.0746
18489WAT      O75760   9.722   8.457   2.231 -0.4279  0.0010  0.1847
18489WAT     H175761   9.782   8.383   2.245 -2.9912 -2.3743 -0.4406
18489WAT     H275762   9.641   8.431   2.275 -2.0656  1.5523 -1.6789
18489WAT    EPW75763   9.719   8.444   2.239 -0.9818 -0.1078 -0.1436
18490WAT      O75764   3.771   8.731   4.501 -0.5089  0.6601 -0.2595
18490WAT     H175765   3.860   8.751   4.471 -0.3412  1.8614  0.9151
18490WAT     H275766   3.761   8.783   4.581 -3.4376  3.2698 -2.0892
18490WAT    EPW75767   3.781   8.741   4.508 -0.8732  1.1635 -0.3459
18491WAT      O75768   0.889   1.987   3.219 -0.4412  0.0877 -0.2383
18491WAT     H175769   0.883   1.891   3.221  0.8150 -0.0143  2.5062
18491WAT     H275770   0.966   2.005   3.166 -0.2068 -0.4460 -0.0786
18491WAT    EPW75771   0.898   1.977   3.212 -0.2446  0.0039  0.1448
18492WAT      O75772   9.102   7.331   2.029  0.1838 -0.0680 -0.4453
18492WAT     H175773   9.018   7.338   1.984 -0.3919  0.5491  0.6766
18492WAT     H275774   9.167   7.329   1.959 -0.8265 -2.1787 -1.4043
18492WAT    EPW75775   9.099   7.332   2.014 -0.0253 -0.2651 -0.4237
18493WAT      O75776   6.384   6.483   6.883  0.4318  0.7953 -0.4168
18493WAT     H175777   6.365   6.488   6.977  0.9499  1.8330 -0.3510
18493WAT     H275778   6.364   6.392   6.859 -1.3386  0.9604  0.3304
18493WAT    EPW75779   6.379   6.471   6.892  0.2668  0.9542 -0.3095
18494WAT      O75780  10.310   8.092   2.246 -0.7505  0.0875  0.2497
18494WAT     H175781  10.287   8.177   2.209  1.9553  0.4837 -0.7137
18494WAT     H275782  10.320   8.108   2.340  2.9540  1.7805 -0.2510
18494WAT    EPW75783  10.308   8.105   2.253  0.0954  0.3629  0.0565
18495WAT      O75784   8.555   5.473   0.097 -0.7102  0.8351  0.4566
18495WAT     H175785   8.600   5.543   0.146 -0.2701 -0.0154  1.3101
18495WAT     H275786   8.623   5.408   0.081 -0.7604  1.2376 -1.6470
18495WAT    EPW75787   8.570   5.474   0.101 -0.6590  0.7763  0.2917
18496WAT      O75788   0.978   9.640   1.524 -0.0170  0.2078  0.4342
18496WAT     H175789   0.981   9.711   1.459 -1.1872 -1.1484 -1.1930
18496WAT     H275790   0.897   9.655   1.572 -0.7173 -0.4784 -0.4994
18496WAT    EPW75791   0.968   9.651   1.522 -0.2637 -0.0615  0.0965
18497WAT      O75792   2.713   7.850   4.725  0.3629 -0.1712 -0.4956
18497WAT     H175793   2.708   7.806   4.640  1.8938  0.3804 -0.9063
18497WAT     H275794   2.724   7.943   4.702 -0.0059  0.0820  0.3271
18497WAT    EPW75795   2.714   7.857   4.711  0.5162 -0.0651 -0.4413
18498WAT      O75796  10.959   8.071   0.697  0.4555  0.5456 -0.1733
18498WAT     H175797  10.927   8.149   0.651  1.5766  1.0213 -0.1767
18498WAT     H275798  10.881   8.017   0.708 -0.3178  1.5817 -0.3315
18498WAT    EPW75799  10.944   8.074   0.693  0.5012  0.7448 -0.1946
18499WAT      O75800   2.152   0.497   1.091 -0.0452  0.7986 -0.3153
18499WAT     H175801   2.193   0.580   1.067 -1.0141  1.1562 -0.7921
18499WAT     H275802   2.212   0.458   1.154  1.3864  0.9592 -1.5290
18499WAT    EPW75803   2.165   0.503   1.096  0.0159  0.8669 -0.5383
18500WAT      O75804   1.973   8.288   2.174  0.1702 -0.3022 -0.6283
18500WAT     H175805   1.941   8.223   2.236 -0.2972 -0.0518 -0.6030
18500WAT     H275806   1.897   8.308   2.118  0.5916 -0.5441 -1.2959
18500WAT    EPW75807   1.959   8.282   2.175  0.1642 -0.3009 -0.7129
18501WAT      O75808   9.681   4.349   6.926 -0.1425 -0.4434  0.2199
18501WAT     H175809   9.725   4.426   6.891  1.5839 -1.0511  0.9027
18501WAT     H275810   9.687   4.359   7.021  0.3524 -1.5162  0.3194
18501WAT    EPW75811   9.688   4.360   6.934  0.1502 -0.6649  0.3231
18502WAT      O75812   4.299   2.767   7.460  0.0799 -0.6469  0.2696
18502WAT     H175813   4.249   2.705   7.514 -1.8050  1.6764  1.3392
18502WAT     H275814   4.340   2.826   7.523 -1.6721  1.7629 -0.7070
18502WAT    EPW75815   4.298   2.766   7.475 -0.4001 -0.0226  0.2816
18503WAT      O75816   5.301   3.296   8.619 -0.7748  0.0430  0.3820
18503WAT     H175817   5.380   3.333   8.580  0.5950 -1.9256  1.1862
18503WAT     H275818   5.238   3.293   8.547  0.1488  0.8483 -0.4811
18503WAT    EPW75819   5.303   3.301   8.604 -0.4723 -0.1104  0.3743
18504WAT      O75820   1.746   4.722   6.200 -0.5961 -0.4903 -0.1909
18504WAT     H175821   1.787   4.725   6.286 -1.8124  4.1300  0.5183
18504WAT     H275822   1.652   4.725   6.218 -0.9901 -1.9684 -1.7469
18504WAT    EPW75823   1.739   4.723   6.213 -0.8084 -0.0758 -0.3026
18505WAT      O75824   9.503   6.338   1.825  0.3181 -0.4911  0.0245
18505WAT     H175825   9.549   6.287   1.892  0.5774 -0.3925 -0.0796
18505WAT     H275826   9.562   6.410   1.805 -0.5474  0.5376  1.0250
18505WAT    EPW75827   9.517   6.340   1.832  0.2384 -0.3426  0.1428
18506WAT      O75828  10.660   8.412   4.898  0.0444 -1.0175  0.1746
18506WAT     H175829  10.577   8.372   4.873  1.3142 -2.0432 -2.8731
18506WAT     H275830  10.727   8.357   4.857  2.1113  1.3676  0.0796
18506WAT    EPW75831  10.658   8.399   4.890  0.4845 -0.8378 -0.2396
18507WAT      O75832  10.584   5.244   0.460 -0.3115 -0.1023 -0.4165
18507WAT     H175833  10.513   5.202   0.411  1.5665 -2.7427 -1.0895
18507WAT     H275834  10.661   5.235   0.404  1.0594  0.5990  1.2467
18507WAT    EPW75835  10.585   5.237   0.446  0.1168 -0.3579 -0.2859
18508WAT      O75836   8.113   5.780   0.668  0.2233 -0.1494  0.5891
18508WAT     H175837   8.191   5.763   0.721  0.2892  0.9328  0.8517
18508WAT     H275838   8.047   5.810   0.730 -0.3557 -0.8721  0.3418
18508WAT    EPW75839   8.115   5.782   0.683  0.1554 -0.1020  0.5912
18509WAT      O75840   8.508   4.924   2.140 -0.5486  0.3547  0.1861
18509WAT     H175841   8.516   5.012   2.104 -0.7235  1.2167  2.1021
18509WAT     H275842   8.414   4.905   2.137 -0.3483 -0.5752 -1.9051
18509WAT    EPW75843   8.497   4.933   2.135 -0.5460  0.3457  0.1631
18510WAT      O75844   8.132   8.940   2.846 -0.1187  0.3726  0.1829
18510WAT     H175845   8.201   8.873   2.854  0.0867  0.2962 -1.7243
18510WAT     H275846   8.096   8.926   2.759 -1.4685  1.4765  0.5339
18510WAT    EPW75847   8.137   8.929   2.836 -0.2699  0.5083 -0.0224
18511WAT      O75848   6.680   8.911   1.768  0.7220 -0.6388 -0.6489
18511WAT     H175849   6.722   8.846   1.711 -2.0776 -2.3041 -1.0217
18511WAT     H275850   6.647   8.859   1.842  0.7563  0.8636  0.4682
18511WAT    EPW75851   6.681   8.895   1.770  0.3572 -0.6604 -0.5507
18512WAT      O75852   9.478   6.486   1.542  0.2102 -0.0253 -0.4481
18512WAT     H175853   9.387   6.468   1.521  0.6662 -2.2882 -0.7105
18512WAT     H275854   9.484   6.582   1.543 -1.8091  0.1770 -1.9020
18512WAT    EPW75855   9.467   6.496   1.539  0.0038 -0.2971 -0.6744
18513WAT      O75856   8.273   9.023   0.210  0.3914  0.1186  0.1438
18513WAT     H175857   8.230   9.008   0.126  0.3743 -1.7853  0.4449
18513WAT     H275858   8.237   8.955   0.267 -0.5799  2.1458  2.1064
18513WAT    EPW75859   8.262   9.012   0.206  0.2608  0.1349  0.4423
18514WAT      O75860  10.480   9.357   7.245  0.7602 -0.6519  0.3644
18514WAT     H175861  10.419   9.287   7.224 -0.4552 -0.0959  1.8652
18514WAT     H275862  10.539   9.319   7.310  1.7511 -1.0361 -0.7210
18514WAT    EPW75863  10.480   9.343   7.251  0.7305 -0.6289  0.4191
18515WAT      O75864   6.780   1.849   7.983  0.1765  0.0927  0.0348
18515WAT     H175865   6.805   1.878   7.895  1.3597 -1.6866 -0.2758
18515WAT     H275866   6.835   1.901   8.042  1.6555 -0.8287 -0.4669
18515WAT    EPW75867   6.790   1.859   7.979  0.5279 -0.2635 -0.0720
18516WAT      O75868  10.509   8.897   0.919 -0.0437  0.3702  0.7442
18516WAT     H175869  10.534   8.959   0.851  0.6603  0.5214  1.1366
18516WAT     H275870  10.417   8.919   0.938  0.0346  0.9398  0.4978
18516WAT    EPW75871  10.500   8.908   0.913  0.0596  0.4654  0.7635
18517WAT      O75872   9.010   6.842   3.348  0.1169 -0.5243 -0.3701
18517WAT     H175873   8.984   6.921   3.395  1.7789 -1.1055  1.6918
18517WAT     H275874   9.063   6.874   3.275 -0.9178  0.3211 -0.7771
18517WAT    EPW75875   9.013   6.856   3.345  0.1993 -0.4897 -0.1518
18518WAT      O75876   8.855  10.306   5.048  0.1697  0.1047 -0.4631
18518WAT     H175877   8.841  10.212   5.062  0.9230  0.0719  0.1640
18518WAT     H275878   8.861  10.315   4.953 -0.2980 -0.4228 -0.5501
18518WAT    EPW75879   8.854  10.295   5.037  0.2074  0.0310 -0.3920
18519WAT      O75880   0.245   9.575   3.754 -0.1009  0.1344  0.0356
18519WAT     H175881   0.264   9.637   3.684  0.5839  2.3675  2.0395
18519WAT     H275882   0.215   9.630   3.827 -0.6476 -2.0318  1.5372
18519WAT    EPW75883   0.244   9.591   3.754 -0.0827  0.1435  0.4981
18520WAT      O75884   9.515   8.101   6.941  0.5681  0.0552  0.4587
18520WAT     H175885   9.444   8.119   6.880  1.6712  2.0869 -0.3209
18520WAT     H275886   9.510   8.171   7.006  1.7415  0.1368  0.4875
18520WAT    EPW75887   9.505   8.113   6.941  0.8688  0.3338  0.3595
18521WAT      O75888  10.111   6.807   0.751 -0.3913  0.2329 -0.4359
18521WAT     H175889  10.035   6.748   0.761  0.8203 -1.1825  1.1364
18521WAT     H275890  10.120   6.848   0.837 -0.1648  1.4388 -1.0203
18521WAT    EPW75891  10.102   6.804   0.764 -0.2017  0.2053 -0.3056
18522WAT      O75892   9.375   6.978   2.880  0.1888 -0.2965  0.2132
18522WAT     H175893   9.284   6.984   2.853 -0.1634  2.2221  1.6007
18522WAT     H275894   9.413   6.909   2.825 -1.5813  1.2145 -3.1704
18522WAT    EPW75895   9.368   6.970   2.869 -0.0911  0.2351 -0.0501
18523WAT      O75896   6.465   2.433   8.565 -0.0304 -0.4855 -0.2818
18523WAT     H175897   6.535   2.370   8.580 -0.2530 -0.6422  0.1184
18523WAT     H275898   6.461   2.443   8.470  2.8527  2.1442 -0.2794
18523WAT    EPW75899   6.474   2.426   8.555  0.3204 -0.1594 -0.2284
18524WAT      O75900   9.887   9.187   5.515  0.5173 -0.5650 -0.2171
18524WAT     H175901   9.824   9.223   5.452  0.3980 -1.4914 -0.6566
18524WAT     H275902   9.833   9.147   5.583  0.3579 -4.4710 -2.2896
18524WAT    EPW75903   9.871   9.186   5.515  0.4807 -1.2026 -0.5486
18525WAT      O75904   0.596  10.151   7.932  0.1340  0.0477 -0.3574
18525WAT     H175905   0.676  10.105   7.905 -0.3743 -0.3159 -1.2782
18525WAT     H275906   0.546  10.161   7.851 -1.7206 -1.5973  0.4931
18525WAT    EPW75907   0.600  10.146   7.917 -0.1777 -0.2170 -0.3667
18526WAT      O75908   9.993   6.394   0.997 -0.5060  0.3491 -0.3351
18526WAT     H175909   9.940   6.369   0.920  0.2519  1.1724 -1.1543
18526WAT     H275910  10.066   6.332   0.997 -0.0489  0.8723 -0.8021
18526WAT    EPW75911   9.995   6.383   0.987 -0.3462  0.5269 -0.5048
18527WAT      O75912   1.148   8.265   3.416  0.9416 -0.0153 -0.1610
18527WAT     H175913   1.189   8.265   3.330  1.2688 -3.3118 -0.1424
18527WAT     H275914   1.104   8.180   3.421  0.1635  0.4603  2.5893
18527WAT    EPW75915   1.147   8.254   3.405  0.8821 -0.3872  0.2043
18528WAT      O75916  10.119   8.415   4.183 -0.1607 -0.0191 -0.3540
18528WAT     H175917  10.069   8.427   4.102  0.9896  1.0050 -0.9302
18528WAT     H275918  10.150   8.502   4.206  0.3682 -0.4521  0.6547
18528WAT    EPW75919  10.116   8.428   4.175  0.0606  0.0587 -0.2968
18529WAT      O75920   7.976   2.644   0.026  0.8496  0.4593  0.0045
18529WAT     H175921   7.935   2.697  -0.043 -0.8387 -0.2036  0.4365
18529WAT     H275922   7.928   2.668   0.105  2.0231  0.3946  0.7467
18529WAT    EPW75923   7.964   2.654   0.027  0.7818  0.3633  0.1593
18530WAT      O75924   8.440   8.251   3.906  0.9924 -0.0499  0.1933
18530WAT     H175925   8.435   8.161   3.875  0.5611  0.7846 -2.3936
18530WAT     H275926   8.349   8.282   3.904  0.8233 -0.1053  3.0787
18530WAT    EPW75927   8.427   8.243   3.902  0.9131  0.0529  0.2327
18531WAT      O75928   2.762   0.489   6.518  0.3587 -0.5297 -0.4531
18531WAT     H175929   2.732   0.530   6.599  1.4716 -1.8283  0.6737
18531WAT     H275930   2.721   0.541   6.448  0.5095  1.5328  0.8894
18531WAT    EPW75931   2.753   0.501   6.519  0.5254 -0.4290 -0.1276
18532WAT      O75932   3.801   2.107   6.239 -0.4014 -0.7630 -0.5201
18532WAT     H175933   3.717   2.074   6.208 -0.8360 -1.0717  0.8890
18532WAT     H275934   3.845   2.030   6.276 -0.6647 -0.1512  1.1769
18532WAT    EPW75935   3.796   2.093   6.240 -0.4935 -0.7231 -0.1106
18533WAT      O75936   0.130   3.930   0.760  0.9634  0.0046  0.0218
18533WAT     H175937   0.091   3.842   0.763 -0.1071  0.4294 -1.0625
18533WAT     H275938   0.153   3.943   0.668  0.9011  0.9601  0.1346
18533WAT    EPW75939   0.128   3.920   0.748  0.8140  0.1866 -0.1064
18534WAT      O75940   9.393   9.206   0.739  0.7412 -0.2880 -0.9562
18534WAT     H175941   9.448   9.214   0.661  1.2297 -0.9561 -0.7023
18534WAT     H275942   9.391   9.112   0.756 -2.0488 -0.4986 -2.0352
18534WAT    EPW75943   9.400   9.194   0.731  0.4377 -0.4044 -1.0650
18535WAT      O75944  10.567   5.963   0.206 -0.0231  0.0399 -0.0905
18535WAT     H175945  10.531   5.874   0.213  1.3374 -0.4485  1.3034
18535WAT     H275946  10.635   5.956   0.139  0.3417 -0.0726  0.2880
18535WAT    EPW75947  10.571   5.950   0.198  0.2041 -0.0391  0.1433
18536WAT      O75948  10.793   5.474   3.943 -0.5174 -0.6892 -0.5884
18536WAT     H175949  10.885   5.470   3.969 -0.3847  0.5482 -0.8032
18536WAT     H275950  10.788   5.549   3.884 -2.3372  1.7329  2.3568
18536WAT    EPW75951  10.805   5.483   3.939 -0.7401 -0.2065 -0.2284
18537WAT      O75952   8.235  10.165   0.137  0.4577  0.4810 -0.1149
18537WAT     H175953   8.221  10.079   0.097  2.0267  0.1538 -0.0308
18537WAT     H275954   8.316  10.155   0.187  1.0751  2.2081 -0.6969
18537WAT    EPW75955   8.244  10.152   0.138  0.7463  0.6657 -0.1805
18538WAT      O75956   9.416   7.437   1.519  0.2729 -0.1805  0.4436
18538WAT     H175957   9.357   7.399   1.584 -0.8872  1.1729  0.2431
18538WAT     H275958   9.422   7.529   1.543 -0.3273  0.3986 -1.4162
18538WAT    EPW75959   9.409   7.444   1.531  0.0405  0.0741  0.1719
18539WAT      O75960   7.380   8.811   1.321  0.7069 -0.4290 -0.2434
18539WAT     H175961   7.420   8.777   1.400  0.6894 -0.9542 -0.4547
18539WAT     H275962   7.341   8.895   1.347  0.3643 -0.7850  0.3931
18539WAT    EPW75963   7.380   8.818   1.335  0.6595 -0.5455 -0.1873
18540WAT      O75964   0.935   5.077   4.711 -1.0480 -0.0242  0.3653
18540WAT     H175965   0.869   5.094   4.644 -0.5868 -0.8279 -0.3204
18540WAT     H275966   0.944   5.159   4.758 -0.1940  1.1126 -1.6297
18540WAT    EPW75967   0.928   5.090   4.708 -0.8746  0.0196  0.0117
18541WAT      O75968   8.904   7.622   5.678  0.2839 -0.2685  0.1547
18541WAT     H175969   8.884   7.714   5.694  1.2105 -0.1253  0.5495
18541WAT     H275970   8.926   7.587   5.764 -1.4192 -1.2305  0.2614
18541WAT    EPW75971   8.904   7.630   5.692  0.1817 -0.3762  0.2208
18542WAT      O75972   9.733   9.318   3.575  0.2195 -0.0357  1.1134
18542WAT     H175973   9.680   9.241   3.598  0.1839 -0.4824 -0.3779
18542WAT     H275974   9.772   9.296   3.491  0.4455  1.4707  0.7988
18542WAT    EPW75975   9.731   9.305   3.567  0.2441  0.1044  0.8751
18543WAT      O75976  10.658   7.785   3.684 -0.1899 -0.2033 -0.0128
18543WAT     H175977  10.639   7.719   3.618 -0.6999  1.8188 -1.9784
18543WAT     H275978  10.572   7.820   3.709 -0.0869 -1.4383  2.3602
18543WAT    EPW75979  10.644   7.781   3.679 -0.2437 -0.0997  0.0409
18544WAT      O75980   0.283   6.440   2.718 -0.7681  0.0535  0.0255
18544WAT     H175981   0.253   6.454   2.629 -0.4227 -0.7513 -0.2250
18544WAT     H275982   0.378   6.451   2.713 -0.8781  1.6560  0.6318
18544WAT    EPW75983   0.292   6.444   2.706 -0.7371  0.1588  0.0725
18545WAT      O75984   9.819   9.066   0.712 -0.4551 -0.9679  0.2366
18545WAT     H175985   9.914   9.057   0.704 -0.4211 -0.1998 -0.3493
18545WAT     H275986   9.790   9.096   0.626 -0.6357  3.4022  1.5808
18545WAT    EPW75987   9.828   9.069   0.699 -0.4740 -0.2899  0.3366
18546WAT      O75988   8.840   9.721   3.025  0.4241 -0.0821 -0.9571
18546WAT     H175989   8.935   9.710   3.033  0.4076  0.5978  0.4317
18546WAT     H275990   8.803   9.647   3.075  0.2571  0.6971  0.1090
18546WAT    EPW75991   8.848   9.710   3.033  0.4001  0.1106 -0.6334
18547WAT      O75992   1.139   9.582   2.093  0.8505 -0.2343 -0.2049
18547WAT     H175993   1.085   9.555   2.167  0.8800 -0.5831 -0.3119
18547WAT     H275994   1.196   9.651   2.129  0.7276 -0.2641  0.0455
18547WAT    EPW75995   1.139   9.588   2.107  0.8383 -0.2842 -0.1860
18548WAT      O75996  10.217   9.718   6.848 -0.0518  0.1396  0.2728
18548WAT     H175997  10.211   9.746   6.757 -1.0344 -1.0329 -0.0421
18548WAT     H275998  10.146   9.655   6.859  0.9504 -0.8405  1.4451
18548WAT    EPW75999  10.207   9.714   6.838 -0.0491 -0.1440  0.3855
18549WAT      O76000   1.489   7.815   6.025  0.2368 -0.3256  0.0243
18549WAT     H176001   1.418   7.770   6.072 -0.3837  1.0486  0.4447
18549WAT     H276002   1.528   7.873   6.090 -0.2077  1.1152 -0.9438
18549WAT    EPW76003   1.485   7.817   6.039  0.0964  0.0455 -0.0482
18550WAT      O76004   9.324   6.403   0.164 -0.8743  0.5879  0.2480
18550WAT     H176005   9.326   6.462   0.239 -2.6458 -0.3511  1.0864
18550WAT     H276006   9.232   6.403   0.135  0.0334  2.5476 -3.2931
18550WAT    EPW76007   9.312   6.411   0.170 -0.9885  0.7226 -0.1085
18551WAT      O76008   6.669   9.445   1.385 -0.5083  0.2053 -0.6286
18551WAT     H176009   6.605   9.507   1.349 -0.2791  0.7587 -0.0798
18551WAT     H276010   6.631   9.416   1.468 -1.3453 -1.5649 -1.5534
18551WAT    EPW76011   6.655   9.449   1.391 -0.5887  0.0448 -0.6781
18552WAT      O76012   9.651   7.715   2.042  0.5918  0.5063  0.1108
18552WAT     H176013   9.746   7.718   2.030  0.5345 -0.9556 -0.9697
18552WAT     H276014   9.639   7.686   2.133  1.2688 -2.3315 -0.5935
18552WAT    EPW76015   9.662   7.712   2.052  0.6733 -0.0608 -0.1247
18553WAT      O76016   9.992   7.623   1.805  0.2040  0.0686 -0.1621
18553WAT     H176017   9.921   7.679   1.774 -0.4892 -1.5035 -1.5731
18553WAT     H276018  10.035   7.593   1.725  0.1104 -1.9486  0.4963
18553WAT    EPW76019   9.988   7.627   1.791  0.1006 -0.4048 -0.2614
18554WAT      O76020   7.587   4.188   6.673  0.7249 -0.1807  0.3323
18554WAT     H176021   7.665   4.193   6.618  1.8652 -1.5820  1.7119
18554WAT     H276022   7.585   4.272   6.719 -0.8598  1.4574 -2.4913
18554WAT    EPW76023   7.597   4.200   6.672  0.6666 -0.1497  0.1419
18555WAT      O76024   9.200   8.319   4.833  0.0048 -0.2605 -0.1148
18555WAT     H176025   9.152   8.349   4.756 -0.8901  0.0847  0.5634
18555WAT     H276026   9.287   8.296   4.799 -0.1960  0.3933 -1.1309
18555WAT    EPW76027   9.205   8.320   4.818 -0.1392 -0.1287 -0.1593
18556WAT      O76028   8.398   3.808   7.131  0.1182  0.2729 -0.1974
18556WAT     H176029   8.392   3.721   7.092  0.4394  0.5908 -0.9581
18556WAT     H276030   8.326   3.857   7.091  1.3914  1.0578 -1.5929
18556WAT    EPW76031   8.387   3.803   7.121  0.3290  0.4183 -0.4816
18557WAT      O76032   9.268   8.909   2.674  0.4015 -0.0929 -0.3644
18557WAT     H176033   9.344   8.931   2.620  0.2289  1.4448 -0.0399
18557WAT     H276034   9.281   8.817   2.698  2.7596  0.4077  0.5794
18557WAT    EPW76035   9.280   8.900   2.670  0.6900  0.1760 -0.1971
18558WAT      O76036   9.737   5.126   0.956  0.1649  0.9661  0.3141
18558WAT     H176037   9.695   5.071   1.022  0.1454  1.6005  0.8434
18558WAT     H276038   9.680   5.120   0.880  0.0270  0.4634  0.4525
18558WAT    EPW76039   9.724   5.118   0.955  0.1445  0.9835  0.4022
18559WAT      O76040  10.749   7.851   2.857  0.0220  0.4438  0.6067
18559WAT     H176041  10.830   7.802   2.872 -0.8057 -0.9634  0.7115
18559WAT     H276042  10.775   7.924   2.801  1.0551 -1.0403 -0.9484
18559WAT    EPW76043  10.763   7.854   2.852  0.0491  0.0625  0.4153
18560WAT      O76044  10.016   5.341   3.408  0.1878 -0.3377 -0.0960
18560WAT     H176045   9.994   5.285   3.333  0.4859 -1.4954  0.6528
18560WAT     H276046  10.110   5.332   3.417  0.1062 -0.5101  0.6404
18560WAT    EPW76047  10.025   5.332   3.399  0.2160 -0.5131  0.0998
18561WAT      O76048   1.943   8.643   0.612  0.5167 -0.4617  0.3232
18561WAT     H176049   2.018   8.636   0.553 -0.6005 -0.7368 -1.1495
18561WAT     H276050   1.931   8.737   0.624  0.7982 -0.4021  0.1378
18561WAT    EPW76051   1.951   8.655   0.606  0.4064 -0.4902  0.1045
18562WAT      O76052   9.944  10.234   1.919 -0.8115  1.1594 -0.1595
18562WAT     H176053   9.901  10.150   1.930 -0.0731  0.4697 -2.0440
18562WAT     H276054   9.930  10.280   2.002 -2.1760 -0.3665  0.5050
18562WAT    EPW76055   9.937  10.229   1.931 -0.8936  0.8669 -0.3204
18563WAT      O76056   1.476   7.931   3.294  0.3237 -0.0282 -0.0773
18563WAT     H176057   1.531   7.932   3.372 -0.0013 -1.0472  0.1879
18563WAT     H276058   1.538   7.921   3.221  0.5570 -0.1939  0.1422
18563WAT    EPW76059   1.492   7.930   3.295  0.3116 -0.1845 -0.0132
18564WAT      O76060   9.327   5.874   5.045 -0.1137  0.2265  0.0725
18564WAT     H176061   9.256   5.815   5.069  0.4920 -0.5903 -0.1194
18564WAT     H276062   9.283   5.955   5.019 -0.9028  0.2240  1.3404
18564WAT    EPW76063   9.312   5.877   5.044 -0.1378  0.1185  0.2146
18565WAT      O76064   2.824   0.785   6.003  0.2797 -0.1204 -0.1263
18565WAT     H176065   2.787   0.819   6.085 -1.2687 -0.8440 -0.4892
18565WAT     H276066   2.803   0.853   5.938  1.4008  0.3973  0.0238
18565WAT    EPW76067   2.816   0.799   6.005  0.2233 -0.1476 -0.1545
18566WAT      O76068   0.640   6.154   3.490  0.7914  1.0252 -0.4220
18566WAT     H176069   0.690   6.165   3.570 -1.3239  0.3004  1.0784
18566WAT     H276070   0.621   6.243   3.461  0.1959  1.3182  0.8214
18566WAT    EPW76071   0.644   6.167   3.497  0.4339  0.9682 -0.0601
18567WAT      O76072   6.519   9.713   1.751  0.3708  0.3355  0.5348
18567WAT     H176073   6.554   9.664   1.676 -0.9724 -1.2143  0.8587
18567WAT     H276074   6.513   9.803   1.720 -1.0691 -0.4018 -1.6201
18567WAT    EPW76075   6.523   9.718   1.737  0.0036  0.0339  0.2933
18568WAT      O76076   8.748   5.155   1.819  0.5751  0.4533 -0.2389
18568WAT     H176077   8.774   5.246   1.815  0.3077  0.4879 -1.2770
18568WAT     H276078   8.775   5.117   1.736 -1.1397  0.0881 -0.6753
18568WAT    EPW76079   8.755   5.162   1.808  0.3138  0.4096 -0.4333
18569WAT      O76080   3.204   0.416   8.481  0.1147 -0.0314  0.0219
18569WAT     H176081   3.141   0.425   8.553  1.4793 -0.1017  1.2966
18569WAT     H276082   3.182   0.486   8.421  0.1170  1.2833  1.4818
18569WAT    EPW76083   3.193   0.426   8.483  0.2950  0.1327  0.3829
18570WAT      O76084   1.658   6.634   4.573 -0.4127 -0.2896  1.0625
18570WAT     H176085   1.689   6.565   4.514 -2.8339  0.1789 -0.9273
18570WAT     H276086   1.715   6.708   4.553 -0.7678 -0.3441 -0.2803
18570WAT    EPW76087   1.670   6.635   4.562 -0.7788 -0.2351  0.6232
18571WAT      O76088   0.529  10.077   3.765 -0.7440  0.4047 -0.0289
18571WAT     H176089   0.509  10.167   3.739 -1.1823  0.1908 -0.4474
18571WAT     H276090   0.603  10.085   3.825 -1.4197  1.1373  0.7370
18571WAT    EPW76091   0.536  10.090   3.770 -0.8909  0.4730  0.0169
18572WAT      O76092   0.941   6.064   5.503 -0.3865 -0.3974 -0.1247
18572WAT     H176093   0.937   6.070   5.599  0.0127  0.5601 -0.1550
18572WAT     H276094   1.014   6.121   5.479 -0.2419 -0.9258 -0.9787
18572WAT    EPW76095   0.950   6.072   5.512 -0.3148 -0.3407 -0.2413
18573WAT      O76096   8.211   6.982   3.323  0.4434 -0.4604  0.6774
18573WAT     H176097   8.124   6.987   3.364  1.3374 -0.2379  2.6515
18573WAT     H276098   8.194   6.995   3.229 -1.3206  3.7117  1.3391
18573WAT    EPW76099   8.197   6.985   3.316  0.3285  0.1192  1.0251
18574WAT      O76100  10.149   8.708   2.372  0.5145  0.2568  0.1697
18574WAT     H176101  10.228   8.670   2.412  0.7851  0.4668 -0.1540
18574WAT     H276102  10.168   8.707   2.278  1.6709  3.5859  0.2282
18574WAT    EPW76103  10.162   8.703   2.365  0.7033  0.7234  0.1346
18575WAT      O76104   0.920   8.850   2.449 -0.2752  0.0164 -0.0471
18575WAT     H176105   0.930   8.819   2.539  2.3892  1.2873  0.1867
18575WAT     H276106   0.979   8.795   2.398 -0.9615  0.0070 -0.8427
18575WAT    EPW76107   0.929   8.839   2.455 -0.0143  0.1826 -0.1211
18576WAT      O76108  10.716   6.586   4.223 -0.0297 -0.3450  0.4511
18576WAT     H176109  10.776   6.578   4.298  0.5831  1.4548  0.1980
18576WAT     H276110  10.677   6.672   4.232 -2.7690 -1.5106  0.6733
18576WAT    EPW76111  10.719   6.596   4.234 -0.3099 -0.2613  0.4470
18577WAT      O76112   8.606   7.106   5.584  0.5770  0.1482 -0.0476
18577WAT     H176113   8.532   7.100   5.644  1.0080  0.3757  0.5129
18577WAT     H276114   8.649   7.021   5.590  2.1275  1.0177  1.9518
18577WAT    EPW76115   8.602   7.094   5.592  0.8383  0.2928  0.2902
18578WAT      O76116   3.204   9.605   3.030  0.4201  0.3381 -0.3814
18578WAT     H176117   3.238   9.633   2.945  0.0948 -0.3848 -0.7620
18578WAT     H276118   3.208   9.683   3.085  3.2066  0.2074 -0.2405
18578WAT    EPW76119   3.209   9.619   3.026  0.7446  0.2260 -0.4129
18579WAT      O76120   3.094   7.434   3.081  0.0591  0.1877 -0.4174
18579WAT     H176121   3.010   7.444   3.126  0.5910  0.2408  0.5902
18579WAT     H276122   3.071   7.430   2.988 -0.9603  1.3477 -0.2427
18579WAT    EPW76123   3.080   7.435   3.075 -0.0051  0.3476 -0.2615
18580WAT      O76124   7.130   7.294   0.206  1.1624  0.0025  0.0144
18580WAT     H176125   7.110   7.216   0.154 -0.3623  0.3624  0.0182
18580WAT     H276126   7.118   7.266   0.297 -0.0182  0.3694 -0.0043
18580WAT    EPW76127   7.126   7.280   0.211  0.8056  0.0982  0.0124
18581WAT      O76128  10.734   8.631   3.949  0.5125 -0.2807 -0.3907
18581WAT     H176129  10.669   8.654   3.883 -0.2925 -2.2491 -0.3465
18581WAT     H276130  10.745   8.710   4.001  1.3288  1.4198 -2.9569
18581WAT    EPW76131  10.727   8.644   3.947  0.5145 -0.3161 -0.7234
18582WAT      O76132   7.248   2.027   7.382  0.0976  0.1763 -0.2040
18582WAT     H176133   7.276   2.119   7.384 -1.1833  0.6119 -0.9843
18582WAT     H276134   7.328   1.977   7.396  0.4359  1.4235  3.0544
18582WAT    EPW76135   7.262   2.033   7.384 -0.0269  0.3983  0.1230
18583WAT      O76136   8.428   6.806   2.007  0.7212 -0.7370 -0.7673
18583WAT     H176137   8.356   6.798   2.070  1.0481 -0.6353 -0.3774
18583WAT     H276138   8.494   6.744   2.037  0.5539 -1.2625 -1.4672
18583WAT    EPW76139   8.427   6.797   2.019  0.7424 -0.7930 -0.8081
18584WAT      O76140  10.529   8.257   2.811  0.5208 -0.1409  0.0663
18584WAT     H176141  10.553   8.214   2.893  2.8698 -2.5266 -1.6849
18584WAT     H276142  10.606   8.308   2.787 -0.6728  1.7042 -0.0152
18584WAT    EPW76143  10.542   8.258   2.818  0.6733 -0.2122 -0.1754
18585WAT      O76144   8.545   5.314   1.569  0.3652 -0.0270  0.4054
18585WAT     H176145   8.546   5.403   1.536 -0.2196  0.3723  1.4211
18585WAT     H276146   8.557   5.259   1.491  1.0015  0.9338 -0.1889
18585WAT    EPW76147   8.546   5.318   1.555  0.3724  0.1523  0.4610
18586WAT      O76148   8.346   7.949   5.429 -0.1635 -0.1243  0.7065
18586WAT     H176149   8.269   7.932   5.484  0.7655  0.6318  2.3152
18586WAT     H276150   8.364   7.865   5.386 -2.3547 -0.1047 -0.3699
18586WAT    EPW76151   8.338   7.936   5.431 -0.3304 -0.0219  0.7768
18587WAT      O76152  10.903   5.298   2.731 -0.2038 -0.1370 -0.1640
18587WAT     H176153  10.856   5.348   2.664 -0.7747 -0.4523 -0.0067
18587WAT     H276154  10.841   5.289   2.803  0.2375 -0.2198  0.2117
18587WAT    EPW76155  10.889   5.303   2.731 -0.2213 -0.1898 -0.0937
18588WAT      O76156  10.482   6.885   0.957 -0.4238 -0.1666 -0.2354
18588WAT     H176157  10.451   6.878   0.866 -0.5251  0.1335 -0.2260
18588WAT     H276158  10.506   6.977   0.967 -1.7565  0.1330  0.4667
18588WAT    EPW76159  10.481   6.896   0.946 -0.6132 -0.0873 -0.1416
18589WAT      O76160   0.485   5.456   4.177  0.2226  0.8321  0.3455
18589WAT     H176161   0.446   5.538   4.146 -1.0575 -0.2225 -0.9779
18589WAT     H276162   0.547   5.431   4.108  0.8297  0.8257  0.8838
18589WAT    EPW76163   0.488   5.463   4.163  0.1338  0.6921  0.2420
18590WAT      O76164   7.273   2.309   8.102  0.0763 -0.3027 -0.5897
18590WAT     H176165   7.303   2.219   8.094  0.9197 -0.0426 -0.4252
18590WAT     H276166   7.321   2.356   8.034  0.1083  0.1333 -0.2680
18590WAT    EPW76167   7.283   2.303   8.092  0.1917 -0.2109 -0.5255
18591WAT      O76168   9.593   7.720   6.843 -0.6337 -0.1694  0.7764
18591WAT     H176169   9.637   7.787   6.894  1.7377 -1.0009 -0.0308
18591WAT     H276170   9.640   7.718   6.759 -3.2134 -0.1032 -0.7907
18591WAT    EPW76171   9.605   7.728   6.838 -0.6614 -0.2704  0.4632
18592WAT      O76172   6.355   7.936   1.503 -0.7457  0.0413  0.0753
18592WAT     H176173   6.357   7.895   1.589  0.6787 -0.6531 -0.2492
18592WAT     H276174   6.428   7.895   1.456 -0.9299  1.0689 -1.1488
18592WAT    EPW76175   6.365   7.925   1.508 -0.5820  0.0851 -0.1289
18593WAT      O76176   0.074   3.027   2.406 -0.0712  0.0583  0.0846
18593WAT     H176177   0.106   2.942   2.378  1.7240  1.1537 -1.3893
18593WAT     H276178   0.030   3.063   2.329  1.6627  1.5853 -0.2504
18593WAT    EPW76179   0.072   3.021   2.392  0.3943  0.4041 -0.1540
18594WAT      O76180   7.984   3.935   2.206 -0.5068  0.6055  0.3805
18594WAT     H176181   8.016   3.850   2.236  0.1893  0.6035 -0.3573
18594WAT     H276182   7.977   3.987   2.286  0.1607  0.2161  0.7009
18594WAT    EPW76183   7.987   3.930   2.221 -0.3269  0.5538  0.3254
18595WAT      O76184   1.096   6.944   2.329  0.1734  0.1314 -0.1296
18595WAT     H176185   1.164   6.898   2.279  0.3711  0.8656 -0.5614
18595WAT     H276186   1.043   6.875   2.367 -0.7309 -0.4947 -2.3748
18595WAT    EPW76187   1.098   6.929   2.327  0.0802  0.1459 -0.4827
18596WAT      O76188  10.431   5.694   1.020 -0.0476 -0.5506 -0.7114
18596WAT     H176189  10.462   5.604   1.018  1.6476  0.0071 -1.4007
18596WAT     H276190  10.367   5.696   1.091  1.4918 -1.8199  0.8202
18596WAT    EPW76191  10.427   5.682   1.029  0.3791 -0.6442 -0.6003
18597WAT      O76192  10.154   8.636   0.307 -0.7179  0.2392 -0.1360
18597WAT     H176193  10.208   8.563   0.278  0.8215  1.3994 -0.2678
18597WAT     H276194  10.144   8.621   0.401 -1.8376 -1.0133 -0.4153
18597WAT    EPW76195  10.160   8.624   0.316 -0.6623  0.2275 -0.1902
18598WAT      O76196   8.988   6.961   3.724 -0.2319  0.2893 -0.3391
18598WAT     H176197   9.054   6.894   3.705 -0.2107  0.6002 -1.5112
18598WAT     H276198   8.995   7.021   3.649 -0.1462  1.6723  0.7447
18598WAT    EPW76199   8.998   6.960   3.711 -0.2179  0.5126 -0.3508
18599WAT      O76200   9.153   4.240   8.898 -0.5899 -0.0637 -0.6241
18599WAT     H176201   9.061   4.256   8.919 -0.2693  0.3787  0.5078
18599WAT     H276202   9.200   4.265   8.977  0.7726  2.3876 -2.0901
18599WAT    EPW76203   9.147   4.246   8.911 -0.3676  0.3181 -0.6680
18600WAT      O76204   9.780   7.588   1.237 -0.4490 -0.5151  0.2148
18600WAT     H176205   9.848   7.540   1.190  0.9312  0.5297  1.0443
18600WAT     H276206   9.715   7.610   1.170 -0.3778 -2.2231 -0.4465
18600WAT    EPW76207   9.780   7.585   1.222 -0.2580 -0.6025  0.2370
18601WAT      O76208  10.956   7.037   1.770  0.4094 -0.7148  0.1505
18601WAT     H176209  10.948   7.030   1.865 -0.0352  0.8667  0.2543
18601WAT     H276210  10.868   7.021   1.737  0.5888 -1.3891 -0.0192
18601WAT    EPW76211  10.944   7.034   1.778  0.3743 -0.5951  0.1418
18602WAT      O76212   0.780   4.586   7.016  0.5331 -0.1723 -0.4248
18602WAT     H176213   0.868   4.550   7.025 -0.1811 -2.0060 -0.4405
18602WAT     H276214   0.767   4.636   7.097  0.7038 -1.9390  0.7470
18602WAT    EPW76215   0.790   4.588   7.028  0.4614 -0.6471 -0.2720
18603WAT      O76216   0.781   7.518   4.445  0.1453 -0.0153 -0.4768
18603WAT     H176217   0.692   7.499   4.475 -0.5994  2.7644 -0.6698
18603WAT     H276218   0.825   7.552   4.523  0.5925 -0.0721 -0.7059
18603WAT    EPW76219   0.775   7.520   4.459  0.1061  0.3436 -0.5324
18604WAT      O76220   9.684   5.723   2.128 -0.3213  0.0667 -0.2213
18604WAT     H176221   9.698   5.779   2.053 -1.9989  2.7965  1.3440
18604WAT     H276222   9.588   5.717   2.136 -0.2701  1.3318  2.5916
18604WAT    EPW76223   9.673   5.729   2.119 -0.5364  0.5934  0.3562
18605WAT      O76224   8.486   5.534   2.813  0.2661 -0.1945 -0.3319
18605WAT     H176225   8.395   5.526   2.841  0.0477  1.0453 -0.6432
18605WAT     H276226   8.530   5.459   2.854 -1.1002 -1.4641 -1.1014
18605WAT    EPW76227   8.480   5.523   2.822  0.0567 -0.1986 -0.4745
18606WAT      O76228   7.723   6.141   5.360 -0.0690  0.3842  0.0561
18606WAT     H176229   7.795   6.195   5.328 -2.0233  2.3997 -1.3077
18606WAT     H276230   7.712   6.074   5.293  1.4876 -0.9436  1.0671
18606WAT    EPW76231   7.731   6.140   5.347 -0.1216  0.4749  0.0098
18607WAT      O76232   8.258   7.798   1.801  0.5209 -0.3164 -0.1153
18607WAT     H176233   8.205   7.858   1.854 -0.5323 -1.3194  0.0101
18607WAT     H276234   8.310   7.855   1.744 -1.7388  0.7365 -1.2663
18607WAT    EPW76235   8.258   7.813   1.800  0.0844 -0.3099 -0.2505
18608WAT      O76236   9.075   7.190   3.937 -1.4991 -0.0192  0.1088
18608WAT     H176237   9.027   7.142   3.870 -0.7604  1.1700 -1.3477
18608WAT     H276238   9.122   7.123   3.986 -1.0394 -0.8441 -1.4066
18608WAT    EPW76239   9.075   7.175   3.935 -1.3413  0.0288 -0.2831
18609WAT      O76240   1.159   9.016   5.653 -0.3867  0.1799  0.1897
18609WAT     H176241   1.097   8.961   5.605  0.4775 -1.5920  1.0097
18609WAT     H276242   1.224   8.955   5.686  1.0886  1.8233  0.4752
18609WAT    EPW76243   1.159   9.001   5.651 -0.0781  0.1631  0.3355
18610WAT      O76244   3.449   6.903   2.497 -0.0024  0.3176  0.2621
18610WAT     H176245   3.510   6.900   2.570  1.5772 -1.8472 -1.0186
18610WAT     H276246   3.378   6.844   2.522  0.8550 -0.9268 -0.1613
18610WAT    EPW76247   3.447   6.895   2.510  0.3191 -0.1321  0.0374
18611WAT      O76248   1.936   0.758   4.108 -0.2124  0.5799 -0.5755
18611WAT     H176249   2.009   0.697   4.096 -0.0927  0.3054  1.1833
18611WAT     H276250   1.930   0.805   4.025  0.7749 -0.6617 -1.3945
18611WAT    EPW76251   1.945   0.756   4.096 -0.0664  0.3799 -0.4516
18612WAT      O76252   1.304   7.917   1.311  0.3745 -0.3384 -0.0408
18612WAT     H176253   1.300   7.881   1.222  1.0832 -1.0504  0.1993
18612WAT     H276254   1.263   7.850   1.366  1.1433 -0.5074  0.3341
18612WAT    EPW76255   1.298   7.903   1.306  0.5695 -0.4547  0.0404
18613WAT      O76256   9.732   6.465   3.647 -0.1614  0.0828 -0.4577
18613WAT     H176257   9.701   6.524   3.578  0.9476  4.0087  2.1141
18613WAT     H276258   9.652   6.426   3.683 -1.5949  3.7817  0.7848
18613WAT    EPW76259   9.717   6.468   3.643 -0.2046  1.0886  0.0454
18614WAT      O76260  10.533   8.255   2.452  0.2736 -0.3205  0.4198
18614WAT     H176261  10.441   8.239   2.473  0.4976 -0.5064  1.2984
18614WAT     H276262  10.531   8.328   2.390 -0.4215  0.2322  1.0748
18614WAT    EPW76263  10.520   8.263   2.446  0.2117 -0.2718  0.6219
18615WAT      O76264   1.452   9.700   1.670  0.0166 -0.1936 -0.2783
18615WAT     H176265   1.491   9.778   1.631  0.3013  0.3548  1.0504
18615WAT     H276266   1.526   9.645   1.693 -0.1130 -0.2068  0.1074
18615WAT    EPW76267   1.467   9.703   1.668  0.0371 -0.1235 -0.0522
18616WAT      O76268   9.143   5.156   2.870 -0.1945 -0.0219 -0.4657
18616WAT     H176269   9.220   5.128   2.819 -0.2790 -1.4173  0.1241
18616WAT     H276270   9.176   5.223   2.929  0.3841  0.0271 -0.8412
18616WAT    EPW76271   9.158   5.161   2.871 -0.1297 -0.1993 -0.4375
18617WAT      O76272   6.638   3.284   5.315 -0.6741  0.0181  0.6772
18617WAT     H176273   6.667   3.288   5.406 -2.5030  2.1604  1.2573
18617WAT     H276274   6.703   3.228   5.272  0.7559 -0.3346  3.0787
18617WAT    EPW76275   6.651   3.277   5.321 -0.7265  0.2542  1.0703
18618WAT      O76276   2.201   9.531   1.121 -0.3204 -0.4414  0.3791
18618WAT     H176277   2.211   9.548   1.027 -0.2337 -0.5857  0.3604
18618WAT     H276278   2.241   9.445   1.133  1.8840  0.6079  0.9692
18618WAT    EPW76279   2.208   9.522   1.110 -0.0182 -0.3219  0.4545
18619WAT      O76280   3.002   0.721   6.943 -0.1300  0.1949  0.2143
18619WAT     H176281   3.013   0.780   6.868  2.7180 -0.2556  0.1736
18619WAT     H276282   2.912   0.689   6.935 -1.2396  3.2027 -0.6981
18619WAT    EPW76283   2.992   0.725   6.932  0.0993  0.5322  0.0887
18620WAT      O76284   1.631   7.357   5.258 -0.3393  0.4924  0.2668
18620WAT     H176285   1.725   7.374   5.266  0.0374 -1.0811 -0.2317
18620WAT     H276286   1.596   7.435   5.215  0.7369  1.1208  0.4914
18620WAT    EPW76287   1.639   7.369   5.253 -0.1478  0.3676  0.2306
18621WAT      O76288   5.926   2.839   7.234 -0.5644 -0.2056  0.5802
18621WAT     H176289   5.939   2.863   7.142  1.8808 -1.9729  0.3692
18621WAT     H276290   5.855   2.896   7.264 -0.2299  1.6707 -1.8917
18621WAT    EPW76291   5.919   2.849   7.226 -0.1979 -0.1913  0.2263
18622WAT      O76292  10.242   7.901   0.504  0.0317  0.0024 -0.3086
18622WAT     H176293  10.334   7.885   0.480  0.4602  0.3106  1.0068
18622WAT     H276294  10.212   7.967   0.442  0.3466 -0.8860 -1.4520
18622WAT    EPW76295  10.251   7.908   0.493  0.1302 -0.0739 -0.2859
18623WAT      O76296   1.722   6.877   3.719  0.1210  0.6333 -0.7195
18623WAT     H176297   1.751   6.966   3.699 -0.2260  0.9339  0.0963
18623WAT     H276298   1.804   6.826   3.723  0.5195  1.3583  0.9674
18623WAT    EPW76299   1.737   6.882   3.717  0.1279  0.7687 -0.3893
18624WAT      O76300   0.190   8.111   1.813 -0.2447  0.2925  0.2666
18624WAT     H176301   0.220   8.085   1.726 -2.0416 -1.1215 -0.0013
18624WAT     H276302   0.098   8.084   1.816  0.1183 -1.0759  3.1142
18624WAT    EPW76303   0.182   8.104   1.802 -0.4338 -0.0744  0.6068
18625WAT      O76304   8.018   6.057   4.538  0.6637 -0.1709  0.5912
18625WAT     H176305   8.025   5.966   4.508  0.7268 -0.4135  1.3134
18625WAT     H276306   8.073   6.106   4.478  0.8378 -0.6521  0.3509
18625WAT    EPW76307   8.026   6.051   4.526  0.6952 -0.2663  0.6549
18626WAT      O76308   5.456   1.921   4.006  0.0503  0.2356  0.6706
18626WAT     H176309   5.464   1.875   4.090  0.7276  0.7600  0.8993
18626WAT     H276310   5.373   1.890   3.970 -0.0371 -0.3272  1.3297
18626WAT    EPW76311   5.446   1.911   4.012  0.1283  0.2306  0.7877
18627WAT      O76312   0.248   9.625   0.788 -0.8395 -0.2198  0.4505
18627WAT     H176313   0.318   9.686   0.763 -2.9679  2.2976  0.1172
18627WAT     H276314   0.242   9.564   0.715  0.9866 -0.5478  0.5219
18627WAT    EPW76315   0.256   9.625   0.775 -0.8793  0.0682  0.4160
18628WAT      O76316   6.136   2.860   2.923  0.0836  0.6120  0.5243
18628WAT     H176317   6.045   2.890   2.915 -0.8803 -2.1773 -0.0389
18628WAT     H276318   6.131   2.782   2.979  1.9878 -0.1596 -0.2790
18628WAT    EPW76319   6.123   2.853   2.929  0.2077  0.1423  0.3440
18629WAT      O76320   3.815   6.829   2.492  0.3062 -0.2373 -0.3930
18629WAT     H176321   3.869   6.860   2.419  0.6920 -0.9109 -0.4030
18629WAT     H276322   3.755   6.766   2.452 -2.0528  2.1024 -0.8068
18629WAT    EPW76323   3.814   6.824   2.477  0.0459 -0.0174 -0.4489
18630WAT      O76324   0.176   9.262   3.759 -0.7109 -0.5582  0.3015
18630WAT     H176325   0.213   9.350   3.750 -1.2928 -0.1207  1.8599
18630WAT     H276326   0.215   9.212   3.687 -1.1335  1.2161 -1.2688
18630WAT    EPW76327   0.186   9.267   3.748 -0.8434 -0.2666  0.2999
18631WAT      O76328  10.186   3.937   4.079  0.0212 -0.3016  0.7149
18631WAT     H176329  10.100   3.928   4.119 -0.2054  0.3007  0.3658
18631WAT     H276330  10.245   3.891   4.139 -0.2685  0.7967  1.8916
18631WAT    EPW76331  10.183   3.930   4.092 -0.0463 -0.0771  0.8240
18632WAT      O76332  10.512   5.838   1.799 -0.4317 -0.0783  0.0896
18632WAT     H176333  10.426   5.868   1.829 -1.8672 -1.9699 -1.8216
18632WAT     H276334  10.573   5.905   1.830 -2.7086  1.9156  0.5544
18632WAT    EPW76335  10.509   5.851   1.807 -0.9212 -0.0644 -0.1011
18633WAT      O76336   1.412   8.373   1.496  0.4497  0.1544 -0.1025
18633WAT     H176337   1.408   8.343   1.405 -2.0510 -1.5982  0.4694
18633WAT     H276338   1.501   8.354   1.524  0.2741 -2.7629 -1.1683
18633WAT    EPW76339   1.423   8.367   1.487  0.0967 -0.4616 -0.1676
18634WAT      O76340   1.772   9.282   2.429 -0.0213  0.1550 -0.0340
18634WAT     H176341   1.720   9.289   2.509  0.0020  1.3615 -0.1189
18634WAT     H276342   1.846   9.227   2.453  0.0795  0.6612  0.8199
18634WAT    EPW76343   1.775   9.275   2.443 -0.0049  0.3815  0.0675
18635WAT      O76344  10.937   9.098   4.568 -0.7553  0.0751 -0.0654
18635WAT     H176345  10.954   9.191   4.585 -1.1205  0.3302 -1.0373
18635WAT     H276346  10.900   9.066   4.650 -0.6956  0.8028  0.2590
18635WAT    EPW76347  10.934   9.106   4.581 -0.7954  0.2050 -0.1509
18636WAT      O76348   7.351   9.256   3.996 -0.6372 -0.4187  0.7306
18636WAT     H176349   7.278   9.230   3.939 -1.5215  2.3278  0.4807
18636WAT     H276350   7.393   9.173   4.019 -2.5276 -1.9349 -0.8518
18636WAT    EPW76351   7.347   9.241   3.991 -1.0033 -0.2565  0.4890
18637WAT      O76352   0.487   8.389   2.567  0.0506 -0.8095 -0.7660
18637WAT     H176353   0.473   8.464   2.510 -0.0776 -1.9573 -2.2956
18637WAT     H276354   0.540   8.423   2.640  0.2328  0.6821 -1.5731
18637WAT    EPW76355   0.492   8.403   2.569  0.0577 -0.7634 -1.0742
18638WAT      O76356   1.746   5.080   3.187  0.3462 -0.3853  0.1897
18638WAT     H176357   1.662   5.085   3.142  0.5959 -1.0887 -0.3751
18638WAT     H276358   1.723   5.063   3.278 -0.1488  0.5843  0.2594
18638WAT    EPW76359   1.732   5.078   3.193  0.3139 -0.3505  0.1243
18639WAT      O76360   0.138   1.673   4.614 -0.1441 -0.8036 -0.4232
18639WAT     H176361   0.205   1.682   4.681  0.0484 -0.4822 -0.6567
18639WAT     H276362   0.187   1.662   4.532 -0.3757 -1.3851 -0.4892
18639WAT    EPW76363   0.153   1.673   4.612 -0.1493 -0.8379 -0.4630
18640WAT      O76364   2.802   0.164   1.382  0.1861  0.2244  0.7022
18640WAT     H176365   2.893   0.191   1.378  0.1871  0.1109 -0.5564
18640WAT     H276366   2.796   0.090   1.322 -1.5603  2.8717 -2.7956
18640WAT    EPW76367   2.813   0.158   1.374 -0.0441  0.5586  0.0749
18641WAT      O76368   3.102   7.674   0.849 -0.4534  0.1832  0.1149
18641WAT     H176369   3.190   7.695   0.879 -0.9046 -0.9213  2.4898
18641WAT     H276370   3.105   7.687   0.754  2.0682  0.7454  0.1935
18641WAT    EPW76371   3.114   7.679   0.840 -0.1804  0.1118  0.4385
18642WAT      O76372   0.115   9.784   3.909  0.4703 -0.6911  0.3938
18642WAT     H176373   0.187   9.826   3.956 -1.3823  0.7299  2.1465
18642WAT     H276374   0.075   9.856   3.860 -1.6966 -0.6551  2.0609
18642WAT    EPW76375   0.119   9.799   3.909 -0.0598 -0.4992  0.8450
18643WAT      O76376   8.158   9.588   1.540 -0.1133  0.0619 -0.9798
18643WAT     H176377   8.108   9.669   1.531 -0.2899  0.2409  1.1049
18643WAT     H276378   8.250   9.617   1.538 -0.1735  0.4651  0.4726
18643WAT    EPW76379   8.164   9.603   1.538 -0.1445  0.1392 -0.5133
18644WAT      O76380   0.741  10.016   0.560 -0.5774  0.1082  0.1683
18644WAT     H176381   0.743   9.935   0.611  3.9178  0.0798  0.3341
18644WAT     H276382   0.767   9.989   0.472 -0.5331  1.1504 -0.1464
18644WAT    EPW76383   0.745  10.002   0.555  0.0213  0.2413  0.1486
18645WAT      O76384  10.709   9.796   3.653  0.4286  0.4970  0.0795
18645WAT     H176385  10.742   9.825   3.738  0.5004  0.0249  0.2144
18645WAT     H276386  10.658   9.718   3.672  1.1120 -0.0793 -0.4071
18645WAT    EPW76387  10.707   9.790   3.666  0.5283  0.3586  0.0331
18646WAT      O76388   1.854   8.742   2.983 -0.4298  0.5047 -0.2553
18646WAT     H176389   1.817   8.791   2.909 -2.5712  1.0265  1.0798
18646WAT     H276390   1.943   8.778   2.993 -0.1138  0.4916 -2.4592
18646WAT    EPW76391   1.861   8.754   2.974 -0.6706  0.5713 -0.3699
18647WAT      O76392   6.094   0.729   1.810 -0.1336 -0.0189 -0.2067
18647WAT     H176393   6.050   0.725   1.725 -0.1486  1.2641 -0.2688
18647WAT     H276394   6.158   0.658   1.806  1.1918  1.2017 -2.0630
18647WAT    EPW76395   6.096   0.719   1.798  0.0389  0.3113 -0.4597
18648WAT      O76396  10.462   7.170   4.710 -1.0250 -0.7774 -0.6912
18648WAT     H176397  10.475   7.222   4.631  1.7008  0.0553  0.1836
18648WAT     H276398  10.440   7.233   4.778  0.1448 -1.0034 -0.0762
18648WAT    EPW76399  10.461   7.185   4.709 -0.5112 -0.6976 -0.4947
18649WAT      O76400   0.893   9.704   2.061 -0.1625 -0.2628 -0.3105
18649WAT     H176401   0.837   9.626   2.051  0.0472 -0.4145 -0.3157
18649WAT     H276402   0.982   9.669   2.063 -0.1542 -0.3330  2.7824
18649WAT    EPW76403   0.897   9.689   2.060 -0.1338 -0.2918  0.0967
18650WAT      O76404   0.263   8.297   3.045  0.3638  0.0070  0.0324
18650WAT     H176405   0.171   8.311   3.065  0.0925 -0.8229 -0.5463
18650WAT     H276406   0.265   8.289   2.949  1.1685  0.9074 -0.0332
18650WAT    EPW76407   0.251   8.298   3.035  0.4341  0.0167 -0.0526
18651WAT      O76408   0.389   1.037   4.574  1.1896  0.1650  0.3695
18651WAT     H176409   0.322   0.970   4.563  0.0631  1.2686  0.2434
18651WAT     H276410   0.354   1.094   4.643  0.1900  2.8490 -2.1389
18651WAT    EPW76411   0.375   1.036   4.582  0.9092  0.6647  0.0219
18652WAT      O76412   1.630   6.483   3.754 -0.0404  0.1490 -0.0393
18652WAT     H176413   1.723   6.478   3.774  0.0532  2.6229  0.5315
18652WAT     H276414   1.593   6.402   3.789  1.6860 -0.2227  1.0406
18652WAT    EPW76415   1.637   6.472   3.762  0.1997  0.4265  0.1783
18653WAT      O76416  10.599   7.408   2.311  0.9411  0.1806 -0.5140
18653WAT     H176417  10.577   7.500   2.324 -1.3008  0.3422 -4.0434
18653WAT     H276418  10.649   7.406   2.230 -0.2119 -1.7958 -1.2553
18653WAT    EPW76419  10.603   7.420   2.302  0.4930 -0.0587 -1.0773
18654WAT      O76420   1.296   4.391   4.493 -0.0678 -0.3693 -0.0600
18654WAT     H176421   1.318   4.306   4.454  1.5291 -0.2285  0.4897
18654WAT     H276422   1.262   4.443   4.420 -0.3440 -1.2183 -0.5517
18654WAT    EPW76423   1.294   4.387   4.478  0.1064 -0.4625 -0.0522
18655WAT      O76424   1.460   7.393   3.378 -0.2548 -0.7493  0.0356
18655WAT     H176425   1.424   7.476   3.346 -0.4204 -0.8819 -0.1305
18655WAT     H276426   1.545   7.385   3.335 -0.3036 -0.7370 -0.0635
18655WAT    EPW76427   1.466   7.403   3.368 -0.2831 -0.7651  0.0006
18656WAT      O76428  10.321   8.205   3.818 -0.2756 -0.0890  0.0940
18656WAT     H176429  10.295   8.279   3.874 -1.0875  0.5534 -1.1013
18656WAT     H276430  10.394   8.238   3.767 -0.2793 -0.2980 -0.0483
18656WAT    EPW76431  10.327   8.219   3.819 -0.3829 -0.0315 -0.0825
18657WAT      O76432   1.815   7.192   4.443 -0.5639 -0.5349 -0.3675
18657WAT     H176433   1.853   7.119   4.394 -0.1124 -0.5068 -0.0633
18657WAT     H276434   1.723   7.170   4.452 -0.0141 -2.2707  1.8273
18657WAT    EPW76435   1.808   7.180   4.438 -0.4318 -0.7601 -0.0381
18658WAT      O76436   4.882   0.106   3.005  0.9235 -0.5552 -0.4149
18658WAT     H176437   4.945   0.121   2.934  0.6450  2.8891 -0.1190
18658WAT     H276438   4.802   0.076   2.960  1.1330  0.3622 -1.4518
18658WAT    EPW76439   4.879   0.104   2.990  0.9141  0.0201 -0.5127
18659WAT      O76440  10.872   8.019   6.208  0.5518  0.3664 -0.3255
18659WAT     H176441  10.856   7.989   6.118 -0.4864  0.7361 -0.2745
18659WAT     H276442  10.898   7.939   6.255 -1.1915 -0.3070 -0.4288
18659WAT    EPW76443  10.874   8.004   6.202  0.1850  0.3266 -0.3324
18660WAT      O76444   2.069   7.998   4.070  0.4858  0.6147 -0.5694
18660WAT     H176445   2.118   7.938   4.015 -0.4354 -1.0664  0.3766
18660WAT     H276446   2.133   8.028   4.135  0.7559 -0.0012 -0.5455
18660WAT    EPW76447   2.084   7.994   4.071  0.3998  0.3116 -0.4416
18661WAT      O76448   7.231   9.362   2.722 -0.1848  0.6624  0.0103
18661WAT     H176449   7.275   9.416   2.656  1.0719 -2.1759 -1.6668
18661WAT     H276450   7.298   9.345   2.788 -0.3360  0.5945  0.1466
18661WAT    EPW76451   7.245   9.367   2.722 -0.0393  0.2789 -0.1930
18662WAT      O76452   1.579   9.370   1.642  0.2037 -0.2107 -0.2261
18662WAT     H176453   1.508   9.334   1.589 -0.4386  0.6795  0.0065
18662WAT     H276454   1.633   9.419   1.579 -0.0539  0.1018 -0.2016
18662WAT    EPW76455   1.577   9.371   1.626  0.0851 -0.0525 -0.1921
18663WAT      O76456   1.773   2.540   2.960  0.1910  0.4394  0.1073
18663WAT     H176457   1.697   2.550   3.017 -0.0907  2.4746 -0.5467
18663WAT     H276458   1.816   2.626   2.961  1.1504  0.0254 -1.3898
18663WAT    EPW76459   1.769   2.553   2.967  0.2804  0.6533 -0.1764
18664WAT      O76460   9.200   8.722   5.750 -0.0131  0.9213 -0.5642
18664WAT     H176461   9.198   8.627   5.750 -2.8464  0.9157 -0.4254
18664WAT     H276462   9.251   8.745   5.672 -1.1761 -0.7452 -1.8826
18664WAT    EPW76463   9.207   8.713   5.740 -0.5398  0.7005 -0.7195
18665WAT      O76464   0.128   7.150   0.150  0.0979  1.0035 -0.0645
18665WAT     H176465   0.215   7.158   0.188 -0.4285  1.8053  1.0399
18665WAT     H276466   0.085   7.233   0.170 -0.8664  0.6932 -0.7395
18665WAT    EPW76467   0.134   7.162   0.158 -0.0987  1.0684 -0.0079
18666WAT      O76468   6.210   2.395   8.682  0.2888 -0.1838  0.0026
18666WAT     H176469   6.211   2.425   8.773 -1.3101  0.8861 -0.2852
18666WAT     H276470   6.302   2.394   8.656  0.6960  0.5010  1.3150
18666WAT    EPW76471   6.222   2.399   8.691  0.1316  0.0477  0.1383
18667WAT      O76472  10.975   7.666   4.267 -0.0597  0.3023  0.1662
18667WAT     H176473  10.983   7.607   4.342 -0.5443  1.0547  0.8367
18667WAT     H276474  10.968   7.609   4.191 -0.3249 -0.4970  0.7822
18667WAT    EPW76475  10.975   7.651   4.267 -0.1588  0.2964  0.3362
18668WAT      O76476   9.638   9.745   1.999  0.2295  0.9514 -0.1551
18668WAT     H176477   9.548   9.720   2.019  0.0975  2.5169  1.4461
18668WAT     H276478   9.689   9.666   2.017 -0.6061  0.6375  0.9612
18668WAT    EPW76479   9.633   9.731   2.004  0.1020  1.1163  0.2034
18669WAT      O76480   1.579  10.141   7.629 -0.2042 -0.2041  0.4252
18669WAT     H176481   1.626  10.136   7.712  0.3171  2.0877  0.3398
18669WAT     H276482   1.497  10.185   7.650  0.4523  1.5229 -0.4104
18669WAT    EPW76483   1.575  10.146   7.642 -0.0489  0.3262  0.3037
18670WAT      O76484   3.063   7.083   3.520  0.2644  0.0461  0.3675
18670WAT     H176485   3.000   7.011   3.515  0.4543 -0.2973  2.3798
18670WAT     H276486   3.109   7.070   3.602  0.1245  2.6116  0.9398
18670WAT    EPW76487   3.061   7.072   3.530  0.2708  0.3393  0.7083
18671WAT      O76488   8.189   7.254   6.983 -0.2683 -0.0704 -0.2279
18671WAT     H176489   8.156   7.277   6.896  1.8176  0.0349 -1.0495
18671WAT     H276490   8.111   7.256   7.040 -1.1338  3.8414 -1.2666
18671WAT    EPW76491   8.174   7.257   6.979 -0.1068  0.4594 -0.4735
18672WAT      O76492   6.834   9.863   1.602  0.0911  0.4525 -0.1068
18672WAT     H176493   6.830   9.795   1.670 -0.0874  2.4173  1.9695
18672WAT     H276494   6.747   9.904   1.605  0.3726  1.1319 -0.9533
18672WAT    EPW76495   6.822   9.859   1.612  0.1049  0.8011  0.0554
18673WAT      O76496   1.091  10.110   0.730  0.2838  0.6291  0.3462
18673WAT     H176497   1.012  10.164   0.724 -1.0921 -1.1083  1.4958
18673WAT     H276498   1.150  10.161   0.786 -0.2956  1.6519  0.0568
18673WAT    EPW76499   1.089  10.124   0.737  0.0259  0.5345  0.4596
18674WAT      O76500  10.504   8.081   2.027 -0.2040 -0.0062  0.2952
18674WAT     H176501  10.569   8.149   2.045 -1.4910  1.8819 -1.8254
18674WAT     H276502  10.449   8.080   2.106  0.8005  0.2205  1.0242
18674WAT    EPW76503  10.505   8.090   2.040 -0.2413  0.2728  0.1116
18675WAT      O76504   7.450   7.139   3.977 -0.7718 -0.4843  0.4817
18675WAT     H176505   7.534   7.151   3.932 -0.4751  3.6708  1.7298
18675WAT     H276506   7.456   7.051   4.015  1.7718 -1.4311 -1.7874
18675WAT    EPW76507   7.462   7.129   3.976 -0.3972 -0.0608  0.3470
18676WAT      O76508   8.675   0.840   5.497  0.6419 -0.6866 -0.3356
18676WAT     H176509   8.754   0.821   5.547  0.7279 -0.9272 -0.5599
18676WAT     H276510   8.636   0.755   5.481  0.4410 -0.5836 -0.3961
18676WAT    EPW76511   8.680   0.827   5.502  0.6266 -0.7048 -0.3731
18677WAT      O76512   2.510   9.485   0.826 -0.2757  0.0322  0.6830
18677WAT     H176513   2.605   9.494   0.819 -0.1359 -0.8590  1.2535
18677WAT     H276514   2.477   9.507   0.739  0.5882 -1.3945 -0.0347
18677WAT    EPW76515   2.518   9.489   0.814 -0.1433 -0.2732  0.6635
18678WAT      O76516   9.694   1.545   3.997 -0.0347  0.3388 -0.6208
18678WAT     H176517   9.624   1.484   4.020 -0.5996  1.8324  1.9615
18678WAT     H276518   9.748   1.550   4.076  0.8804  1.9988 -1.3033
18678WAT    EPW76519   9.692   1.537   4.011  0.0114  0.7548 -0.3703
18679WAT      O76520   5.384   2.526   0.173 -0.3018 -0.2304  0.0599
18679WAT     H176521   5.449   2.524   0.103 -0.3923  1.3659 -0.1050
18679WAT     H276522   5.302   2.551   0.129 -0.3459  0.8464  0.7273
18679WAT    EPW76523   5.382   2.529   0.158 -0.3195  0.1224  0.1262
18680WAT      O76524  10.167   5.635   6.980 -0.4319  0.4563 -0.5748
18680WAT     H176525  10.183   5.572   7.050  1.0114 -0.2606 -1.5097
18680WAT     H276526  10.116   5.705   7.022 -0.8462 -0.6445  0.8181
18680WAT    EPW76527  10.162   5.636   6.995 -0.2966  0.2165 -0.5143
18681WAT      O76528   6.312   3.163   2.701  0.5415 -0.2980  0.3528
18681WAT     H176529   6.253   3.219   2.652 -0.0373 -1.5659 -0.4539
18681WAT     H276530   6.314   3.201   2.789  1.1042  1.6446 -0.4444
18681WAT    EPW76531   6.305   3.175   2.706  0.5395 -0.2090  0.1413
18682WAT      O76532   9.965   4.518   0.534 -0.7445 -0.3881  0.0269
18682WAT     H176533   9.958   4.442   0.476 -1.3466 -0.1685 -0.1896
18682WAT     H276534   9.941   4.592   0.480 -2.5967 -0.3154  0.8753
18682WAT    EPW76535   9.961   4.517   0.519 -1.0681 -0.3498  0.1102
18683WAT      O76536   3.474  10.314   2.994 -0.4069  0.2725 -0.2331
18683WAT     H176537   3.558  10.361   2.994 -1.0907  1.5611  0.6172
18683WAT     H276538   3.453  10.303   3.087 -1.0881 -0.2111 -0.4403
18683WAT    EPW76539   3.482  10.319   3.006 -0.5870  0.3786 -0.1483
18684WAT      O76540  10.102   1.307   7.105 -1.0206  1.1780 -0.2863
18684WAT     H176541  10.072   1.335   7.018  0.3283  0.9280 -0.8688
18684WAT     H276542  10.198   1.307   7.097 -0.6055 -6.0175 -1.2319
18684WAT    EPW76543  10.111   1.311   7.092 -0.7877  0.1960 -0.4880
18685WAT      O76544   7.867   1.600   2.621 -0.1182  0.1430  0.4920
18685WAT     H176545   7.936   1.543   2.656  0.4985  0.0621 -0.7628
18685WAT     H276546   7.848   1.662   2.691  0.1315 -0.8039  1.4129
18685WAT    EPW76547   7.874   1.601   2.635 -0.0041  0.0074  0.4480
18686WAT      O76548   2.949   9.832   1.103  0.0428 -0.4868 -0.1530
18686WAT     H176549   2.994   9.826   1.188 -1.2502 -0.8240  0.5342
18686WAT     H276550   3.019   9.826   1.038  1.0521 -0.2795  0.8907
18686WAT    EPW76551   2.964   9.831   1.106  0.0054 -0.5040  0.0753
18687WAT      O76552   9.954   2.725   0.888  0.4784 -0.3779  0.2941
18687WAT     H176553   9.988   2.646   0.931  1.2290 -1.5716 -2.2863
18687WAT     H276554  10.019   2.745   0.821 -1.3084  0.4800 -1.2639
18687WAT    EPW76555   9.967   2.717   0.885  0.3419 -0.4224 -0.2517
18688WAT      O76556   4.948   0.332   1.617  0.0852  0.0703  0.2547
18688WAT     H176557   5.028   0.384   1.610 -0.7588  1.1586 -2.9928
18688WAT     H276558   4.879   0.390   1.583 -1.7198 -1.5857  0.8995
18688WAT    EPW76559   4.949   0.347   1.612 -0.2642 -0.0046 -0.0886
18689WAT      O76560   6.393   0.626   1.148  0.4885  0.1854  0.1395
18689WAT     H176561   6.385   0.709   1.101 -0.5027  0.4258  0.6858
18689WAT     H276562   6.479   0.630   1.190  0.7416  0.6221 -0.4091
18689WAT    EPW76563   6.403   0.637   1.148  0.3912  0.2747  0.1392
18690WAT      O76564   3.394  10.258   1.339  0.2772 -0.3674 -0.2650
18690WAT     H176565   3.336  10.258   1.416 -0.3316 -1.9739 -0.6821
18690WAT     H276566   3.467  10.314   1.364  0.0822 -0.8456  1.4851
18690WAT    EPW76567   3.396  10.266   1.352  0.1712 -0.6423 -0.0892
18691WAT      O76568   7.357   2.929   0.437 -0.1842  1.1895  0.5857
18691WAT     H176569   7.446   2.910   0.467 -0.5977  1.4355  2.0354
18691WAT     H276570   7.369   2.966   0.350  0.9414 -1.4283 -0.4949
18691WAT    EPW76571   7.370   2.931   0.429 -0.0901  0.8765  0.6344
18692WAT      O76572  10.506   1.476   2.195  0.2163  0.3214 -0.1176
18692WAT     H176573  10.512   1.422   2.274  2.6541  0.2055 -0.2832
18692WAT     H276574  10.413   1.490   2.182 -0.2957 -0.3289  2.3179
18692WAT    EPW76575  10.495   1.471   2.204  0.4706  0.2204  0.1818
18693WAT      O76576   6.168   2.821   2.585 -0.4427 -0.4950 -0.5645
18693WAT     H176577   6.090   2.874   2.602 -1.4394 -2.3036  0.8957
18693WAT     H276578   6.138   2.755   2.522 -0.1466 -1.2596  0.0815
18693WAT    EPW76579   6.153   2.819   2.579 -0.5350 -0.8345 -0.2868
18694WAT      O76580  10.928   4.319   6.932  0.4643 -0.4229 -0.1922
18694WAT     H176581  10.894   4.241   6.976  1.2862  0.3334  1.8872
18694WAT     H276582  11.023   4.312   6.940  0.7111 -0.5339 -2.4516
18694WAT    EPW76583  10.936   4.308   6.939  0.6056 -0.3376 -0.2158
18695WAT      O76584   4.887   8.674   1.994 -0.9844  0.1137  0.8014
18695WAT     H176585   4.845   8.760   1.985  0.3885  0.9691  1.9551
18695WAT     H276586   4.941   8.665   1.915  1.0662  1.6860  1.8966
18695WAT    EPW76587   4.889   8.684   1.982 -0.5331  0.4334  1.0981
18696WAT      O76588   6.037   2.384   2.613  0.2319 -0.8289 -0.1650
18696WAT     H176589   6.101   2.327   2.655 -0.0035 -1.9669 -1.2833
18696WAT     H276590   5.962   2.383   2.672  1.0919  0.2922  1.0199
18696WAT    EPW76591   6.036   2.376   2.626  0.3145 -0.8311 -0.1562
18697WAT      O76592   5.789   0.978   3.801  0.0274  0.3172 -0.5543
18697WAT     H176593   5.734   0.901   3.808 -1.3383  1.2584 -0.6037
18697WAT     H276594   5.763   1.019   3.719  2.3551 -0.3447 -1.7060
18697WAT    EPW76595   5.779   0.973   3.791  0.1543  0.3541 -0.7126
18698WAT      O76596   5.750   2.669   0.065 -0.6237 -0.1779 -0.7232
18698WAT     H176597   5.756   2.712   0.150 -3.0865 -2.0770  0.5406
18698WAT     H276598   5.731   2.577   0.085  1.6818 -1.3863 -3.3233
18698WAT    EPW76599   5.748   2.662   0.079 -0.6442 -0.5878 -0.8994
18699WAT      O76600   0.177   3.401   7.216  0.3859  0.5740  0.0533
18699WAT     H176601   0.105   3.462   7.230 -0.8970 -1.0212  0.7200
18699WAT     H276602   0.172   3.378   7.123 -0.6009 -0.2441  0.2893
18699WAT    EPW76603   0.167   3.406   7.206  0.0865  0.2557  0.1721
18700WAT      O76604   8.318   1.505   4.863  0.3553 -0.6786 -0.3905
18700WAT     H176605   8.404   1.464   4.871  0.1775 -0.6566  3.0354
18700WAT     H276606   8.328   1.590   4.906 -1.2142 -0.3725 -0.5804
18700WAT    EPW76607   8.331   1.511   4.870  0.1249 -0.6354  0.0360
18701WAT      O76608   5.932   1.266   2.550 -0.1268 -0.3666 -0.0311
18701WAT     H176609   5.954   1.181   2.587 -1.3169  0.1490  2.0087
18701WAT     H276610   5.850   1.250   2.501  1.2822 -0.9797 -2.3667
18701WAT    EPW76611   5.924   1.253   2.548 -0.0980 -0.3794 -0.0701
18702WAT      O76612   6.874   2.517   0.952 -0.0260  0.3281 -0.1330
18702WAT     H176613   6.826   2.576   1.010  1.7452  0.9176  0.7866
18702WAT     H276614   6.823   2.436   0.953 -0.2057  0.4251  2.0103
18702WAT    EPW76615   6.861   2.514   0.960  0.1838  0.4185  0.2709
18703WAT      O76616   0.213   8.495   1.600 -0.3197 -0.5297  0.5159
18703WAT     H176617   0.126   8.516   1.565  0.3416 -0.0173 -0.9118
18703WAT     H276618   0.241   8.576   1.643 -0.0099 -0.2501 -0.1998
18703WAT    EPW76619   0.205   8.509   1.601 -0.1916 -0.4249  0.2331
18704WAT      O76620   5.909   1.979   1.058  0.2160  0.7019 -0.0136
18704WAT     H176621   5.997   2.014   1.074  0.6412 -0.2179 -0.2950
18704WAT     H276622   5.871   1.969   1.145  0.9018 -0.1788  0.1934
18704WAT    EPW76623   5.916   1.982   1.071  0.3626  0.4644 -0.0234
18705WAT      O76624   7.263   0.214   4.232  0.1916  0.3080 -0.8298
18705WAT     H176625   7.283   0.127   4.265 -0.9726 -0.3441 -1.7803
18705WAT     H276626   7.302   0.274   4.297 -1.3494 -0.8913  1.3066
18705WAT    EPW76627   7.271   0.211   4.245 -0.1652  0.0638 -0.6738
18706WAT      O76628   5.914   0.179   3.374 -0.3647 -0.7889  0.5235
18706WAT     H176629   5.979   0.242   3.342  0.4941 -1.2083  1.3693
18706WAT     H276630   5.830   0.222   3.363  0.0205 -0.3906 -0.9918
18706WAT    EPW76631   5.912   0.193   3.369 -0.2007 -0.7917  0.4352
18707WAT      O76632   3.208   9.362   0.959  0.6237  0.0336 -0.0946
18707WAT     H176633   3.269   9.431   0.988  0.7615 -0.0219 -0.2531
18707WAT     H276634   3.246   9.328   0.878  1.3717 -1.2637  0.7552
18707WAT    EPW76635   3.221   9.367   0.952  0.7405 -0.1445 -0.0034
18708WAT      O76636   2.398   6.182   2.682 -0.2974 -0.5380  0.5993
18708WAT     H176637   2.333   6.150   2.745 -1.0813 -0.4583 -0.1416
18708WAT     H276638   2.345   6.214   2.609  0.6063 -0.7955 -0.1759
18708WAT    EPW76639   2.382   6.182   2.681 -0.2816 -0.5612  0.3994
18709WAT      O76640   1.162   5.388   8.727  0.2093 -0.3668 -0.0995
18709WAT     H176641   1.139   5.340   8.806 -2.2386 -0.4265 -0.7681
18709WAT     H276642   1.103   5.354   8.660  2.3056 -0.4350 -2.0419
18709WAT    EPW76643   1.151   5.377   8.729  0.1630 -0.3834 -0.4439
18710WAT      O76644   6.103  10.255   3.273  0.4499  0.0335  0.2989
18710WAT     H176645   6.141  10.331   3.317 -0.3253 -0.5536  2.0799
18710WAT     H276646   6.175  10.193   3.266  1.1275  0.9338 -1.3018
18710WAT    EPW76647   6.117  10.257   3.278  0.4370  0.0749  0.3226
18711WAT      O76648   4.178   2.830   0.191  0.3409  0.2936 -0.3826
18711WAT     H176649   4.191   2.883   0.112  1.0929  1.0596  0.2388
18711WAT     H276650   4.245   2.762   0.186  0.0223 -0.0065 -0.6749
18711WAT    EPW76651   4.189   2.828   0.180  0.3977  0.3551 -0.3392
18712WAT      O76652  10.998   5.131   6.328  0.0119 -0.1843 -0.2525
18712WAT     H176653  11.002   5.061   6.263  2.1903  2.8277 -3.7906
18712WAT     H276654  11.084   5.128   6.371  0.6682  0.9996 -1.3971
18712WAT    EPW76655  11.010   5.121   6.325  0.3862  0.3688 -0.8700
18713WAT      O76656  10.675   9.254   4.869 -0.3952  0.4018  0.2495
18713WAT     H176657  10.587   9.278   4.897 -1.2052 -0.1431 -1.6648
18713WAT     H276658  10.692   9.169   4.911 -0.8680  0.4025  0.4431
18713WAT    EPW76659  10.666   9.246   4.878 -0.5641  0.3300  0.0226
18714WAT      O76660   5.301   0.315   3.478 -0.0890  0.0564 -0.2420
18714WAT     H176661   5.286   0.391   3.421 -1.0649 -0.0687 -0.1719
18714WAT     H276662   5.231   0.254   3.455  0.6923 -0.8367 -0.3068
18714WAT    EPW76663   5.290   0.317   3.467 -0.1147 -0.0779 -0.2413
18715WAT      O76664   3.820   9.552   1.735  0.6070 -0.2949 -0.4302
18715WAT     H176665   3.808   9.462   1.701  0.4583  0.1140 -1.5209
18715WAT     H276666   3.743   9.599   1.702  0.9103  0.3352 -0.2282
18715WAT    EPW76667   3.808   9.546   1.726  0.6274 -0.1583 -0.5474
18716WAT      O76668   9.998   8.117   7.517  0.1572  0.4947 -0.4508
18716WAT     H176669  10.078   8.158   7.551 -0.5242  1.8353 -0.4029
18716WAT     H276670   9.927   8.167   7.556 -0.6866  0.1367 -1.4938
18716WAT    EPW76671   9.999   8.129   7.526 -0.0443  0.6242 -0.5817
18717WAT      O76672   7.561   0.637   2.460  0.3834 -0.0905  0.3434
18717WAT     H176673   7.598   0.551   2.437 -0.3900 -1.1603  2.7353
18717WAT     H276674   7.519   0.667   2.380  0.5068 -2.0505 -0.5263
18717WAT    EPW76675   7.561   0.629   2.446  0.2978 -0.4901  0.5443
18718WAT      O76676   2.648  10.305   0.797  0.1332  0.3251  0.2502
18718WAT     H176677   2.612  10.231   0.846  0.9911  0.8134  1.6951
18718WAT     H276678   2.717  10.267   0.743  0.4176  0.0168  0.8153
18718WAT    EPW76679   2.652  10.290   0.796  0.2840  0.3490  0.5153
18719WAT      O76680   8.742   0.321   1.680  0.0906 -0.4119 -0.5999
18719WAT     H176681   8.748   0.338   1.774  0.7248  0.0102 -0.7144
18719WAT     H276682   8.689   0.241   1.674  1.6130 -1.5430  0.2085
18719WAT    EPW76683   8.736   0.312   1.691  0.3748 -0.5054 -0.5084
18720WAT      O76684   3.367   1.073   1.019  0.7703  0.1805 -0.3124
18720WAT     H176685   3.378   1.059   1.113 -0.0291 -1.1477 -0.3928
18720WAT     H276686   3.313   1.152   1.013  1.8046  0.9559  0.2943
18720WAT    EPW76687   3.361   1.082   1.031  0.8012  0.1076 -0.2429
18721WAT      O76688   4.437  10.141   2.945  0.6226  0.3158  0.5879
18721WAT     H176689   4.448  10.155   2.851  1.2393  0.4082  0.6690
18721WAT     H276690   4.513  10.087   2.970 -0.7446 -1.7377  0.5977
18721WAT    EPW76691   4.449  10.136   2.936  0.5238  0.0572  0.6001
18722WAT      O76692   3.675   3.659   8.708 -0.0732 -0.2435 -0.1653
18722WAT     H176693   3.673   3.754   8.704  1.0786 -0.2399 -3.2147
18722WAT     H276694   3.767   3.636   8.698 -0.6705 -1.6451 -4.0731
18722WAT    EPW76695   3.687   3.668   8.706 -0.0001 -0.4278 -1.0824
18723WAT      O76696   4.437   2.427   1.631  0.6188  0.2039  0.3366
18723WAT     H176697   4.345   2.404   1.643  1.1754 -2.9747 -0.5841
18723WAT     H276698   4.459   2.395   1.544  2.2667  2.2565 -0.0893
18723WAT    EPW76699   4.428   2.420   1.621  0.9096  0.0554  0.1590
18724WAT      O76700   5.297   1.155   0.813  0.0108 -0.5555  1.0023
18724WAT     H176701   5.215   1.146   0.764  1.1755 -1.1850 -0.9666
18724WAT     H276702   5.356   1.093   0.772  2.4160  2.0398  0.2179
18724WAT    EPW76703   5.294   1.146   0.801  0.4818 -0.2963  0.6391
18725WAT      O76704   5.431   1.102   1.599 -0.5712 -0.5464 -1.2638
18725WAT     H176705   5.362   1.102   1.666  1.2052 -1.2911  0.6646
18725WAT     H276706   5.400   1.040   1.533 -2.4345  0.3034 -1.2534
18725WAT    EPW76707   5.418   1.094   1.599 -0.5827 -0.5326 -1.0081
18726WAT      O76708   7.696   2.795   1.995  0.0975 -0.2154  0.1263
18726WAT     H176709   7.660   2.708   1.979  1.8930 -0.4014 -4.4794
18726WAT     H276710   7.786   2.780   2.024 -0.2658  0.1974  1.5578
18726WAT    EPW76711   7.703   2.782   1.997  0.2863 -0.1855 -0.2924
18727WAT      O76712   7.664   0.177   1.691  0.9011 -0.0090 -0.0283
18727WAT     H176713   7.708   0.100   1.728  0.0972 -0.4038  0.1123
18727WAT     H276714   7.571   0.156   1.695  0.7723 -0.1794 -2.5369
18727WAT    EPW76715   7.658   0.164   1.696  0.7784 -0.0836 -0.3406
18728WAT      O76716   6.055   9.991   5.074  0.1505 -0.3290 -0.1248
18728WAT     H176717   6.086   9.905   5.102 -1.0522  0.0741  2.7810
18728WAT     H276718   5.966   9.998   5.110 -0.8974  1.0761 -2.6721
18728WAT    EPW76719   6.047   9.981   5.082 -0.1462 -0.0906 -0.0777
18729WAT      O76720   7.514   2.078   0.936 -0.6969  0.0964 -0.2685
18729WAT     H176721   7.471   2.138   0.874  1.3774 -2.0917 -4.2403
18729WAT     H276722   7.607   2.092   0.922 -0.1413 -1.1741  1.7966
18729WAT    EPW76723   7.520   2.088   0.926 -0.3500 -0.3598 -0.5199
18730WAT      O76724   6.014   3.513   1.578  0.6518  0.2185  0.1075
18730WAT     H176725   6.083   3.502   1.512 -0.7930 -0.2611 -1.3761
18730WAT     H276726   5.971   3.595   1.555 -1.4696 -1.1527 -1.1672
18730WAT    EPW76727   6.018   3.522   1.566  0.1814 -0.0256 -0.2563
18731WAT      O76728   5.714   1.046   5.301  0.7932 -0.2377 -0.2446
18731WAT     H176729   5.711   1.004   5.215  0.7785 -2.2133  0.6672
18731WAT     H276730   5.799   1.021   5.338  0.7084  0.3957  0.4159
18731WAT    EPW76731   5.725   1.038   5.295  0.7801 -0.4148 -0.0372
18732WAT      O76732   4.751   7.993   2.004  0.0491 -0.4403  0.1293
18732WAT     H176733   4.695   7.923   1.970  0.6287 -0.3083 -1.1501
18732WAT     H276734   4.690   8.059   2.037 -0.5679 -0.1895 -1.4642
18732WAT    EPW76735   4.735   7.993   2.004  0.0443 -0.3898 -0.2495
18733WAT      O76736   7.496   5.449   7.690  0.0228  0.1974  0.3976
18733WAT     H176737   7.580   5.464   7.647 -0.6922  3.4066 -0.2095
18733WAT     H276738   7.516   5.448   7.783  0.8858 -0.4724  0.2090
18733WAT    EPW76739   7.510   5.451   7.696  0.0422  0.5322  0.2925
18734WAT      O76740   5.882   1.600   5.500  0.1386 -0.1653  0.2283
18734WAT     H176741   5.788   1.602   5.519  0.2357 -0.3427  0.7491
18734WAT     H276742   5.887   1.599   5.404 -0.4294 -1.7422  0.1847
18734WAT    EPW76743   5.870   1.600   5.490  0.0763 -0.3968  0.2911
18735WAT      O76744   1.814   3.376   8.623 -0.3421  0.5405  0.1333
18735WAT     H176745   1.817   3.287   8.589 -1.5057  1.2643 -2.0466
18735WAT     H276746   1.827   3.432   8.546 -0.6492  2.2821  1.2750
18735WAT    EPW76747   1.816   3.372   8.608 -0.5361  0.8657 -0.0038
18736WAT      O76748   6.889   2.250   1.931 -0.1325  0.6868  0.1778
18736WAT     H176749   6.946   2.249   2.007  0.0733  1.2662  0.0338
18736WAT     H276750   6.896   2.162   1.894  1.0988  0.9177 -0.1610
18736WAT    EPW76751   6.897   2.238   1.936  0.0572  0.7937  0.1141
18737WAT      O76752   4.057   1.406   3.504  0.6513 -0.5803  0.0266
18737WAT     H176753   3.977   1.424   3.455  0.8918 -0.9342 -0.5139
18737WAT     H276754   4.119   1.473   3.475  0.3776  0.0639  0.8926
18737WAT    EPW76755   4.055   1.417   3.494  0.6468 -0.5420  0.0696
18738WAT      O76756   5.890   5.527   0.595  0.0789 -0.2617  0.5506
18738WAT     H176757   5.910   5.442   0.556 -0.4023 -0.3266  0.4452
18738WAT     H276758   5.910   5.591   0.526 -1.4658 -0.4210 -0.0730
18738WAT    EPW76759   5.895   5.524   0.581 -0.1886 -0.2911  0.4545
18739WAT      O76760   0.258   5.287   7.731  0.7803  0.0096 -0.3106
18739WAT     H176761   0.338   5.301   7.679  2.3502  0.1153  1.9803
18739WAT     H276762   0.288   5.293   7.822 -1.7664 -0.5645  0.6314
18739WAT    EPW76763   0.273   5.289   7.736  0.6514 -0.0522  0.1159
18740WAT      O76764   1.385   9.918   7.861  0.8879 -0.9012  0.2973
18740WAT     H176765   1.462   9.867   7.837  1.7267  0.3189  0.2692
18740WAT     H276766   1.314   9.879   7.810  0.8217 -3.8837  2.4279
18740WAT    EPW76767   1.386   9.906   7.851  0.9898 -1.1339  0.5744
18741WAT      O76768   4.183   7.345   0.223 -0.6270 -0.6457 -0.0308
18741WAT     H176769   4.206   7.376   0.310  0.1293 -0.0717 -0.4268
18741WAT     H276770   4.226   7.260   0.215  0.6403  0.0185 -0.4304
18741WAT    EPW76771   4.192   7.338   0.233 -0.3598 -0.4826 -0.1357
18742WAT      O76772   6.297   4.900   0.993 -0.1952 -0.3027 -0.6174
18742WAT     H176773   6.299   4.939   0.906 -2.4960  1.5680  0.0679
18742WAT     H276774   6.218   4.937   1.034 -0.2927 -2.6649  1.5513
18742WAT    EPW76775   6.287   4.910   0.987 -0.5116 -0.3676 -0.2410
18743WAT      O76776   6.287   0.824   3.850 -0.2706  0.2027 -0.5655
18743WAT     H176777   6.282   0.919   3.861  0.8643  0.3827 -1.4695
18743WAT     H276778   6.218   0.803   3.787 -0.1182  0.5215 -0.8422
18743WAT    EPW76779   6.277   0.833   3.843 -0.1006  0.2685 -0.7211
18744WAT      O76780   9.119   4.840   4.408 -0.7133 -0.4145  0.2603
18744WAT     H176781   9.077   4.906   4.352  2.4926  1.5715 -0.0772
18744WAT     H276782   9.048   4.807   4.463 -2.9727  1.4674 -1.2889
18744WAT    EPW76783   9.104   4.845   4.408 -0.5879  0.0958  0.0114
18745WAT      O76784   6.212   3.649   2.512  0.2798  0.3486 -0.3623
18745WAT     H176785   6.170   3.732   2.534 -0.2570  1.1347 -3.8503
18745WAT     H276786   6.304   3.672   2.497  0.5543 -0.1004  0.5414
18745WAT    EPW76787   6.218   3.663   2.513  0.2453  0.3930 -0.7031
18746WAT      O76788   2.290   6.346   8.427  0.0563  0.5611 -0.3383
18746WAT     H176789   2.368   6.292   8.437 -0.6534 -0.3638  0.3288
18746WAT     H276790   2.250   6.348   8.514  0.3016  2.5511 -0.2226
18746WAT    EPW76791   2.295   6.339   8.440 -0.0050  0.7017 -0.2351
18747WAT      O76792   1.910   0.286   0.480 -0.1954 -0.0542  0.5915
18747WAT     H176793   2.005   0.297   0.471 -0.3871  0.6660 -0.8615
18747WAT     H276794   1.884   0.357   0.538  0.4423 -1.8113  3.2018
18747WAT    EPW76795   1.919   0.297   0.487 -0.1366 -0.1910  0.7441
18748WAT      O76796   4.778   9.758   2.312  0.2694  0.2911 -0.0961
18748WAT     H176797   4.868   9.772   2.283  0.0722  1.5343 -0.1631
18748WAT     H276798   4.757   9.836   2.364 -1.0761  0.4503 -0.8369
18748WAT    EPW76799   4.787   9.770   2.315  0.0660  0.4764 -0.2027
18749WAT      O76800  10.996   3.692   0.567 -0.0722  0.0764  0.4200
18749WAT     H176801  10.997   3.625   0.635  0.2478  0.5765  0.9218
18749WAT     H276802  10.906   3.726   0.568 -0.3616 -0.6569 -0.1575
18749WAT    EPW76803  10.984   3.688   0.576 -0.0682  0.0457  0.4101
18750WAT      O76804   7.214   4.120   2.204  0.1367 -0.1212  0.2716
18750WAT     H176805   7.178   4.208   2.216  1.9718  0.5630  1.1966
18750WAT     H276806   7.308   4.134   2.191  0.1029 -1.7358 -2.7940
18750WAT    EPW76807   7.222   4.133   2.204  0.3743 -0.2437 -0.0106
18751WAT      O76808   7.230   4.587   4.931 -0.5263 -0.0167  0.7693
18751WAT     H176809   7.210   4.588   4.838  4.0338  2.8551 -0.4746
18751WAT     H276810   7.170   4.650   4.970  0.8481  2.8004 -1.3483
18751WAT    EPW76811   7.220   4.595   4.924  0.2563  0.7334  0.3257
18752WAT      O76812   9.088   3.304   7.560  0.6023 -0.5096  0.0255
18752WAT     H176813   9.142   3.237   7.603  0.4717 -0.4809  0.2387
18752WAT     H276814   9.055   3.357   7.633 -0.4603 -1.0807 -0.0285
18752WAT    EPW76815   9.091   3.302   7.575  0.4454 -0.5811  0.0465
18753WAT      O76816   4.539   3.330   0.111  0.2874 -0.3375  0.3400
18753WAT     H176817   4.511   3.251   0.065 -0.9569  0.2002  0.1255
18753WAT     H276818   4.619   3.305   0.157  0.3762 -1.4778 -0.4084
18753WAT    EPW76819   4.546   3.316   0.111  0.1352 -0.4170  0.2130
18754WAT      O76820   4.525   9.487   4.102 -0.3599 -0.3488  1.1732
18754WAT     H176821   4.483   9.572   4.086  1.2886  0.3806  0.4690
18754WAT     H276822   4.501   9.464   4.192 -1.8434  0.2461  0.9529
18754WAT    EPW76823   4.516   9.495   4.112 -0.3383 -0.1740  1.0517
18755WAT      O76824   6.620   0.478   3.614  1.0320  0.4918 -0.0326
18755WAT     H176825   6.626   0.429   3.532  0.8277  0.4872 -0.0457
18755WAT     H276826   6.542   0.532   3.604  0.7916  0.2176  0.3032
18755WAT    EPW76827   6.611   0.479   3.602  0.9732  0.4550  0.0100
18756WAT      O76828   6.348   1.197   3.591  0.1766 -0.1406  0.0359
18756WAT     H176829   6.374   1.239   3.509 -1.3714  2.5257  0.7738
18756WAT     H276830   6.297   1.121   3.564  3.4376 -2.0303 -1.3662
18756WAT    EPW76831   6.344   1.192   3.577  0.4027 -0.0381 -0.0516
18757WAT      O76832   1.987   6.855   8.823 -0.1752 -0.0123  0.2572
18757WAT     H176833   1.966   6.897   8.906 -0.3701  1.1364 -0.3540
18757WAT     H276834   1.998   6.928   8.761 -2.2640 -0.8897 -1.2435
18757WAT    EPW76835   1.986   6.870   8.826 -0.4764  0.0234 -0.0210
18758WAT      O76836   8.744   4.286   4.027  0.2376 -0.0577 -0.0204
18758WAT     H176837   8.725   4.245   3.942 -0.0916  1.2879 -0.6132
18758WAT     H276838   8.668   4.342   4.044 -0.2560 -1.1898  1.7449
18758WAT    EPW76839   8.731   4.288   4.018  0.1287 -0.0296  0.1342
18759WAT      O76840   3.169   8.529   7.746  0.1267 -0.1011 -0.2491
18759WAT     H176841   3.141   8.471   7.817 -2.9584 -0.8525 -1.9098
18759WAT     H276842   3.251   8.491   7.716  0.7739 -0.5871  1.9417
18759WAT    EPW76843   3.176   8.516   7.752 -0.1949 -0.2642 -0.1791
18760WAT      O76844  10.909   1.366   3.718 -0.5380 -0.2605 -0.6679
18760WAT     H176845  10.907   1.271   3.709  3.0599 -0.3205 -2.6890
18760WAT     H276846  10.841   1.397   3.659 -0.1182 -1.5899 -1.9026
18760WAT    EPW76847  10.900   1.358   3.709 -0.0081 -0.4437 -1.0974
18761WAT      O76848  10.634   8.144   6.563 -0.9774 -0.1985 -0.9281
18761WAT     H176849  10.641   8.049   6.563  0.0464 -0.2145  1.9468
18761WAT     H276850  10.594   8.165   6.479 -0.4116 -3.0762 -2.0188
18761WAT    EPW76851  10.629   8.135   6.552 -0.7672 -0.5803 -0.6928
18762WAT      O76852   7.114   9.745   3.283 -0.2241 -0.6137 -0.0124
18762WAT     H176853   7.163   9.801   3.222  0.6882 -2.0948 -0.6879
18762WAT     H276854   7.023   9.770   3.270  0.2266  1.6726  0.7220
18762WAT    EPW76855   7.108   9.756   3.273 -0.0443 -0.5078 -0.0044
18763WAT      O76856   0.559   5.477   7.300  0.0934 -0.8240  0.5843
18763WAT     H176857   0.508   5.448   7.376 -1.1760 -2.0207 -0.6451
18763WAT     H276858   0.622   5.407   7.285  0.9498 -0.1693  1.0415
18763WAT    EPW76859   0.560   5.464   7.308  0.0389 -0.8957  0.4826
18764WAT      O76860   9.196   9.501   0.337 -0.5279 -0.8446  0.2768
18764WAT     H176861   9.154   9.510   0.252 -0.5423  0.2489  0.3925
18764WAT     H276862   9.147   9.431   0.380  0.5566 -2.6375 -1.2471
18764WAT    EPW76863   9.184   9.493   0.331 -0.3867 -0.9370  0.0910
18765WAT      O76864   8.085   1.785   6.700 -0.3662 -0.1723  0.1941
18765WAT     H176865   8.053   1.821   6.782 -2.1184  0.5814 -0.7615
18765WAT     H276866   8.088   1.691   6.715 -0.6056 -0.0390  1.1445
18765WAT    EPW76867   8.081   1.777   6.713 -0.6294 -0.0553  0.1936
18766WAT      O76868   8.638   2.848   5.751 -0.3368 -0.1043  0.1799
18766WAT     H176869   8.620   2.939   5.730 -1.3940 -0.8206 -2.4553
18766WAT     H276870   8.575   2.825   5.819  0.5768  1.3165  1.5754
18766WAT    EPW76871   8.627   2.857   5.757 -0.3562 -0.0114  0.0165
18767WAT      O76872   2.321   8.608   8.332 -0.0520  0.1365  0.1356
18767WAT     H176873   2.350   8.674   8.270  3.3769 -1.4689 -0.1822
18767WAT     H276874   2.327   8.525   8.285 -0.4886 -0.8273  1.6663
18767WAT    EPW76875   2.325   8.606   8.318  0.3427 -0.2031  0.2952
18768WAT      O76876   8.336   9.571   0.113  0.5466 -0.6045  0.1755
18768WAT     H176877   8.360   9.662   0.127 -2.2903  0.3282 -0.3700
18768WAT     H276878   8.418   9.523   0.124  2.0361  1.9190  1.0186
18768WAT    EPW76879   8.350   9.577   0.116  0.3695 -0.1488  0.2148
18769WAT      O76880   8.024   0.607   5.507  0.0666  0.8611 -0.0225
18769WAT     H176881   7.959   0.598   5.577  0.7689 -1.0901  0.4442
18769WAT     H276882   7.981   0.571   5.429  0.6405 -0.7058  0.3532
18769WAT    EPW76883   8.010   0.601   5.506  0.2346  0.3970  0.0889
18770WAT      O76884   2.189   7.583   8.807 -0.0552 -0.6999  0.2513
18770WAT     H176885   2.200   7.493   8.776  1.0059 -1.1207  1.7451
18770WAT     H276886   2.217   7.638   8.733 -1.1851 -1.5524 -0.8471
18770WAT    EPW76887   2.194   7.579   8.793 -0.0644 -0.8678  0.3037
18771WAT      O76888   7.851   3.211   2.375  0.8678  0.7488 -0.2446
18771WAT     H176889   7.785   3.173   2.317  0.8886 -0.1775  0.3216
18771WAT     H276890   7.811   3.292   2.407 -0.6956 -0.5703  1.3424
18771WAT    EPW76891   7.837   3.217   2.371  0.6645  0.4526  0.0393
18772WAT      O76892   8.858   4.054   0.792  0.2762  0.8501 -0.7894
18772WAT     H176893   8.932   4.108   0.764 -0.1927  2.9366  1.6143
18772WAT     H276894   8.881   4.026   0.880 -0.0459 -1.9851 -1.5290
18772WAT    EPW76895   8.871   4.058   0.800  0.1717  0.7510 -0.5699
18773WAT      O76896   9.159   1.492   1.746  0.0957 -0.1544 -0.2065
18773WAT     H176897   9.160   1.457   1.657 -1.1448  0.4451 -0.4869
18773WAT     H276898   9.251   1.508   1.767  0.3542  0.6004 -1.7519
18773WAT    EPW76899   9.171   1.490   1.737 -0.0343  0.0242 -0.4473
18774WAT      O76900   3.160   9.711   1.997 -0.3453 -0.0287  0.1484
18774WAT     H176901   3.197   9.690   2.083  1.1427  1.1284 -0.1664
18774WAT     H276902   3.226   9.680   1.935 -1.8120 -1.6835 -0.6655
18774WAT    EPW76903   3.173   9.704   2.001 -0.3425 -0.0944 -0.0005
18775WAT      O76904   1.994   5.409   8.163  0.4980  0.1391 -0.3724
18775WAT     H176905   1.984   5.405   8.259  2.6534  2.2186  0.0372
18775WAT     H276906   1.905   5.412   8.130 -0.3033 -0.1611  1.5907
18775WAT    EPW76907   1.981   5.409   8.172  0.6766  0.3738 -0.0596
18776WAT      O76908   4.147   3.610   5.769 -0.5442 -0.4201  0.6089
18776WAT     H176909   4.156   3.703   5.790 -1.9233  0.3881 -1.9740
18776WAT     H276910   4.067   3.583   5.814 -0.5668 -0.1489  0.7341
18776WAT    EPW76911   4.138   3.619   5.778 -0.7291 -0.2778  0.2849
18777WAT      O76912   8.430   6.483   6.346  0.2435  0.0156 -0.0900
18777WAT     H176913   8.509   6.533   6.365 -0.3052  0.0695  2.3281
18777WAT     H276914   8.458   6.418   6.282  2.0406  0.5703  0.0828
18777WAT    EPW76915   8.444   6.481   6.340  0.4077  0.0958  0.2518
18778WAT      O76916   6.939   4.463   2.467 -0.6677  0.5356 -0.0828
18778WAT     H176917   6.994   4.452   2.390  0.5392  2.8069  0.3777
18778WAT     H276918   6.998   4.448   2.541 -0.9174  1.9038  0.4092
18778WAT    EPW76919   6.954   4.459   2.467 -0.5414  1.0157  0.0429
18779WAT      O76920   0.542   1.314   1.241  0.0082 -0.0976 -0.2352
18779WAT     H176921   0.635   1.315   1.220 -0.5710  3.5891 -3.8115
18779WAT     H276922   0.539   1.323   1.337  3.4589  2.6556 -0.1802
18779WAT    EPW76923   0.554   1.316   1.251  0.3869  0.7519 -0.6996
18780WAT      O76924   9.336   2.663   2.564 -0.0205 -0.4124  0.6436
18780WAT     H176925   9.374   2.749   2.584  0.4905 -1.0612  2.7083
18780WAT     H276926   9.407   2.601   2.579 -0.0739 -1.1872 -1.8313
18780WAT    EPW76927   9.351   2.666   2.569  0.0396 -0.6001  0.5894
18781WAT      O76928   8.387   2.070   1.927 -0.0336  0.1093  0.3406
18781WAT     H176929   8.360   2.132   1.995 -0.5424  1.6019 -1.1585
18781WAT     H276930   8.389   1.985   1.972 -1.9317  0.7662  1.8269
18781WAT    EPW76931   8.384   2.067   1.942 -0.3510  0.3929  0.3389
18782WAT      O76932   5.729  10.119   5.414  0.3209 -0.6173 -0.0960
18782WAT     H176933   5.783  10.130   5.493  1.2106 -1.0654 -0.6224
18782WAT     H276934   5.681  10.038   5.429 -1.4356  0.5578  1.0462
18782WAT    EPW76935   5.730  10.110   5.427  0.2065 -0.5212 -0.0148
18783WAT      O76936   7.970   2.164   3.651  0.3847 -0.3862 -0.4311
18783WAT     H176937   8.046   2.108   3.638 -0.4666 -2.6320  2.8808
18783WAT     H276938   7.922   2.122   3.723 -2.1376  2.8355 -0.0107
18783WAT    EPW76939   7.974   2.151   3.659 -0.0601 -0.2575  0.0612
18784WAT      O76940   8.844   1.469   0.426 -0.4283  0.0026  0.0024
18784WAT     H176941   8.904   1.519   0.482  0.1157 -1.2339  0.5474
18784WAT     H276942   8.899   1.435   0.356 -0.6302 -0.5045  0.0861
18784WAT    EPW76943   8.859   1.471   0.424 -0.3834 -0.2274  0.0853
18785WAT      O76944   5.691   9.317   2.961  0.2280 -0.0478  0.2174
18785WAT     H176945   5.704   9.278   2.875 -1.5426 -1.6514  0.6135
18785WAT     H276946   5.678   9.410   2.942 -3.4051 -0.7401 -1.7467
18785WAT    EPW76947   5.691   9.324   2.947 -0.4852 -0.3505  0.0106
18786WAT      O76948  10.896   3.689   3.630  0.2426  0.4591  0.4394
18786WAT     H176949  10.852   3.712   3.548  1.5188 -0.2511 -0.4762
18786WAT     H276950  10.974   3.744   3.633  1.6147 -1.3320 -0.1930
18786WAT    EPW76951  10.900   3.699   3.619  0.5922  0.1293  0.2353
18787WAT      O76952   5.252   3.253   2.113 -0.2568  0.8600  0.2331
18787WAT     H176953   5.323   3.189   2.113  0.5643  1.7383  1.2846
18787WAT     H276954   5.175   3.202   2.087  0.7575 -0.0698 -1.1140
18787WAT    EPW76955   5.251   3.238   2.110 -0.0148  0.8531  0.1941
18788WAT      O76956   8.779   4.807   0.382 -0.0625 -0.5415  0.3201
18788WAT     H176957   8.823   4.838   0.461 -0.5554  1.6948 -0.2297
18788WAT     H276958   8.694   4.851   0.382 -2.0014 -3.8944  0.7797
18788WAT    EPW76959   8.773   4.817   0.392 -0.3829 -0.6888  0.3082
18789WAT      O76960   5.569   2.012   4.948 -0.4775 -0.3395 -0.1433
18789WAT     H176961   5.493   2.067   4.932 -0.3555 -0.7129 -2.2280
18789WAT     H276962   5.644   2.064   4.920  0.0503 -0.0965  1.5954
18789WAT    EPW76963   5.569   2.026   4.942 -0.3920 -0.3569 -0.1888
18790WAT      O76964   6.279   3.769   1.606  0.3429  0.1243  0.2161
18790WAT     H176965   6.365   3.764   1.565  0.3949  1.5020  0.0968
18790WAT     H276966   6.228   3.825   1.547 -0.1381  0.6350  1.0969
18790WAT    EPW76967   6.284   3.776   1.592  0.2863  0.3734  0.3165
18791WAT      O76968   6.654   5.775   0.937  0.6153  0.0603 -0.1534
18791WAT     H176969   6.575   5.750   0.984 -0.9139  1.0414 -2.0469
18791WAT     H276970   6.692   5.846   0.988  0.4257 -0.5673  0.8882
18791WAT    EPW76971   6.649   5.781   0.950  0.3886  0.1066 -0.2658
18792WAT      O76972   7.375   2.676   1.646 -0.4620 -0.4812 -0.5083
18792WAT     H176973   7.375   2.593   1.598 -0.3560 -1.1180  0.5458
18792WAT     H276974   7.288   2.712   1.630 -1.2804 -1.8147  0.6571
18792WAT    EPW76975   7.363   2.670   1.638 -0.5562 -0.7412 -0.2155
18793WAT      O76976   8.444   5.034   3.944  0.0055  0.5515  0.3243
18793WAT     H176977   8.357   4.996   3.954  0.4023 -0.6999 -0.7814
18793WAT     H276978   8.440   5.082   3.861  0.3923  0.4298  0.2339
18793WAT    EPW76979   8.432   5.035   3.934  0.1087  0.3705  0.1665
18794WAT      O76980  10.905   9.803   5.804 -0.0982 -0.0225  0.4784
18794WAT     H176981  10.976   9.866   5.792 -0.3175  0.0810 -0.3809
18794WAT     H276982  10.852   9.811   5.724 -0.4002 -0.9450  0.5686
18794WAT    EPW76983  10.907   9.812   5.792 -0.1669 -0.1307  0.3772
18795WAT      O76984   8.131   2.942   1.767 -0.0236  0.5868  0.6287
18795WAT     H176985   8.076   2.998   1.822 -2.6398 -0.3499 -0.8630
18795WAT     H276986   8.220   2.959   1.797 -0.9473  3.4232  2.1038
18795WAT    EPW76987   8.136   2.952   1.778 -0.4897  0.8372  0.6264
18796WAT      O76988   7.633   5.242   8.627 -0.3590 -0.0867  0.0678
18796WAT     H176989   7.563   5.182   8.654  0.5447 -1.1864  0.0280
18796WAT     H276990   7.639   5.229   8.532 -0.7628  0.7545 -0.0853
18796WAT    EPW76991   7.624   5.232   8.618 -0.2930 -0.1211  0.0420
18797WAT      O76992   3.813  10.014   3.368 -0.2578 -0.4436 -0.4029
18797WAT     H176993   3.798   9.920   3.366  0.3051 -0.5652  0.3869
18797WAT     H276994   3.736  10.052   3.326 -1.6834 -1.1389  1.4487
18797WAT    EPW76995   3.801  10.007   3.362 -0.3716 -0.5512 -0.0545
18798WAT      O76996   0.254   5.699   8.315 -0.2000  0.2647 -0.1400
18798WAT     H176997   0.227   5.658   8.397  0.6808 -0.5126 -0.2256
18798WAT     H276998   0.343   5.731   8.333 -0.0427  0.1825 -0.7577
18798WAT    EPW76999   0.262   5.698   8.328 -0.0631  0.1516 -0.2327
18799WAT      O77000   6.545   2.508   2.149 -0.4075  0.1756  0.1778
18799WAT     H177001   6.507   2.422   2.165 -0.5178  0.3293  0.7366
18799WAT     H277002   6.573   2.504   2.057 -1.0148 -0.2245 -0.0002
18799WAT    EPW77003   6.543   2.496   2.139 -0.5021  0.1431  0.2280
18800WAT      O77004   8.134   1.477   2.749 -0.4383 -0.3496  0.4016
18800WAT     H177005   8.172   1.464   2.663 -2.3293  2.2773 -0.9777
18800WAT     H277006   8.201   1.523   2.799 -0.0105 -0.2062 -0.3003
18800WAT    EPW77007   8.148   1.481   2.744 -0.6309  0.0159  0.1271
18801WAT      O77008   5.965   9.980   2.510  0.4932 -0.0564  0.6188
18801WAT     H177009   5.963   9.952   2.419 -1.6855  1.5605  0.0719
18801WAT     H277010   5.881   9.951   2.545  0.7507  0.4874  1.7258
18801WAT    EPW77011   5.953   9.973   2.503  0.2396  0.2284  0.6926
18802WAT      O77012   5.944   0.158   1.977 -0.1216 -0.2313  1.1624
18802WAT     H177013   6.009   0.225   1.956 -0.1146 -1.3581 -3.3000
18802WAT     H277014   5.995   0.082   2.004  1.1991 -2.0912 -4.9915
18802WAT    EPW77015   5.959   0.157   1.978  0.0539 -0.6252 -0.2378
18803WAT      O77016   9.316   2.248   0.703 -0.6632 -0.3052 -0.2031
18803WAT     H177017   9.328   2.278   0.793 -0.5611  0.0409 -0.3309
18803WAT     H277018   9.301   2.328   0.653  3.3407  0.0342 -1.1876
18803WAT    EPW77019   9.315   2.263   0.708 -0.1211 -0.2147 -0.3498
18804WAT      O77020   7.988   3.008   2.572 -0.5158 -0.7628 -0.0846
18804WAT     H177021   7.978   3.096   2.533  4.3643 -0.1904 -0.7267
18804WAT     H277022   8.016   3.025   2.662 -3.7870 -1.9477  1.2972
18804WAT    EPW77023   7.990   3.022   2.578 -0.3037 -0.8434  0.0129
18805WAT      O77024   6.532   8.596   2.821  0.3756  0.6287 -0.1212
18805WAT     H177025   6.607   8.586   2.762  0.3547  0.5576 -0.1359
18805WAT     H277026   6.559   8.551   2.901  0.9715  1.9414  0.4442
18805WAT    EPW77027   6.546   8.589   2.823  0.4516  0.7920 -0.0486
18806WAT      O77028   8.857   5.750   7.870 -0.2083  0.1447  0.4650
18806WAT     H177029   8.773   5.792   7.849  0.6667  1.2997 -0.9284
18806WAT     H277030   8.919   5.789   7.808  1.4813 -0.2756  1.8155
18806WAT    EPW77031   8.854   5.761   7.859  0.1302  0.2413  0.4597
18807WAT      O77032   7.641   1.489   0.490 -0.0989 -0.8343  0.0525
18807WAT     H177033   7.737   1.486   0.485 -0.0245  1.8391 -1.7683
18807WAT     H277034   7.621   1.580   0.510 -2.2870 -0.4488 -3.1976
18807WAT    EPW77035   7.651   1.500   0.492 -0.3779 -0.4309 -0.6163
18808WAT      O77036   6.452   3.218   4.180  0.0903  0.3063 -0.3970
18808WAT     H177037   6.371   3.212   4.129  0.3093  0.1612 -0.7399
18808WAT     H277038   6.462   3.131   4.219  0.5219  0.0465 -1.0583
18808WAT    EPW77039   6.442   3.206   4.178  0.1762  0.2530 -0.5295
18809WAT      O77040   5.767   4.254   1.127  0.2530  0.0876  0.0381
18809WAT     H177041   5.812   4.197   1.065  1.1360 -0.7538  1.4086
18809WAT     H277042   5.736   4.327   1.073  0.5799 -0.8344 -1.4646
18809WAT    EPW77043   5.769   4.256   1.112  0.4125 -0.1450  0.0207
18810WAT      O77044  10.449   1.302   1.124  0.1540 -0.8009 -0.7069
18810WAT     H177045  10.492   1.227   1.085  0.9485  0.0023 -1.4138
18810WAT     H277046  10.520   1.360   1.152 -0.3594 -1.2622  1.8796
18810WAT    EPW77047  10.464   1.300   1.123  0.1917 -0.7558 -0.4590
18811WAT      O77048   7.907   2.686   1.619  0.0701 -0.2924 -0.1032
18811WAT     H177049   7.990   2.662   1.661 -1.6329 -3.1041  2.0266
18811WAT     H277050   7.860   2.735   1.686 -0.7043 -0.3550 -0.5903
18811WAT    EPW77051   7.912   2.689   1.633 -0.2565 -0.6714  0.1135
18812WAT      O77052   7.068   2.351   2.402 -0.9933 -0.2761  0.2130
18812WAT     H177053   7.008   2.358   2.328  1.8637 -0.4927 -2.3478
18812WAT     H277054   7.088   2.441   2.425 -1.3448 -0.2003  0.2206
18812WAT    EPW77055   7.063   2.364   2.395 -0.6626 -0.2947 -0.1237
18813WAT      O77056   9.220   1.895   1.357  0.2956  0.4524  0.3119
18813WAT     H177057   9.230   1.800   1.363 -3.4959 -0.0664  1.0128
18813WAT     H277058   9.293   1.924   1.302  0.3934 -3.1464 -1.7474
18813WAT    EPW77059   9.231   1.886   1.350 -0.1917 -0.0907  0.1327
18814WAT      O77060   0.937   3.247   2.776  0.4157 -0.1609 -0.4217
18814WAT     H177061   0.995   3.177   2.807  2.2060  1.2233 -0.4488
18814WAT     H277062   0.948   3.247   2.681  0.3144  0.0493 -0.4345
18814WAT    EPW77063   0.946   3.238   2.768  0.6384  0.0495 -0.4269
18815WAT      O77064  10.129   2.419   1.374  0.0855 -0.3119 -0.3445
18815WAT     H177065  10.198   2.366   1.337  0.0450  0.4468 -1.5504
18815WAT     H277066  10.147   2.508   1.343 -0.4687  0.2000  0.7171
18815WAT    EPW77067  10.140   2.424   1.365  0.0072 -0.1444 -0.3635
18816WAT      O77068   5.624   9.331   1.502 -0.2590 -0.1320  0.6633
18816WAT     H177069   5.544   9.295   1.539 -0.8738 -1.7263 -1.9584
18816WAT     H277070   5.605   9.424   1.490 -0.3293  0.2745  3.3156
18816WAT    EPW77071   5.611   9.339   1.505 -0.3490 -0.2890  0.6674
18817WAT      O77072   3.020   9.191   0.715  0.9575 -0.2028  0.2906
18817WAT     H177073   2.993   9.260   0.655  1.2162 -0.1378  0.2486
18817WAT     H277074   2.944   9.177   0.772  1.0724  0.4449  0.6076
18817WAT    EPW77075   3.007   9.198   0.714  1.0067 -0.1087  0.3268
18818WAT      O77076   4.681   2.780   2.003 -0.8018  0.6031 -0.2733
18818WAT     H177077   4.618   2.747   2.067  0.4301  0.6894  1.0179
18818WAT     H277078   4.637   2.767   1.918 -1.9273 -0.7493  0.4646
18818WAT    EPW77079   4.667   2.774   2.000 -0.7877  0.4362 -0.0057
18819WAT      O77080   4.258   0.991   8.424  0.1382 -0.1958  0.5497
18819WAT     H177081   4.336   0.940   8.444  0.0274 -0.6355 -0.1072
18819WAT     H277082   4.227   1.021   8.509  0.1808 -1.2784  0.9672
18819WAT    EPW77083   4.264   0.988   8.438  0.1295 -0.3966  0.5183
18820WAT      O77084  10.158   1.680   2.881  0.2152  0.7437  0.4065
18820WAT     H177085  10.103   1.611   2.917 -1.0548  0.2534 -2.2136
18820WAT     H277086  10.098   1.752   2.863  0.5845  0.6945 -1.2506
18820WAT    EPW77087  10.143   1.680   2.883  0.0963  0.6726 -0.1576
18821WAT      O77088   4.887   2.457   3.063  0.1188 -0.3067  0.8839
18821WAT     H177089   4.898   2.382   3.120  0.0909 -1.7898 -0.9625
18821WAT     H277090   4.957   2.518   3.089  0.4831 -1.1967  2.0441
18821WAT    EPW77091   4.898   2.455   3.074  0.1633 -0.6196  0.7935
18822WAT      O77092   8.561   0.073   3.235  0.1052 -0.5264  0.1886
18822WAT     H177093   8.560   0.108   3.324  0.2996  0.0339 -0.0241
18822WAT     H277094   8.539  -0.019   3.245 -0.4853 -0.3260  0.7548
18822WAT    EPW77095   8.558   0.066   3.248  0.0539 -0.4261  0.2352
18823WAT      O77096   5.464   9.139   0.632 -0.0545  0.2719  0.6899
18823WAT     H177097   5.434   9.229   0.646  1.6548  0.7850  1.3248
18823WAT     H277098   5.541   9.148   0.576 -1.9996 -1.1443 -2.5313
18823WAT    EPW77099   5.470   9.152   0.626 -0.0856  0.1526  0.3488
18824WAT      O77100   5.001   9.217   1.192 -0.3005 -0.1628  0.2272
18824WAT     H177101   5.001   9.164   1.113 -0.4082 -0.9614  0.7476
18824WAT     H277102   5.036   9.302   1.165  1.3205 -0.9621 -0.3372
18824WAT    EPW77103   5.006   9.221   1.178 -0.1009 -0.3734  0.2214
18825WAT      O77104   4.518  10.112   2.104 -0.3700  0.2487  0.8455
18825WAT     H177105   4.605  10.141   2.075 -1.2509  1.6679 -0.5430
18825WAT     H277106   4.489  10.052   2.035 -1.2709  1.3359  0.2389
18825WAT    EPW77107   4.526  10.108   2.091 -0.6049  0.5789  0.5825
18826WAT      O77108   8.145   2.669   1.789 -0.2394  0.5916  0.6145
18826WAT     H177109   8.126   2.763   1.791 -1.4443  0.3724  0.4357
18826WAT     H277110   8.143   2.642   1.881 -1.1114  0.5253  0.5822
18826WAT    EPW77111   8.142   2.678   1.802 -0.5136  0.5538  0.5867
18827WAT      O77112   8.471   1.654   3.409  0.0999 -0.3793  0.0839
18827WAT     H177113   8.466   1.694   3.495  0.0394  2.1261 -0.9941
18827WAT     H277114   8.562   1.629   3.399 -0.1326 -1.8287  1.3093
18827WAT    EPW77115   8.482   1.656   3.419  0.0606 -0.2401  0.1031
18828WAT      O77116  10.979   5.874   8.857 -0.9083  0.1395 -0.0272
18828WAT     H177117  10.939   5.958   8.880  0.5944  0.5459  1.2570
18828WAT     H277118  11.073   5.891   8.859 -0.4407 -2.0589  2.5083
18828WAT    EPW77119  10.986   5.888   8.860 -0.6484 -0.0970  0.4768
18829WAT      O77120   9.553   4.830   3.123 -0.6902 -0.0190 -0.4128
18829WAT     H177121   9.562   4.836   3.028  1.4057 -2.0671 -0.4470
18829WAT     H277122   9.582   4.915   3.155 -0.7050  0.4481 -1.5928
18829WAT    EPW77123   9.558   4.842   3.115 -0.4163 -0.2277 -0.5729
18830WAT      O77124   6.792   3.462   0.035 -0.0425  0.3436 -0.4797
18830WAT     H177125   6.754   3.543   0.002  1.1076  1.7812  1.5189
18830WAT     H277126   6.717   3.408   0.061 -0.8096  0.8200 -1.6398
18830WAT    EPW77127   6.777   3.465   0.034  0.0081  0.5962 -0.3691
18831WAT      O77128   4.059   6.467   0.019  0.8244 -0.7743  0.5473
18831WAT     H177129   4.016   6.382   0.029  0.0644 -0.6499 -1.2506
18831WAT     H277130   4.020   6.521   0.087  0.0671 -1.4132  0.6407
18831WAT    EPW77131   4.048   6.463   0.029  0.6242 -0.8423  0.3225
18832WAT      O77132   9.764   2.636   3.191 -0.5521 -0.6269 -0.0747
18832WAT     H177133   9.683   2.686   3.202  0.2697  0.5094  1.0423
18832WAT     H277134   9.809   2.644   3.275 -0.7001 -3.9208  0.4474
18832WAT    EPW77135   9.759   2.643   3.204 -0.4635 -0.9115  0.1414
18833WAT      O77136   8.224   1.097   0.231  0.3209 -0.5319  0.1297
18833WAT     H177137   8.272   1.122   0.152  1.0197  0.1625  0.7487
18833WAT     H277138   8.282   1.036   0.276 -0.0296 -0.8435  0.1657
18833WAT    EPW77139   8.238   1.092   0.226  0.3667 -0.4814  0.2161
18834WAT      O77140   6.338   0.571   1.730 -0.3880 -0.5753  0.2629
18834WAT     H177141   6.368   0.526   1.809  1.6612 -0.8507 -0.6169
18834WAT     H277142   6.362   0.662   1.743 -1.8941 -0.2128  0.7776
18834WAT    EPW77143   6.345   0.577   1.742 -0.3161 -0.5638  0.2148
18835WAT      O77144   8.391   1.800   1.668  0.1612  0.0164  0.1431
18835WAT     H177145   8.409   1.751   1.587  0.0017  1.0118 -0.5105
18835WAT     H277146   8.355   1.883   1.638 -2.3300 -0.5535  1.2807
18835WAT    EPW77147   8.388   1.804   1.653 -0.1884  0.0725  0.2069
18836WAT      O77148   6.873   2.552   4.196  0.4875 -0.9455 -0.4363
18836WAT     H177149   6.956   2.559   4.148  0.7892 -0.4592  0.1343
18836WAT     H277150   6.857   2.641   4.228 -0.3948 -0.9855 -0.7592
18836WAT    EPW77151   6.882   2.565   4.194  0.4108 -0.8867 -0.4034
18837WAT      O77152   9.160   3.987   2.042 -0.0716  0.3341  0.0853
18837WAT     H177153   9.091   3.938   1.997  0.2444  1.2536 -1.4735
18837WAT     H277154   9.125   4.075   2.051  0.8432  0.7860 -0.6218
18837WAT    EPW77155   9.146   3.992   2.037  0.0901  0.5150 -0.2136
18838WAT      O77156   6.125   4.814   4.898  0.4505 -0.3988  0.4653
18838WAT     H177157   6.150   4.906   4.913  0.9330 -0.3812 -0.3811
18838WAT     H277158   6.081   4.815   4.813 -0.2935 -0.8329  0.8308
18838WAT    EPW77159   6.122   4.826   4.889  0.4160 -0.4535  0.4020
18839WAT      O77160   0.942   8.433   8.384 -0.2957  0.2956 -0.2923
18839WAT     H177161   1.008   8.377   8.425  2.3446  1.9891 -1.9100
18839WAT     H277162   0.918   8.495   8.453  1.2131  0.7607 -0.1366
18839WAT    EPW77163   0.948   8.434   8.398  0.2516  0.5803 -0.4849
18840WAT      O77164   1.233   8.896   7.550  0.5702 -0.5105 -0.2932
18840WAT     H177165   1.265   8.983   7.573  0.4846 -1.0269  1.9947
18840WAT     H277166   1.313   8.845   7.533  0.7816 -0.6727  1.1011
18840WAT    EPW77167   1.248   8.901   7.551  0.5867 -0.6003  0.1922
18841WAT      O77168   4.553   2.668   2.535 -0.5408  0.3687  0.2609
18841WAT     H177169   4.566   2.708   2.621  1.0587 -0.9909  0.6971
18841WAT     H277170   4.460   2.682   2.516 -0.8521  0.9913  2.0558
18841WAT    EPW77171   4.542   2.675   2.544 -0.3710  0.2716  0.5552
18842WAT      O77172   0.747   3.980   2.216  0.6839 -0.0258 -0.0350
18842WAT     H177173   0.781   3.959   2.303  1.0061 -1.5423 -0.4907
18842WAT     H277174   0.803   4.050   2.184  0.8959  0.1738  0.7569
18842WAT    EPW77175   0.759   3.986   2.223  0.7544 -0.1993  0.0094
18843WAT      O77176   7.337   1.526   0.663  0.6451 -0.9983  0.5633
18843WAT     H177177   7.301   1.461   0.603 -0.0796 -0.6713  0.6387
18843WAT     H277178   7.286   1.605   0.648 -0.0151 -1.0931  2.0632
18843WAT    EPW77179   7.326   1.528   0.653  0.4625 -0.9676  0.7711
18844WAT      O77180   8.325   1.290   2.092  0.5655  0.4741 -0.4952
18844WAT     H177181   8.402   1.235   2.106 -0.9962 -1.7297 -0.0448
18844WAT     H277182   8.266   1.236   2.039 -1.0088  1.7792 -0.1544
18844WAT    EPW77183   8.327   1.276   2.087  0.1516  0.3556 -0.3908
18845WAT      O77184   7.930   2.602   3.037 -0.5256  0.5644  0.8300
18845WAT     H177185   8.012   2.612   3.086  0.7221  1.0172 -1.2289
18845WAT     H277186   7.918   2.507   3.029  1.0294  0.4371 -0.6814
18845WAT    EPW77187   7.939   2.591   3.042 -0.1559  0.6073  0.3592
18846WAT      O77188   5.507   5.825   1.293  0.6215 -0.1165 -0.2002
18846WAT     H177189   5.459   5.856   1.216 -0.8042 -1.2368  0.1889
18846WAT     H277190   5.519   5.903   1.347  2.7941  0.9626 -2.0898
18846WAT    EPW77191   5.502   5.839   1.290  0.7203 -0.1221 -0.3981
18847WAT      O77192   9.786   0.196   0.774 -0.2541  0.0829 -0.4455
18847WAT     H177193   9.747   0.141   0.841 -0.1864 -0.6305 -0.9729
18847WAT     H277194   9.747   0.282   0.787 -3.3628 -0.9587 -2.0058
18847WAT    EPW77195   9.776   0.200   0.784 -0.6552 -0.1486 -0.7208
18848WAT      O77196   9.726   4.404   0.545 -0.2183 -0.1034 -0.5963
18848WAT     H177197   9.796   4.467   0.560 -0.2244 -0.4068  0.7972
18848WAT     H277198   9.687   4.389   0.631 -0.3211 -1.8974 -0.9109
18848WAT    EPW77199   9.730   4.410   0.558 -0.2332 -0.3800 -0.4540
18849WAT      O77200   2.553   6.691   5.078 -0.1871 -0.3126 -0.6716
18849WAT     H177201   2.501   6.610   5.081  0.1692 -0.5364 -0.5327
18849WAT     H277202   2.601   6.685   4.995  1.5627 -1.3192  0.3753
18849WAT    EPW77203   2.552   6.679   5.067  0.0906 -0.4749 -0.5152
18850WAT      O77204  10.109   0.858   1.912  0.5166  0.4824 -0.8083
18850WAT     H177205  10.039   0.918   1.887  0.1979  0.0205 -1.0149
18850WAT     H277206  10.132   0.813   1.831  1.3295  0.9100 -0.8342
18850WAT    EPW77207  10.103   0.860   1.898  0.5813  0.4779 -0.8390
18851WAT      O77208   6.840   5.213   3.077  0.3095  0.0062 -0.2575
18851WAT     H177209   6.860   5.259   3.159  1.0767 -2.9291  1.3734
18851WAT     H277210   6.900   5.251   3.013  2.0434  0.1836  1.3887
18851WAT    EPW77211   6.851   5.224   3.079  0.6392 -0.3576  0.1748
18852WAT      O77212   9.504   0.112   4.138 -0.2537 -0.3260 -0.0721
18852WAT     H177213   9.587   0.065   4.149  0.3991  0.4596 -1.3934
18852WAT     H277214   9.529   0.204   4.130 -1.4845  0.2604  2.0910
18852WAT    EPW77215   9.518   0.118   4.138 -0.3290 -0.1450  0.0391
18853WAT      O77216   8.436   4.176   3.841 -0.1586  0.2149  0.1090
18853WAT     H177217   8.423   4.122   3.919 -1.5526 -1.0826 -0.9393
18853WAT     H277218   8.388   4.257   3.859 -1.3079 -0.4781  0.2298
18853WAT    EPW77219   8.428   4.180   3.854 -0.4935 -0.0479 -0.0134
18854WAT      O77220   4.297   9.218   1.829  0.4676  0.6327 -0.1108
18854WAT     H177221   4.341   9.134   1.842 -2.2508 -1.0051 -0.7736
18854WAT     H277222   4.359   9.282   1.864  2.4879 -1.6357  0.8002
18854WAT    EPW77223   4.311   9.215   1.835  0.3755  0.1173 -0.0781
18855WAT      O77224   5.816   1.800   1.949 -0.5793 -0.2856  0.0058
18855WAT     H177225   5.871   1.803   2.027  0.7034 -1.0052 -0.8250
18855WAT     H277226   5.810   1.891   1.920 -1.2276  0.0100  1.0413
18855WAT    EPW77227   5.823   1.812   1.955 -0.4957 -0.3415  0.0328
18856WAT      O77228   2.470   2.176   0.286  1.0776  0.5861  0.1547
18856WAT     H177229   2.393   2.188   0.231 -1.0172 -3.1079  1.8869
18856WAT     H277230   2.506   2.092   0.259  0.9784 -0.5296  3.1004
18856WAT    EPW77231   2.464   2.167   0.275  0.7881 -0.0483  0.7717
18857WAT      O77232   8.110   2.991   3.104  0.1367 -0.8661 -0.2389
18857WAT     H177233   8.031   3.038   3.134 -0.5065 -2.0320 -0.0692
18857WAT     H277234   8.078   2.927   3.041  0.5069 -3.2230  1.7903
18857WAT    EPW77235   8.095   2.989   3.100  0.1006 -1.3307  0.0511
18858WAT      O77236   5.337   1.710   4.831 -0.2536  0.9321  0.4960
18858WAT     H177237   5.295   1.645   4.775  0.3479  1.0106 -0.0498
18858WAT     H277238   5.316   1.794   4.790  1.8795  0.8939 -0.8113
18858WAT    EPW77239   5.328   1.713   4.818  0.1073  0.9373  0.2515
18859WAT      O77240   7.345   1.117   2.068  0.0405  0.6172 -0.1723
18859WAT     H177241   7.325   1.200   2.024 -3.1115  0.3317  0.5054
18859WAT     H277242   7.304   1.125   2.154  1.8728 -0.7280  0.9106
18859WAT    EPW77243   7.337   1.129   2.073 -0.1338  0.4022  0.0600
18860WAT      O77244   6.252   2.905   1.923 -0.0007 -0.2717 -0.9204
18860WAT     H177245   6.272   2.960   1.999  1.5056 -0.6645 -1.0025
18860WAT     H277246   6.235   2.818   1.960 -0.1274 -0.2688 -0.9705
18860WAT    EPW77247   6.252   2.901   1.938  0.1812 -0.3232 -0.9378
18861WAT      O77248   9.767   4.883   4.143  0.3275 -1.0055 -0.3307
18861WAT     H177249   9.673   4.902   4.145  0.4822  0.1832 -1.9689
18861WAT     H277250   9.779   4.830   4.064  1.3878  1.4481 -1.9302
18861WAT    EPW77251   9.756   4.879   4.133  0.4878 -0.5250 -0.7575
18862WAT      O77252   8.392   2.645   3.501 -0.8703  0.0799  0.2395
18862WAT     H177253   8.342   2.565   3.486 -4.5669  1.9914  1.4017
18862WAT     H277254   8.398   2.685   3.414 -2.8182  0.5358  0.2698
18862WAT    EPW77255   8.386   2.640   3.487 -1.6146  0.3920  0.3967
18863WAT      O77256   8.858   0.387   2.311  0.0280  0.0729 -0.0790
18863WAT     H177257   8.806   0.445   2.255 -1.8037 -2.2226 -0.9234
18863WAT     H277258   8.844   0.420   2.399 -2.4856 -0.0680 -0.3329
18863WAT    EPW77259   8.849   0.399   2.315 -0.5450 -0.2484 -0.2239
18864WAT      O77260   6.349   5.998   1.197 -0.1695 -0.0600  0.1653
18864WAT     H177261   6.396   5.977   1.278 -0.3911  0.3257  0.3969
18864WAT     H277262   6.348   6.094   1.195 -0.3707 -0.0709 -0.1749
18864WAT    EPW77263   6.355   6.008   1.208 -0.2255 -0.0105  0.1510
18865WAT      O77264   8.116   0.772   4.487  0.0807 -0.1961  0.6284
18865WAT     H177265   8.083   0.836   4.424 -0.1459 -1.1109 -0.2064
18865WAT     H277266   8.132   0.693   4.435  1.8260 -0.3612  1.3390
18865WAT    EPW77267   8.114   0.770   4.472  0.2813 -0.3386  0.6120
18866WAT      O77268   2.655   6.758   1.085  0.0247 -0.2958  0.7163
18866WAT     H177269   2.739   6.717   1.103  0.7881 -0.6555 -2.9005
18866WAT     H277270   2.676   6.849   1.065 -0.0856 -0.7968 -1.9989
18866WAT    EPW77271   2.669   6.765   1.085  0.1107 -0.4091 -0.1189
18867WAT      O77272   8.658   6.693   1.781 -0.3456 -0.0074  0.0918
18867WAT     H177273   8.723   6.652   1.725 -0.1381  0.5439 -0.0768
18867WAT     H277274   8.574   6.669   1.741 -0.2204 -0.1393 -0.0929
18867WAT    EPW77275   8.655   6.685   1.768 -0.3018  0.0477  0.0451
18868WAT      O77276   4.423   9.795   3.716 -0.8000 -0.2917 -0.2185
18868WAT     H177277   4.437   9.701   3.729 -0.4012 -0.0081  1.6326
18868WAT     H277278   4.476   9.816   3.639 -0.7072 -1.5335 -0.5162
18868WAT    EPW77279   4.432   9.785   3.707 -0.7350 -0.4182 -0.0137
18869WAT      O77280   9.400   0.654   0.041 -0.2833 -1.1604 -0.1630
18869WAT     H177281   9.488   0.657   0.005 -0.4715 -1.7474 -0.6924
18869WAT     H277282   9.411   0.674   0.134  0.3846 -1.0708 -0.2596
18869WAT    EPW77283   9.413   0.657   0.048 -0.2203 -1.2260 -0.2455
18870WAT      O77284   6.608   1.318   1.265 -0.7596  0.5668 -0.1028
18870WAT     H177285   6.671   1.378   1.306  0.7680 -0.6402 -0.6069
18870WAT     H277286   6.570   1.269   1.338 -2.2437  2.2596  0.3520
18870WAT    EPW77287   6.611   1.320   1.280 -0.7539  0.6309 -0.1093
18871WAT      O77288   0.315   6.273   7.076  0.1046  0.2558  0.4140
18871WAT     H177289   0.221   6.257   7.069  0.0267  1.1826 -0.9608
18871WAT     H277290   0.355   6.203   7.024  0.1889 -0.1649  1.0359
18871WAT    EPW77291   0.308   6.262   7.068  0.1054  0.3226  0.3150
18872WAT      O77292  10.250   7.365   7.562  0.1534  1.0856 -0.2454
18872WAT     H177293  10.217   7.332   7.479 -0.1130  1.3048 -0.2292
18872WAT     H277294  10.277   7.287   7.611 -0.9717  0.8362  0.0140
18872WAT    EPW77295  10.249   7.351   7.558 -0.0300  1.0815 -0.2089
18873WAT      O77296  10.068   3.396   3.546  0.9645  0.1312  0.1909
18873WAT     H177297  10.157   3.367   3.564  1.2183  0.7981  0.0264
18873WAT     H277298  10.079   3.476   3.494  0.2750 -0.6180 -1.1769
18873WAT    EPW77299  10.081   3.403   3.541  0.9069  0.1204 -0.0112
18874WAT      O77300   9.976   6.602   7.218  0.3092  0.9907 -0.2262
18874WAT     H177301   9.895   6.651   7.207  1.1349  2.2258 -1.0245
18874WAT     H277302   9.948   6.512   7.233 -1.2716  1.7276  1.7211
18874WAT    EPW77303   9.962   6.596   7.218  0.2093  1.2507 -0.0749
18875WAT      O77304   7.047   0.623   2.499  0.0009  0.3351  0.5614
18875WAT     H177305   7.057   0.534   2.465 -1.6863  0.5986 -0.7521
18875WAT     H277306   6.983   0.665   2.440 -1.7080  1.4043  2.9837
18875WAT    EPW77307   7.040   0.617   2.487 -0.4470  0.5109  0.7075
18876WAT      O77308   4.526  10.039   2.655  0.3043 -0.9317  0.4236
18876WAT     H177309   4.547  10.133   2.651  3.0109 -1.4225  1.1962
18876WAT     H277310   4.499  10.017   2.566 -1.2876  0.7282  0.4343
18876WAT    EPW77311   4.526  10.049   2.642  0.4513 -0.7772  0.5270
18877WAT      O77312   9.244   0.012   3.041 -0.9158 -0.4207 -0.3906
18877WAT     H177313   9.237  -0.007   3.135 -1.2923 -0.0894 -0.3510
18877WAT     H277314   9.290  -0.064   3.005 -0.4078 -0.3639  0.1258
18877WAT    EPW77315   9.249  -0.001   3.049 -0.8984 -0.3696 -0.3172
18878WAT      O77316   6.506   2.987   2.686 -0.0549  0.0184  0.5802
18878WAT     H177317   6.429   3.043   2.680 -0.7426 -0.7844  1.6614
18878WAT     H277318   6.476   2.909   2.732  0.7287 -1.5444 -1.4294
18878WAT    EPW77319   6.492   2.984   2.691 -0.0422 -0.2935  0.4578
18879WAT      O77320   0.020   1.396   1.393 -0.0108  0.1398  0.4174
18879WAT     H177321   0.092   1.458   1.404  0.7443 -0.7536  0.6938
18879WAT     H277322  -0.014   1.382   1.481  0.2422 -0.3091  0.4487
18879WAT    EPW77323   0.025   1.402   1.406  0.1222 -0.0372  0.4579
18880WAT      O77324   3.697   8.005   7.346  0.2338  0.0494 -0.6516
18880WAT     H177325   3.726   8.096   7.354  2.4970 -0.8172  2.9151
18880WAT     H277326   3.698   7.971   7.435 -2.9786 -2.8733 -1.5176
18880WAT    EPW77327   3.701   8.013   7.358  0.1087 -0.4501 -0.2954
18881WAT      O77328   2.724   9.801   3.551  0.4057  0.1631  0.1041
18881WAT     H177329   2.805   9.779   3.503 -1.3700 -1.2673 -2.4784
18881WAT     H277330   2.676   9.858   3.491 -1.0402  0.0021  1.0734
18881WAT    EPW77331   2.729   9.806   3.537 -0.0192 -0.0467 -0.1087
18882WAT      O77332   6.983   1.160   0.678  0.7679 -0.0839 -0.0990
18882WAT     H177333   6.997   1.068   0.704 -3.3656 -0.7939  0.2767
18882WAT     H277334   6.975   1.157   0.583 -2.6681 -0.9057  0.0673
18882WAT    EPW77335   6.984   1.147   0.669 -0.2306 -0.2859 -0.0275
18883WAT      O77336   5.236   1.610   3.239  0.3781 -0.1477 -0.8775
18883WAT     H177337   5.148   1.603   3.203 -0.2015  0.8036  0.2753
18883WAT     H277338   5.294   1.606   3.162 -0.7176  0.2847 -1.7566
18883WAT    EPW77339   5.232   1.609   3.224  0.1571  0.0348 -0.8414
18884WAT      O77340   3.401   2.910   8.118 -0.1127 -0.1982  0.4242
18884WAT     H177341   3.438   2.997   8.104 -0.6602 -0.2687 -1.9298
18884WAT     H277342   3.306   2.924   8.117 -0.2211 -0.5500  2.3769
18884WAT    EPW77343   3.393   2.924   8.116 -0.1991 -0.2539  0.3710
18885WAT      O77344   7.092   1.621   3.245  0.3328  0.1438 -0.1778
18885WAT     H177345   7.124   1.551   3.303 -4.7639 -2.0500  0.5682
18885WAT     H277346   7.089   1.580   3.158 -0.9177  0.0359 -0.0971
18885WAT    EPW77347   7.096   1.606   3.241 -0.5045 -0.1597 -0.0689
18886WAT      O77348   3.459   4.615   5.451  0.4109 -0.3289 -0.2285
18886WAT     H177349   3.376   4.627   5.405 -0.7473 -0.2379  1.7453
18886WAT     H277350   3.456   4.678   5.523  1.6474 -1.1528  0.5928
18886WAT    EPW77351   3.448   4.625   5.455  0.4213 -0.4256  0.1400
18887WAT      O77352   8.805   1.982   2.804 -0.7130 -0.0040  0.6942
18887WAT     H177353   8.830   1.890   2.801  1.0593  0.2694  3.3140
18887WAT     H277354   8.853   2.022   2.732 -1.4078 -1.0770 -0.3966
18887WAT    EPW77355   8.815   1.975   2.795 -0.5708 -0.1095  0.8959
18888WAT      O77356   9.250   2.434   0.998  0.2224 -0.4048  0.0493
18888WAT     H177357   9.160   2.431   0.965  0.2572 -0.1464 -0.0721
18888WAT     H277358   9.251   2.371   1.071 -0.6829  1.2586  1.5868
18888WAT    EPW77359   9.238   2.425   1.003  0.1082 -0.1513  0.2361
18889WAT      O77360   6.399   8.333   6.147 -0.2209 -0.2731 -0.4197
18889WAT     H177361   6.372   8.341   6.239  0.9882  2.5354 -0.2240
18889WAT     H277362   6.364   8.411   6.104  2.5145  0.5552 -1.3944
18889WAT    EPW77363   6.391   8.344   6.154  0.2992  0.2065 -0.5226
18890WAT      O77364   7.600   1.860   2.497 -0.0279  0.0050  0.2942
18890WAT     H177365   7.558   1.837   2.414 -1.4133  0.2461  0.9088
18890WAT     H277366   7.692   1.835   2.485  0.0225  0.9679 -1.6718
18890WAT    EPW77367   7.607   1.854   2.484 -0.2041  0.1638  0.1159
18891WAT      O77368   3.793  10.115   6.300 -0.2676 -0.6388 -0.1149
18891WAT     H177369   3.772  10.157   6.383 -4.0295  0.4017 -1.3881
18891WAT     H277370   3.818  10.025   6.323 -0.8010 -0.2511  2.1482
18891WAT    EPW77371   3.793  10.108   6.314 -0.8341 -0.4501  0.0155
18892WAT      O77372   1.519   2.567   4.436 -0.3880 -0.1017 -0.0548
18892WAT     H177373   1.498   2.572   4.343  0.3160  0.1482 -0.2032
18892WAT     H277374   1.482   2.648   4.473 -1.8163 -0.7963  0.1355
18892WAT    EPW77375   1.511   2.578   4.429 -0.4835 -0.1602 -0.0494
18893WAT      O77376   6.387   2.932   2.444  0.1842  0.2876  0.0145
18893WAT     H177377   6.318   2.880   2.486  1.3320 -1.7346 -0.4692
18893WAT     H277378   6.431   2.976   2.516 -0.9824  0.8365  0.4175
18893WAT    EPW77379   6.384   2.931   2.459  0.1817  0.0933  0.0038
18894WAT      O77380   4.917   1.691   3.214 -0.0327  0.1025 -0.5360
18894WAT     H177381   4.919   1.755   3.143 -1.9948 -0.2083 -0.9434
18894WAT     H277382   4.902   1.742   3.293  1.3490  0.3784 -0.4341
18894WAT    EPW77383   4.915   1.706   3.215 -0.1094  0.0979 -0.5764
18895WAT      O77384  10.780   3.914   0.660  0.0345  0.2195  0.0144
18895WAT     H177385  10.710   3.908   0.595  1.9166 -1.1465 -2.0227
18895WAT     H277386  10.851   3.960   0.615  1.2801 -0.4458  1.2284
18895WAT    EPW77387  10.780   3.919   0.645  0.4473 -0.0484 -0.0941
18896WAT      O77388   3.591   8.046   2.960  0.0264  0.5615 -0.4939
18896WAT     H177389   3.551   8.021   2.877  0.1214  1.2209 -0.7448
18896WAT     H277390   3.643   8.124   2.939 -0.4562  1.1164  0.3117
18896WAT    EPW77391   3.593   8.053   2.947 -0.0248  0.7215 -0.4208
18897WAT      O77392   6.967   0.004   4.850  0.0499 -0.1980  0.5524
18897WAT     H177393   7.001   0.091   4.870 -0.4537 -0.0793  0.9237
18897WAT     H277394   6.936  -0.029   4.935 -0.5523 -0.3831  0.2611
18897WAT    EPW77395   6.967   0.011   4.864 -0.0958 -0.2065  0.5629
18898WAT      O77396   5.620   3.403   0.807  0.1480 -0.3191 -0.9903
18898WAT     H177397   5.539   3.353   0.797 -0.2366 -0.0994  0.7149
18898WAT     H277398   5.591   3.494   0.818  0.1333 -0.6714  4.1994
18898WAT    EPW77399   5.605   3.408   0.807  0.0954 -0.3366 -0.0809
18899WAT      O77400   4.754   2.640   3.897  0.1758 -0.3030 -0.7785
18899WAT     H177401   4.692   2.706   3.928  0.8855 -0.1110  0.2526
18899WAT     H277402   4.730   2.561   3.944  0.6835 -0.2350 -0.3975
18899WAT    EPW77403   4.742   2.639   3.907  0.3364 -0.2688 -0.5924
18900WAT      O77404  10.561   1.950   4.085  0.5609 -0.2780  0.0603
18900WAT     H177405  10.482   1.999   4.060  0.8951 -0.6777 -1.9860
18900WAT     H277406  10.594   1.995   4.163  0.2799  2.1407 -1.1101
18900WAT    EPW77407  10.555   1.962   4.092  0.5679 -0.0117 -0.3641
18901WAT      O77408   6.891   2.086   3.822 -0.4125  0.0015 -1.3218
18901WAT     H177409   6.962   2.095   3.886 -2.2348 -3.0172  1.4299
18901WAT     H277410   6.852   2.173   3.818 -0.2745  0.3504  1.8902
18901WAT    EPW77411   6.895   2.098   3.830 -0.6349 -0.3507 -0.5352
18902WAT      O77412   6.836   3.733   3.494  0.5719 -0.9581 -0.6853
18902WAT     H177413   6.880   3.757   3.576 -0.1327 -1.2630 -0.2124
18902WAT     H277414   6.745   3.759   3.507  0.4001 -1.2566 -1.2718
18902WAT    EPW77415   6.830   3.740   3.507  0.4563 -1.0376 -0.7002
18903WAT      O77416   5.606   2.523   2.993  1.0997 -0.0615 -0.0133
18903WAT     H177417   5.675   2.586   3.014 -0.7486  1.9520  0.4656
18903WAT     H277418   5.611   2.513   2.898 -0.3010  3.1969 -0.5907
18903WAT    EPW77419   5.616   2.530   2.984  0.6711  0.6337 -0.0263
18904WAT      O77420  10.267   3.808   1.255  0.1575  0.2247  0.3676
18904WAT     H177421  10.343   3.862   1.275  1.5250 -1.7764  0.8910
18904WAT     H277422  10.273   3.793   1.161  1.5137 -1.4151  0.6768
18904WAT    EPW77423  10.277   3.813   1.245  0.5169 -0.2556  0.4775
18905WAT      O77424   1.796   3.301   6.399  0.0218 -0.3852 -0.9198
18905WAT     H177425   1.874   3.341   6.361 -1.8575  3.1055 -1.4142
18905WAT     H277426   1.723   3.349   6.362 -2.2860 -1.5678  1.7378
18905WAT    EPW77427   1.797   3.312   6.389 -0.5305 -0.0807 -0.6344
18906WAT      O77428   5.760   7.490   8.167 -0.5278  0.3716  0.2001
18906WAT     H177429   5.683   7.547   8.170 -1.4294 -0.6490 -1.6300
18906WAT     H277430   5.730   7.408   8.205  0.2051  0.4838  1.0623
18906WAT    EPW77431   5.746   7.487   8.172 -0.5503  0.2518  0.0730
18907WAT      O77432   9.564   5.117   2.045 -0.3917 -0.1575 -0.1728
18907WAT     H177433   9.511   5.193   2.022  0.8951  0.5608 -0.8818
18907WAT     H277434   9.534   5.092   2.133 -0.8453  1.1625  0.0603
18907WAT    EPW77435   9.553   5.124   2.054 -0.2818  0.1113 -0.2356
18908WAT      O77436   9.847   3.652   4.171 -0.8013 -0.2152  0.5235
18908WAT     H177437   9.804   3.568   4.187  0.8559 -1.2666 -0.2503
18908WAT     H277438   9.873   3.649   4.079  0.1465  0.7255  0.7378
18908WAT    EPW77439   9.845   3.641   4.161 -0.4573 -0.2298  0.4497
18909WAT      O77440   8.109   1.601   5.302 -0.2220  0.1364  0.5582
18909WAT     H177441   8.101   1.558   5.217  1.0052  0.2805  0.3615
18909WAT     H277442   8.192   1.648   5.298 -0.7813  1.2520  1.3465
18909WAT    EPW77443   8.119   1.602   5.291 -0.1345  0.3026  0.6361
18910WAT      O77444  10.899   7.469   7.995 -0.1598 -0.0421  0.3630
18910WAT     H177445  10.875   7.433   7.910  0.6885 -0.1217  0.1503
18910WAT     H277446  10.934   7.395   8.044  0.5621  0.2540  0.3148
18910WAT    EPW77447  10.901   7.455   7.990  0.0477 -0.0136  0.3285
18911WAT      O77448   8.943   8.380   6.074  0.0506 -0.4714 -0.2595
18911WAT     H177449   8.996   8.307   6.105  1.9169  1.3003  1.0276
18911WAT     H277450   8.873   8.389   6.139  3.0205  2.2058  3.0102
18911WAT    EPW77451   8.941   8.372   6.087  0.6890  0.1149  0.3417
18912WAT      O77452   8.993   2.008   2.209 -0.2049 -0.0107  0.4075
18912WAT     H177453   9.015   2.071   2.140 -0.7802  0.9885  1.0988
18912WAT     H277454   9.054   2.028   2.280 -1.0101  0.4320  0.9950
18912WAT    EPW77455   9.004   2.019   2.209 -0.3872  0.1795  0.5763
18913WAT      O77456   4.270   1.069   7.378  0.7296 -0.3655 -0.1754
18913WAT     H177457   4.307   1.135   7.436  1.9748 -2.1731  1.2350
18913WAT     H277458   4.281   0.986   7.426 -1.0750 -1.5776 -1.6765
18913WAT    EPW77459   4.276   1.067   7.392  0.6561 -0.7638 -0.1874
18914WAT      O77460   9.027   3.401   4.324 -0.5586  0.2264 -0.5720
18914WAT     H177461   8.939   3.437   4.312 -0.5760  0.8278  1.0661
18914WAT     H277462   9.013   3.307   4.332 -0.8811  0.1636 -1.6491
18914WAT    EPW77463   9.013   3.394   4.323 -0.6032  0.2975 -0.4983
18915WAT      O77464   8.706   1.959   2.143 -0.1778 -0.0844 -0.1912
18915WAT     H177465   8.798   1.983   2.150  0.0863 -0.9407 -0.7289
18915WAT     H277466   8.693   1.935   2.052 -0.8761 -0.2325 -0.0633
18915WAT    EPW77467   8.716   1.959   2.132 -0.2351 -0.2168 -0.2452
18916WAT      O77468   0.086   9.383   7.429  0.6637  0.5437 -0.1670
18916WAT     H177469   0.053   9.456   7.482  0.2261  1.5564 -1.7689
18916WAT     H277470   0.015   9.319   7.431  1.6081 -0.5667  2.4413
18916WAT    EPW77471   0.072   9.385   7.436  0.7305  0.5312 -0.0343
18917WAT      O77472   4.538   0.015   0.939 -0.3781 -0.4032 -0.2958
18917WAT     H177473   4.553  -0.061   0.883 -1.7902  2.2292 -4.8830
18917WAT     H277474   4.495   0.078   0.881 -0.1477  3.5974  3.3727
18917WAT    EPW77475   4.534   0.013   0.924 -0.5336  0.4717 -0.4169
18918WAT      O77476   0.928   8.615   3.683 -0.8709 -0.1203 -0.0338
18918WAT     H177477   0.843   8.622   3.640 -1.3468  0.0256  0.9013
18918WAT     H277478   0.924   8.678   3.755 -0.7196 -1.4813  1.2195
18918WAT    EPW77479   0.916   8.624   3.687 -0.9137 -0.2804  0.2548
18919WAT      O77480   3.659   9.412   2.742  0.5141 -0.2380 -0.3334
18919WAT     H177481   3.632   9.451   2.659 -0.9900  0.7919  0.5867
18919WAT     H277482   3.750   9.387   2.728  1.4680  3.1647 -1.2112
18919WAT    EPW77483   3.667   9.414   2.729  0.4416  0.3467 -0.3277
18920WAT      O77484   1.455   7.939   8.332 -0.3338 -0.1438  0.7445
18920WAT     H177485   1.494   7.894   8.257 -0.2080 -1.2317  1.4520
18920WAT     H277486   1.518   7.926   8.403 -0.2134  1.2942  0.9384
18920WAT    EPW77487   1.468   7.931   8.332 -0.3013 -0.0973  0.8640
18921WAT      O77488   3.631  10.336   4.346 -0.1215 -0.5251  0.0042
18921WAT     H177489   3.638  10.297   4.259 -1.0251  1.7177 -1.1415
18921WAT     H277490   3.541  10.317   4.374 -0.4276  0.3460 -0.3726
18921WAT    EPW77491   3.620  10.328   4.338 -0.2811 -0.1144 -0.1969
18922WAT      O77492  10.193  10.006   8.640 -0.4048  0.3785 -0.0760
18922WAT     H177493  10.238  10.010   8.724  0.5049  0.5493 -0.5657
18922WAT     H277494  10.100  10.002   8.663 -0.3273  2.8121  0.9028
18922WAT    EPW77495  10.187  10.006   8.654 -0.2747  0.7219 -0.0114
18923WAT      O77496  10.176   4.466   1.071  0.1742  0.1020 -0.0789
18923WAT     H177497  10.264   4.427   1.070 -0.8034 -2.4186  1.6159
18923WAT     H277498  10.163   4.496   0.981  2.5476  0.0908 -0.5102
18923WAT    EPW77499  10.186   4.465   1.059  0.3586 -0.2317  0.0877
18924WAT      O77500   6.833   4.046   2.548 -0.1634  0.2775  0.0150
18924WAT     H177501   6.809   4.034   2.456 -1.0678 -1.5422  0.4352
18924WAT     H277502   6.786   4.125   2.575 -2.3309 -0.8194 -0.3406
18924WAT    EPW77503   6.823   4.055   2.539 -0.5686 -0.1073  0.0235
18925WAT      O77504   6.977   9.026   1.926  0.0771 -0.7892  0.3538
18925WAT     H177505   6.970   8.931   1.916 -0.2655 -0.6998 -0.3191
18925WAT     H277506   7.004   9.057   1.839  0.2724 -0.2794  0.5914
18925WAT    EPW77507   6.980   9.018   1.913  0.0577 -0.7100  0.2964
18926WAT      O77508   7.654   9.633   2.613 -0.2511 -0.0286  0.7146
18926WAT     H177509   7.658   9.648   2.518 -0.1644  1.0652  0.8816
18926WAT     H277510   7.640   9.539   2.621 -0.0482 -0.1700 -0.3838
18926WAT    EPW77511   7.653   9.623   2.601 -0.2129  0.0968  0.5918
18927WAT      O77512   0.044   7.601   8.943 -0.0288  0.4021  0.5144
18927WAT     H177513   0.066   7.557   9.026 -1.0613 -0.5768  0.2962
18927WAT     H277514   0.114   7.577   8.884  0.5204  0.7944  0.9959
18927WAT    EPW77515   0.056   7.592   8.946 -0.0930  0.3247  0.5488
18928WAT      O77516   5.445   3.994   2.985 -0.1732  0.0480  1.2425
18928WAT     H177517   5.428   3.907   3.022 -2.8606 -0.3450 -0.6178
18928WAT     H277518   5.485   3.976   2.900 -1.2982  0.5669  0.5831
18928WAT    EPW77519   5.448   3.980   2.978 -0.6757  0.0646  0.9103
18929WAT      O77520   9.967   2.206   1.416  0.4072  0.3947  0.4114
18929WAT     H177521   9.948   2.201   1.510 -1.4351  1.4594  0.1376
18929WAT     H277522  10.017   2.287   1.407  0.1311  0.5654  0.4090
18929WAT    EPW77523   9.971   2.216   1.427  0.1278  0.5577  0.3750
18930WAT      O77524   9.124   2.177   2.010 -0.3912 -0.3450  0.0206
18930WAT     H177525   9.154   2.260   1.974 -0.0226 -0.0781  0.9163
18930WAT     H277526   9.055   2.148   1.949  1.2212 -0.6855 -1.7377
18930WAT    EPW77527   9.119   2.184   1.997 -0.1297 -0.3548 -0.0932
18931WAT      O77528   9.710   7.631   5.790  0.2207  0.2086 -0.1422
18931WAT     H177529   9.747   7.550   5.755 -0.2213 -0.4745  0.9282
18931WAT     H277530   9.783   7.693   5.790  0.4591 -0.0457 -1.3492
18931WAT    EPW77531   9.724   7.629   5.785  0.1936  0.0851 -0.1602
18932WAT      O77532  10.954   2.015   1.843 -0.1554 -0.2025  0.0053
18932WAT     H177533  10.867   1.983   1.821  0.4117 -3.8506  2.2854
18932WAT     H277534  11.013   1.967   1.786  0.5084  1.7052 -1.0167
18932WAT    EPW77535  10.951   2.005   1.833  0.0067 -0.4323  0.1712
18933WAT      O77536   7.825   3.783   3.204  0.0769 -0.3505  0.2506
18933WAT     H177537   7.731   3.787   3.184  0.1750  1.6663 -0.0564
18933WAT     H277538   7.834   3.710   3.264 -1.7703 -0.3091  0.6357
18933WAT    EPW77539   7.814   3.774   3.209 -0.1538 -0.0789  0.2609
18934WAT      O77540   6.663   2.502   2.412  0.2293  1.1488  0.2876
18934WAT     H177541   6.603   2.545   2.352 -1.5812  1.3652  2.1282
18934WAT     H277542   6.666   2.560   2.488  0.1979 -0.4321  1.5517
18934WAT    EPW77543   6.656   2.515   2.414 -0.0136  0.9689  0.6970
18935WAT      O77544   8.756   2.739   1.766  0.1575 -0.1496 -0.1950
18935WAT     H177545   8.789   2.827   1.780  3.2259 -1.5401  2.6784
18935WAT     H277546   8.810   2.705   1.694  2.0301 -0.9480  1.5035
18935WAT    EPW77547   8.767   2.746   1.758  0.8097 -0.4383  0.4080
18936WAT      O77548   7.516   2.460   2.144 -0.0638 -0.2527  0.1622
18936WAT     H177549   7.488   2.531   2.087  0.3809 -1.1839 -1.2681
18936WAT     H277550   7.567   2.402   2.087  0.1353 -1.3794  1.4359
18936WAT    EPW77551   7.519   2.462   2.129  0.0210 -0.5242  0.1416
18937WAT      O77552   8.380   3.389   3.240  0.2847 -0.9624 -0.3455
18937WAT     H177553   8.307   3.352   3.190 -0.5223 -0.1965  0.2542
18937WAT     H277554   8.371   3.352   3.328 -0.9036  1.0713  0.4478
18937WAT    EPW77555   8.369   3.379   3.245  0.0215 -0.5932 -0.1616
18938WAT      O77556   0.404   8.035   7.680 -0.8855  0.3333  0.6466
18938WAT     H177557   0.382   7.944   7.700 -1.6243  0.5097  0.6986
18938WAT     H277558   0.496   8.033   7.655  0.3637  0.1818  4.6592
18938WAT    EPW77559   0.413   8.023   7.679 -0.8182  0.3366  1.1828
18939WAT      O77560   6.968   5.147   1.415  0.2864  0.1343  0.5604
18939WAT     H177561   6.894   5.199   1.384 -0.1053 -1.3239 -1.1093
18939WAT     H277562   6.985   5.179   1.504 -2.8458 -0.0089  1.3188
18939WAT    EPW77563   6.960   5.158   1.423 -0.1781 -0.0765  0.4402
18940WAT      O77564   7.662   2.806   5.602  0.7807 -0.0139  0.3726
18940WAT     H177565   7.713   2.887   5.601  0.5442  0.1836 -1.7171
18940WAT     H277566   7.571   2.836   5.594  0.6347 -0.4598  0.3680
18940WAT    EPW77567   7.656   2.821   5.601  0.7305 -0.0466  0.0966
18941WAT      O77568   7.254   7.763   0.711  0.3975 -0.1543 -0.1970
18941WAT     H177569   7.236   7.822   0.639 -1.0571 -0.4765 -0.1338
18941WAT     H277570   7.167   7.736   0.742  1.0102 -1.0947  0.7741
18941WAT    EPW77571   7.240   7.767   0.706  0.2866 -0.3211 -0.0606
18942WAT      O77572   9.167   5.404   2.051  0.1027  0.4996 -0.3516
18942WAT     H177573   9.178   5.424   2.143 -0.1927 -1.6286  0.1986
18942WAT     H277574   9.256   5.393   2.017  0.2028 -1.5378  0.4197
18942WAT    EPW77575   9.181   5.405   2.058  0.0763 -0.0498 -0.1774
18943WAT      O77576   7.760   4.572   0.735 -0.3342 -0.6550 -0.1199
18943WAT     H177577   7.791   4.658   0.762  1.0773 -1.0573 -0.3940
18943WAT     H277578   7.692   4.590   0.670 -1.0346  0.2524  0.8338
18943WAT    EPW77579   7.755   4.586   0.730 -0.2406 -0.5882 -0.0303
18944WAT      O77580   9.092   2.105   3.561  0.9122 -0.8447 -0.0312
18944WAT     H177581   9.028   2.171   3.535  0.8505 -0.6727  0.5378
18944WAT     H277582   9.119   2.064   3.479  3.2496  1.9420 -0.8337
18944WAT    EPW77583   9.087   2.108   3.547  1.2121 -0.4545 -0.0621
18945WAT      O77584   1.588   8.924   8.629 -0.0330 -0.2474  0.2294
18945WAT     H177585   1.591   8.983   8.704  0.0672  1.1530 -0.8478
18945WAT     H277586   1.672   8.937   8.585 -1.2018  1.1318 -1.7219
18945WAT    EPW77587   1.600   8.933   8.633 -0.1739  0.1202 -0.1702
18946WAT      O77588  10.706   3.790   2.307  0.0393  0.2824 -0.1146
18946WAT     H177589  10.785   3.743   2.280  0.8625  1.8970 -0.6135
18946WAT     H277590  10.702   3.776   2.402  1.8032  1.3894  0.1762
18946WAT    EPW77591  10.716   3.782   2.316  0.3805  0.6415 -0.1422
18947WAT      O77592   7.807   2.642   2.399 -0.7125  1.2656  0.2132
18947WAT     H177593   7.854   2.724   2.383  1.2812  0.5165  1.8080
18947WAT     H277594   7.733   2.668   2.454 -1.8472  2.3584 -1.7174
18947WAT    EPW77595   7.804   2.656   2.404 -0.5991  1.3109  0.1688
18948WAT      O77596  10.625   3.197   6.291  0.3047 -0.5658 -0.1704
18948WAT     H177597  10.609   3.180   6.384 -0.2937 -0.6269 -0.2815
18948WAT     H277598  10.544   3.171   6.247  0.9693 -1.6172 -0.8399
18948WAT    EPW77599  10.613   3.191   6.297  0.3133 -0.7125 -0.2735
18949WAT      O77600   0.885   6.577   7.664  0.0769 -0.3107 -0.1651
18949WAT     H177601   0.915   6.652   7.716  2.1024 -1.6907  0.8271
18949WAT     H277602   0.917   6.595   7.576 -1.4753  1.0261 -0.5017
18949WAT    EPW77603   0.893   6.590   7.659  0.1394 -0.3166 -0.0787
18950WAT      O77604   9.073   4.673   1.998 -0.2823 -0.3261 -0.0711
18950WAT     H177605   9.117   4.669   1.913 -0.9288  2.2533 -0.6219
18950WAT     H277606   9.086   4.764   2.027 -2.5501 -0.3422  1.2069
18950WAT    EPW77607   9.081   4.685   1.991 -0.6666  0.0119  0.0247
18951WAT      O77608   8.131   4.853   1.052  0.0349 -0.5483 -0.1730
18951WAT     H177609   8.121   4.810   0.967 -1.8010 -1.6886  0.5486
18951WAT     H277610   8.127   4.781   1.115  0.7900  0.3421  0.9232
18951WAT    EPW77611   8.129   4.838   1.049 -0.1073 -0.5815  0.0667
18952WAT      O77612   8.411   9.981   0.833 -0.1309 -0.0456 -0.1290
18952WAT     H177613   8.487  10.003   0.779  1.7064 -0.3134  2.1449
18952WAT     H277614   8.380  10.065   0.867  1.2858 -0.1163  1.5050
18952WAT    EPW77615   8.417   9.995   0.830  0.2980 -0.0901  0.3864
18953WAT      O77616   5.274   2.279   2.938 -0.1750 -0.0447 -0.7031
18953WAT     H177617   5.348   2.268   2.878  0.4449 -1.3441  0.2535
18953WAT     H277618   5.315   2.309   3.020 -0.5694 -1.6528  0.1155
18953WAT    EPW77619   5.289   2.282   2.941 -0.1452 -0.4283 -0.4690
18954WAT      O77620   8.071   3.972   4.444 -0.1462 -0.3540  0.1207
18954WAT     H177621   8.024   3.987   4.361 -1.8117  0.2653  1.1342
18954WAT     H277622   8.077   4.058   4.484 -1.7675 -0.9960  1.8616
18954WAT    EPW77623   8.066   3.985   4.438 -0.5798 -0.3570  0.4840
18955WAT      O77624   7.976   2.405   1.278 -1.0927 -0.5118  0.2097
18955WAT     H177625   7.980   2.495   1.248 -1.1988  0.3929  2.6617
18955WAT     H277626   7.906   2.404   1.344 -0.6958 -2.2430  0.6764
18955WAT    EPW77627   7.967   2.417   1.283 -1.0540 -0.6208  0.5947
18956WAT      O77628   9.621   4.059   1.809 -0.2949  0.1197 -0.0067
18956WAT     H177629   9.585   4.131   1.757  1.3111  0.1746 -1.1052
18956WAT     H277630   9.545   4.023   1.855 -1.8178  0.0733 -2.3902
18956WAT    EPW77631   9.606   4.064   1.808 -0.2837  0.1209 -0.4659
18957WAT      O77632   7.903   0.986   3.912 -0.2074  0.0260  0.5910
18957WAT     H177633   7.910   0.916   3.848 -1.4054  1.2597 -0.9774
18957WAT     H277634   7.993   1.018   3.922 -0.2568  1.7904 -2.9312
18957WAT    EPW77635   7.916   0.981   3.905 -0.3719  0.4214 -0.0803
18958WAT      O77636   8.974   4.595   2.614  0.2312 -0.3280  0.5799
18958WAT     H177637   8.998   4.560   2.528  3.1744 -0.9461  1.5135
18958WAT     H277638   9.038   4.665   2.629 -1.4682  1.0866  1.4978
18958WAT    EPW77639   8.986   4.599   2.604  0.3953 -0.2229  0.8242
18959WAT      O77640   5.764   3.996   1.647 -0.2114 -0.4474 -0.6448
18959WAT     H177641   5.817   3.945   1.586  0.5945 -0.9476  0.4444
18959WAT     H277642   5.733   3.932   1.711 -1.0119  0.0759 -0.4907
18959WAT    EPW77643   5.767   3.981   1.648 -0.2108 -0.4443 -0.4808
18960WAT      O77644  10.121   6.441   0.624  0.4559  1.3616 -0.0138
18960WAT     H177645  10.150   6.370   0.567 -2.9920  1.0068 -1.5904
18960WAT     H277646  10.089   6.508   0.563 -1.7576  1.7060  1.3990
18960WAT    EPW77647  10.121   6.441   0.608 -0.2909  1.3604 -0.0353
18961WAT      O77648   6.451   2.314   3.476  0.2884 -0.0933 -0.8576
18961WAT     H177649   6.378   2.306   3.415 -0.7634  1.5342  0.1075
18961WAT     H277650   6.426   2.259   3.550 -1.3827  2.4891  0.6748
18961WAT    EPW77651   6.438   2.306   3.478 -0.0706  0.4621 -0.5282
18962WAT      O77652   5.842   0.598   3.909 -0.5272 -0.4641  0.3566
18962WAT     H177653   5.931   0.625   3.884 -1.4180  3.8565  0.9948
18962WAT     H277654   5.847   0.585   4.004 -0.4394 -0.8456  0.2991
18962WAT    EPW77655   5.855   0.600   3.919 -0.6335  0.0554  0.4331
18963WAT      O77656   3.306   1.719   8.674  0.9483  1.2158 -0.2736
18963WAT     H177657   3.265   1.795   8.635 -0.3247 -0.8531 -3.4061
18963WAT     H277658   3.239   1.681   8.731  0.7114  1.1958 -0.5616
18963WAT    EPW77659   3.292   1.724   8.677  0.7492  0.9403 -0.7243
18964WAT      O77660   8.879   2.654   2.221  0.1736  0.2423  0.6957
18964WAT     H177661   8.883   2.561   2.201 -0.7674  0.0885  1.1522
18964WAT     H277662   8.788   2.679   2.202 -0.0740  0.6503  2.2412
18964WAT    EPW77663   8.867   2.645   2.216  0.0167  0.2759  0.9598
18965WAT      O77664   7.069   3.324   1.588 -0.2278  0.2324  0.3858
18965WAT     H177665   7.079   3.323   1.683  0.6757  1.1079  0.3196
18965WAT     H277666   6.995   3.382   1.571  0.4813  1.1862  0.5059
18965WAT    EPW77667   7.061   3.331   1.598 -0.0153  0.4736  0.3929
18966WAT      O77668   1.040   9.130   8.227  0.3939  0.5248  0.3413
18966WAT     H177669   0.973   9.168   8.170 -1.6327 -2.1587  0.6926
18966WAT     H277670   1.093   9.076   8.170  0.9316  0.9931  0.3936
18966WAT    EPW77671   1.038   9.128   8.212  0.1976  0.2322  0.3943
18967WAT      O77672   9.609   0.497   2.104  0.5482  0.5001  0.3123
18967WAT     H177673   9.580   0.524   2.191  1.4553 -1.0537  1.1539
18967WAT     H277674   9.553   0.423   2.082  0.5063  0.7132 -0.3108
18967WAT    EPW77675   9.598   0.491   2.113  0.6623  0.3233  0.3411
18968WAT      O77676   7.165   0.436   1.376  0.6589  0.3410 -0.4735
18968WAT     H177677   7.165   0.420   1.282  1.5959  1.9663 -0.8003
18968WAT     H277678   7.096   0.501   1.389 -0.8967 -1.3925  0.3120
18968WAT    EPW77679   7.156   0.443   1.365  0.5774  0.3267 -0.4129
18969WAT      O77680   8.481   3.264   1.624  0.2929 -0.3978  0.9255
18969WAT     H177681   8.540   3.260   1.548  2.0739 -0.1648  2.2388
18969WAT     H277682   8.395   3.279   1.585  1.3915  1.6748 -0.9917
18969WAT    EPW77683   8.478   3.266   1.609  0.6723 -0.0938  0.8459
18970WAT      O77684   8.050   3.531   3.248  0.2646 -0.2041  0.2234
18970WAT     H177685   8.068   3.448   3.291  0.4760 -0.1514  0.2389
18970WAT     H277686   8.118   3.590   3.281 -0.3025  0.1727  0.7708
18970WAT    EPW77687   8.061   3.528   3.258  0.2170 -0.1476  0.2977
18971WAT      O77688   4.191   8.537   8.448 -0.3691  0.5207 -0.0928
18971WAT     H177689   4.184   8.477   8.374  0.1447 -1.0962  1.1394
18971WAT     H277690   4.285   8.548   8.462 -0.4491  0.0680  0.8838
18971WAT    EPW77691   4.202   8.531   8.440 -0.3119  0.2480  0.1984
18972WAT      O77692   9.573   3.786   1.130 -0.4673  0.2171  0.5438
18972WAT     H177693   9.642   3.722   1.146  0.0762  0.9500  1.2320
18972WAT     H277694   9.593   3.821   1.042 -0.4853 -0.2064  0.3701
18972WAT    EPW77695   9.585   3.782   1.120 -0.3982  0.2580  0.6117
18973WAT      O77696   0.924   4.348   3.482 -0.1482 -0.1900 -0.4382
18973WAT     H177697   0.986   4.421   3.474 -1.4479  0.8979 -0.8545
18973WAT     H277698   0.861   4.362   3.412 -0.1246 -2.0442 -0.8730
18973WAT    EPW77699   0.924   4.360   3.472 -0.3165 -0.2906 -0.5505
18974WAT      O77700   8.157   0.578   5.191 -0.4870 -0.3428  0.1749
18974WAT     H177701   8.126   0.643   5.253  0.6081  0.6094 -0.2537
18974WAT     H277702   8.237   0.615   5.154 -0.4435 -1.4321 -0.9025
18974WAT    EPW77703   8.163   0.591   5.194 -0.3366 -0.3609 -0.0238
18975WAT      O77704   7.962   7.145   0.993 -0.2231  0.4982  0.3021
18975WAT     H177705   7.950   7.219   1.053  2.3166  1.7979 -0.6799
18975WAT     H277706   7.985   7.072   1.050  3.5091  2.0251  0.9921
18975WAT    EPW77707   7.963   7.145   1.008  0.6044  0.8709  0.2636
18976WAT      O77708  10.869   3.611   8.238  0.5195  0.2083  0.0173
18976WAT     H177709  10.791   3.565   8.207 -0.8602  1.1477  1.9162
18976WAT     H277710  10.899   3.560   8.313  2.8928 -1.1638 -1.7388
18976WAT    EPW77711  10.862   3.598   8.244  0.6509  0.1514  0.0362
18977WAT      O77712   7.884   2.942   0.160  0.2971  0.2924  0.7481
18977WAT     H177713   7.959   2.961   0.217  0.1364 -1.9727  1.8297
18977WAT     H277714   7.841   2.868   0.201 -2.4745  1.3778  0.0320
18977WAT    EPW77715   7.888   2.935   0.173 -0.0896  0.1369  0.7963
18978WAT      O77716  10.948   4.704   2.331  0.0179  0.1301  0.0232
18978WAT     H177717  11.019   4.746   2.282  2.9551 -3.5385  0.7138
18978WAT     H277718  10.991   4.663   2.406 -3.2072 -0.6618  1.6514
18978WAT    EPW77719  10.963   4.704   2.334 -0.0200 -0.4585  0.3291
18979WAT      O77720   8.177   4.655   3.470  0.0474  0.9268  0.1237
18979WAT     H177721   8.086   4.682   3.482 -0.4948 -0.0547 -1.5444
18979WAT     H277722   8.199   4.683   3.382 -0.1730 -2.7752 -1.2755
18979WAT    EPW77723   8.168   4.662   3.460 -0.0529  0.3090 -0.2807
18980WAT      O77724   7.873   5.704   3.060 -0.2080 -0.0486  0.4299
18980WAT     H177725   7.907   5.623   3.021  1.5875  1.8286 -2.2686
18980WAT     H277726   7.912   5.774   3.008 -2.7947  2.5752  1.7198
18980WAT    EPW77727   7.883   5.703   3.048 -0.3123  0.5453  0.2439
18981WAT      O77728   9.226   0.783   3.950  0.6155 -0.0498  0.1695
18981WAT     H177729   9.229   0.688   3.941 -1.5282 -0.3696  1.9324
18981WAT     H277730   9.204   0.798   4.042  0.3607  2.1385 -0.1945
18981WAT    EPW77731   9.223   0.772   3.961  0.2995  0.1966  0.3539
18982WAT      O77732   7.656   6.485   2.819 -0.0025  0.4654 -0.0707
18982WAT     H177733   7.592   6.513   2.754  0.3426  0.1864 -0.5369
18982WAT     H277734   7.614   6.410   2.862 -0.9350  1.6402  1.1941
18982WAT    EPW77735   7.642   6.479   2.816 -0.0799  0.5834  0.0346
18983WAT      O77736   3.696   9.138   8.804  0.2564 -0.0957  0.1708
18983WAT     H177737   3.788   9.157   8.824  0.5881 -1.3779 -0.0273
18983WAT     H277738   3.660   9.221   8.773  1.5644  0.2327 -0.5400
18983WAT    EPW77739   3.704   9.151   8.803  0.4727 -0.2213  0.0515
18984WAT      O77740   2.251   9.216   7.792  0.0680 -0.5864 -0.0964
18984WAT     H177741   2.244   9.308   7.817 -1.3733 -1.0945  1.6420
18984WAT     H277742   2.165   9.195   7.754  0.1147 -1.3852  0.2255
18984WAT    EPW77743   2.238   9.225   7.791 -0.1160 -0.7586  0.1755
18985WAT      O77744   1.268   6.720   6.425 -0.0208  0.3744 -0.4718
18985WAT     H177745   1.330   6.649   6.441  0.4002  1.5027  4.7126
18985WAT     H277746   1.323   6.794   6.397  0.1901 -0.0288 -1.1436
18985WAT    EPW77747   1.283   6.721   6.424  0.0625  0.4702  0.1235
18986WAT      O77748   2.420   9.578   0.271  0.4497  0.2153  0.8868
18986WAT     H177749   2.406   9.497   0.320 -1.0436 -0.7441 -0.9943
18986WAT     H277750   2.352   9.637   0.302  0.1701 -0.0211  0.7298
18986WAT    EPW77751   2.409   9.575   0.281  0.2159  0.0582  0.6180
18987WAT      O77752   7.460   6.490   0.332 -0.6937  0.1847  0.3518
18987WAT     H177753   7.414   6.482   0.249 -2.5998  1.7706  1.1725
18987WAT     H277754   7.396   6.460   0.397  0.5008 -0.3306  1.3284
18987WAT    EPW77755   7.445   6.485   0.330 -0.7875  0.3259  0.5888
18988WAT      O77756   9.173   4.832   2.629 -0.5882  0.3170  0.5034
18988WAT     H177757   9.108   4.903   2.629 -1.0642 -0.0553 -1.9532
18988WAT     H277758   9.194   4.818   2.537  0.3932 -1.9615  1.0104
18988WAT    EPW77759   9.167   4.840   2.617 -0.5217 -0.0324  0.2463
18989WAT      O77760   9.896   3.890   0.485 -0.0600 -0.2118  0.1434
18989WAT     H177761   9.860   3.866   0.400 -1.0731  0.8021  0.2549
18989WAT     H277762   9.831   3.950   0.522  0.0688 -1.0516  1.8738
18989WAT    EPW77763   9.882   3.895   0.479 -0.1769 -0.1889  0.3864
18990WAT      O77764   6.098   3.336   3.147  0.5159  0.9180 -0.6247
18990WAT     H177765   6.174   3.321   3.203  0.9479 -2.6046 -1.9713
18990WAT     H277766   6.023   3.325   3.206  0.9698 -2.2380 -0.5065
18990WAT    EPW77767   6.098   3.333   3.162  0.6328  0.0372 -0.7868
18991WAT      O77768   8.486   3.578   3.842 -0.8975  0.5886  0.2880
18991WAT     H177769   8.476   3.608   3.752  0.3859 -0.6219 -0.2853
18991WAT     H277770   8.440   3.495   3.845  1.8383 -1.0736 -0.2409
18991WAT    EPW77771   8.479   3.571   3.831 -0.3676  0.2096  0.1426
18992WAT      O77772   4.201   0.639   2.151 -0.7109  0.1882  0.1086
18992WAT     H177773   4.161   0.562   2.190 -1.5977  2.2672  3.7779
18992WAT     H277774   4.295   0.628   2.167 -0.4784 -1.2925 -1.9014
18992WAT    EPW77775   4.208   0.628   2.158 -0.7973  0.2671  0.3275
18993WAT      O77776   0.936   5.382   1.570 -0.4052  0.3103 -0.3503
18993WAT     H177777   1.011   5.435   1.597 -1.7199  0.4285  3.8084
18993WAT     H277778   0.971   5.294   1.558  0.7611  0.8380 -0.9930
18993WAT    EPW77779   0.950   5.378   1.572 -0.4248  0.3953  0.1135
18994WAT      O77780   1.924   4.621   8.580  0.1343 -0.3471  0.5281
18994WAT     H177781   1.838   4.656   8.604 -0.3419 -1.6080  0.7432
18994WAT     H277782   1.928   4.536   8.625  1.0623 -0.7628 -0.3055
18994WAT    EPW77783   1.913   4.614   8.589  0.1939 -0.5684  0.4468
18995WAT      O77784   0.442   8.504   8.593  0.1566  0.2054 -0.2503
18995WAT     H177785   0.512   8.511   8.658 -0.0633  2.8607 -0.1911
18995WAT     H277786   0.428   8.410   8.583  3.8001 -0.4779 -0.3794
18995WAT    EPW77787   0.450   8.493   8.600  0.6082  0.4649 -0.2599
18996WAT      O77788   9.033   3.885   3.725 -0.6827 -0.5700  0.3338
18996WAT     H177789   9.032   3.963   3.670 -0.8471  0.0764  1.2241
18996WAT     H277790   9.084   3.912   3.802 -0.7168 -1.3535  0.6320
18996WAT    EPW77791   9.040   3.899   3.728 -0.7091 -0.5878  0.4905
18997WAT      O77792   9.680   5.718   2.745 -0.1813 -0.3357  0.1025
18997WAT     H177793   9.763   5.739   2.703 -1.2329  2.0255 -0.9465
18997WAT     H277794   9.615   5.720   2.675 -1.2355 -1.6480  0.9785
18997WAT    EPW77795   9.682   5.721   2.730 -0.4592 -0.1972  0.0798
18998WAT      O77796  10.171   3.905   2.977 -0.3452  0.5525 -0.0877
18998WAT     H177797  10.267   3.906   2.979 -0.2599 -1.2833 -1.0297
18998WAT     H277798  10.145   3.920   3.068  0.8449  0.5246  0.2827
18998WAT    EPW77799  10.180   3.907   2.989 -0.1764  0.3067 -0.1630
18999WAT      O77800   6.663   3.939   3.566 -0.1067  0.1257 -0.5802
18999WAT     H177801   6.576   3.957   3.530 -0.0075 -2.2149 -2.2354
18999WAT     H277802   6.723   3.984   3.506 -0.1149  0.6036 -0.2346
18999WAT    EPW77803   6.660   3.947   3.553 -0.0947 -0.1200 -0.7530
19000WAT      O77804   0.621   2.159   1.475  0.0811 -0.1841 -0.6177
19000WAT     H177805   0.710   2.128   1.463 -0.0115 -1.8454  2.0860
19000WAT     H277806   0.568   2.104   1.416  0.7230  0.2313 -1.5973
19000WAT    EPW77807   0.626   2.148   1.466  0.1535 -0.3483 -0.3902
19001WAT      O77808   3.821   1.202   8.622  0.2000 -0.8772  0.5840
19001WAT     H177809   3.733   1.185   8.655  0.1091 -0.5839  0.4947
19001WAT     H277810   3.809   1.213   8.527  0.1623  0.2491  0.7007
19001WAT    EPW77811   3.808   1.202   8.614  0.1830 -0.6900  0.5875
19002WAT      O77812   7.852   2.401   2.137  0.1381 -0.1765  0.5020
19002WAT     H177813   7.797   2.373   2.064  0.8038 -2.5383  0.8278
19002WAT     H277814   7.800   2.468   2.182 -1.8514 -1.3074 -0.0011
19002WAT    EPW77815   7.838   2.406   2.134 -0.0367 -0.6372  0.4786
19003WAT      O77816   5.224   4.707   0.672 -0.6373 -0.0143 -0.3233
19003WAT     H177817   5.153   4.652   0.704 -0.0783 -0.6287 -0.1190
19003WAT     H277818   5.260   4.749   0.750 -0.4162 -0.1354 -0.3602
19003WAT    EPW77819   5.219   4.705   0.686 -0.5345 -0.1113 -0.3012
19004WAT      O77820   2.296   7.759   8.592 -0.2581  1.3145 -0.8782
19004WAT     H177821   2.290   7.816   8.515 -0.5329  0.9096 -1.1559
19004WAT     H277822   2.304   7.671   8.557  2.6912  1.3167 -0.5213
19004WAT    EPW77823   2.296   7.755   8.577  0.0947  1.2615 -0.8678
19005WAT      O77824   4.388   0.764   1.261  0.2317 -0.2200  0.5746
19005WAT     H177825   4.461   0.765   1.199 -0.2117  2.2350 -0.0068
19005WAT     H277826   4.382   0.855   1.292 -1.2534 -0.8263  2.2141
19005WAT    EPW77827   4.397   0.776   1.257 -0.0226  0.0238  0.7141
19006WAT      O77828   8.915   2.609   1.576  0.0439  0.3267  0.5519
19006WAT     H177829   8.878   2.594   1.489  1.2570 -0.4996  0.1517
19006WAT     H277830   9.009   2.599   1.564  0.5676  3.3129  1.3270
19006WAT    EPW77831   8.922   2.606   1.563  0.2732  0.6115  0.6014
19007WAT      O77832   6.526   9.245   2.381  0.3568  0.0437  1.0806
19007WAT     H177833   6.591   9.190   2.424  1.5924  0.4454 -0.2050
19007WAT     H277834   6.575   9.320   2.348 -0.2146 -0.8111 -2.0735
19007WAT    EPW77835   6.541   9.248   2.382  0.4444 -0.0157  0.4950
19008WAT      O77836   0.633   2.018   1.735  0.4664  0.3901  0.5458
19008WAT     H177837   0.655   2.088   1.673  1.8293 -0.0837  0.4491
19008WAT     H277838   0.715   2.000   1.780  0.1241 -1.0898  0.6254
19008WAT    EPW77839   0.647   2.025   1.733  0.6010  0.1323  0.5435
19009WAT      O77840   9.183   7.667   0.932 -0.7739  0.8195  0.0753
19009WAT     H177841   9.122   7.718   0.878 -0.4737  3.4117  1.9953
19009WAT     H277842   9.246   7.731   0.964  1.0804 -1.2231  0.7861
19009WAT    EPW77843   9.183   7.682   0.929 -0.4892  0.8919  0.4223
19010WAT      O77844   9.316   5.192   0.525 -0.4525 -0.6763  0.2972
19010WAT     H177845   9.383   5.201   0.456  0.1770  0.0324  0.9752
19010WAT     H277846   9.353   5.129   0.587 -0.1367  0.1529  0.9709
19010WAT    EPW77847   9.330   5.185   0.524 -0.3276 -0.4735  0.4755
19011WAT      O77848   9.364   3.653   1.309 -0.3574  0.3392 -0.1546
19011WAT     H177849   9.408   3.577   1.350 -3.3887 -1.0887  0.7148
19011WAT     H277850   9.436   3.705   1.274  1.9568 -2.5009 -0.0548
19011WAT    EPW77851   9.380   3.650   1.310 -0.4516 -0.2236 -0.0268
19012WAT      O77852  10.557   1.986   0.586  0.2431  0.3752  0.4345
19012WAT     H177853  10.499   2.049   0.628 -0.4346 -1.2282  2.0310
19012WAT     H277854  10.523   1.978   0.497 -0.3604  1.4042  0.5648
19012WAT    EPW77855  10.545   1.993   0.580  0.0739  0.2995  0.6623
19013WAT      O77856   9.601   2.151   2.568  0.3989 -0.4606 -0.2450
19013WAT     H177857   9.661   2.170   2.640  1.5013 -2.2346 -0.6159
19013WAT     H277858   9.525   2.111   2.609 -0.7790  2.0741  0.2616
19013WAT    EPW77859   9.599   2.148   2.583  0.3891 -0.3603 -0.2271
19014WAT      O77860   6.556   2.482   1.253  0.3589 -0.3593  0.5706
19014WAT     H177861   6.563   2.520   1.165  1.8166  2.9608  1.9316
19014WAT     H277862   6.646   2.463   1.279 -0.0289 -1.1366  1.4318
19014WAT    EPW77863   6.569   2.485   1.245  0.5000 -0.0238  0.8637
19015WAT      O77864   8.162   2.079   3.046  0.2967 -0.4395  0.1040
19015WAT     H177865   8.147   2.155   2.990  0.2351 -1.3934 -1.2129
19015WAT     H277866   8.186   2.116   3.131  3.6918  1.1229 -1.3536
19015WAT    EPW77867   8.163   2.094   3.050  0.7362 -0.3593 -0.2619
19016WAT      O77868   7.062   5.173   0.475 -0.5320 -0.1768 -0.3329
19016WAT     H177869   6.985   5.123   0.505 -1.2258  1.0157 -0.0588
19016WAT     H277870   7.065   5.249   0.533 -0.1031  0.6281 -1.3912
19016WAT    EPW77871   7.052   5.176   0.487 -0.5670  0.0868 -0.4364
19017WAT      O77872   7.090   3.252   2.670  0.2424 -0.3377 -0.0504
19017WAT     H177873   7.124   3.314   2.605 -0.2568 -0.2504 -0.2330
19017WAT     H277874   7.061   3.307   2.742 -0.9283 -0.2881 -0.5408
19017WAT    EPW77875   7.091   3.268   2.671  0.0219 -0.3196 -0.1391
19018WAT      O77876   1.917   8.705   7.381  0.1087 -0.3161 -0.9304
19018WAT     H177877   1.930   8.632   7.441  0.0698  0.1772 -0.3138
19018WAT     H277878   1.836   8.684   7.334  0.4060 -0.9404 -1.1681
19018WAT    EPW77879   1.908   8.693   7.383  0.1428 -0.3333 -0.8802
19019WAT      O77880   8.347   3.545   2.882 -0.4146 -0.2192  0.0439
19019WAT     H177881   8.265   3.587   2.855  0.0905  0.3557 -0.6099
19019WAT     H277882   8.356   3.568   2.974 -1.5445 -1.2146  0.4466
19019WAT    EPW77883   8.337   3.553   2.891 -0.4964 -0.2747  0.0106
19020WAT      O77884   6.989   2.226   2.645 -0.3885 -0.5645  0.4008
19020WAT     H177885   6.894   2.221   2.660 -0.3167 -0.5937  0.8558
19020WAT     H277886   6.997   2.267   2.558 -0.8049  0.7099  0.9357
19020WAT    EPW77887   6.977   2.231   2.635 -0.4337 -0.4002  0.5313
19021WAT      O77888   7.260   4.646   2.131  0.5796 -0.7116  0.4571
19021WAT     H177889   7.260   4.709   2.202  0.0651  1.1421 -1.0876
19021WAT     H277890   7.223   4.566   2.168 -0.5656  0.4986  2.0012
19021WAT    EPW77891   7.255   4.643   2.145  0.3607 -0.3076  0.4569
19022WAT      O77892   1.235   7.865   0.044  0.5384 -0.1581  0.6355
19022WAT     H177893   1.295   7.813  -0.009  1.9504  1.0995  0.9423
19022WAT     H277894   1.209   7.937  -0.013  2.2627  1.3431  1.6653
19022WAT    EPW77895   1.239   7.868   0.030  0.9522  0.2060  0.8117
19023WAT      O77896   4.012   1.445   8.425 -0.3420 -0.4150  0.0695
19023WAT     H177897   3.966   1.480   8.348 -2.9779 -1.2752  1.1409
19023WAT     H277898   4.046   1.361   8.396  1.9284  0.7998 -1.1340
19023WAT    EPW77899   4.010   1.439   8.411 -0.3901 -0.3682  0.0525
19024WAT      O77900   2.060  10.281   1.395 -0.4341  0.4494  0.6826
19024WAT     H177901   2.077  10.369   1.362  1.1703 -0.3480 -0.7903
19024WAT     H277902   1.989  10.292   1.459 -1.1916  2.5911 -0.4488
19024WAT    EPW77903   2.053  10.294   1.399 -0.3223  0.6270  0.3392
19025WAT      O77904   1.100  10.165   8.296  0.2204 -0.0468 -0.0593
19025WAT     H177905   1.069  10.207   8.216  0.7017  2.3204  0.8971
19025WAT     H277906   1.188  10.133   8.274  0.7922  1.5486 -0.2390
19025WAT    EPW77907   1.108  10.166   8.283  0.3594  0.4759  0.0434
19026WAT      O77908   8.981   3.876   1.502  0.7449 -0.1911 -0.4559
19026WAT     H177909   9.024   3.940   1.445  0.7356 -0.9659 -1.3527
19026WAT     H277910   8.888   3.897   1.495  0.8240  0.4020  0.1447
19026WAT    EPW77911   8.974   3.887   1.494  0.7544 -0.2151 -0.4950
19027WAT      O77912   5.489   3.396   1.686 -0.2776  0.0414  0.1197
19027WAT     H177913   5.457   3.464   1.627  2.5462  0.7255 -0.7630
19027WAT     H277914   5.426   3.395   1.758 -2.3038  1.1095 -1.5267
19027WAT    EPW77915   5.476   3.405   1.687 -0.1724  0.2726 -0.2139
19028WAT      O77916  10.392   4.280   2.405 -0.0638 -0.1996  0.0392
19028WAT     H177917  10.381   4.373   2.425 -0.1768 -0.1374 -0.3002
19028WAT     H277918  10.341   4.267   2.324  1.7405 -0.0839 -1.1632
19028WAT    EPW77919  10.384   4.290   2.397  0.1588 -0.1760 -0.1642
19029WAT      O77920   7.908   4.145   2.009  0.2943  0.2323 -0.8544
19029WAT     H177921   7.965   4.107   2.076  0.0464  0.5729 -0.4493
19029WAT     H277922   7.866   4.219   2.052 -2.6431 -1.6377 -0.2006
19029WAT    EPW77923   7.910   4.149   2.023 -0.1259  0.0303 -0.7147
19030WAT      O77924   9.175   5.336   1.256  0.2953  0.3705 -0.0579
19030WAT     H177925   9.267   5.361   1.246 -0.2302  1.8061 -1.7060
19030WAT     H277926   9.178   5.253   1.305  2.5108 -0.2368 -1.1064
19030WAT    EPW77927   9.187   5.328   1.261  0.5188  0.4797 -0.4135
19031WAT      O77928   8.528   4.028   3.278 -0.3583 -0.3813 -0.4929
19031WAT     H177929   8.521   4.023   3.183 -0.9278  1.1382 -0.5646
19031WAT     H277930   8.593   3.962   3.301 -0.2316 -0.7914 -1.9258
19031WAT    EPW77931   8.535   4.018   3.269 -0.4168 -0.2353 -0.6913
19032WAT      O77932   1.878   6.171   7.884 -0.3078 -0.2977  0.1275
19032WAT     H177933   1.796   6.161   7.932 -1.0644  2.7866 -0.2933
19032WAT     H277934   1.854   6.218   7.804  1.4934 -1.9577 -1.5013
19032WAT    EPW77935   1.864   6.176   7.880 -0.1701 -0.1097 -0.1428
19033WAT      O77936   9.260   5.448   2.964 -0.4521  0.2967  0.6326
19033WAT     H177937   9.220   5.495   3.038 -0.2386  2.1814 -0.3692
19033WAT     H277938   9.275   5.517   2.899 -0.1953 -1.2300 -0.9780
19033WAT    EPW77939   9.256   5.464   2.966 -0.3901  0.3440  0.2879
19034WAT      O77940   4.497   6.104   0.009  0.1276  0.2199  0.0018
19034WAT     H177941   4.525   6.183  -0.038  0.6748 -0.8592 -1.5802
19034WAT     H277942   4.517   6.122   0.101  1.4626  1.4008 -0.4810
19034WAT    EPW77943   4.503   6.117   0.015  0.3758  0.2333 -0.2708
19035WAT      O77944   3.206   9.780   3.280 -1.4209 -0.0584  0.7394
19035WAT     H177945   3.203   9.690   3.312 -2.0908 -0.0641  0.6784
19035WAT     H277946   3.126   9.821   3.315 -1.7021  0.1901 -0.1550
19035WAT    EPW77947   3.195   9.774   3.289 -1.5464 -0.0267  0.6133
19036WAT      O77948   1.317   2.476   3.875  0.3308  0.2607 -0.0655
19036WAT     H177949   1.233   2.469   3.922  0.3642  0.5585  0.0453
19036WAT     H277950   1.326   2.570   3.858 -0.6081 -0.0106 -2.3807
19036WAT    EPW77951   1.307   2.488   3.879  0.2114  0.2642 -0.3562
19037WAT      O77952   6.750   8.658   4.221 -0.2749 -0.0988  0.2936
19037WAT     H177953   6.797   8.666   4.304  0.6198 -1.3510 -0.0524
19037WAT     H277954   6.662   8.631   4.246 -0.6540  1.6247  0.9208
19037WAT    EPW77955   6.745   8.655   4.235 -0.2069 -0.0362  0.3309
19038WAT      O77956   1.863   2.310   3.094 -0.0129 -0.2822  0.2053
19038WAT     H177957   1.932   2.370   3.065  0.1646 -0.4327  0.3162
19038WAT     H277958   1.783   2.346   3.056 -0.0083  0.4173  0.8313
19038WAT    EPW77959   1.862   2.323   3.086  0.0111 -0.2097  0.3023
19039WAT      O77960   7.202   4.854   0.737  0.2384  0.1496 -0.5432
19039WAT     H177961   7.167   4.846   0.649 -0.6471  1.1053 -0.2923
19039WAT     H277962   7.280   4.908   0.728  0.3506 -0.0508 -0.7856
19039WAT    EPW77963   7.207   4.860   0.724  0.1366  0.2494 -0.5421
19040WAT      O77964   9.067   4.003   4.028 -0.0922  0.4217 -0.6125
19040WAT     H177965   9.162   4.014   4.031 -0.2312  2.0623 -1.3389
19040WAT     H277966   9.032   4.092   4.030 -1.6069 -0.1421 -0.6862
19040WAT    EPW77967   9.075   4.016   4.028 -0.3109  0.5639 -0.7179
19041WAT      O77968   9.916   2.653   5.325  0.0070 -0.1198  0.1822
19041WAT     H177969   9.892   2.561   5.339 -1.6463  0.5377  2.0835
19041WAT     H277970   9.887   2.672   5.236 -1.2565 -0.9800  0.3798
19041WAT    EPW77971   9.909   2.643   5.315 -0.3777 -0.1466  0.4592
19042WAT      O77972   1.834   8.422   6.873  0.2346 -0.6171 -0.0317
19042WAT     H177973   1.890   8.498   6.892  2.4513 -2.2104  0.2749
19042WAT     H277974   1.765   8.426   6.938  0.5329  0.9109  0.2367
19042WAT    EPW77975   1.832   8.432   6.884  0.5663 -0.6261  0.0439
19043WAT      O77976   9.395   3.285   0.321 -0.4485 -0.0859 -0.2199
19043WAT     H177977   9.398   3.209   0.264 -2.9965  0.8819 -1.8009
19043WAT     H277978   9.312   3.276   0.369 -0.2701  1.1185  0.3641
19043WAT    EPW77979   9.384   3.274   0.320 -0.7615  0.2006 -0.3514
19044WAT      O77980   8.239   3.700   1.194 -0.5039 -0.3418 -0.2865
19044WAT     H177981   8.248   3.671   1.285 -0.2127  0.0801 -0.1751
19044WAT     H277982   8.326   3.685   1.156  0.1790  1.8835  0.2287
19044WAT    EPW77983   8.252   3.694   1.201 -0.3757  0.0075 -0.2039
19045WAT      O77984   8.480   6.598   2.229 -0.0978 -0.4272  0.3708
19045WAT     H177985   8.450   6.533   2.292  1.0728 -0.6379  0.7443
19045WAT     H277986   8.516   6.668   2.283 -1.0446  0.3943 -0.0357
19045WAT    EPW77987   8.481   6.599   2.244 -0.0687 -0.3467  0.3664
19046WAT      O77988   8.025   5.629   1.335 -0.0476  0.3639  0.1445
19046WAT     H177989   7.988   5.709   1.299  0.2877  0.1110 -0.7859
19046WAT     H277990   7.997   5.560   1.276  1.5993  0.1222 -0.4111
19046WAT    EPW77991   8.017   5.631   1.323  0.2131  0.2985 -0.0515
19047WAT      O77992  10.606   3.121   3.540  0.2929  0.0283 -0.4341
19047WAT     H177993  10.631   3.045   3.592 -1.4054  0.4344  1.0785
19047WAT     H277994  10.529   3.093   3.490 -0.9752  0.9810  0.9027
19047WAT    EPW77995  10.599   3.108   3.540 -0.0982  0.2077 -0.0583
19048WAT      O77996   9.730   1.260   1.499  0.4100 -0.3620 -0.2235
19048WAT     H177997   9.659   1.205   1.531  1.1436 -1.0810  0.2096
19048WAT     H277998   9.802   1.199   1.481  1.5734  0.5213  1.1675
19048WAT    EPW77999   9.730   1.245   1.500  0.6599 -0.3403  0.0171
19049WAT      O78000   0.851   3.540   1.998 -0.3908  0.0688  0.4490
19049WAT     H178001   0.856   3.586   2.082  0.9391  0.0556  0.4012
19049WAT     H278002   0.841   3.609   1.933 -1.9185  0.0559  0.6184
19049WAT    EPW78003   0.850   3.555   2.001 -0.4169  0.0654  0.4651
19050WAT      O78004  10.444   9.888   8.268 -0.3912 -0.3616 -0.5483
19050WAT     H178005  10.439   9.852   8.357 -0.5687 -0.0124 -0.4176
19050WAT     H278006  10.424   9.813   8.212 -3.5974  0.1073 -0.2011
19050WAT    EPW78007  10.440   9.873   8.273 -0.8373 -0.2537 -0.4849
19051WAT      O78008   5.687   4.151   3.116  0.3501  0.4835  0.4068
19051WAT     H178009   5.727   4.231   3.082  1.6593  0.3519  1.5595
19051WAT     H278010   5.756   4.086   3.112 -0.8672 -0.7985 -1.0608
19051WAT    EPW78011   5.701   4.153   3.111  0.3624  0.2973  0.3653
19052WAT      O78012   5.765   0.904   8.032 -0.1481 -0.0004  0.2213
19052WAT     H178013   5.744   0.998   8.034 -0.1995  0.0412 -1.0890
19052WAT     H278014   5.721   0.868   8.109 -0.2440  1.0239  0.6699
19052WAT    EPW78015   5.756   0.912   8.042 -0.1678  0.1402  0.1078
19053WAT      O78016   8.592   2.487   6.849  0.6936  0.4979 -0.0166
19053WAT     H178017   8.657   2.527   6.791  0.9685  0.0204 -0.0432
19053WAT     H278018   8.578   2.399   6.813  1.6488 -0.1918  1.2253
19053WAT    EPW78019   8.599   2.481   6.837  0.8559  0.3440  0.1435
19054WAT      O78020   0.004   1.941   4.378  0.8467 -0.3890  0.1221
19054WAT     H178021   0.051   1.944   4.294 -0.8258 -1.7608 -0.9187
19054WAT     H278022  -0.040   1.856   4.377 -0.4221  0.2181  1.7296
19054WAT    EPW78023   0.005   1.930   4.367  0.4587 -0.4898  0.1967
19055WAT      O78024  10.240   1.852   4.092 -0.7218  0.2528  0.0977
19055WAT     H178025  10.298   1.801   4.148 -3.3000 -1.0635  1.7424
19055WAT     H278026  10.265   1.828   4.003  0.5990 -0.9842  0.7690
19055WAT    EPW78027  10.251   1.842   4.087 -0.8874 -0.0840  0.4029
19056WAT      O78028   7.364  10.366   0.850 -0.2805  0.2099  0.5867
19056WAT     H178029   7.321  10.427   0.790  0.6900  1.2723  0.9344
19056WAT     H278030   7.453  10.358   0.815  0.5819  1.5277  2.3018
19056WAT    EPW78031   7.370  10.373   0.837 -0.0386  0.5240  0.8588
19057WAT      O78032   7.965   3.316   3.028  0.0813 -0.3545  0.7655
19057WAT     H178033   8.053   3.297   2.997 -0.6208 -0.1120 -1.5129
19057WAT     H278034   7.969   3.406   3.059  0.8654 -0.7046  1.7592
19057WAT    EPW78035   7.977   3.325   3.028  0.0923 -0.3686  0.5962
19058WAT      O78036   8.516   0.926   2.360 -0.3302 -0.2053  0.1585
19058WAT     H178037   8.504   0.969   2.444  0.0424 -0.9081  0.5798
19058WAT     H278038   8.523   0.998   2.297  2.3498  0.4812  1.1022
19058WAT    EPW78039   8.516   0.941   2.363  0.0725 -0.2075  0.3384
19059WAT      O78040   8.918   5.323   2.128  0.8171 -0.5446 -0.1348
19059WAT     H178041   9.003   5.350   2.094  1.1724  0.5766  1.5838
19059WAT     H278042   8.866   5.403   2.130  0.1582 -0.9679  0.1024
19059WAT    EPW78043   8.922   5.337   2.123  0.7768 -0.4525  0.1233
19060WAT      O78044   0.475   2.651   1.375 -0.4258  0.7418  0.5145
19060WAT     H178045   0.456   2.600   1.296 -0.2509  1.7652 -0.2154
19060WAT     H278046   0.545   2.603   1.418  0.9314  1.2124 -1.0555
19060WAT    EPW78047   0.482   2.638   1.370 -0.2237  0.9389  0.2112
19061WAT      O78048   8.125   2.083   0.036 -0.4040  0.4049  0.0586
19061WAT     H178049   8.200   2.073  -0.023 -1.5521 -0.7362 -1.2773
19061WAT     H278050   8.146   2.027   0.111  1.0047  1.7557  0.7172
19061WAT    EPW78051   8.138   2.074   0.038 -0.3695  0.4325 -0.0308
19062WAT      O78052   3.107   1.940   6.736 -0.2623 -0.2861  0.1581
19062WAT     H178053   3.182   1.985   6.776  1.0012 -0.5254 -1.8040
19062WAT     H278054   3.106   1.971   6.645 -1.7002 -1.3633 -0.2331
19062WAT    EPW78055   3.117   1.950   6.729 -0.2853 -0.4598 -0.1523
19063WAT      O78056   6.365   8.744   5.585 -0.1490  0.3502  0.2796
19063WAT     H178057   6.426   8.678   5.616 -0.6003  0.9568  2.6356
19063WAT     H278058   6.278   8.708   5.604 -0.4993  0.3687 -1.1697
19063WAT    EPW78059   6.362   8.731   5.592 -0.2546  0.4325  0.3991
19064WAT      O78060   9.266   2.444   0.528  0.4498  0.4333  0.2314
19064WAT     H178061   9.285   2.537   0.523  5.5059 -0.3598  0.0429
19064WAT     H278062   9.262   2.415   0.437 -0.0022  0.2669  0.3012
19064WAT    EPW78063   9.268   2.452   0.515  1.0571  0.3068  0.2158
19065WAT      O78064   8.994   4.267   3.028  0.5533  0.4500  0.3335
19065WAT     H178065   8.950   4.256   2.944  1.1561  2.3239 -0.2671
19065WAT     H278066   9.046   4.187   3.037  1.1623  0.5796 -1.5125
19065WAT    EPW78067   8.995   4.255   3.018  0.7138  0.7143  0.0107
19066WAT      O78068   4.084  10.278   1.748 -0.2098 -0.0221 -0.3990
19066WAT     H178069   4.126  10.216   1.687 -0.5835 -0.9490  0.2565
19066WAT     H278070   4.062  10.224   1.824  0.7834  1.2406  0.8203
19066WAT    EPW78071   4.087  10.263   1.750 -0.1280  0.0224 -0.1516
19067WAT      O78072   6.164   2.110   4.245 -0.0929  0.2269 -0.3051
19067WAT     H178073   6.093   2.159   4.286  0.0909 -0.1087  0.4259
19067WAT     H278074   6.120   2.052   4.182 -0.4772 -0.0585  0.2214
19067WAT    EPW78075   6.149   2.109   4.242 -0.1194  0.1451 -0.1395
19068WAT      O78076   7.073   2.369   3.514 -0.6420  0.6416 -0.4231
19068WAT     H178077   7.041   2.280   3.504 -0.1892  0.3258  0.7354
19068WAT     H278078   7.033   2.400   3.596  1.3981  0.4753  0.7063
19068WAT    EPW78079   7.063   2.362   3.524 -0.3130  0.5780 -0.1214
19069WAT      O78080  10.680   3.677   1.082 -0.0762 -0.1522  0.3169
19069WAT     H178081  10.622   3.744   1.120  1.9527  0.7441  2.0556
19069WAT     H278082  10.658   3.597   1.128 -2.0823 -0.6335 -1.3261
19069WAT    EPW78083  10.670   3.676   1.093 -0.0730 -0.0975  0.3296
19070WAT      O78084   6.670   1.709   0.379  0.2342 -0.4834 -0.0594
19070WAT     H178085   6.729   1.639   0.408 -1.3126 -1.5892  0.5698
19070WAT     H278086   6.664   1.768   0.454  1.0989  0.0319 -0.3878
19070WAT    EPW78087   6.677   1.707   0.393  0.1442 -0.5612 -0.0198
19071WAT      O78088  10.995   3.049   3.616  0.0306 -0.6103  0.3693
19071WAT     H178089  11.041   3.007   3.543  0.0371 -0.0413  0.0364
19071WAT     H278090  10.955   3.127   3.577 -0.5278 -0.6580  0.8328
19071WAT    EPW78091  10.996   3.054   3.601 -0.0422 -0.5414  0.3865
19072WAT      O78092   8.552   4.187   1.599 -0.0855 -0.0245 -0.3827
19072WAT     H178093   8.612   4.253   1.635  1.2248 -1.7280  0.7513
19072WAT     H278094   8.544   4.122   1.669 -2.6380 -0.2985 -0.8332
19072WAT    EPW78095   8.559   4.187   1.613 -0.2494 -0.2851 -0.2926
19073WAT      O78096   0.146   0.305   0.660  0.0452  0.4790  0.1026
19073WAT     H178097   0.179   0.394   0.677  1.0079  0.4580 -1.5028
19073WAT     H278098   0.059   0.319   0.623  1.5585  1.0845 -3.7246
19073WAT    EPW78099   0.139   0.319   0.657  0.3718  0.5561 -0.6140
19074WAT      O78100   0.542   4.035   1.872 -0.2667  0.2290 -0.3771
19074WAT     H178101   0.523   4.114   1.923 -0.0680 -0.2853  0.5171
19074WAT     H278102   0.637   4.033   1.867 -0.2667 -0.0531 -0.2439
19074WAT    EPW78103   0.552   4.045   1.878 -0.2405  0.1237 -0.2415
19075WAT      O78104   3.572  10.026   4.537  0.5011 -0.2683  0.0359
19075WAT     H178105   3.638   9.957   4.536  1.3029  0.4789  0.2211
19075WAT     H278106   3.596  10.082   4.611 -0.9639 -0.5531  0.7756
19075WAT    EPW78107   3.584  10.024   4.547  0.4135 -0.2069  0.1578
19076WAT      O78108  10.024   2.361   5.077 -0.3368  0.3908 -0.0587
19076WAT     H178109   9.977   2.325   5.001 -0.0053 -0.4434  0.1202
19076WAT     H278110   9.987   2.314   5.152 -0.1262  0.6647  0.2180
19076WAT    EPW78111  10.013   2.350   5.077 -0.2656  0.3169  0.0014
19077WAT      O78112   1.641   7.096   8.344 -0.4947 -0.0449  0.3450
19077WAT     H178113   1.611   7.186   8.330  1.0182  0.6132  1.0163
19077WAT     H278114   1.631   7.053   8.259 -0.0930  1.1309 -0.3193
19077WAT    EPW78115   1.636   7.102   8.331 -0.2421  0.1969  0.3457
19078WAT      O78116   0.306   0.615   3.107  0.2545  0.5503  0.6691
19078WAT     H178117   0.346   0.539   3.150  0.1014  0.4461  0.6300
19078WAT     H278118   0.243   0.649   3.172 -0.4211  0.0249  0.3041
19078WAT    EPW78119   0.303   0.609   3.122  0.1452  0.4673  0.6160
19079WAT      O78120   4.614   2.209   7.653  0.2791 -0.2751 -0.9408
19079WAT     H178121   4.662   2.291   7.653 -0.8900  0.4265 -1.0112
19079WAT     H278122   4.646   2.162   7.730 -0.4241  1.0929  0.2430
19079WAT    EPW78123   4.624   2.213   7.663  0.0319 -0.0021 -0.7939
19080WAT      O78124   9.095   6.139   4.717 -0.8017  0.5744 -0.2508
19080WAT     H178125   9.024   6.191   4.680 -0.9186  0.4079 -0.2619
19080WAT     H278126   9.173   6.170   4.673 -0.6501  1.8102  0.8185
19080WAT    EPW78127   9.096   6.150   4.706 -0.7973  0.7155 -0.1109
19081WAT      O78128  10.196   0.848   1.203  0.0546 -0.3941  0.1735
19081WAT     H178129  10.281   0.818   1.169  1.0815  1.2240  1.1731
19081WAT     H278130  10.208   0.852   1.298 -0.4395  1.8011  0.1913
19081WAT    EPW78131  10.209   0.845   1.211  0.1249  0.1088  0.3077
19082WAT      O78132  10.980   4.669   5.386 -0.2706  0.0532 -0.4226
19082WAT     H178133  10.972   4.764   5.396  0.3050  0.2627 -1.6994
19082WAT     H278134  11.066   4.657   5.345  0.1294 -1.1098  0.6891
19082WAT    EPW78135  10.991   4.680   5.382 -0.1420 -0.0725 -0.4442
19083WAT      O78136   0.310   1.545   1.281  0.0631  0.8445  0.2288
19083WAT     H178137   0.275   1.609   1.219 -0.8556 -1.0469 -1.2836
19083WAT     H278138   0.385   1.507   1.235  0.1502  0.3030  0.8138
19083WAT    EPW78139   0.316   1.549   1.267 -0.0466  0.5236  0.1065
19084WAT      O78140   9.388   3.623   2.241  0.0769 -0.3227  0.3836
19084WAT     H178141   9.310   3.673   2.218 -0.2107 -0.3745  1.2348
19084WAT     H278142   9.380   3.606   2.334 -0.3618 -2.8963 -0.0511
19084WAT    EPW78143   9.377   3.628   2.250 -0.0191 -0.6689  0.4387
19085WAT      O78144   4.879   2.044   0.725  0.4027 -0.0372  0.2018
19085WAT     H178145   4.972   2.062   0.738  0.3120  0.0045  0.8405
19085WAT     H278146   4.867   2.045   0.630  1.1888 -0.7317  0.0829
19085WAT    EPW78147   4.890   2.046   0.714  0.4945 -0.1233  0.2703
19086WAT      O78148   6.698   3.225   2.435 -0.1746  0.1072  0.2515
19086WAT     H178149   6.725   3.259   2.350  0.9798 -0.0609  0.5344
19086WAT     H278150   6.602   3.232   2.434 -0.5218 -2.7602 -2.2907
19086WAT    EPW78151   6.689   3.231   2.424 -0.0679 -0.2933 -0.0466
19087WAT      O78152   8.048   2.438   0.542 -0.4590  0.6998  0.2244
19087WAT     H178153   8.001   2.448   0.460 -0.1317  0.6124  0.0233
19087WAT     H278154   8.130   2.395   0.518 -1.0784 -0.8885  0.8196
19087WAT    EPW78155   8.052   2.434   0.528 -0.4983  0.4789  0.2764
19088WAT      O78156   5.338   4.643   0.104 -0.1662  0.5053 -0.7705
19088WAT     H178157   5.287   4.629   0.183  0.7624  3.4508  0.4736
19088WAT     H278158   5.274   4.668   0.038 -0.5758  4.9032  0.9517
19088WAT    EPW78159   5.323   4.644   0.106 -0.0978  1.4737 -0.3793
19089WAT      O78160  10.875   3.161   2.170 -0.3126  0.8579 -0.4130
19089WAT     H178161  10.965   3.176   2.143  0.4826 -1.5270  0.6493
19089WAT     H278162  10.844   3.090   2.115 -1.2667  1.0738 -0.1834
19089WAT    EPW78163  10.883   3.154   2.159 -0.3338  0.5718 -0.2426
19090WAT      O78164   7.025   3.073   3.431 -0.0520 -0.3046 -0.3729
19090WAT     H178165   7.054   3.011   3.364 -0.3201  1.7152 -2.5201
19090WAT     H278166   6.939   3.040   3.458 -1.4320  0.3695 -3.4181
19090WAT    EPW78167   7.017   3.060   3.426 -0.2697  0.0507 -1.0577
19091WAT      O78168   1.094   1.297   0.440 -0.1808 -0.0367 -0.4207
19091WAT     H178169   1.153   1.372   0.435  0.6399 -0.6861 -0.7861
19091WAT     H278170   1.109   1.261   0.528 -1.5591  0.9799  0.2788
19091WAT    EPW78171   1.104   1.302   0.451 -0.2543  0.0116 -0.3767
19092WAT      O78172   8.464   2.290   3.550 -0.3525  0.0990 -0.3038
19092WAT     H178173   8.488   2.222   3.488  0.4258  0.7596 -0.7330
19092WAT     H278174   8.537   2.351   3.550 -2.2247  2.5530 -2.1829
19092WAT    EPW78175   8.477   2.289   3.542 -0.4964  0.5097 -0.6082
19093WAT      O78176   9.144   0.654   0.760  0.4483 -0.6426 -0.5379
19093WAT     H178177   9.132   0.607   0.677 -0.4462  0.2922 -0.9658
19093WAT     H278178   9.087   0.731   0.752  1.3447  0.1529  0.4214
19093WAT    EPW78179   9.135   0.658   0.748  0.4487 -0.4144 -0.4678
19094WAT      O78180   9.532   0.633   2.334 -0.3275 -1.0152 -0.8094
19094WAT     H178181   9.496   0.716   2.304  2.2663 -0.2388 -2.0540
19094WAT     H278182   9.547   0.645   2.428 -1.7104 -0.8040 -0.5982
19094WAT    EPW78183   9.529   0.645   2.342 -0.1678 -0.8849 -0.9458
19095WAT      O78184   6.657   2.581   0.713  0.1389 -0.3701  0.3706
19095WAT     H178185   6.644   2.663   0.761  1.4837  0.8875 -1.2691
19095WAT     H278186   6.750   2.560   0.726  0.6022  0.1237 -1.7117
19095WAT    EPW78187   6.668   2.589   0.721  0.3774 -0.1390 -0.1203
19096WAT      O78188   6.742   3.462   3.556  0.2416 -0.3497 -0.7287
19096WAT     H178189   6.800   3.535   3.534 -0.0217 -0.3641 -1.4971
19096WAT     H278190   6.739   3.462   3.652  3.5050 -1.9275 -0.5075
19096WAT    EPW78191   6.749   3.472   3.566  0.6373 -0.5597 -0.8008
19097WAT      O78192   6.998   2.278   0.609 -0.1809 -0.5949  0.0251
19097WAT     H178193   6.977   2.368   0.636 -1.9847 -0.5006 -1.4993
19097WAT     H278194   7.048   2.242   0.683 -0.1206  1.3817  1.0208
19097WAT    EPW78195   7.002   2.285   0.623 -0.4110 -0.3217 -0.0447
19098WAT      O78196   6.828   3.907   4.747  0.6246  0.8306  0.4094
19098WAT     H178197   6.886   3.976   4.716  0.1466  1.2640  0.4552
19098WAT     H278198   6.750   3.915   4.692  1.5629 -1.3760 -1.3568
19098WAT    EPW78199   6.825   3.917   4.736  0.6855  0.5966  0.1829
19099WAT      O78200   6.789   2.950   1.906 -0.2347 -0.2885  0.0945
19099WAT     H178201   6.827   2.870   1.869  1.1593  1.6981 -3.2695
19099WAT     H278202   6.707   2.921   1.945  0.7449 -3.5080  0.1184
19099WAT    EPW78203   6.783   2.936   1.906  0.0784 -0.4511 -0.3461
19100WAT      O78204   0.239   0.134   2.063  0.4185 -0.6771  0.1106
19100WAT     H178205   0.272   0.048   2.039  0.0366 -0.1284 -2.7497
19100WAT     H278206   0.144   0.126   2.060  0.2458  0.5728 -4.0091
19100WAT    EPW78207   0.231   0.122   2.060  0.3453 -0.4399 -0.8101
19101WAT      O78208   4.711   1.831   8.326  0.4649 -0.1138  0.0371
19101WAT     H178209   4.712   1.925   8.307  1.0747 -0.2414 -0.6226
19101WAT     H278210   4.797   1.800   8.297 -0.1842 -1.0932 -0.9411
19101WAT    EPW78211   4.723   1.839   8.320  0.4594 -0.2599 -0.1788
19102WAT      O78212   7.359   0.820   2.010  0.6720 -0.7479  0.5910
19102WAT     H178213   7.432   0.811   2.071  1.0486  1.5540  0.5590
19102WAT     H278214   7.378   0.901   1.962 -2.8619  1.1172  1.9732
19102WAT    EPW78215   7.371   0.829   2.012  0.2556 -0.1983  0.7691
19103WAT      O78216  10.442   5.880   1.517  0.2913 -0.2272 -0.6210
19103WAT     H178217  10.425   5.846   1.605  0.0943  0.1035 -0.5292
19103WAT     H278218  10.537   5.877   1.509  0.2678 -0.9479 -0.6773
19103WAT    EPW78219  10.452   5.875   1.528  0.2623 -0.2789 -0.6163
19104WAT      O78220   8.420   3.057   1.779  0.0075  0.4635  0.3229
19104WAT     H178221   8.452   3.135   1.734  1.1375  1.5253  2.7934
19104WAT     H278222   8.468   2.985   1.739  1.7740  1.4898  0.4986
19104WAT    EPW78223   8.431   3.058   1.768  0.3896  0.7390  0.6719
19105WAT      O78224   9.475   3.618   0.483  0.2446  0.3493  0.3859
19105WAT     H178225   9.510   3.529   0.492  2.1896  0.8771 -1.0751
19105WAT     H278226   9.537   3.673   0.531 -1.3507  0.8980  1.9202
19105WAT    EPW78227   9.488   3.614   0.491  0.2904  0.4914  0.3956
19106WAT      O78228   8.619   4.479   2.131  0.5016 -0.4780 -0.0750
19106WAT     H178229   8.619   4.560   2.080  0.7298 -0.8368 -0.6644
19106WAT     H278230   8.588   4.505   2.218 -0.9741 -0.0397 -0.6896
19106WAT    EPW78231   8.615   4.493   2.136  0.3371 -0.4673 -0.2339
19107WAT      O78232   8.467   4.008   1.036 -0.1019  0.2820 -0.8544
19107WAT     H178233   8.424   4.017   0.951 -2.8321  1.6505  0.5176
19107WAT     H278234   8.420   3.937   1.080 -0.4982  1.2671  0.3937
19107WAT    EPW78235   8.455   4.000   1.031 -0.5140  0.5922 -0.5088
19108WAT      O78236   6.682   1.172   0.191  0.1652  0.2753 -0.9730
19108WAT     H178237   6.621   1.157   0.262  2.3775  1.1330  1.2435
19108WAT     H278238   6.668   1.263   0.166  0.7792  0.5946 -0.1855
19108WAT    EPW78239   6.672   1.182   0.197  0.5381  0.4306 -0.5767
19109WAT      O78240   8.874   5.294   2.998 -0.3068  0.0956 -0.2097
19109WAT     H178241   8.811   5.265   3.064 -1.1631 -0.8944 -1.4112
19109WAT     H278242   8.830   5.366   2.952  0.0326  0.3710 -0.1103
19109WAT    EPW78243   8.860   5.300   3.000 -0.3753  0.0014 -0.3551
19110WAT      O78244   9.064   2.606   4.695 -0.2396  0.3245  0.5605
19110WAT     H178245   9.106   2.521   4.711  0.4341  0.2659 -1.2138
19110WAT     H278246   8.995   2.587   4.632 -1.2943  0.8346  1.5291
19110WAT    EPW78247   9.061   2.592   4.689 -0.2890  0.3841  0.4544
19111WAT      O78248  10.818   5.475   0.268  0.2759  0.1577 -0.0115
19111WAT     H178249  10.866   5.532   0.329  0.7681 -2.0152  1.7938
19111WAT     H278250  10.730   5.468   0.306 -0.5803  1.6246 -1.5936
19111WAT    EPW78251  10.813   5.482   0.281  0.2279  0.0648  0.0179
19112WAT      O78252   6.943   6.255   2.221  0.1405 -0.8644 -0.1362
19112WAT     H178253   6.853   6.278   2.199  0.0766  1.7672  2.2903
19112WAT     H278254   6.941   6.160   2.234 -2.7271 -0.6837  1.4801
19112WAT    EPW78255   6.931   6.245   2.220 -0.2460 -0.4935  0.3970
19113WAT      O78256   5.312   3.417   1.918  0.2897 -0.4161 -0.4281
19113WAT     H178257   5.247   3.481   1.945  1.5906  0.6506  0.3044
19113WAT     H278258   5.292   3.339   1.971 -2.7409 -1.5722 -2.9534
19113WAT    EPW78259   5.301   3.415   1.929  0.0615 -0.4280 -0.6645
19114WAT      O78260   7.557   3.934   2.434  0.0359  0.0398  0.3885
19114WAT     H178261   7.508   3.856   2.408  0.2638 -1.2702  3.5709
19114WAT     H278262   7.491   4.004   2.436 -0.5014 -0.3979 -0.8359
19114WAT    EPW78263   7.541   3.933   2.431 -0.0050 -0.1907  0.6469
19115WAT      O78264   7.745   5.911   1.998 -0.0092  0.3712  1.1315
19115WAT     H178265   7.802   5.874   2.065  0.3133  1.6614  1.6025
19115WAT     H278266   7.802   5.928   1.923 -0.2830 -0.6612  0.6744
19115WAT    EPW78267   7.760   5.909   1.997 -0.0024  0.4053  1.1334
19116WAT      O78268   5.245   9.948   0.615  0.1838 -0.7628 -0.0041
19116WAT     H178269   5.213   9.858   0.616 -0.5384 -0.5204 -0.4390
19116WAT     H278270   5.325   9.946   0.668 -1.5718 -1.0003  2.8284
19116WAT    EPW78271   5.252   9.936   0.622 -0.1428 -0.7615  0.3121
19117WAT      O78272   5.405   0.235   8.394 -0.6550  0.2765  0.1772
19117WAT     H178273   5.400   0.244   8.489 -0.7487 -0.8664  0.2952
19117WAT     H278274   5.495   0.258   8.373  0.5576 -3.0474  1.0344
19117WAT    EPW78275   5.416   0.239   8.404 -0.5074 -0.3126  0.3057
19118WAT      O78276   7.378   2.350   2.360 -0.6178  0.6609 -0.5775
19118WAT     H178277   7.305   2.386   2.410 -2.0453  0.6175 -2.5143
19118WAT     H278278   7.413   2.424   2.312 -0.5693  0.3501 -1.0310
19118WAT    EPW78279   7.373   2.364   2.360 -0.7994  0.6142 -0.8928
19119WAT      O78280   5.839   9.142   3.347 -0.2197  0.6236  0.3160
19119WAT     H178281   5.915   9.196   3.329  1.0050 -1.5839 -1.5783
19119WAT     H278282   5.873   9.066   3.393 -1.6597  0.6757  1.5471
19119WAT    EPW78283   5.853   9.140   3.351 -0.2482  0.3395  0.2286
19120WAT      O78284   0.128   2.519   2.111 -0.0263 -1.1423 -0.6280
19120WAT     H178285   0.055   2.578   2.093  1.3017  0.7194 -0.1859
19120WAT     H278286   0.116   2.493   2.202  0.2045 -0.2749 -0.3348
19120WAT    EPW78287   0.117   2.523   2.121  0.1793 -0.7825 -0.5310
19121WAT      O78288   8.626   4.248   1.093  0.2880  0.4573  0.2321
19121WAT     H178289   8.573   4.194   1.035 -0.0834  1.2327 -0.1624
19121WAT     H278290   8.685   4.296   1.035 -1.0038  2.2665  0.3205
19121WAT    EPW78291   8.627   4.247   1.078  0.0682  0.7982  0.1917
19122WAT      O78292   9.965   0.616   3.107 -0.3613 -0.7523 -0.0357
19122WAT     H178293  10.002   0.647   3.024  0.2737 -2.6862 -0.5377
19122WAT     H278294  10.032   0.557   3.142 -1.0349 -0.6989  1.3917
19122WAT    EPW78295   9.979   0.612   3.100 -0.3662 -1.0004  0.0864
19123WAT      O78296   7.731   3.157   4.276 -0.2816 -0.2136  0.5090
19123WAT     H178297   7.690   3.113   4.202 -0.1548 -0.4635  0.5877
19123WAT     H278298   7.812   3.108   4.292  1.4130  1.7773 -1.2903
19123WAT    EPW78299   7.737   3.145   4.268 -0.0412  0.0161  0.2823
19124WAT      O78300   5.684   7.205   1.545  1.0455 -0.1128  0.3420
19124WAT     H178301   5.730   7.244   1.471 -0.9482  0.7939 -0.4985
19124WAT     H278302   5.645   7.125   1.509 -1.7043  1.3925 -0.2981
19124WAT    EPW78303   5.685   7.200   1.530  0.4196  0.2055  0.1466
19125WAT      O78304   3.216   1.723   8.341  0.4821  0.0704 -1.0322
19125WAT     H178305   3.262   1.804   8.320 -1.4944  1.6144  0.2559
19125WAT     H278306   3.171   1.699   8.260  2.5397 -0.8538 -1.9766
19125WAT    EPW78307   3.216   1.730   8.328  0.4928  0.1522 -0.9871
19126WAT      O78308  10.646   6.150   4.204  0.1057 -0.0572  0.2544
19126WAT     H178309  10.604   6.113   4.281  0.1642 -1.7272 -0.4750
19126WAT     H278310  10.735   6.171   4.233 -0.2244  0.4413  0.9333
19126WAT    EPW78311  10.652   6.148   4.218  0.0701 -0.2117  0.2480
19127WAT      O78312   4.676   8.137   8.053 -0.6060 -0.8138 -0.3380
19127WAT     H178313   4.761   8.141   8.011 -1.2912 -0.0105 -1.7233
19127WAT     H278314   4.624   8.204   8.008 -2.0791 -1.5410  0.2237
19127WAT    EPW78315   4.680   8.147   8.042 -0.8910 -0.8039 -0.4468
19128WAT      O78316   0.049   5.205   1.885 -0.2910 -0.2930 -0.6650
19128WAT     H178317   0.107   5.182   1.958 -1.7980 -1.1060  0.3349
19128WAT     H278318   0.027   5.121   1.845 -0.2098  0.0724 -1.4968
19128WAT    EPW78319   0.054   5.191   1.890 -0.4790 -0.3521 -0.6428
19129WAT      O78320   1.273   7.580   1.249  0.3444 -0.2655  0.7960
19129WAT     H178321   1.292   7.487   1.257  0.3780 -0.2740  0.6312
19129WAT     H278322   1.247   7.591   1.158  4.0572  0.5121 -0.3448
19129WAT    EPW78323   1.272   7.569   1.238  0.8386 -0.1640  0.6238
19130WAT      O78324  10.652   5.681   2.292  0.0214  0.6509 -0.3108
19130WAT     H178325  10.683   5.642   2.210 -0.0200  0.7009 -0.3504
19130WAT     H278326  10.591   5.749   2.265  1.8632  2.3828 -0.3412
19130WAT    EPW78327  10.648   5.685   2.278  0.2594  0.8855 -0.3202
19131WAT      O78328   9.916   5.763   2.621 -0.6506 -0.1371  0.2563
19131WAT     H178329   9.975   5.698   2.658 -1.7023 -0.0665  2.1835
19131WAT     H278330   9.965   5.845   2.625  0.9000 -0.7897 -2.7167
19131WAT    EPW78331   9.930   5.765   2.626 -0.5851 -0.2139  0.1185
19132WAT      O78332   4.176   5.166   2.148  0.5342 -0.1475 -0.0072
19132WAT     H178333   4.107   5.213   2.102  0.9322  0.2454 -0.2153
19132WAT     H278334   4.203   5.097   2.087  2.2685  1.4352 -1.1659
19132WAT    EPW78335   4.170   5.163   2.134  0.8154  0.1135 -0.1874
19133WAT      O78336   6.112   0.531   7.529  0.7010  0.5160  0.6689
19133WAT     H178337   6.092   0.442   7.499  2.3302 -0.0764  1.2585
19133WAT     H278338   6.136   0.521   7.621  1.6639  1.4494  0.5362
19133WAT    EPW78339   6.112   0.518   7.537  1.0428  0.5609  0.7291
19134WAT      O78340   5.599   1.809   7.364  0.1048  0.1691 -0.9578
19134WAT     H178341   5.636   1.733   7.408 -2.6914 -0.9324 -0.2920
19134WAT     H278342   5.534   1.773   7.304  0.5067  1.9380 -2.5537
19134WAT    EPW78343   5.595   1.795   7.362 -0.2108  0.2571 -1.0805
19135WAT      O78344   3.410   5.271   1.623  0.5348 -0.3833  1.0000
19135WAT     H178345   3.326   5.252   1.664 -0.7138  0.2058 -1.1000
19135WAT     H278346   3.432   5.359   1.652 -0.1664 -0.0964  0.6843
19135WAT    EPW78347   3.402   5.280   1.632  0.2778 -0.2677  0.6815
19136WAT      O78348  10.913   2.159   3.396  1.3147  0.2822  0.0351
19136WAT     H178349  10.918   2.153   3.300  0.1961  0.9145 -0.0789
19136WAT     H278350  10.987   2.106   3.427  0.0968 -2.2869 -1.1078
19136WAT    EPW78351  10.924   2.151   3.387  1.0066  0.0267 -0.1308
19137WAT      O78352   8.725   3.457   1.502  0.3707  0.0767 -0.5682
19137WAT     H178353   8.706   3.517   1.574 -0.2329 -1.5734  0.7143
19137WAT     H278354   8.675   3.490   1.428  2.1371  2.6640 -0.7305
19137WAT    EPW78355   8.716   3.469   1.502  0.5245  0.2003 -0.4204
19138WAT      O78356  10.793   5.233   0.996  0.2298  0.0444 -0.0642
19138WAT     H178357  10.856   5.172   0.958 -2.6278 -3.4026  0.2308
19138WAT     H278358  10.744   5.181   1.060 -1.9905  2.8494  0.7491
19138WAT    EPW78359  10.795   5.218   1.000 -0.4401 -0.0405  0.0819
19139WAT      O78360  10.424   9.792   8.834 -0.0351  0.4005 -0.5917
19139WAT     H178361  10.389   9.715   8.789 -2.5294  1.5418 -0.7497
19139WAT     H278362  10.502   9.815   8.783  0.5917 -1.7800 -0.7284
19139WAT    EPW78363  10.430   9.785   8.821 -0.2818  0.2637 -0.6309
19140WAT      O78364   6.939   2.427   8.449  0.0893 -0.0315  0.4329
19140WAT     H178365   6.864   2.485   8.459  0.5822  0.3524  2.4834
19140WAT     H278366   6.931   2.364   8.522  2.0145  0.3729  1.0627
19140WAT    EPW78367   6.928   2.426   8.460  0.4084  0.0725  0.7863
19141WAT      O78368   7.170   5.572   1.639  0.8482 -0.2328  0.2836
19141WAT     H178369   7.141   5.639   1.700  1.7191  0.4557 -0.0336
19141WAT     H278370   7.150   5.607   1.553  2.2534  0.1076  0.0742
19141WAT    EPW78371   7.164   5.585   1.636  1.1482 -0.0973  0.2141
19142WAT      O78372   0.198   3.587   0.053  0.2293 -0.3254  0.1811
19142WAT     H178373   0.158   3.587  -0.034  0.5352  1.4552  0.0025
19142WAT     H278374   0.167   3.668   0.094  1.2909 -0.3856  1.1623
19142WAT    EPW78375   0.189   3.598   0.047  0.4097 -0.0986  0.2869
19143WAT      O78376   5.110   0.551   7.662  0.1947 -0.3301  0.3006
19143WAT     H178377   5.057   0.479   7.627  0.7669 -0.0507 -1.2319
19143WAT     H278378   5.079   0.562   7.752  0.7895 -3.1730  0.9456
19143WAT    EPW78379   5.099   0.543   7.669  0.3486 -0.6682  0.1836
19144WAT      O78380   5.640   4.502   1.063  1.1913  0.1097 -0.1184
19144WAT     H178381   5.676   4.579   1.108  0.7199  1.0067 -1.2219
19144WAT     H278382   5.631   4.530   0.972  3.3994 -2.1081 -1.1238
19144WAT    EPW78383   5.643   4.516   1.057  1.4205 -0.0646 -0.3966
19145WAT      O78384   1.599   2.923   1.351 -0.6182  0.4655  0.7668
19145WAT     H178385   1.601   2.828   1.350 -1.9289  0.3483  2.8080
19145WAT     H278386   1.690   2.948   1.367 -0.6777 -0.6606  3.5309
19145WAT    EPW78387   1.612   2.914   1.353 -0.7989  0.3015  1.4006
19146WAT      O78388   5.452   0.160   6.512  0.3631  0.1822  0.3680
19146WAT     H178389   5.459   0.067   6.492 -1.4502  0.4655 -2.0130
19146WAT     H278390   5.526   0.200   6.466 -0.5686  0.2048 -1.1573
19146WAT    EPW78391   5.463   0.153   6.503  0.0012  0.2225 -0.1473
19147WAT      O78392   6.272   3.544   8.316 -0.9074 -0.1933 -0.2260
19147WAT     H178393   6.308   3.456   8.326 -0.0289  0.2955  1.2286
19147WAT     H278394   6.191   3.543   8.367  0.2292  0.4232  1.7036
19147WAT    EPW78395   6.266   3.533   8.324 -0.6416 -0.0476  0.2208
19148WAT      O78396   0.968   9.551   6.210 -0.0669  0.6798  0.1225
19148WAT     H178397   0.937   9.537   6.121  1.3122  1.4961 -0.5327
19148WAT     H278398   0.895   9.593   6.255 -1.1134 -0.6074 -0.3396
19148WAT    EPW78399   0.955   9.555   6.204 -0.0231  0.6175 -0.0250
19149WAT      O78400   9.110   6.820   2.563  0.8636  0.1863  0.0533
19149WAT     H178401   9.177   6.847   2.500 -0.9739  0.9849 -1.6716
19149WAT     H278402   9.046   6.772   2.511  1.1575 -2.6186  2.0540
19149WAT    EPW78403   9.111   6.817   2.548  0.6599 -0.0784  0.0895
19150WAT      O78404   5.711   0.259   5.632  0.0376  0.1131  0.7725
19150WAT     H178405   5.670   0.172   5.635  1.8523 -0.7777  1.1258
19150WAT     H278406   5.721   0.283   5.724  1.2272 -0.1548  0.7207
19150WAT    EPW78407   5.707   0.251   5.644  0.4339 -0.0397  0.8123
19151WAT      O78408   9.698   4.698   2.878 -0.8306 -0.7798  0.7173
19151WAT     H178409   9.693   4.794   2.874 -2.3637 -0.8585 -0.5814
19151WAT     H278410   9.745   4.680   2.959 -0.3620  1.0716  0.9152
19151WAT    EPW78411   9.703   4.708   2.888 -0.9713 -0.5457  0.5721
19152WAT      O78412   9.963   6.577   0.429 -0.4384  0.7404 -0.0523
19152WAT     H178413   9.934   6.497   0.385  2.1456  0.1625 -0.8643
19152WAT     H278414   9.913   6.580   0.510 -0.1173 -2.1026  0.3413
19152WAT    EPW78415   9.953   6.567   0.434 -0.0558  0.2894 -0.1075
19153WAT      O78416   5.766   0.832   8.536 -0.9351  0.2885 -1.1378
19153WAT     H178417   5.770   0.885   8.456 -1.6409  0.8133 -0.8356
19153WAT     H278418   5.684   0.858   8.578 -2.0257 -2.0614 -1.6579
19153WAT    EPW78419   5.756   0.842   8.531 -1.1721  0.0478 -1.1663
19154WAT      O78420   0.187   2.500   1.479  0.2748  0.3593 -0.6692
19154WAT     H178421   0.178   2.595   1.479 -1.1626  0.2412 -0.2853
19154WAT     H278422   0.198   2.476   1.571 -3.5235 -0.1258 -0.1712
19154WAT    EPW78423   0.188   2.509   1.491 -0.4157  0.2799 -0.5529
19155WAT      O78424   8.546   4.177   2.281 -0.3005  0.2862 -0.3621
19155WAT     H178425   8.597   4.238   2.228 -1.5948  1.9917  0.2773
19155WAT     H278426   8.480   4.231   2.324 -1.5173 -1.5718  0.2484
19155WAT    EPW78427   8.544   4.192   2.280 -0.6318  0.2663 -0.1971
19156WAT      O78428   9.435   5.230   3.046  0.9195 -0.3928 -0.2650
19156WAT     H178429   9.367   5.298   3.050  1.1419 -0.2088  1.0714
19156WAT     H278430   9.483   5.249   2.966  0.2657  0.3280 -0.5049
19156WAT    EPW78431   9.432   5.242   3.036  0.8626 -0.2735 -0.1203
19157WAT      O78432   1.230   6.918   1.073  0.0481 -0.8640 -0.2921
19157WAT     H178433   1.191   6.846   1.124  1.3030  0.5782  2.9576
19157WAT     H278434   1.321   6.893   1.062  0.0591 -0.6108 -0.7714
19157WAT    EPW78435   1.237   6.905   1.079  0.2151 -0.6402  0.0734
19158WAT      O78436   1.946  10.307   8.568 -0.2205  0.9967  0.1027
19158WAT     H178437   1.969  10.392   8.606  0.8306  2.3714 -3.2632
19158WAT     H278438   2.029  10.270   8.538 -0.5878 -1.5443  1.9019
19158WAT    EPW78439   1.960  10.314   8.569 -0.1303  0.8430 -0.1035
19159WAT      O78440   9.091   4.289   1.213 -0.1346 -0.1910  0.4953
19159WAT     H178441   9.127   4.227   1.149 -0.9230 -2.1253  1.8084
19159WAT     H278442   9.166   4.341   1.242  0.0812  1.5289 -2.7017
19159WAT    EPW78443   9.105   4.287   1.208 -0.2103 -0.2196  0.2469
19160WAT      O78444   9.967   3.585   1.819 -0.6452 -0.1545  0.1471
19160WAT     H178445   9.953   3.564   1.911  0.5004 -2.0032 -0.0431
19160WAT     H278446   9.991   3.677   1.818  1.9662 -0.7109  2.0458
19160WAT    EPW78447   9.968   3.594   1.831 -0.1502 -0.4717  0.3725
19161WAT      O78448   7.576   5.296   1.284 -0.2432  0.1607  0.2774
19161WAT     H178449   7.586   5.274   1.192 -0.0729  0.2576  0.2721
19161WAT     H278450   7.515   5.370   1.286 -1.1038 -0.5337  0.3197
19161WAT    EPW78451   7.569   5.303   1.272 -0.3340  0.0820  0.2822
19162WAT      O78452   1.043   6.821   1.617  0.1571 -0.1950 -0.1742
19162WAT     H178453   0.993   6.885   1.668 -0.4590  0.2149 -1.2439
19162WAT     H278454   0.977   6.760   1.585  0.7595 -1.4949  0.9609
19162WAT    EPW78455   1.027   6.821   1.620  0.1552 -0.3121 -0.1656
19163WAT      O78456   7.041   4.343   1.551  0.6033  0.1863  0.4321
19163WAT     H178457   7.062   4.383   1.467 -0.1581  2.0000  1.0525
19163WAT     H278458   6.998   4.412   1.601 -3.0337 -2.0613  0.7646
19163WAT    EPW78459   7.038   4.357   1.547  0.0231  0.1287  0.5578
19164WAT      O78460   4.496   0.415   6.187 -0.4613  0.2911 -0.3884
19164WAT     H178461   4.527   0.505   6.188  0.3463  0.0658 -1.8723
19164WAT     H278462   4.556   0.370   6.128  0.2900 -1.6420  1.6799
19164WAT    EPW78463   4.508   0.421   6.179 -0.2558  0.0064 -0.3111
19165WAT      O78464   6.382   0.098   8.770  0.0058 -0.0323 -0.0987
19165WAT     H178465   6.309   0.150   8.805  0.6942  1.5215 -0.8669
19165WAT     H278466   6.367   0.098   8.675  1.4218  1.0108 -0.3504
19165WAT    EPW78467   6.370   0.105   8.762  0.2835  0.3102 -0.2327
19166WAT      O78468   5.181   9.176   7.950  0.3182 -0.3264  0.5472
19166WAT     H178469   5.220   9.185   8.038 -1.6932  1.0617  1.3638
19166WAT     H278470   5.106   9.118   7.963  0.7894 -1.2194 -0.5640
19166WAT    EPW78471   5.176   9.170   7.964  0.1149 -0.2613  0.5083
19167WAT      O78472   9.563   4.560   3.213 -0.8469 -0.4644  0.1474
19167WAT     H178473   9.560   4.654   3.197  0.0831 -0.2926  0.8454
19167WAT     H278474   9.514   4.521   3.141  0.8854  0.4066 -1.6109
19167WAT    EPW78475   9.556   4.567   3.202 -0.4959 -0.3269  0.0074
19168WAT      O78476  10.556   3.805   2.557  0.4906 -0.2863 -0.1823
19168WAT     H178477  10.548   3.788   2.650  0.5781 -3.0221 -0.5842
19168WAT     H278478  10.466   3.799   2.524  0.4829  0.4737 -0.3119
19168WAT    EPW78479  10.543   3.802   2.565  0.5007 -0.5468 -0.2524
19169WAT      O78480   9.937   6.218   2.841 -0.7822  0.0499  0.0204
19169WAT     H178481   9.968   6.172   2.919  0.7929  0.1692 -0.4939
19169WAT     H278482   9.884   6.154   2.794  0.9973 -1.1487 -0.4614
19169WAT    EPW78483   9.934   6.204   2.845 -0.3395 -0.0925 -0.1110
19170WAT      O78484   0.689   8.337   7.084  0.0939 -0.1177 -0.5586
19170WAT     H178485   0.720   8.276   7.017 -0.2183 -1.6834  0.6588
19170WAT     H278486   0.644   8.282   7.148  0.1343  1.3495  0.8059
19170WAT    EPW78487   0.687   8.322   7.084  0.0581 -0.1311 -0.2179
19171WAT      O78488   5.769   1.995   1.707  0.1541 -0.0423  0.2693
19171WAT     H178489   5.797   1.917   1.660 -3.0466 -1.4600  0.4703
19171WAT     H278490   5.732   2.052   1.639 -1.6497 -0.7542  0.5926
19171WAT    EPW78491   5.768   1.992   1.692 -0.5059 -0.3232  0.3385
19172WAT      O78492   8.629   0.769   2.979  0.3517  0.3630 -0.8350
19172WAT     H178493   8.549   0.724   3.004  0.0523  0.4770 -1.5408
19172WAT     H278494   8.700   0.712   3.009 -0.0053 -0.0984 -0.8570
19172WAT    EPW78495   8.628   0.756   2.986  0.2651  0.3172 -0.9310
19173WAT      O78496   6.069   2.522   8.881  0.0084  0.1109  0.2693
19173WAT     H178497   6.021   2.553   8.957 -0.1795 -0.1108  0.2433
19173WAT     H278498   6.004   2.521   8.810  0.3067  0.8212 -0.0219
19173WAT    EPW78499   6.054   2.526   8.881  0.0229  0.1754  0.2275
19174WAT      O78500   1.073   9.601   6.790  0.0657 -0.2775  0.7640
19174WAT     H178501   1.106   9.629   6.876  0.1284  0.8688  0.3809
19174WAT     H278502   1.124   9.523   6.770  1.8456  0.8490  0.6688
19174WAT    EPW78503   1.084   9.595   6.799  0.3088  0.0229  0.7010
19175WAT      O78504   1.835  10.352   8.019 -0.0051 -0.3083 -0.2485
19175WAT     H178505   1.784  10.429   8.043  0.9091 -0.4195  2.3452
19175WAT     H278506   1.776  10.300   7.964 -1.5334  1.0521  0.0454
19175WAT    EPW78507   1.821  10.355   8.015 -0.0861 -0.1440  0.1321
19176WAT      O78508   3.318  10.102   6.377  0.5165 -0.5412 -0.5128
19176WAT     H178509   3.305  10.169   6.444 -0.6766 -0.6606 -0.6105
19176WAT     H278510   3.359  10.030   6.423 -3.2010 -1.9502  0.9555
19176WAT    EPW78511   3.322  10.101   6.392 -0.1311 -0.7429 -0.3319
19177WAT      O78512   6.666   4.501   1.756 -1.0109 -0.4052 -0.6340
19177WAT     H178513   6.593   4.551   1.718 -1.2388  0.7061  1.1042
19177WAT     H278514   6.655   4.513   1.851  0.1488 -2.0917 -0.2499
19177WAT    EPW78515   6.655   4.509   1.764 -0.8883 -0.4809 -0.3541
19178WAT      O78516   4.105   2.135   6.561  0.2204  0.1830  0.3364
19178WAT     H178517   4.021   2.089   6.555 -0.6471  1.1992  2.9167
19178WAT     H278518   4.141   2.132   6.473 -2.0244 -1.2238 -0.6228
19178WAT    EPW78519   4.099   2.129   6.549 -0.1900  0.1315  0.5500
19179WAT      O78520  10.102   4.158   2.676 -0.9476  0.5949 -0.4983
19179WAT     H178521  10.112   4.092   2.608 -0.5391  0.3272 -0.1900
19179WAT     H278522  10.033   4.125   2.733  1.3069 -1.1845  1.4345
19179WAT    EPW78523  10.094   4.145   2.675 -0.5965  0.3250 -0.2028
19180WAT      O78524   9.861   3.835   2.797 -0.0405 -0.3528  0.0648
19180WAT     H178525   9.940   3.786   2.776  1.3081  1.7436 -0.0556
19180WAT     H278526   9.798   3.769   2.824  0.6344 -2.4394 -3.0051
19180WAT    EPW78527   9.863   3.820   2.798  0.2260 -0.3513 -0.3561
19181WAT      O78528   7.399   4.456   5.992  0.4732  0.1501  0.7375
19181WAT     H178529   7.383   4.372   6.035 -0.2611 -0.2768 -0.3075
19181WAT     H278530   7.429   4.514   6.061  0.9589 -0.9684  1.4837
19181WAT    EPW78531   7.401   4.453   6.007  0.4404 -0.0536  0.6983
19182WAT      O78532   9.446   3.298   2.717  0.8865  0.8090 -0.1033
19182WAT     H178533   9.386   3.371   2.705  0.6003  0.5982  0.0250
19182WAT     H278534   9.495   3.321   2.796  0.9339  0.9527 -0.1739
19182WAT    EPW78535   9.445   3.311   2.726  0.8545  0.8000 -0.0957
19183WAT      O78536   0.834   1.203   1.842  0.2993  0.6074 -0.0455
19183WAT     H178537   0.785   1.285   1.831 -0.8103 -0.1379 -0.8713
19183WAT     H278538   0.776   1.148   1.895  0.2178 -0.2951 -1.0438
19183WAT    EPW78539   0.820   1.206   1.847  0.1422  0.3901 -0.2862
19184WAT      O78540   7.664   2.229   4.623 -0.6335  0.3373 -0.1043
19184WAT     H178541   7.677   2.175   4.701  2.3496  0.5501 -0.3257
19184WAT     H278542   7.640   2.315   4.656  0.8586  0.4952  0.6620
19184WAT    EPW78543   7.663   2.233   4.637 -0.0432  0.3864 -0.0327
19185WAT      O78544   3.521   6.596   3.643  0.0381  0.2378  0.1369
19185WAT     H178545   3.484   6.564   3.560 -1.0815 -1.5067  1.2359
19185WAT     H278546   3.505   6.690   3.642 -0.4146  0.1723 -1.4004
19185WAT    EPW78547   3.514   6.604   3.632 -0.1692 -0.0010  0.0792
19186WAT      O78548   3.907   0.405   8.780 -0.2862  0.0455  0.6259
19186WAT     H178549   3.936   0.332   8.835 -1.8499  0.3982  2.0067
19186WAT     H278550   3.906   0.370   8.692 -3.8789 -2.6707  1.5472
19186WAT    EPW78551   3.911   0.391   8.776 -0.9664 -0.2663  0.9289
19187WAT      O78552   7.283   3.999   0.791  0.3006  0.0592  0.0448
19187WAT     H178553   7.356   3.937   0.794  0.2946  0.0263 -0.4129
19187WAT     H278554   7.310   4.071   0.848  0.6970  0.0579 -0.1404
19187WAT    EPW78555   7.296   4.000   0.799  0.3521  0.0546 -0.0400
19188WAT      O78556   4.017   9.960   8.047  0.0757 -0.5382 -0.4801
19188WAT     H178557   4.015   9.868   8.071  0.4966 -0.0014  1.8127
19188WAT     H278558   3.938   9.998   8.087 -0.2789  0.0632 -1.6822
19188WAT    EPW78559   4.006   9.953   8.055  0.0844 -0.3881 -0.3357
19189WAT      O78560   0.205   6.902   0.260  0.0088  0.2557 -0.0653
19189WAT     H178561   0.197   6.947   0.176  0.0073 -3.4656 -2.2719
19189WAT     H278562   0.115   6.894   0.291 -0.1259  0.5186 -0.3782
19189WAT    EPW78563   0.192   6.907   0.253 -0.0092 -0.2005 -0.3976
19190WAT      O78564   1.854   8.601   7.780  0.2554  0.1137 -0.3084
19190WAT     H178565   1.909   8.678   7.773 -0.2857  0.4279 -1.2467
19190WAT     H278566   1.890   8.540   7.716 -1.4274  0.9356 -2.1355
19190WAT    EPW78567   1.866   8.603   7.771 -0.0380  0.2642 -0.6733
19191WAT      O78568   6.584   5.121   1.506  0.5226 -0.7324 -0.3241
19191WAT     H178569   6.490   5.111   1.499  0.3305  1.1772 -1.1618
19191WAT     H278570   6.605   5.197   1.452  2.5764 -1.2223 -0.3309
19191WAT    EPW78571   6.575   5.130   1.498  0.7679 -0.5450 -0.4355
19192WAT      O78572   9.516   5.641   2.538  0.2138 -0.4865  1.0535
19192WAT     H178573   9.430   5.609   2.511 -0.2635  1.5429  0.0147
19192WAT     H278574   9.577   5.572   2.511 -0.7180 -0.4294 -1.3904
19192WAT    EPW78575   9.513   5.628   2.531  0.0281 -0.2115  0.5941
19193WAT      O78576   9.549   1.740   2.142 -0.6569 -0.3418  0.4765
19193WAT     H178577   9.547   1.757   2.048 -1.9631 -2.0064  0.1470
19193WAT     H278578   9.518   1.821   2.183  0.1687  0.4798 -0.4888
19193WAT    EPW78579   9.544   1.753   2.135 -0.7200 -0.4530  0.3058
19194WAT      O78580   7.375   3.052   8.554 -0.7560  0.2696 -0.1485
19194WAT     H178581   7.318   2.995   8.606 -0.0375 -0.3191  0.0033
19194WAT     H278582   7.388   3.130   8.609  0.4384 -0.5744  0.8214
19194WAT    EPW78583   7.369   3.055   8.568 -0.5038  0.0807 -0.0005
19195WAT      O78584   5.656   3.866   1.904  0.2184  0.4615 -0.1797
19195WAT     H178585   5.738   3.830   1.938 -0.1751  1.6649  2.2826
19195WAT     H278586   5.598   3.868   1.980 -2.1004 -0.2383 -1.8203
19195WAT    EPW78587   5.659   3.861   1.918 -0.1390  0.5280 -0.0713
19196WAT      O78588   9.900   5.021   1.336  0.5512  0.4279 -0.2948
19196WAT     H178589   9.872   4.963   1.265 -0.9283  0.0921  0.5143
19196WAT     H278590   9.961   5.082   1.294 -0.5049  0.4370 -1.9324
19196WAT    EPW78591   9.904   5.022   1.321  0.2165  0.3850 -0.4040
19197WAT      O78592  10.106   7.282   1.320 -0.3234  0.1203 -0.4920
19197WAT     H178593  10.193   7.270   1.281  0.5614 -1.8720  1.7905
19197WAT     H278594  10.113   7.365   1.368  1.1495 -1.0089  1.4092
19197WAT    EPW78595  10.118   7.291   1.321 -0.0124 -0.2913  0.0598
19198WAT      O78596   8.898   3.153   3.657 -0.0455 -0.5914 -0.3342
19198WAT     H178597   8.974   3.204   3.686 -0.7205  0.4360 -0.3308
19198WAT     H278598   8.883   3.091   3.728  2.1595 -2.3834 -1.3221
19198WAT    EPW78599   8.906   3.152   3.670  0.1569 -0.6924 -0.4640
19199WAT      O78600   9.886   5.627   3.330  0.3443  0.7673 -0.1528
19199WAT     H178601   9.839   5.710   3.325  0.2298  0.6288 -3.3369
19199WAT     H278602   9.977   5.651   3.313  0.4511  0.3490 -0.1835
19199WAT    EPW78603   9.892   5.641   3.327  0.3433  0.6938 -0.5767
19200WAT      O78604   9.434   5.326   1.945 -0.4581 -0.0440 -0.0449
19200WAT     H178605   9.433   5.413   1.903 -0.1574 -0.4086 -0.8219
19200WAT     H278606   9.370   5.275   1.896 -1.0935 -0.0962  0.8088
19200WAT    EPW78607   9.425   5.331   1.933 -0.5026 -0.0989 -0.0347
19201WAT      O78608   0.402   4.035   3.435  0.0328 -0.4344 -0.3792
19201WAT     H178609   0.459   3.959   3.425 -1.2705 -1.5111 -0.0234
19201WAT     H278610   0.423   4.070   3.522  3.5448  2.2090 -2.0758
19201WAT    EPW78611   0.412   4.029   3.445  0.3241 -0.2275 -0.5561
19202WAT      O78612   9.933   4.892   3.236 -0.2488  0.5844 -0.2530
19202WAT     H178613   9.888   4.940   3.306 -0.7257 -1.6984  1.1224
19202WAT     H278614  10.007   4.850   3.281  1.0002  1.1709 -1.7002
19202WAT    EPW78615   9.937   4.893   3.251 -0.1469  0.3605 -0.2624
19203WAT      O78616  10.365   3.065   0.649  0.5886 -0.2103 -0.4970
19203WAT     H178617  10.454   3.061   0.616  0.7685 -0.3185 -0.0015
19203WAT     H278618  10.359   3.150   0.692 -0.2746  0.8527 -2.5651
19203WAT    EPW78619  10.376   3.076   0.650  0.4988 -0.0843 -0.7044
19204WAT      O78620   1.168   8.416   8.726 -0.2729  0.2879  0.0180
19204WAT     H178621   1.221   8.337   8.729 -1.6292 -1.0266 -4.2172
19204WAT     H278622   1.231   8.488   8.723  1.0296 -0.7626  1.0513
19204WAT    EPW78623   1.183   8.415   8.726 -0.2800 -0.0238 -0.4044
19205WAT      O78624   1.919   0.764   6.594 -0.0272 -0.1531  0.1559
19205WAT     H178625   1.833   0.770   6.553  0.4675 -0.8691 -1.0195
19205WAT     H278626   1.938   0.854   6.622 -0.1101  0.4936 -1.7422
19205WAT    EPW78627   1.910   0.777   6.592  0.0272 -0.1622 -0.2494
19206WAT      O78628   0.354   4.082   1.062 -0.7956  0.4486  0.0765
19206WAT     H178629   0.366   4.095   0.968 -0.4082 -2.3028 -0.3477
19206WAT     H278630   0.441   4.064   1.095 -1.3132 -2.2725  0.2029
19206WAT    EPW78631   0.367   4.081   1.054 -0.8128 -0.2732  0.0373
19207WAT      O78632   0.248   5.857   2.658 -0.0784 -0.5721 -0.9726
19207WAT     H178633   0.248   5.793   2.587  4.7075  0.3031 -2.1254
19207WAT     H278634   0.307   5.820   2.724 -0.3051  0.9246  0.1305
19207WAT    EPW78635   0.256   5.844   2.657  0.5229 -0.2594 -0.9791
19208WAT      O78636   8.041   4.336   1.238 -0.0873  0.2458 -0.3776
19208WAT     H178637   8.090   4.340   1.320  0.2151  2.3823 -0.5940
19208WAT     H278638   7.988   4.416   1.239  1.1030  1.1502 -2.9700
19208WAT    EPW78639   8.040   4.347   1.249  0.1097  0.6471 -0.7480
19209WAT      O78640   7.629   4.866   1.691  0.1309  0.8462  0.4808
19209WAT     H178641   7.619   4.959   1.673 -0.1950  0.5370 -1.0865
19209WAT     H278642   7.724   4.852   1.695  0.1846  1.1885  0.3955
19209WAT    EPW78643   7.640   4.876   1.690  0.0947  0.8507  0.2628
19210WAT      O78644  10.342   5.987   0.926 -0.5731 -0.2765 -0.8240
19210WAT     H178645  10.434   5.994   0.948 -1.0093  2.8816  0.6220
19210WAT     H278646  10.322   5.894   0.931  1.9999 -0.8098  1.1431
19210WAT    EPW78647  10.351   5.976   0.929 -0.2913  0.0696 -0.3738
19211WAT      O78648  10.705   3.497   0.329 -0.2346  0.3476  0.1528
19211WAT     H178649  10.709   3.579   0.380  0.8777 -0.7482  1.9542
19211WAT     H278650  10.789   3.496   0.281 -0.1040  0.1096  0.3866
19211WAT    EPW78651  10.717   3.508   0.329 -0.0706  0.1718  0.4213
19212WAT      O78652   8.101   3.836   7.032 -0.3730 -0.0054 -0.0235
19212WAT     H178653   8.038   3.890   6.985  0.0641  1.0810  0.6170
19212WAT     H278654   8.056   3.810   7.112  0.4403  1.9487  1.1176
19212WAT    EPW78655   8.087   3.839   7.036 -0.2084  0.3957  0.2115
19213WAT      O78656   7.641   2.104   8.902  0.3166  0.5600 -0.2433
19213WAT     H178657   7.587   2.083   8.978  0.5121  1.7560  0.2298
19213WAT     H278658   7.579   2.104   8.829  0.4046 -2.4399 -0.4698
19213WAT    EPW78659   7.626   2.101   8.902  0.3541  0.3220 -0.2112
19214WAT      O78660   5.946   6.428   0.613  0.6315  0.5325  0.4757
19214WAT     H178661   6.017   6.381   0.658  0.2783  0.6297  1.1529
19214WAT     H278662   5.968   6.520   0.625  0.3653  0.5638  0.7364
19214WAT    EPW78663   5.959   6.434   0.621  0.5496  0.5496  0.5994
19215WAT      O78664   9.285   6.274   0.875  0.3606 -0.1550  0.1346
19215WAT     H178665   9.233   6.354   0.871 -0.3492 -0.6657 -1.5062
19215WAT     H278666   9.289   6.243   0.785 -0.7537 -2.8144  0.8848
19215WAT    EPW78667   9.278   6.281   0.863  0.1202 -0.5732  0.0171
19216WAT      O78668   0.060   3.457   2.490  0.2590  0.5431  0.5468
19216WAT     H178669   0.081   3.461   2.397  0.2192  2.1965  0.5786
19216WAT     H278670   0.032   3.367   2.505 -3.4844  1.0970 -1.8580
19216WAT    EPW78671   0.059   3.445   2.480 -0.2400  0.8343  0.2338
19217WAT      O78672   1.342   9.511   7.870 -0.0654  0.2217 -0.1260
19217WAT     H178673   1.346   9.604   7.849  0.7219  0.6791  1.7931
19217WAT     H278674   1.415   9.472   7.823 -1.4830  0.1813 -2.4347
19217WAT    EPW78675   1.352   9.518   7.861 -0.1486  0.2770 -0.1774
19218WAT      O78676   7.622   3.087   8.327  0.0953  0.6084 -0.4485
19218WAT     H178677   7.579   3.103   8.411  0.5173  3.4878 -0.6662
19218WAT     H278678   7.714   3.070   8.350 -0.2903 -1.3619 -0.2248
19218WAT    EPW78679   7.629   3.087   8.341  0.1004  0.7282 -0.4478
19219WAT      O78680   1.250   2.503   2.918 -0.4040  0.8639  0.2641
19219WAT     H178681   1.227   2.591   2.888 -1.6388  0.1421 -1.0344
19219WAT     H278682   1.212   2.445   2.853 -2.4222 -0.7782  2.7028
19219WAT    EPW78683   1.242   2.507   2.905 -0.8330  0.5522  0.4143
19220WAT      O78684   9.200   6.121   0.240  0.9246 -0.2211 -0.2195
19220WAT     H178685   9.214   6.216   0.241  0.8283 -0.1506  2.6174
19220WAT     H278686   9.163   6.103   0.154 -1.8706  2.7924  0.1721
19220WAT    EPW78687   9.197   6.131   0.229  0.5436  0.1857  0.2063
19221WAT      O78688   2.771   3.591   1.186  0.4604 -0.4761  0.1068
19221WAT     H178689   2.861   3.587   1.153 -0.1447  2.7690 -2.4562
19221WAT     H278690   2.758   3.683   1.209 -2.5477 -0.5858 -0.7772
19221WAT    EPW78691   2.781   3.603   1.185 -0.0161 -0.0626 -0.3478
19222WAT      O78692   8.306   5.403   3.944 -0.0573  0.7133 -0.0006
19222WAT     H178693   8.255   5.331   3.982  0.9777 -0.6657 -1.0926
19222WAT     H278694   8.392   5.397   3.987  0.3395  0.6765 -0.7803
19222WAT    EPW78695   8.311   5.392   3.954  0.1316  0.5264 -0.2474
19223WAT      O78696   8.200   4.508   8.252  0.2435 -0.1811  0.4854
19223WAT     H178697   8.144   4.518   8.329  0.0565  0.1980  0.3010
19223WAT     H278698   8.143   4.529   8.178  0.9828  1.6839  0.3824
19223WAT    EPW78699   8.185   4.512   8.252  0.3161  0.1147  0.4473
19224WAT      O78700  10.674   6.681   0.971  0.3207  0.4287 -0.3149
19224WAT     H178701  10.623   6.758   0.948  0.2684  0.2994 -0.6385
19224WAT     H278702  10.750   6.684   0.912  1.1735  1.1153  0.7695
19224WAT    EPW78703  10.678   6.692   0.960  0.4263  0.5021 -0.2146
19225WAT      O78704   4.726   9.961   7.567  0.2843  0.2465 -0.0927
19225WAT     H178705   4.713   9.889   7.629  1.3518  0.9542  0.9792
19225WAT     H278706   4.760  10.033   7.619  1.0799  0.9180 -1.4703
19225WAT    EPW78707   4.729   9.961   7.582  0.5302  0.4287 -0.1330
19226WAT      O78708   8.005   1.741   8.946  0.5929  0.0868 -0.2382
19226WAT     H178709   7.982   1.817   8.892  1.8127 -0.7106 -1.9911
19226WAT     H278710   7.928   1.684   8.941  0.6848  0.0230 -1.1967
19226WAT    EPW78711   7.992   1.744   8.938  0.7659 -0.0267 -0.5959
19227WAT      O78712   8.107   3.338   1.254  0.0826 -0.3705 -0.4170
19227WAT     H178713   8.182   3.353   1.196 -0.2681  0.0456 -0.7657
19227WAT     H278714   8.142   3.353   1.342 -0.3844  3.3165 -0.7379
19227WAT    EPW78715   8.122   3.342   1.258 -0.0248  0.1708 -0.5053
19228WAT      O78716   1.510  10.009   6.038  0.1070  0.5379  0.1899
19228WAT     H178717   1.486  10.097   6.009  1.6637  0.9012 -0.1169
19228WAT     H278718   1.437   9.954   6.010 -0.5718  1.6169 -0.2562
19228WAT    EPW78719   1.497  10.014   6.030  0.2228  0.7281  0.0908
19229WAT      O78720   1.372   9.101   7.891 -0.2002 -0.3566 -0.5191
19229WAT     H178721   1.305   9.076   7.954  0.7447 -2.3857 -0.2377
19229WAT     H278722   1.450   9.117   7.944  0.4419 -1.4705 -1.1100
19229WAT    EPW78723   1.373   9.100   7.906  0.0091 -0.7706 -0.5600
19230WAT      O78724   0.924   5.973   4.224 -0.2843 -0.1512 -0.5789
19230WAT     H178725   0.876   5.904   4.270  0.0800  0.1588  0.2910
19230WAT     H278726   0.866   5.998   4.152 -0.8730 -0.6510 -0.2956
19230WAT    EPW78727   0.910   5.967   4.221 -0.3139 -0.1764 -0.4265
19231WAT      O78728   7.527   0.427   8.562 -0.6000 -0.0542 -0.0109
19231WAT     H178729   7.493   0.398   8.477 -1.3434 -0.7223  0.5016
19231WAT     H278730   7.457   0.406   8.624  0.4906 -0.8790  0.9769
19231WAT    EPW78731   7.513   0.420   8.559 -0.5538 -0.2511  0.1864
19232WAT      O78732   7.128   1.143   7.953  0.3062  0.0609  0.8772
19232WAT     H178733   7.187   1.081   7.996 -0.2729 -0.8860  0.3655
19232WAT     H278734   7.083   1.090   7.886 -1.3804  0.6422  1.4787
19232WAT    EPW78735   7.130   1.128   7.950  0.0074  0.0127  0.8888
19233WAT      O78736  10.520   2.948   0.197 -0.2943 -1.1926 -0.0267
19233WAT     H178737  10.472   2.876   0.238 -1.7886 -0.3649 -0.2637
19233WAT     H278738  10.525   2.924   0.104  0.0349 -1.4317  0.0528
19233WAT    EPW78739  10.514   2.936   0.190 -0.4478 -1.1150 -0.0475
19234WAT      O78740  10.098   5.407   2.455  0.2157  0.1455  0.1586
19234WAT     H178741  10.147   5.350   2.395  0.5622  0.1051  0.4738
19234WAT     H278742  10.008   5.404   2.423  0.5817  0.9575 -1.0066
19234WAT    EPW78743  10.093   5.399   2.442  0.3095  0.2472  0.0466
19235WAT      O78744  10.261   3.400   1.269 -0.3838 -0.6003 -0.4559
19235WAT     H178745  10.303   3.327   1.315 -0.1068  0.4840  1.0447
19235WAT     H278746  10.309   3.478   1.297 -2.1110  0.4449 -0.2537
19235WAT    EPW78747  10.273   3.400   1.278 -0.5751 -0.3194 -0.2313
19236WAT      O78748   0.584   4.254   1.338 -0.4079 -0.1687  0.2932
19236WAT     H178749   0.630   4.292   1.413  0.8874  2.1939 -1.5728
19236WAT     H278750   0.553   4.329   1.288 -3.0536 -1.6867 -0.5468
19236WAT    EPW78751   0.586   4.269   1.342 -0.5860 -0.0575 -0.0638
19237WAT      O78752   9.557   4.327   2.655 -0.0646  0.0299  0.4172
19237WAT     H178753   9.608   4.351   2.732  1.2473  1.4712 -0.8455
19237WAT     H278754   9.611   4.261   2.611 -1.6925 -2.2931  1.6249
19237WAT    EPW78755   9.571   4.321   2.660 -0.1063 -0.0868  0.4100
19238WAT      O78756   5.885   1.827   7.541 -0.3782  0.8181 -0.6919
19238WAT     H178757   5.806   1.879   7.526  0.3234  1.3851 -2.7630
19238WAT     H278758   5.953   1.872   7.491  0.9445 -0.4704 -0.1387
19238WAT    EPW78759   5.884   1.840   7.533 -0.1111  0.7229 -0.8919
19239WAT      O78760   8.874   7.395   0.535  0.1089 -0.5282  0.8485
19239WAT     H178761   8.830   7.401   0.620 -0.6092 -0.3795  0.4730
19239WAT     H278762   8.964   7.370   0.556 -0.7890 -3.6375  1.5088
19239WAT    EPW78763   8.880   7.392   0.549 -0.1040 -0.9189  0.8861
19240WAT      O78764   9.357   5.612   1.893 -0.3356  0.1783 -0.3372
19240WAT     H178765   9.263   5.597   1.886 -0.3638 -0.4502  1.0167
19240WAT     H278766   9.373   5.621   1.987  0.9584  0.2523 -0.5418
19240WAT    EPW78767   9.347   5.611   1.904 -0.1688  0.1054 -0.1856
19241WAT      O78768   7.932   2.046   8.876  0.1140  0.6451 -1.0274
19241WAT     H178769   7.839   2.030   8.892  0.1175 -1.5901 -2.7324
19241WAT     H278770   7.934   2.104   8.800  0.0368 -0.9619 -2.3157
19241WAT    EPW78771   7.920   2.051   8.868  0.1042  0.1383 -1.4224
19242WAT      O78772   0.282   5.325   4.788  0.3320 -0.9558  0.2763
19242WAT     H178773   0.361   5.306   4.737 -0.2407 -3.1167  0.1132
19242WAT     H278774   0.301   5.288   4.875  0.3440  0.5424  0.9513
19242WAT    EPW78775   0.295   5.318   4.793  0.2580 -1.0431  0.3438
19243WAT      O78776   9.881   1.239   0.827 -0.1889  0.1674 -0.0958
19243WAT     H178777   9.804   1.190   0.796  0.2002  0.1120 -1.0271
19243WAT     H278778   9.954   1.178   0.814  0.0283  0.2680  0.6647
19243WAT    EPW78779   9.881   1.224   0.821 -0.1092  0.1733 -0.1184
19244WAT      O78780   7.625   0.101   6.553  1.1630  0.2974 -0.4512
19244WAT     H178781   7.562   0.028   6.552  3.1549 -1.5160 -1.3974
19244WAT     H278782   7.711   0.059   6.556  2.3875  2.6636  0.0904
19244WAT    EPW78783   7.628   0.086   6.553  1.5869  0.3703 -0.5047
19245WAT      O78784   9.375   6.465   0.442 -0.3818  0.0294 -0.2668
19245WAT     H178785   9.332   6.508   0.516 -0.3886 -1.5289  0.6805
19245WAT     H278786   9.359   6.372   0.456  0.8825 -0.3983 -1.4461
19245WAT    EPW78787   9.367   6.458   0.454 -0.2155 -0.2327 -0.2974
19246WAT      O78788   4.905   2.334   7.812 -0.1805  0.3807 -0.9424
19246WAT     H178789   4.850   2.395   7.762 -2.9330 -2.3371 -1.5561
19246WAT     H278790   4.943   2.276   7.746  1.1738  0.4611 -0.2691
19246WAT    EPW78791   4.903   2.334   7.797 -0.3650  0.0329 -0.9346
19247WAT      O78792  10.236   7.626   2.078  0.8704 -0.0250 -0.0452
19247WAT     H178793  10.254   7.671   2.160  0.0376 -0.4506  0.3862
19247WAT     H278794  10.247   7.693   2.010  1.4555  0.3561  0.4154
19247WAT    EPW78795  10.240   7.641   2.079  0.8383 -0.0310  0.0724
19248WAT      O78796   8.544   2.189   1.715 -0.5102 -0.0627  0.3065
19248WAT     H178797   8.535   2.158   1.805  0.8973 -1.1484  0.1161
19248WAT     H278798   8.465   2.159   1.671 -1.0330  0.1440  1.0895
19248WAT    EPW78799   8.533   2.181   1.721 -0.3929 -0.1787  0.3846
19249WAT      O78800   0.777   4.274   0.757 -0.1867 -0.2552 -0.5116
19249WAT     H178801   0.844   4.270   0.825 -1.1458 -0.7875  0.4489
19249WAT     H278802   0.783   4.189   0.712 -0.9233 -0.7557  0.3033
19249WAT    EPW78803   0.786   4.262   0.760 -0.4103 -0.3912 -0.2774
19250WAT      O78804   7.888   3.222   0.935 -0.1746 -0.0503 -0.0469
19250WAT     H178805   7.971   3.260   0.907  0.2675 -2.6053 -2.7173
19250WAT     H278806   7.821   3.280   0.899  0.4223  1.0880  0.6380
19250WAT    EPW78807   7.890   3.235   0.927 -0.0379 -0.2372 -0.3088
19251WAT      O78808   1.879   8.952   8.491  0.1959  0.1709  0.0874
19251WAT     H178809   1.955   8.905   8.458  0.2613  0.0323  0.4324
19251WAT     H278810   1.913   9.004   8.564  0.6927  2.7804 -1.8537
19251WAT    EPW78811   1.894   8.953   8.496  0.2700  0.4969 -0.1225
19252WAT      O78812   1.408   1.905   1.912 -0.5085 -0.0867  0.7664
19252WAT     H178813   1.501   1.889   1.923 -0.8046 -1.1819  1.7601
19252WAT     H278814   1.373   1.909   2.001 -1.3854  0.5193  0.4108
19252WAT    EPW78815   1.416   1.904   1.925 -0.6633 -0.1513  0.8506
19253WAT      O78816  10.116   3.835   0.756  0.0178 -0.2550  0.7244
19253WAT     H178817  10.161   3.919   0.743  1.7435 -1.3649 -1.0024
19253WAT     H278818  10.169   3.789   0.821  0.2192 -0.7721  0.2002
19253WAT    EPW78819  10.128   3.840   0.763  0.2718 -0.4696  0.4275
19254WAT      O78820   2.816   7.688   8.588 -0.4816 -1.0629  0.0284
19254WAT     H178821   2.869   7.611   8.572  1.7727  0.9014 -3.0754
19254WAT     H278822   2.795   7.722   8.501  0.9776  3.2570  1.0719
19254WAT    EPW78823   2.820   7.683   8.575  0.0080 -0.2339 -0.2437
19255WAT      O78824   9.962   3.701   3.932 -0.7051 -1.1276 -0.2617
19255WAT     H178825   9.992   3.790   3.914 -2.4135 -0.3086  0.7248
19255WAT     H278826   9.928   3.670   3.848 -1.0128 -0.4776 -0.3856
19255WAT    EPW78827   9.962   3.709   3.919 -0.9708 -0.9338 -0.1479
19256WAT      O78828   6.694  10.155   8.610 -0.2529 -0.8035  0.0942
19256WAT     H178829   6.641  10.235   8.613  1.1521  0.1959 -0.4848
19256WAT     H278830   6.716  10.138   8.702 -2.7187 -2.1044  0.5381
19256WAT    EPW78831   6.690  10.164   8.623 -0.3929 -0.8435  0.0763
19257WAT      O78832  10.738   5.303   2.503 -0.4298  0.2621 -0.2161
19257WAT     H178833  10.830   5.282   2.492 -0.7340 -1.3908  0.1664
19257WAT     H278834  10.701   5.227   2.547 -1.8759  1.1210  0.1293
19257WAT    EPW78835  10.745   5.290   2.508 -0.6609  0.1571 -0.1203
19258WAT      O78836  10.732   8.709   3.052 -0.0544  1.1791 -0.9708
19258WAT     H178837  10.643   8.686   3.080  0.5903  1.9945  2.0839
19258WAT     H278838  10.772   8.625   3.031 -0.8652  0.5494 -0.1196
19258WAT    EPW78839  10.725   8.695   3.053 -0.0768  1.2035 -0.4555
19259WAT      O78840   8.881   5.029   2.049  0.1398 -0.2340  0.4754
19259WAT     H178841   8.882   5.122   2.070  1.8132  0.0050 -0.5606
19259WAT     H278842   8.834   5.024   1.966 -0.1022 -0.3611  0.6157
19259WAT    EPW78843   8.875   5.041   2.041  0.3285 -0.2193  0.3574
19260WAT      O78844   7.691   2.166   8.368  0.5111 -0.1197 -0.0216
19260WAT     H178845   7.599   2.146   8.385  0.1394  1.1261 -0.4165
19260WAT     H278846   7.727   2.086   8.329 -0.1463 -0.9443  1.0070
19260WAT    EPW78847   7.684   2.153   8.365  0.3753 -0.0641  0.0615
19261WAT      O78848   6.407   3.695   8.539  0.2218 -0.2022 -0.0819
19261WAT     H178849   6.355   3.654   8.470  0.1779 -1.0029  0.4142
19261WAT     H278850   6.343   3.722   8.605 -0.1603  3.6681 -1.7786
19261WAT    EPW78851   6.391   3.693   8.539  0.1657  0.2027 -0.2398
19262WAT      O78852   9.617   5.618   1.512 -0.0121  0.4030  0.2936
19262WAT     H178853   9.648   5.629   1.602  2.8349 -0.8717 -0.4199
19262WAT     H278854   9.681   5.665   1.458  0.7000 -2.1417 -1.2563
19262WAT    EPW78855   9.630   5.625   1.517  0.4573 -0.1011 -0.0049
19263WAT      O78856   1.493   9.124   7.308  0.2979 -0.4550  0.0396
19263WAT     H178857   1.502   9.097   7.399  0.2735  0.6348  0.3884
19263WAT     H278858   1.573   9.174   7.290 -1.1086  2.1676  0.5454
19263WAT    EPW78859   1.505   9.127   7.317  0.1093  0.0348  0.1521
19264WAT      O78860   0.866   9.535   8.167 -0.3772  0.2814 -0.0801
19264WAT     H178861   0.891   9.444   8.149  0.9813  0.9286 -1.6522
19264WAT     H278862   0.940   9.570   8.216 -1.2549  0.3482  1.2431
19264WAT    EPW78863   0.879   9.528   8.171 -0.3138  0.3757 -0.1130
19265WAT      O78864   1.789  10.054   8.330  0.2616 -0.2718  0.2745
19265WAT     H178865   1.709  10.027   8.375 -0.0058  3.3695  2.3666
19265WAT     H278866   1.772  10.145   8.303  0.8628 -1.6324 -6.4205
19265WAT    EPW78867   1.776  10.063   8.332  0.3057  0.0291 -0.3324
19266WAT      O78868   0.205   1.062   6.077 -0.1287  0.4344  0.4994
19266WAT     H178869   0.125   1.086   6.030 -0.0824  0.2047  0.2994
19266WAT     H278870   0.175   1.005   6.147 -0.5908  3.0929  2.6620
19266WAT    EPW78871   0.191   1.058   6.080 -0.1835  0.7548  0.7584
19267WAT      O78872   3.226   7.738   4.522  0.7892  0.4145 -0.1656
19267WAT     H178873   3.309   7.760   4.480  0.9557  0.8771  0.3911
19267WAT     H278874   3.250   7.680   4.595  0.2711 -2.6779 -2.2593
19267WAT    EPW78875   3.240   7.733   4.526  0.7428  0.0677 -0.3686
19268WAT      O78876   8.614   4.932   1.172 -0.3494 -0.0414  0.4937
19268WAT     H178877   8.607   4.947   1.078 -0.0774  0.1067  0.4968
19268WAT     H278878   8.552   4.861   1.190 -0.4311 -0.0415  0.2114
19268WAT    EPW78879   8.605   4.925   1.162 -0.3242 -0.0217  0.4569
19269WAT      O78880   2.315   7.915   8.840  0.1234  0.2212  0.0478
19269WAT     H178881   2.272   7.907   8.756 -2.1067  0.3704  1.1118
19269WAT     H278882   2.316   8.009   8.858 -1.9492  0.0534  1.3634
19269WAT    EPW78883   2.310   7.926   8.831 -0.4442  0.2186  0.3619
19270WAT      O78884   4.938   0.308   7.587  0.5754 -0.3423  0.4266
19270WAT     H178885   4.975   0.239   7.641  0.8403 -1.6188 -1.2794
19270WAT     H278886   4.846   0.283   7.576  0.7349 -0.5916 -0.4174
19270WAT    EPW78887   4.931   0.296   7.592  0.6313 -0.5435  0.0901
19271WAT      O78888  10.969   4.833   5.099  0.2280 -0.4895 -0.0854
19271WAT     H178889  10.990   4.851   5.190 -1.4329  1.9579 -0.0887
19271WAT     H278890  10.906   4.761   5.102 -2.1916  1.5039  1.0710
19271WAT    EPW78891  10.963   4.826   5.111 -0.3104  0.0961  0.0668
19272WAT      O78892   5.493   2.115   8.428  0.8509 -0.3610 -0.3949
19272WAT     H178893   5.498   2.189   8.368  1.8519  0.5059  0.6999
19272WAT     H278894   5.583   2.084   8.435  0.7819 -0.3802  0.7034
19272WAT    EPW78895   5.506   2.121   8.421  0.9742 -0.2493 -0.1063
19273WAT      O78896  10.548   4.651   2.810  0.1631  0.1521  0.4481
19273WAT     H178897  10.607   4.690   2.745  0.3904  0.1501  0.6539
19273WAT     H278898  10.484   4.602   2.758  1.1559 -0.9998  0.2780
19273WAT    EPW78899  10.547   4.650   2.795  0.3242  0.0000  0.4529
19274WAT      O78900  10.833   4.893   1.463  0.0243  0.1032  0.3108
19274WAT     H178901  10.819   4.842   1.543  1.7094 -0.5407  0.2261
19274WAT     H278902  10.840   4.984   1.493 -0.0973 -0.0423  0.7970
19274WAT    EPW78903  10.832   4.898   1.478  0.2313 -0.0007  0.3637
19275WAT      O78904   4.193   1.543   7.727  0.2479 -0.0046  0.2773
19275WAT     H178905   4.235   1.489   7.794  0.4668 -1.1385 -0.7366
19275WAT     H278906   4.198   1.632   7.761  1.1325 -0.4457  1.3616
19275WAT    EPW78907   4.199   1.547   7.740  0.3932 -0.2123  0.2868
19276WAT      O78908  10.888   5.005   3.609 -0.6587  0.1719  0.2621
19276WAT     H178909  10.917   4.933   3.553 -1.5702  0.6180 -0.8206
19276WAT     H278910  10.909   5.084   3.560 -1.1877  0.5875  0.6862
19276WAT    EPW78911  10.894   5.006   3.596 -0.8488  0.2854  0.1751
19277WAT      O78912   5.354   0.218   8.090  0.2839  0.5509  0.4822
19277WAT     H178913   5.340   0.302   8.046 -0.0974  0.8987  1.2587
19277WAT     H278914   5.371   0.241   8.181 -1.3439 -0.2840  1.0280
19277WAT    EPW78915   5.354   0.232   8.096  0.0188  0.4867  0.6566
19278WAT      O78916   0.073   5.579   3.865 -0.1584 -0.6953 -0.2016
19278WAT     H178917   0.030   5.519   3.805  1.0695 -2.1758  0.3604
19278WAT     H278918   0.162   5.546   3.875  0.3397  0.7784  0.7279
19278WAT    EPW78919   0.079   5.567   3.858  0.0693 -0.6962 -0.0048
19279WAT      O78920   9.641   7.624   4.231  0.4697  0.1521 -0.0286
19279WAT     H178921   9.710   7.563   4.206 -1.1955 -1.2802 -1.3602
19279WAT     H278922   9.578   7.571   4.280  0.2368  1.4281  1.1444
19279WAT    EPW78923   9.642   7.609   4.235  0.2189  0.1316 -0.0496
19280WAT      O78924   2.987   9.446   8.664 -0.4707  0.3980  0.0765
19280WAT     H178925   2.942   9.433   8.747 -0.5114  2.7714  0.4740
19280WAT     H278926   2.957   9.372   8.610 -2.9107  0.5120  1.1207
19280WAT    EPW78927   2.977   9.434   8.668 -0.7977  0.7253  0.2666
19281WAT      O78928   2.050   8.542   7.160  0.1195  1.0351  0.1511
19281WAT     H178929   2.074   8.616   7.104  2.4444  1.0849  1.1232
19281WAT     H278930   1.999   8.581   7.231  0.9714  1.6774  0.4290
19281WAT    EPW78931   2.046   8.557   7.162  0.5385  1.1263  0.3159
19282WAT      O78932   5.182   0.715   8.207 -0.8407  0.7237  0.3135
19282WAT     H178933   5.174   0.789   8.267 -0.8169  0.8281  0.1899
19282WAT     H278934   5.177   0.637   8.263 -2.7447  0.7633  0.2822
19282WAT    EPW78935   5.180   0.714   8.222 -1.0886  0.7427  0.2937
19283WAT      O78936   6.769   7.147   4.661 -0.0062 -0.5017 -0.2172
19283WAT     H178937   6.813   7.063   4.645  0.4896 -0.2607 -0.1441
19283WAT     H278938   6.735   7.140   4.750 -0.0115 -0.6443 -0.2298
19283WAT    EPW78939   6.771   7.135   4.670  0.0584 -0.4885 -0.2093
19284WAT      O78940  10.040   8.141   3.274  0.8590 -0.5130 -0.2503
19284WAT     H178941  10.046   8.056   3.232  2.4234 -0.9600  0.7958
19284WAT     H278942   9.947   8.165   3.267 -0.3194 -3.7362  2.2130
19284WAT    EPW78943  10.028   8.133   3.267  0.9098 -0.9975  0.2126
19285WAT      O78944   7.319   4.225   0.972 -0.1056 -0.0260 -1.0178
19285WAT     H178945   7.344   4.194   1.059 -1.0293 -0.7986 -1.0093
19285WAT     H278946   7.226   4.248   0.981  0.4370  2.3646 -1.1446
19285WAT    EPW78947   7.310   4.224   0.985 -0.1557  0.1874 -1.0334
19286WAT      O78948   9.445   5.158   4.258 -0.3896 -0.0178 -0.6047
19286WAT     H178949   9.355   5.167   4.289  0.1234 -1.6045  1.6023
19286WAT     H278950   9.498   5.191   4.330  0.8293  0.3017 -1.6133
19286WAT    EPW78951   9.440   5.164   4.271 -0.1616 -0.1853 -0.4466
19287WAT      O78952   7.829   6.490   0.284 -0.2727 -0.0232 -0.0170
19287WAT     H178953   7.903   6.510   0.227  1.4225 -0.6932  1.8430
19287WAT     H278954   7.790   6.411   0.246  0.3708 -0.0465 -0.6423
19287WAT    EPW78955   7.833   6.482   0.272  0.0358 -0.1147  0.1458
19288WAT      O78956   7.907   3.566   0.508 -0.7688  0.0510 -0.2788
19288WAT     H178957   7.824   3.605   0.483 -2.0990 -2.6358 -0.3701
19288WAT     H278958   7.925   3.602   0.595 -1.8834  0.8431 -0.3524
19288WAT    EPW78959   7.899   3.576   0.516 -1.0912 -0.1990 -0.3005
19289WAT      O78960   0.643   1.826   2.156  0.3153 -0.6668  0.2247
19289WAT     H178961   0.559   1.867   2.178  0.6291  0.2257 -0.2285
19289WAT     H278962   0.708   1.894   2.170  0.6016 -0.1801 -2.9306
19289WAT    EPW78963   0.640   1.840   2.161  0.3944 -0.4849 -0.2513
19290WAT      O78964   0.053   3.208   1.027  0.3352  0.2594  0.0137
19290WAT     H178965   0.099   3.188   1.108  0.1284 -0.6033 -0.0711
19290WAT     H278966   0.095   3.152   0.961 -0.4860 -0.1633 -0.1629
19290WAT    EPW78967   0.064   3.198   1.029  0.1996  0.0898 -0.0208
19291WAT      O78968   2.272   2.773   0.484 -0.0337  0.3663 -0.3289
19291WAT     H178969   2.354   2.798   0.526  0.9736  0.7657 -2.3991
19291WAT     H278970   2.281   2.679   0.468 -1.5581 -0.3853  2.6348
19291WAT    EPW78971   2.284   2.764   0.487 -0.1018  0.3198 -0.2111
19292WAT      O78972   1.354  10.052   8.240 -0.6876 -0.3053  0.8422
19292WAT     H178973   1.421   9.996   8.278 -0.1225  0.7140  1.3796
19292WAT     H278974   1.394  10.087   8.160 -0.2416  0.9554  1.5911
19292WAT    EPW78975   1.368  10.049   8.234 -0.5543 -0.0043  1.0118
19293WAT      O78976   6.935   8.048   2.043 -0.1313  0.2983 -0.0107
19293WAT     H178977   6.967   8.077   1.958  0.0022 -1.8839 -0.7726
19293WAT     H278978   6.964   8.116   2.104  2.6640  0.3269 -1.2219
19293WAT    EPW78979   6.943   8.060   2.040  0.2551  0.0148 -0.2708
19294WAT      O78980   2.407   9.241   6.720 -0.1078 -0.4105 -0.0191
19294WAT     H178981   2.463   9.198   6.784 -0.5000 -0.8434  0.0389
19294WAT     H278982   2.457   9.238   6.638  0.2302 -0.2009  0.1837
19294WAT    EPW78983   2.421   9.235   6.717 -0.1149 -0.4396  0.0150
19295WAT      O78984   6.611   6.035   0.548  0.2450 -0.2759  0.3728
19295WAT     H178985   6.700   6.006   0.527  1.4662  1.9795  1.9872
19295WAT     H278986   6.592   5.993   0.632  0.1020 -0.1588  0.3981
19295WAT    EPW78987   6.620   6.026   0.557  0.3870  0.0372  0.5891
19296WAT      O78988   7.957   2.824   2.890  0.4443  0.3085 -0.3405
19296WAT     H178989   7.927   2.751   2.945 -1.4403  0.0579 -1.6245
19296WAT     H278990   7.878   2.855   2.846  1.5475  1.8927 -1.3028
19296WAT    EPW78991   7.943   2.819   2.892  0.3417  0.4843 -0.6368
19297WAT      O78992   2.162   6.579   3.327  0.7684 -0.2145 -0.3866
19297WAT     H178993   2.252   6.554   3.306  0.2949 -0.0042 -3.0770
19297WAT     H278994   2.152   6.667   3.292 -0.8420 -0.7645 -1.4616
19297WAT    EPW78995   2.172   6.587   3.320  0.4934 -0.2589 -0.8832
19298WAT      O78996  10.197   4.956   2.482  0.5153 -0.3015  0.3911
19298WAT     H178997  10.170   4.996   2.399 -0.3959  1.1593  1.3513
19298WAT     H278998  10.160   4.867   2.479 -1.0091  0.3169 -0.0423
19298WAT    EPW78999  10.189   4.949   2.471  0.1945 -0.0274  0.4606
19299WAT      O79000   9.781   5.979   0.214 -0.4829 -1.1598  0.4996
19299WAT     H179001   9.873   6.005   0.221 -0.6682 -1.0334  3.5520
19299WAT     H279002   9.732   6.062   0.217 -0.7439 -1.2793 -0.2395
19299WAT    EPW79003   9.786   5.993   0.215 -0.5422 -1.1587  0.8047
19300WAT      O79004   9.723   3.176   0.278  0.6995  0.1792 -0.0729
19300WAT     H179005   9.715   3.156   0.372 -1.3411  2.1882  0.2437
19300WAT     H279006   9.638   3.154   0.242  0.5856  1.9006 -0.9313
19300WAT    EPW79007   9.711   3.170   0.286  0.4148  0.6714 -0.1444
19301WAT      O79008   7.396   3.233   2.593  0.4955 -0.0647  0.1691
19301WAT     H179009   7.476   3.187   2.570 -0.3613 -1.1073 -0.8630
19301WAT     H279010   7.421   3.326   2.594  2.5352 -0.4868  3.4961
19301WAT    EPW79011   7.410   3.239   2.590  0.6514 -0.2577  0.4717
19302WAT      O79012   4.309   0.401   7.563 -0.1409 -0.3282  0.0231
19302WAT     H179013   4.277   0.354   7.486  0.8271 -0.7273 -0.1592
19302WAT     H279014   4.273   0.354   7.638 -1.8361  0.5914 -0.1496
19302WAT    EPW79015   4.300   0.389   7.563 -0.2367 -0.2595 -0.0236
19303WAT      O79016   3.842   1.815   7.020  0.1632 -0.1706  0.4480
19303WAT     H179017   3.928   1.845   6.991  0.4351 -0.8511  0.5290
19303WAT     H279018   3.853   1.797   7.113  0.3644 -1.7300  0.1483
19303WAT    EPW79019   3.855   1.817   7.029  0.2257 -0.4660  0.4196
19304WAT      O79020   7.812   0.572   8.446 -0.4392 -0.3861  0.2070
19304WAT     H179021   7.755   0.523   8.506  2.3182 -2.2153  1.5854
19304WAT     H279022   7.864   0.504   8.402  1.1257  1.1519 -0.4335
19304WAT    EPW79023   7.811   0.556   8.448  0.1309 -0.4245  0.3042
19305WAT      O79024   0.621   5.521   0.982 -0.0318  0.0715  0.0393
19305WAT     H179025   0.631   5.502   1.075 -2.7066 -2.9015 -0.1193
19305WAT     H279026   0.709   5.507   0.945  1.2295  1.9139  2.0691
19305WAT    EPW79027   0.634   5.517   0.989 -0.2182 -0.0777  0.2861
19306WAT      O79028   0.520   3.967   1.333 -0.5704 -0.0695  0.1511
19306WAT     H179029   0.520   4.063   1.335 -0.1550 -0.0794  1.2240
19306WAT     H279030   0.427   3.943   1.331 -0.6815  0.3553 -2.3147
19306WAT    EPW79031   0.508   3.976   1.333 -0.5303 -0.0147 -0.0326
19307WAT      O79032   8.321   4.651   1.404 -0.0162  0.0428 -0.0301
19307WAT     H179033   8.263   4.705   1.458 -1.3927 -0.3416 -1.0596
19307WAT     H279034   8.327   4.699   1.321  2.1219  0.6610  0.4367
19307WAT    EPW79035   8.314   4.664   1.400  0.0839  0.0734 -0.1043
19308WAT      O79036   0.501   2.104   0.975  0.1595 -0.5333 -1.0752
19308WAT     H179037   0.518   2.038   1.041  0.9425 -1.7158 -2.3975
19308WAT     H279038   0.416   2.079   0.938  0.6601 -1.0897 -1.8774
19308WAT    EPW79039   0.492   2.092   0.979  0.3288 -0.7626 -1.3553
19309WAT      O79040   9.534   6.528   1.256  0.0233 -0.5614 -0.0952
19309WAT     H179041   9.542   6.520   1.161 -2.0180  1.1023 -0.5011
19309WAT     H279042   9.447   6.567   1.269  0.9155  0.8036  2.3782
19309WAT    EPW79043   9.523   6.532   1.245 -0.1278 -0.1621  0.1775
19310WAT      O79044   5.983   4.226   3.016 -0.4107 -0.2335 -0.1040
19310WAT     H179045   5.984   4.153   3.078  0.3198 -1.2079 -1.2191
19310WAT     H279046   5.958   4.301   3.069  3.0523 -0.4147  2.1212
19310WAT    EPW79047   5.980   4.226   3.031  0.1426 -0.3858  0.0424
19311WAT      O79048   8.575   4.718   1.984  0.2735  0.1113  0.3167
19311WAT     H179049   8.627   4.747   1.909  2.3629  0.5714  1.8236
19311WAT     H279050   8.555   4.798   2.032 -0.5692 -0.2248  0.5484
19311WAT    EPW79051   8.579   4.732   1.981  0.4382  0.1273  0.5460
19312WAT      O79052   0.600   7.407   1.087  0.7669  0.2736 -0.1078
19312WAT     H179053   0.633   7.357   1.162  1.2769 -0.7665 -1.0031
19312WAT     H279054   0.619   7.499   1.109  0.5723  0.0216  1.1866
19312WAT    EPW79055   0.607   7.413   1.100  0.8085  0.1035 -0.0552
19313WAT      O79056   4.169   1.485   7.444  0.8330  0.4981 -0.4208
19313WAT     H179057   4.145   1.503   7.536  2.6772  0.2754  0.1405
19313WAT     H279058   4.109   1.540   7.393 -0.0318  0.8598  0.9283
19313WAT    EPW79059   4.158   1.495   7.450  0.9623  0.5165 -0.1686
19314WAT      O79060   0.886   7.381   0.681 -1.0635 -0.2114 -0.1565
19314WAT     H179061   0.956   7.324   0.649  0.4436  1.8149 -0.6575
19314WAT     H279062   0.927   7.432   0.751 -1.8984  1.2753 -0.7058
19314WAT    EPW79063   0.901   7.380   0.686 -0.9748  0.2520 -0.2950
19315WAT      O79064   1.813   8.057   6.951 -0.1312  0.4128 -0.0071
19315WAT     H179065   1.833   7.988   7.015  1.1258  1.4745  0.8185
19315WAT     H279066   1.766   8.013   6.881 -1.9535 -0.7453  1.8252
19315WAT    EPW79067   1.810   8.042   6.950 -0.2058  0.4001  0.3436
19316WAT      O79068   6.444   1.683   7.236 -0.5278  0.3530  0.1290
19316WAT     H179069   6.352   1.709   7.240 -0.7442 -0.2450 -0.7982
19316WAT     H279070   6.445   1.606   7.179  0.1707 -1.3960  2.3504
19316WAT    EPW79071   6.432   1.676   7.229 -0.4640  0.0434  0.2997
19317WAT      O79072   4.140   9.779   5.365 -0.5076  0.0884  0.1614
19317WAT     H179073   4.070   9.774   5.300 -0.3413 -1.8278  0.0808
19317WAT     H279074   4.144   9.692   5.404  0.4287  0.7554  1.6751
19317WAT    EPW79075   4.132   9.767   5.361 -0.3622 -0.0763  0.3502
19318WAT      O79076   9.769   5.086   2.569 -0.3627 -0.3514  0.5267
19318WAT     H179077   9.790   5.074   2.477  2.3389 -0.1833  1.0443
19318WAT     H279078   9.709   5.161   2.571  2.2371  1.9379 -0.8974
19318WAT    EPW79079   9.764   5.094   2.557  0.3362 -0.0274  0.4071
19319WAT      O79080   8.778   9.464   1.224  0.0734 -0.2974  0.2845
19319WAT     H179081   8.723   9.403   1.273  1.2944 -2.8356 -1.2492
19319WAT     H279082   8.717   9.508   1.165 -0.7879 -0.4214  1.0554
19319WAT    EPW79083   8.763   9.462   1.223  0.1202 -0.6485  0.1839
19320WAT      O79084   0.039   8.033   3.168  0.2690 -0.5080  0.0177
19320WAT     H179085   0.026   7.957   3.111  0.7304  0.7727 -1.8787
19320WAT     H279086   0.134   8.044   3.171  0.2243 -0.2644  0.6625
19320WAT    EPW79087   0.050   8.024   3.161  0.3242 -0.3071 -0.1475
19321WAT      O79088   8.408   6.103   1.229  0.4680 -0.4692 -0.3021
19321WAT     H179089   8.449   6.187   1.208 -0.5149 -0.4460 -2.4548
19321WAT     H279090   8.446   6.041   1.167 -0.5521 -1.0657 -0.3658
19321WAT    EPW79091   8.418   6.106   1.218  0.2036 -0.5450 -0.5945
19322WAT      O79092   9.664   6.481   0.453 -0.0137  0.2107  0.6460
19322WAT     H179093   9.578   6.508   0.422  1.2023  2.7848 -0.7671
19322WAT     H279094   9.711   6.455   0.374  0.8895 -0.0349  1.2464
19322WAT    EPW79095   9.659   6.481   0.439  0.2656  0.5178  0.5388
19323WAT      O79096  10.059   5.909   0.195  0.0271 -0.1363  0.4158
19323WAT     H179097  10.083   5.991   0.152 -0.4375 -0.7318 -1.0357
19323WAT     H279098  10.041   5.848   0.123  0.3629 -1.5246  1.4540
19323WAT    EPW79099  10.060   5.912   0.180  0.0100 -0.3979  0.3613
19324WAT      O79100   0.364   5.934   2.984 -0.2149 -0.1180 -0.4259
19324WAT     H179101   0.368   5.989   2.906  0.7168  1.4794  0.6925
19324WAT     H279102   0.398   5.989   3.054 -1.1388 -1.4633  1.1519
19324WAT    EPW79103   0.369   5.948   2.983 -0.2139 -0.0846 -0.0703
19325WAT      O79104   3.042   0.914   6.730  0.4700 -0.5277  0.3206
19325WAT     H179105   2.958   0.881   6.696 -0.9135  0.3582  2.6734
19325WAT     H279106   3.107   0.881   6.668 -1.5876 -1.3220 -1.5573
19325WAT    EPW79107   3.039   0.906   6.717  0.0160 -0.5156  0.3831
19326WAT      O79108   8.465   6.788   0.138  0.3336  0.2355  0.5255
19326WAT     H179109   8.379   6.771   0.101  0.9164  1.9950 -1.8949
19326WAT     H279110   8.447   6.830   0.222 -1.0840 -1.3783  1.0921
19326WAT    EPW79111   8.451   6.792   0.144  0.2241  0.2546  0.2810
19327WAT      O79112   2.671   4.888   2.357  0.0614 -0.5872 -0.3651
19327WAT     H179113   2.583   4.900   2.391  0.6825 -1.0972  1.5653
19327WAT     H279114   2.728   4.908   2.431  1.5122 -1.9491 -1.0575
19327WAT    EPW79115   2.667   4.893   2.371  0.3347 -0.8342 -0.2018
19328WAT      O79116   0.450   4.537   1.283  0.5969  0.0888 -0.2914
19328WAT     H179117   0.450   4.620   1.329  0.7168  0.6960 -1.3563
19328WAT     H279118   0.372   4.492   1.315 -2.6174  2.7979 -3.4237
19328WAT    EPW79119   0.440   4.542   1.293  0.1888  0.5262 -0.8450
19329WAT      O79120   7.060   5.099   7.960 -0.0103 -0.3059 -0.7099
19329WAT     H179121   7.134   5.072   8.014 -0.4461 -0.0945  0.0118
19329WAT     H279122   7.087   5.183   7.923 -0.4329  0.4900  0.7179
19329WAT    EPW79123   7.073   5.107   7.962 -0.1235 -0.1731 -0.4268
19330WAT      O79124   7.726   4.624   3.421 -0.0162  0.6332 -0.2265
19330WAT     H179125   7.762   4.537   3.439  1.4467  1.1115 -0.7644
19330WAT     H279126   7.771   4.682   3.482 -0.6640  1.0899 -0.1738
19330WAT    EPW79127   7.736   4.620   3.431  0.0916  0.7565 -0.2905
19331WAT      O79128   0.241   7.232   5.582 -0.3658 -0.2721 -0.0690
19331WAT     H179129   0.310   7.166   5.590 -0.7056 -1.0347 -2.6885
19331WAT     H279130   0.191   7.222   5.663  1.0776 -1.4742  0.7418
19331WAT    EPW79131   0.244   7.222   5.594 -0.2202 -0.5312 -0.3078
19332WAT      O79132   4.065   4.078   1.154  0.3663  0.4791 -0.2283
19332WAT     H179133   4.124   4.065   1.228 -1.3978  0.7626  1.3215
19332WAT     H279134   3.988   4.025   1.175 -0.3363  0.8625 -1.6860
19332WAT    EPW79135   4.063   4.070   1.166  0.0408  0.5672 -0.2162
19333WAT      O79136   1.484   4.106   2.174  0.3265 -0.1480  0.1363
19333WAT     H179137   1.409   4.065   2.218 -0.8440 -1.5577 -2.9119
19333WAT     H279138   1.451   4.130   2.088  3.5593 -1.4636 -1.6178
19333WAT    EPW79139   1.470   4.104   2.169  0.5985 -0.5074 -0.4971
19334WAT      O79140   2.079   3.928   4.013 -0.1936 -0.1915  0.6507
19334WAT     H179141   2.107   3.849   4.059 -0.9691  0.2793  1.9783
19334WAT     H279142   1.984   3.928   4.021 -0.7582 -1.5933 -3.4926
19334WAT    EPW79143   2.070   3.918   4.020 -0.3704 -0.3142  0.2792
19335WAT      O79144   9.431   1.478   0.836 -0.3418  0.4880 -0.2203
19335WAT     H179145   9.461   1.556   0.882  1.5319 -0.1643 -0.2420
19335WAT     H279146   9.353   1.450   0.884  2.5961 -1.3568  4.0683
19335WAT    EPW79147   9.425   1.484   0.848  0.2933  0.1586  0.3425
19336WAT      O79148   0.875   7.331   1.167  0.0438 -0.0220 -0.7706
19336WAT     H179149   0.892   7.356   1.076 -0.9199  0.6943 -0.7691
19336WAT     H279150   0.875   7.236   1.166  0.8746 -0.0323 -1.3555
19336WAT    EPW79151   0.877   7.322   1.155  0.0262  0.0708 -0.8475
19337WAT      O79152   0.900   8.193   0.472  0.2680  0.4890 -0.0945
19337WAT     H179153   0.882   8.198   0.378  1.8377  0.0470 -0.4448
19337WAT     H279154   0.814   8.178   0.512 -0.3005 -0.2286 -1.5299
19337WAT    EPW79155   0.886   8.192   0.465  0.4001  0.3362 -0.3300
19338WAT      O79156   5.907   5.843   6.981 -0.1344 -0.4200 -0.3253
19338WAT     H179157   5.917   5.786   6.904  0.8900 -2.6452  1.3493
19338WAT     H279158   5.975   5.814   7.042 -2.6234 -0.6985  2.5508
19338WAT    EPW79159   5.917   5.831   6.979 -0.3273 -0.7501  0.2749
19339WAT      O79160   1.763   9.484   8.557 -0.6602 -0.0174  0.4066
19339WAT     H179161   1.817   9.545   8.608  0.9440 -0.1116 -1.0976
19339WAT     H279162   1.679   9.481   8.604 -0.2071  2.0468  1.4458
19339WAT    EPW79163   1.759   9.492   8.570 -0.3889  0.2427  0.3457
19340WAT      O79164  10.277   6.862   0.202 -0.1868  0.1280  0.7673
19340WAT     H179165  10.202   6.803   0.205 -1.0533  1.1913  0.8045
19340WAT     H279166  10.239   6.947   0.178  0.7848  1.0147  2.2291
19340WAT    EPW79167  10.262   6.865   0.199 -0.1731  0.3850  0.9650
19341WAT      O79168   9.367   5.014   0.093  0.0560  0.6579 -0.2142
19341WAT     H179169   9.284   5.054   0.068 -1.3354 -1.3718  0.8416
19341WAT     H279170   9.411   5.081   0.146 -1.6774  1.1999  0.5979
19341WAT    EPW79171   9.362   5.028   0.097 -0.3562  0.4618  0.0322
19342WAT      O79172   8.339   7.757   0.963  0.2306 -0.4651  0.1123
19342WAT     H179173   8.287   7.677   0.972  0.1035 -0.3271  0.6468
19342WAT     H279174   8.385   7.764   1.046 -1.3888  1.1499  0.9361
19342WAT    EPW79175   8.338   7.747   0.975  0.0005 -0.2337  0.2915
19343WAT      O79176   2.469   9.933   8.232  0.2345  0.3397  0.2867
19343WAT     H179177   2.488  10.003   8.169 -0.4499 -1.7017 -2.3833
19343WAT     H279178   2.550   9.881   8.235 -0.5992 -1.1270 -1.1429
19343WAT    EPW79179   2.482   9.935   8.224  0.0341 -0.1225 -0.2546
19344WAT      O79180   8.220   3.998   6.056  0.4117 -0.1849 -0.9079
19344WAT     H179181   8.135   3.961   6.079  0.5974  0.2053  0.4662
19344WAT     H279182   8.278   3.922   6.049 -0.0573 -0.4632 -1.9649
19344WAT    EPW79183   8.217   3.983   6.058  0.3743 -0.1702 -0.8664
19345WAT      O79184   8.810   9.180   0.439 -1.2183  0.2234  0.5929
19345WAT     H179185   8.756   9.138   0.372 -1.3182 -1.3386  1.6042
19345WAT     H279186   8.865   9.110   0.474  2.6829  1.9952 -1.4042
19345WAT    EPW79187   8.810   9.165   0.435 -0.7167  0.2513  0.4629
19346WAT      O79188  10.718   4.827   0.331  0.1809 -0.9557  0.1675
19346WAT     H179189  10.639   4.799   0.285  1.2334 -0.9868 -1.6945
19346WAT     H279190  10.780   4.755   0.320  0.3341 -1.2003  2.1257
19346WAT    EPW79191  10.716   4.814   0.324  0.3400 -0.9921  0.1801
19347WAT      O79192   1.980   8.398   0.886  0.0784 -0.1261  0.6383
19347WAT     H179193   2.027   8.459   0.830 -0.5723  0.4514  0.7134
19347WAT     H279194   1.982   8.315   0.838  0.4755  0.0862  0.2798
19347WAT    EPW79195   1.987   8.395   0.872  0.0449 -0.0224  0.6009
19348WAT      O79196   9.815   9.183   0.467  0.2467  0.8367  0.2819
19348WAT     H179197   9.770   9.259   0.503  1.0870  1.8366 -0.7364
19348WAT     H279198   9.778   9.171   0.380 -0.4873 -0.4686  0.7361
19348WAT    EPW79199   9.804   9.191   0.460  0.2608  0.7963  0.2075
19349WAT      O79200  10.085   7.752   0.694 -0.3862  0.1919 -0.5006
19349WAT     H179201  10.126   7.687   0.751 -0.3167  0.8211  0.1922
19349WAT     H279202  10.158   7.788   0.643  0.1520  1.9693  1.3878
19349WAT    EPW79203  10.100   7.748   0.695 -0.3057  0.5093 -0.1602
19350WAT      O79204  10.157   5.294   2.942  0.0001  0.0026 -0.0104
19350WAT     H179205  10.116   5.381   2.938 -0.9435 -0.2567  2.2304
19350WAT     H279206  10.144   5.257   2.855  0.0410  1.9241 -0.8825
19350WAT    EPW79207  10.150   5.301   2.930 -0.1187  0.2222  0.1701
19351WAT      O79208   1.591   7.015   0.082  0.0183 -0.3129  0.0200
19351WAT     H179209   1.599   7.109   0.062  1.1842 -0.0688  1.4457
19351WAT     H279210   1.521   7.011   0.148  0.1397 -0.4074  0.1440
19351WAT    EPW79211   1.583   7.027   0.088  0.1881 -0.2933  0.2244
19352WAT      O79212   2.537  10.217   7.564  0.6662 -0.1691  0.3497
19352WAT     H179213   2.563  10.251   7.478  1.5414  0.8913  1.0104
19352WAT     H279214   2.609  10.161   7.590  1.6739  1.5476  1.4946
19352WAT    EPW79215   2.550  10.214   7.556  0.9145  0.1974  0.5879
19353WAT      O79216   8.474   6.376   1.494  0.0562  0.6414  0.1961
19353WAT     H179217   8.435   6.422   1.420  0.2123 -0.3301 -0.5084
19353WAT     H279218   8.402   6.325   1.531  0.4454 -0.5773 -0.6542
19353WAT    EPW79219   8.459   6.375   1.489  0.1278  0.3526 -0.0090
19354WAT      O79220   6.708   3.042   7.106 -0.4471  0.4600  0.1115
19354WAT     H179221   6.654   3.004   7.175 -1.6505 -1.1839 -1.6351
19354WAT     H279222   6.797   3.042   7.142 -0.4906 -3.3621  0.5661
19354WAT    EPW79223   6.713   3.037   7.120 -0.6115 -0.2608 -0.0589
19355WAT      O79224  10.153   8.110   1.143 -0.2932 -0.0914  0.3115
19355WAT     H179225  10.092   8.070   1.081  1.2867 -1.1490 -0.6319
19355WAT     H279226  10.218   8.042   1.161 -0.1947  0.5039  2.4458
19355WAT    EPW79227  10.154   8.096   1.137 -0.0720 -0.1521  0.4686
19356WAT      O79228   1.004   6.713   4.953  0.1777  1.1945  0.2986
19356WAT     H179229   1.013   6.782   5.018  0.8006  2.4315 -1.0597
19356WAT     H279230   1.046   6.747   4.875 -0.9346 -0.0744 -0.9129
19356WAT    EPW79231   1.011   6.726   4.951  0.1131  1.1904 -0.0405
19357WAT      O79232   0.166   7.673   0.937  0.2805 -0.2413  0.0947
19357WAT     H179233   0.136   7.716   1.017  1.2996 -0.0936  0.4069
19357WAT     H279234   0.105   7.600   0.925 -0.5136  0.3595  0.4198
19357WAT    EPW79235   0.154   7.669   0.946  0.3102 -0.1428  0.1788
19358WAT      O79236   5.074   3.987   0.821  0.5318 -0.4521 -0.2463
19358WAT     H179237   5.010   4.052   0.851  0.5641 -0.6770  0.3190
19358WAT     H279238   5.094   4.013   0.731 -0.8974 -0.8162 -0.6828
19358WAT    EPW79239   5.068   3.999   0.813  0.3476 -0.5298 -0.2293
19359WAT      O79240   1.203   5.743   3.048 -0.6085  0.2209 -0.2267
19359WAT     H179241   1.294   5.769   3.062  0.1955 -1.6735 -1.5191
19359WAT     H279242   1.161   5.822   3.012  1.2290  0.3928 -2.2144
19359WAT    EPW79243   1.209   5.757   3.045 -0.2602 -0.0062 -0.6593
19360WAT      O79244   7.456   1.820   8.924 -0.3768 -0.6564  0.0365
19360WAT     H179245   7.463   1.881   8.997  2.9548 -1.7119  0.7802
19360WAT     H279246   7.397   1.751   8.956 -1.1613  0.2741  0.6249
19360WAT    EPW79247   7.449   1.819   8.938 -0.0408 -0.6728  0.2127
19361WAT      O79248   6.544   1.952   8.161 -0.7378 -0.5313 -0.0332
19361WAT     H179249   6.606   1.966   8.089 -0.3649 -1.2306  0.1487
19361WAT     H279250   6.457   1.958   8.119 -0.5491  0.0511 -0.3567
19361WAT    EPW79251   6.540   1.955   8.146 -0.6638 -0.5468 -0.0520
19362WAT      O79252   8.092   6.645   2.998  0.1251  0.4691  0.0159
19362WAT     H179253   8.044   6.682   3.073 -2.9978  2.1366 -2.5563
19362WAT     H279254   8.033   6.578   2.963  1.6382 -0.4474 -0.8665
19362WAT    EPW79255   8.078   6.641   3.003 -0.0873  0.5682 -0.4398
19363WAT      O79256   1.834   5.483   0.403  0.3859  0.1499  0.0795
19363WAT     H179257   1.860   5.548   0.470 -2.3698  0.3628  1.0574
19363WAT     H279258   1.799   5.536   0.331 -5.2783  0.0712  2.2880
19363WAT    EPW79259   1.833   5.499   0.403 -0.7247  0.1676  0.4998
19364WAT      O79260  10.160   1.359   7.539 -0.8114  0.2482  0.2047
19364WAT     H179261  10.228   1.292   7.545  0.5988  1.6790  1.7184
19364WAT     H279262  10.103   1.342   7.614 -0.7858  0.3560  0.2508
19364WAT    EPW79263  10.161   1.348   7.550 -0.6218  0.4511  0.4106
19365WAT      O79264   1.507   6.626   1.685 -0.8481 -0.5272  0.5684
19365WAT     H179265   1.415   6.602   1.680 -1.4424  1.5041  0.8545
19365WAT     H279266   1.510   6.699   1.747  0.8225  0.0130 -0.0689
19365WAT    EPW79267   1.495   6.633   1.693 -0.7062 -0.1881  0.5221
19366WAT      O79268  10.470   6.026   2.831  0.4015  0.2679 -0.3375
19366WAT     H179269  10.465   5.943   2.879 -0.9523  1.1344  1.1425
19366WAT     H279270  10.445   6.004   2.741 -0.0003 -0.9166  0.0489
19366WAT    EPW79271  10.466   6.012   2.826  0.1698  0.2260 -0.0913
19367WAT      O79272   8.582   1.385   8.401 -0.1709 -0.1124  0.1603
19367WAT     H179273   8.572   1.332   8.322  0.8317  0.2899 -0.2696
19367WAT     H279274   8.524   1.460   8.387  1.6255  1.1153 -1.2854
19367WAT    EPW79275   8.573   1.388   8.388  0.1984  0.1025 -0.0868
19368WAT      O79276   1.610   7.340   0.675  0.9433 -0.6908 -0.4905
19368WAT     H179277   1.692   7.291   0.680  1.1114 -0.4599 -0.9287
19368WAT     H279278   1.565   7.303   0.599  1.5968  0.5952 -1.5643
19368WAT    EPW79279   1.615   7.329   0.665  1.0517 -0.4909 -0.6899
19369WAT      O79280   9.772   6.680   1.443  0.3033 -0.7032 -0.3693
19369WAT     H179281   9.824   6.751   1.481 -1.3263  1.0216 -1.2332
19369WAT     H279282   9.785   6.689   1.348 -1.5275 -0.2145 -0.6091
19369WAT    EPW79283   9.781   6.691   1.435 -0.1531 -0.4113 -0.5149
19370WAT      O79284   8.076   3.014   1.484 -0.2192 -0.7784  0.0682
19370WAT     H179285   7.981   3.012   1.468 -0.2112 -3.3874  0.0281
19370WAT     H279286   8.086   2.985   1.574  0.5907 -1.3671 -0.2028
19370WAT    EPW79287   8.064   3.010   1.494 -0.1111 -1.2002  0.0271
19371WAT      O79288   1.593   8.604   8.042  0.0915  0.1459  0.3790
19371WAT     H179289   1.688   8.612   8.051  0.0800  0.5946  0.1576
19371WAT     H279290   1.563   8.694   8.027 -0.1732 -0.1789 -1.2551
19371WAT    EPW79291   1.601   8.617   8.041  0.0550  0.1621  0.1340
19372WAT      O79292   1.693   9.241   6.339  0.4627 -0.8879 -0.2836
19372WAT     H179293   1.715   9.285   6.421  2.5638 -1.7186 -0.3491
19372WAT     H279294   1.602   9.212   6.351  0.3869 -0.0844  1.3151
19372WAT    EPW79295   1.684   9.243   6.352  0.7298 -0.8917 -0.0813
19373WAT      O79296   8.835   7.383   2.240  0.3498 -0.3083 -0.0725
19373WAT     H179297   8.915   7.421   2.277 -0.3412  1.5079 -0.3359
19373WAT     H279298   8.840   7.404   2.147  0.1114 -1.2287 -0.3009
19373WAT    EPW79299   8.846   7.391   2.233  0.2270 -0.1903 -0.1374
19374WAT      O79300   6.665   0.927   8.233  0.3734  0.1541  0.3365
19374WAT     H179301   6.656   0.834   8.215  2.1242  0.1682 -0.8337
19374WAT     H279302   6.758   0.939   8.253  1.0784  2.1818 -3.2900
19374WAT    EPW79303   6.676   0.917   8.233  0.6974  0.4234 -0.2961
19375WAT      O79304   7.899   6.904   2.887 -0.0552 -0.1227  0.4351
19375WAT     H179305   7.822   6.959   2.874  0.3567  0.6224  1.0641
19375WAT     H279306   7.960   6.932   2.819 -0.2230 -0.5260  0.1090
19375WAT    EPW79307   7.897   6.915   2.876 -0.0231 -0.0775  0.4750
19376WAT      O79308   0.160   7.638   1.330  0.3219  0.3043  0.4688
19376WAT     H179309   0.202   7.571   1.275 -1.3988 -0.2095 -0.2814
19376WAT     H279310   0.082   7.664   1.281  0.3418  2.0615  1.2809
19376WAT    EPW79311   0.156   7.633   1.316  0.0976  0.4683  0.4770
19377WAT      O79312   8.318   7.553   0.142  0.2286  0.0189 -0.4008
19377WAT     H179313   8.245   7.562   0.203 -0.4133 -0.5337 -1.0707
19377WAT     H279314   8.387   7.509   0.192  0.7781  2.0998  0.7657
19377WAT    EPW79315   8.317   7.548   0.156  0.2170  0.2208 -0.3353
19378WAT      O79316   0.733   7.385   0.374 -0.2530 -0.0031  0.1939
19378WAT     H179317   0.782   7.303   0.364  1.6798  1.2156 -0.7050
19378WAT     H279318   0.712   7.388   0.468 -0.7775 -1.7110  0.1796
19378WAT    EPW79319   0.736   7.374   0.385 -0.0673 -0.0677  0.0734
19379WAT      O79320   0.168   4.985   3.292  0.0166 -0.3742  0.5796
19379WAT     H179321   0.121   4.914   3.335 -0.3666 -0.5749 -0.1539
19379WAT     H279322   0.249   4.945   3.260  0.7640 -0.0038  1.9368
19379WAT    EPW79323   0.172   4.971   3.293  0.0647 -0.3517  0.6620
19380WAT      O79324   7.564   8.218   2.897 -0.8994  0.0808 -0.2412
19380WAT     H179325   7.508   8.263   2.834 -0.5185 -2.7556 -2.8255
19380WAT     H279326   7.506   8.152   2.937 -0.5295  0.2525  0.5992
19380WAT    EPW79327   7.549   8.215   2.894 -0.8001 -0.2704 -0.4712
19381WAT      O79328   8.566   6.718   7.135 -0.4687 -0.3688 -0.3071
19381WAT     H179329   8.501   6.703   7.066 -0.0043 -1.9504 -0.4459
19381WAT     H279330   8.613   6.635   7.142  1.4042  0.6422 -0.0661
19381WAT    EPW79331   8.564   6.705   7.126 -0.1607 -0.4439 -0.2937
19382WAT      O79332   7.110   0.028   0.909 -0.4287  0.5626 -0.5094
19382WAT     H179333   7.050   0.029   0.984 -0.6452 -1.7523 -0.5795
19382WAT     H279334   7.179   0.090   0.933  0.3887 -1.2698  2.3984
19382WAT    EPW79335   7.111   0.036   0.922 -0.3495  0.0156 -0.1352
19383WAT      O79336   3.509  10.063   1.167  0.4571  0.0158 -0.5864
19383WAT     H179337   3.475   9.975   1.181  1.1438  0.1395  2.7725
19383WAT     H279338   3.451  10.119   1.219 -0.5278  1.7893 -3.3599
19383WAT    EPW79339   3.497  10.059   1.176  0.4177  0.2661 -0.5092
19384WAT      O79340   7.618   3.525   7.571  0.0352 -0.4327  0.5312
19384WAT     H179341   7.608   3.500   7.663  0.7186  1.4194  1.1463
19384WAT     H279342   7.555   3.596   7.558  1.2570  0.6209  0.1245
19384WAT    EPW79343   7.608   3.531   7.581  0.2866 -0.0494  0.5589
19385WAT      O79344   9.108   7.448   7.571  0.6914  0.1568 -0.2073
19385WAT     H179345   9.106   7.492   7.487  1.2834  0.1113 -0.2446
19385WAT     H279346   9.163   7.503   7.627  0.4749  0.0797  0.0900
19385WAT    EPW79347   9.115   7.461   7.568  0.7410  0.1407 -0.1731
19386WAT      O79348   1.278   0.006   1.749  0.2038 -0.9225 -0.3183
19386WAT     H179349   1.183   0.003   1.744  0.2487 -2.2701 -0.6826
19386WAT     H279350   1.297   0.084   1.802 -1.0990 -0.8033 -0.0030
19386WAT    EPW79351   1.268   0.016   1.755  0.0377 -1.0843 -0.3248
19387WAT      O79352   1.609   4.952   8.572 -0.3420  0.2156 -0.3928
19387WAT     H179353   1.550   5.026   8.583  0.8608  0.9894  1.3327
19387WAT     H279354   1.553   4.880   8.544 -2.0543  0.9863  0.9106
19387WAT    EPW79355   1.594   4.952   8.570 -0.4092  0.4191  0.0062
19388WAT      O79356   2.868   3.793   5.841  0.4306  0.1418 -0.1003
19388WAT     H179357   2.836   3.802   5.752 -0.3067 -1.1226  0.0212
19388WAT     H279358   2.792   3.809   5.896  0.2543 -1.5724  0.2208
19388WAT    EPW79359   2.854   3.796   5.837  0.3101 -0.2512 -0.0420
19389WAT      O79360  10.968   6.175   4.529  0.4794 -0.2480  0.6588
19389WAT     H179361  10.973   6.196   4.436 -1.1315 -1.4241  0.2471
19389WAT     H279362  11.028   6.102   4.540 -1.2527 -1.8894 -0.1062
19389WAT    EPW79363  10.977   6.168   4.518  0.0386 -0.6196  0.5035
19390WAT      O79364   0.943   6.717   2.417 -0.4706 -0.5558 -0.3662
19390WAT     H179365   0.998   6.648   2.452  1.1115 -0.5410 -2.6464
19390WAT     H279366   0.866   6.718   2.474  0.4874 -2.6535  1.0523
19390WAT    EPW79367   0.940   6.708   2.429 -0.1356 -0.8307 -0.4797
19391WAT      O79368  10.328   6.815   7.968  0.0517 -0.1961 -0.5824
19391WAT     H179369  10.344   6.910   7.970 -1.0695 -0.0000 -0.2610
19391WAT     H279370  10.341   6.791   7.876  1.1835  0.1068 -0.5150
19391WAT    EPW79371  10.332   6.824   7.956  0.0529 -0.1302 -0.5312
19392WAT      O79372   3.661   4.675   2.111  0.0194  0.1236 -0.4710
19392WAT     H179373   3.691   4.749   2.059  2.0340 -1.6516 -2.0669
19392WAT     H279374   3.648   4.605   2.047 -1.8831 -0.9231  0.9571
19392WAT    EPW79375   3.663   4.675   2.095  0.0342 -0.2487 -0.4930
19393WAT      O79376   5.092   9.716   0.562  0.1653 -0.4768 -0.2795
19393WAT     H179377   5.165   9.667   0.599 -0.6262 -0.7038  1.0230
19393WAT     H279378   5.014   9.673   0.596 -0.5855  0.1107 -1.1969
19393WAT    EPW79379   5.092   9.704   0.571 -0.0381 -0.4296 -0.2287
19394WAT      O79380   0.628   2.627   4.991  0.8950  0.3386  0.0877
19394WAT     H179381   0.651   2.688   5.061 -1.0836 -0.8156  1.8442
19394WAT     H279382   0.566   2.676   4.936 -1.5474 -0.2684  2.0975
19394WAT    EPW79383   0.623   2.642   4.993  0.3119  0.1063  0.5846
19395WAT      O79384   9.679   1.361   1.250  0.3232  0.7345  0.2933
19395WAT     H179385   9.717   1.339   1.334  0.2269  2.6763  0.8764
19395WAT     H279386   9.588   1.332   1.257  0.5653 -0.0196  0.4573
19395WAT    EPW79387   9.672   1.354   1.262  0.3424  0.8912  0.3918
19396WAT      O79388   0.173   4.207   7.843 -0.0170 -0.1490 -0.4650
19396WAT     H179389   0.251   4.186   7.793  0.5525 -0.5142  0.5612
19396WAT     H279390   0.118   4.129   7.835 -0.2701  0.0897 -1.1462
19396WAT    EPW79391   0.176   4.194   7.835  0.0248 -0.1657 -0.4196
19397WAT      O79392   0.253   4.322   6.708 -0.5037  0.2469  0.5340
19397WAT     H179393   0.245   4.230   6.734 -0.8440  0.3579  0.8355
19397WAT     H279394   0.336   4.326   6.659 -0.6028 -0.2644  0.3124
19397WAT    EPW79395   0.263   4.310   6.705 -0.5617  0.1941  0.5445
19398WAT      O79396   5.566   1.751   0.255  0.0395 -0.0497 -0.1745
19398WAT     H179397   5.570   1.822   0.319  1.2702  1.8501 -2.2451
19398WAT     H279398   5.514   1.787   0.183 -0.0807 -1.6079 -0.8950
19398WAT    EPW79399   5.560   1.765   0.254  0.1862 -0.0046 -0.5427
19399WAT      O79400   5.171   0.444   7.059 -0.4002 -0.3338 -0.1239
19399WAT     H179401   5.192   0.529   7.097 -2.7346  1.6741 -3.0068
19399WAT     H279402   5.198   0.450   6.968 -0.8762 -2.6412 -0.4927
19399WAT    EPW79403   5.177   0.456   7.052 -0.7708 -0.3733 -0.5529
19400WAT      O79404   6.816   0.593   0.359 -0.1096  0.7311 -0.1086
19400WAT     H179405   6.902   0.616   0.393 -0.2160  1.7576 -0.4975
19400WAT     H279406   6.799   0.506   0.393  2.5344 -0.9972 -2.7377
19400WAT    EPW79407   6.825   0.585   0.368  0.2251  0.6386 -0.5066
19401WAT      O79408   0.664   4.932   8.069  0.2246  0.9109  0.7124
19401WAT     H179409   0.635   4.914   8.158  0.5354  1.7512  0.9917
19401WAT     H279410   0.593   4.901   8.013  0.2683 -0.1358  1.2191
19401WAT    EPW79411   0.651   4.925   8.073  0.2714  0.8836  0.8168
19402WAT      O79412   8.097   1.157   1.329  0.4661  0.0757 -0.4722
19402WAT     H179413   8.011   1.191   1.353 -0.0036 -2.0481  1.1648
19402WAT     H279414   8.159   1.225   1.357 -0.5605  0.7921  0.1032
19402WAT    EPW79415   8.094   1.171   1.336  0.2685 -0.1099 -0.1804
19403WAT      O79416   1.306   5.561   6.473 -0.0809  0.0763  0.3171
19403WAT     H179417   1.399   5.579   6.466 -0.3574  2.1384  1.2519
19403WAT     H279418   1.276   5.549   6.383  1.5963 -4.0798  0.0912
19403WAT    EPW79419   1.314   5.562   6.460  0.1038 -0.2000  0.4106
19404WAT      O79420   1.535   5.687   8.157 -0.4822 -0.4776 -0.2153
19404WAT     H179421   1.445   5.711   8.179 -0.8337  0.7066 -2.5302
19404WAT     H279422   1.589   5.742   8.214 -1.2898  0.7133 -0.5477
19404WAT    EPW79423   1.530   5.698   8.167 -0.6350 -0.1645 -0.5646
19405WAT      O79424   0.357   4.018   0.153  0.0774  0.0290 -0.4046
19405WAT     H179425   0.307   4.088   0.110  1.2235 -0.1489 -2.1183
19405WAT     H279426   0.299   3.942   0.150 -0.2341  0.2756 -0.7300
19405WAT    EPW79427   0.343   4.017   0.147  0.1874  0.0384 -0.6736
19406WAT      O79428   9.323   7.472   8.405 -0.6385 -0.2998 -0.4831
19406WAT     H179429   9.378   7.551   8.407  1.8485 -1.8387 -2.5890
19406WAT     H279430   9.364   7.413   8.469 -1.9884 -0.2569  0.4678
19406WAT    EPW79431   9.336   7.475   8.414 -0.4883 -0.4976 -0.6351
19407WAT      O79432   0.039   8.519   8.828 -0.3335 -1.1061  0.2810
19407WAT     H179433   0.084   8.437   8.848 -1.2273 -1.4944  0.7750
19407WAT     H279434   0.003   8.548   8.912 -2.2413 -1.5892 -0.2977
19407WAT    EPW79435   0.040   8.512   8.842 -0.7030 -1.2207  0.2699
19408WAT      O79436   2.614   4.710   6.686  0.6910  0.6842  0.0487
19408WAT     H179437   2.671   4.640   6.655  0.4551  1.1234 -1.4307
19408WAT     H279438   2.642   4.787   6.637  0.1005  1.3439  0.7199
19408WAT    EPW79439   2.625   4.711   6.676  0.5821  0.8290 -0.0577
19409WAT      O79440   0.532   0.063   0.404  0.0732  0.2717 -0.3111
19409WAT     H179441   0.542  -0.030   0.425  1.3929  0.2872 -0.7650
19409WAT     H279442   0.533   0.108   0.489  0.6914 -0.0332 -0.1531
19409WAT    EPW79443   0.534   0.057   0.418  0.3288  0.2335 -0.3501
19410WAT      O79444   2.380  10.046   7.429 -0.1566  0.3931 -0.3294
19410WAT     H179445   2.318  10.109   7.393  0.0166  0.5432 -0.3607
19410WAT     H279446   2.421  10.091   7.503 -1.7161 -0.4620  1.1403
19410WAT    EPW79447   2.377  10.060   7.434 -0.3395  0.2999 -0.1397
19411WAT      O79448   0.545   5.597   6.794 -0.3013  0.4223 -0.4259
19411WAT     H179449   0.529   5.519   6.848  1.9790  0.6116  0.6286
19411WAT     H279450   0.490   5.584   6.717 -1.6326 -1.1585  0.7126
19411WAT    EPW79451   0.536   5.585   6.791 -0.1762  0.2387 -0.1366
19412WAT      O79452   8.182   1.543   0.498  0.3169  0.2383 -0.3977
19412WAT     H179453   8.214   1.594   0.423 -0.4629 -0.7509 -1.4610
19412WAT     H279454   8.167   1.607   0.567  0.4432  1.2788 -1.3080
19412WAT    EPW79455   8.184   1.558   0.497  0.2303  0.2450 -0.6580
19413WAT      O79456   1.711   6.654   7.091  0.3922  0.4486 -0.5856
19413WAT     H179457   1.672   6.651   7.178  1.2081 -0.7311 -0.2349
19413WAT     H279458   1.705   6.746   7.065 -0.6038  0.6747  0.3592
19413WAT    EPW79459   1.705   6.666   7.099  0.3685  0.3231 -0.4146
19414WAT      O79460   8.558   3.702   0.361  0.0339  0.1694 -0.2868
19414WAT     H179461   8.614   3.649   0.418 -0.1767  0.4149  0.1547
19414WAT     H279462   8.539   3.645   0.286  0.4617 -0.0909 -0.1979
19414WAT    EPW79463   8.563   3.688   0.359  0.0629  0.1674 -0.2168
19415WAT      O79464   0.560   7.823   5.391 -0.5583  0.4196 -0.6822
19415WAT     H179465   0.502   7.747   5.384 -1.3659  0.7362  1.6686
19415WAT     H279466   0.644   7.786   5.418 -1.5070  0.3930  2.6833
19415WAT    EPW79467   0.563   7.808   5.393 -0.7900  0.4578  0.0720
19416WAT      O79468   9.645   8.495   7.876  0.2005 -0.1257  0.1823
19416WAT     H179469   9.721   8.537   7.834  0.8179  0.8003  2.0992
19416WAT     H279470   9.681   8.416   7.915  0.3859  0.6974  1.7403
19416WAT    EPW79471   9.660   8.490   7.875  0.3061  0.1054  0.6409
19417WAT      O79472   7.346   3.762   2.390 -0.2906  0.3430  0.0964
19417WAT     H179473   7.269   3.818   2.391 -0.4346  0.1444  0.0172
19417WAT     H279474   7.330   3.696   2.456 -0.8639 -0.6081 -0.9683
19417WAT    EPW79475   7.334   3.761   2.399 -0.3855  0.1913 -0.0545
19418WAT      O79476   1.296   7.948   7.491 -0.6622 -0.6436 -0.1181
19418WAT     H179477   1.262   8.008   7.425 -1.2012 -0.9751 -0.1407
19418WAT     H279478   1.294   7.999   7.572 -0.9055 -0.5554 -0.1793
19418WAT    EPW79479   1.291   7.963   7.493 -0.7653 -0.6759 -0.1295
19419WAT      O79480   2.681   5.553   4.730  0.6024  0.1118  0.4209
19419WAT     H179481   2.721   5.469   4.756  0.5682 -0.2347 -0.6032
19419WAT     H279482   2.657   5.540   4.638 -2.3422  0.1186  1.0875
19419WAT    EPW79483   2.683   5.540   4.721  0.2095  0.0670  0.3741
19420WAT      O79484   1.202   9.937   7.475 -0.2148 -0.1851 -0.6430
19420WAT     H179485   1.190  10.021   7.518 -0.3849 -0.5920  0.1345
19420WAT     H279486   1.280   9.949   7.420 -0.1883  0.4498 -0.4717
19420WAT    EPW79487   1.211   9.949   7.473 -0.2337 -0.1550 -0.5176
19421WAT      O79488   1.796   9.727   7.366 -0.2498 -0.1771 -0.3693
19421WAT     H179489   1.872   9.763   7.320 -2.9534  3.0491 -2.8204
19421WAT     H279490   1.768   9.797   7.424 -2.3528 -0.5097 -0.8972
19421WAT    EPW79491   1.802   9.741   7.367 -0.8837  0.2046 -0.7622
19422WAT      O79492   3.644   1.865   1.362 -0.2928 -0.4098  0.1389
19422WAT     H179493   3.631   1.829   1.274  1.1672 -0.7245  0.0257
19422WAT     H279494   3.720   1.923   1.353 -0.8788  0.5073  0.9404
19422WAT    EPW79495   3.653   1.868   1.349 -0.1776 -0.3303  0.2298
19423WAT      O79496   0.333   7.197   3.983  0.4672 -0.1070  0.1127
19423WAT     H179497   0.377   7.257   3.923 -0.3042  2.4138  1.8982
19423WAT     H279498   0.306   7.252   4.056 -0.7200 -2.5956  1.6806
19423WAT    EPW79499   0.335   7.212   3.985  0.2089 -0.1028  0.5549
19424WAT      O79500   1.538   6.460   7.798 -0.5408  0.6825  0.2471
19424WAT     H179501   1.508   6.459   7.889  2.9366 -1.5504  1.5597
19424WAT     H279502   1.512   6.375   7.764 -1.0975  1.1892 -0.6219
19424WAT    EPW79503   1.531   6.449   7.806 -0.1556  0.4549  0.3054
19425WAT      O79504   0.656   6.180   7.715 -0.1124  0.0585  0.2194
19425WAT     H179505   0.709   6.176   7.635 -2.2537 -1.8652 -1.2573
19425WAT     H279506   0.565   6.176   7.683 -1.0460 -1.1554  2.7366
19425WAT    EPW79507   0.651   6.179   7.700 -0.5179 -0.3555  0.3567
19426WAT      O79508   0.271   1.088   0.684 -0.4689 -0.6974 -0.6792
19426WAT     H179509   0.284   1.180   0.662 -0.9881 -0.6232 -0.6848
19426WAT     H279510   0.226   1.052   0.608 -0.7512 -0.8292 -0.4502
19426WAT    EPW79511   0.267   1.096   0.671 -0.5746 -0.7050 -0.6498
19427WAT      O79512   6.487   2.981   1.538  0.3447 -0.3708  0.1205
19427WAT     H179513   6.579   2.994   1.562 -0.2093  0.1887  2.1389
19427WAT     H279514   6.458   2.910   1.594 -0.1819 -1.3539 -1.3487
19427WAT    EPW79515   6.495   2.974   1.548  0.2024 -0.4267  0.1929
19428WAT      O79516  10.358   2.866   8.146  0.1280  0.0371 -0.5642
19428WAT     H179517  10.275   2.870   8.099 -0.6138 -2.5223  0.3470
19428WAT     H279518  10.425   2.867   8.077 -0.6792  1.0280 -1.3626
19428WAT    EPW79519  10.356   2.867   8.131 -0.0763 -0.1698 -0.5488
19429WAT      O79520   0.702  10.078   7.138 -0.0665  0.4256 -0.1191
19429WAT     H179521   0.744  10.119   7.214  1.0186  1.4697 -1.2499
19429WAT     H279522   0.761  10.007   7.114  0.2163  0.8603 -0.7161
19429WAT    EPW79523   0.715  10.074   7.145  0.1139  0.6204 -0.3469
19430WAT      O79524   1.478   7.095   6.186 -0.4962 -0.0772 -0.0484
19430WAT     H179525   1.533   7.021   6.160 -1.1172 -0.8066  0.6846
19430WAT     H279526   1.514   7.125   6.269  1.4494  2.2219 -1.5845
19430WAT    EPW79527   1.490   7.089   6.193 -0.3214  0.1299 -0.1538
19431WAT      O79528   1.210   9.748   7.692  0.0303 -0.9811 -0.2528
19431WAT     H179529   1.223   9.808   7.619 -1.5812  0.3144  0.4829
19431WAT     H279530   1.141   9.688   7.662  1.2902 -2.2311 -0.7966
19431WAT    EPW79531   1.203   9.748   7.678 -0.0160 -0.9756 -0.2275
19432WAT      O79532   1.866   7.159   7.531 -0.1242  0.4733 -0.4381
19432WAT     H179533   1.933   7.193   7.470  1.8099  0.0111  1.3176
19432WAT     H279534   1.917   7.116   7.600 -2.0958  2.1769  2.2864
19432WAT    EPW79535   1.882   7.158   7.532 -0.1292  0.6373  0.1528
19433WAT      O79536   0.549   6.450   7.593 -0.3815 -0.2039  0.1689
19433WAT     H179537   0.490   6.506   7.643 -0.1396  0.4230 -0.2417
19433WAT     H279538   0.557   6.493   7.508  2.5862  1.0778  0.9615
19433WAT    EPW79539   0.542   6.463   7.589  0.0418  0.0479  0.2193
19434WAT      O79540   9.643   3.516   5.501 -0.0237 -0.1686 -0.2105
19434WAT     H179541   9.594   3.440   5.468  2.3333 -2.0088  0.2647
19434WAT     H279542   9.684   3.485   5.581  1.0712  1.6184 -0.0293
19434WAT    EPW79543   9.642   3.502   5.507  0.4315 -0.1757 -0.1237
19435WAT      O79544  10.635   9.525   5.994 -0.1616  0.6552  0.2380
19435WAT     H179545  10.689   9.597   6.028  2.0698 -0.0799 -1.5365
19435WAT     H279546  10.595   9.560   5.914  1.6408 -0.2435 -1.1315
19435WAT    EPW79547  10.637   9.539   5.988  0.3710  0.4401 -0.1767
19436WAT      O79548   2.341  10.252   2.407 -0.6741 -0.2597 -0.0358
19436WAT     H179549   2.414  10.221   2.460 -1.0198  0.3060  0.7837
19436WAT     H279550   2.316  10.336   2.446  1.1161  1.8342 -2.9925
19436WAT    EPW79551   2.347  10.259   2.419 -0.4836  0.0911 -0.3176
19437WAT      O79552   4.074   3.767   3.013 -0.5073 -0.1748 -0.1701
19437WAT     H179553   4.094   3.708   2.941 -2.5614  2.5436 -3.2369
19437WAT     H279554   3.979   3.764   3.021 -0.3616 -0.2932  2.4711
19437WAT    EPW79555   4.064   3.759   3.005 -0.7589  0.1682 -0.2261
19438WAT      O79556  10.607   8.883   6.124 -0.3083  0.1935 -0.1595
19438WAT     H179557  10.663   8.806   6.140  2.2727  2.0245  0.3309
19438WAT     H279558  10.541   8.879   6.192  1.0533 -0.5156  1.1803
19438WAT    EPW79559  10.606   8.872   6.135  0.2117  0.3409  0.0820
19439WAT      O79560   1.001   5.319   6.714 -0.2243  0.2253  0.2744
19439WAT     H179561   1.015   5.369   6.795 -1.4829  2.0561 -0.5666
19439WAT     H279562   1.089   5.296   6.685  0.6852  3.8270 -0.3558
19439WAT    EPW79563   1.014   5.323   6.721 -0.2704  0.9420  0.0801
19440WAT      O79564   9.167   5.951   6.813  0.5598 -0.0368 -0.2192
19440WAT     H179565   9.174   5.966   6.908 -0.7415 -2.3366  0.3066
19440WAT     H279566   9.104   6.017   6.783 -1.9400 -1.5802  1.2634
19440WAT    EPW79567   9.160   5.962   6.822  0.0587 -0.5436  0.0458
19441WAT      O79568  10.015   5.244   5.330  0.6292 -0.6600 -0.3958
19441WAT     H179569  10.022   5.199   5.415 -1.2170  0.0629  0.1788
19441WAT     H279570   9.969   5.325   5.350  1.7096  0.3540 -1.8375
19441WAT    EPW79571  10.010   5.249   5.344  0.5283 -0.4308 -0.5102
19442WAT      O79572   9.657   5.114   5.068  0.2144  0.1262 -0.1901
19442WAT     H179573   9.665   5.188   5.007 -2.0238  0.7299  0.1796
19442WAT     H279574   9.716   5.048   5.032  0.1405  1.0476 -2.1362
19442WAT    EPW79575   9.666   5.115   5.055 -0.0911  0.3273 -0.3979
19443WAT      O79576  10.437   7.248   7.061 -0.2691 -0.0132 -0.0566
19443WAT     H179577  10.450   7.325   7.006  0.6636 -1.5626 -2.1455
19443WAT     H279578  10.524   7.208   7.067 -0.5763 -0.5149  1.6594
19443WAT    EPW79579  10.450   7.253   7.055 -0.1864 -0.2837 -0.1059
19444WAT      O79580   7.152   0.480   0.529 -0.4754 -0.4914  0.3933
19444WAT     H179581   7.208   0.443   0.460 -0.8281 -0.6030  0.1650
19444WAT     H279582   7.165   0.575   0.522 -0.7028 -0.4885  0.0091
19444WAT    EPW79583   7.161   0.488   0.519 -0.5524 -0.5057  0.3125
19445WAT      O79584   9.895  10.163   8.966 -0.0430  0.5056  0.7012
19445WAT     H179585   9.808  10.130   8.943  0.3275 -0.8684  1.1949
19445WAT     H279586   9.918  10.116   9.046  1.4203  0.3618  0.2224
19445WAT    EPW79587   9.887  10.153   8.974  0.1984  0.3057  0.7038
19446WAT      O79588   7.486   1.725   2.731 -0.1743  1.1109 -0.2067
19446WAT     H179589   7.502   1.763   2.645  2.2381  0.1236 -0.2687
19446WAT     H279590   7.570   1.731   2.776 -0.6015 -1.0099  1.0139
19446WAT    EPW79591   7.499   1.730   2.726  0.0873  0.7009 -0.0538
19447WAT      O79592   0.730   6.213   5.857 -0.2740  0.7791  0.0201
19447WAT     H179593   0.824   6.202   5.840 -0.0533  2.7460 -0.2608
19447WAT     H279594   0.709   6.145   5.921  1.5978  1.0335  0.9637
19447WAT    EPW79595   0.740   6.203   5.863  0.0020  1.0722  0.1073
19448WAT      O79596   0.322   8.272   6.095 -0.4195 -0.1484 -0.6990
19448WAT     H179597   0.244   8.249   6.146  0.2495 -0.1789  0.3487
19448WAT     H279598   0.300   8.248   6.005 -1.7955  0.2935 -0.5006
19448WAT    EPW79599   0.308   8.266   6.090 -0.5127 -0.0939 -0.5345
19449WAT      O79600   9.707   3.102   0.569  0.4618  0.5786  0.2129
19449WAT     H179601   9.713   3.180   0.624 -2.4709 -0.0829  1.7151
19449WAT     H279602   9.720   3.029   0.629 -0.4498 -0.1172 -0.3967
19449WAT    EPW79603   9.709   3.103   0.584 -0.0453  0.3997  0.3306
19450WAT      O79604   8.558   7.621   6.663 -0.0913 -0.2767 -0.0560
19450WAT     H179605   8.498   7.548   6.655  0.9919 -1.0360 -1.8691
19450WAT     H279606   8.645   7.581   6.659  0.5279  1.1138 -1.5224
19450WAT    EPW79607   8.562   7.606   6.661  0.1335 -0.1931 -0.4888
19451WAT      O79608   8.268   7.737   6.798  0.5349 -0.5642 -0.3568
19451WAT     H179609   8.258   7.809   6.860  1.7450 -1.4612  0.9701
19451WAT     H279610   8.212   7.760   6.724  2.4455  2.7795 -0.9711
19451WAT    EPW79611   8.259   7.749   6.796  0.9465 -0.2413 -0.2625
19452WAT      O79612   5.260   2.267   0.174  0.0688 -0.2942  0.3713
19452WAT     H179613   5.301   2.352   0.156 -0.4508 -0.2868 -0.9386
19452WAT     H279614   5.260   2.223   0.089 -1.1855 -0.9316  0.6760
19452WAT    EPW79615   5.266   2.272   0.160 -0.1655 -0.3773  0.2388
19453WAT      O79616   3.687   9.689   0.293  0.1283  0.2619 -0.4644
19453WAT     H179617   3.717   9.644   0.373 -1.8756 -0.5301 -0.0995
19453WAT     H279618   3.687   9.782   0.317 -3.9170 -0.0958  1.8918
19453WAT    EPW79619   3.691   9.695   0.307 -0.6696  0.1101 -0.1055
19454WAT      O79620   2.107   8.418   6.682 -0.5796 -0.1798  1.0159
19454WAT     H179621   2.075   8.340   6.728 -2.4616  1.3856  2.4900
19454WAT     H279622   2.148   8.471   6.751 -0.0890  0.5387  0.1902
19454WAT    EPW79623   2.108   8.415   6.697 -0.7632  0.1216  1.1015
19455WAT      O79624   8.740   3.052   1.561 -0.2266 -0.0934 -0.4318
19455WAT     H179625   8.791   3.133   1.554  0.9536 -0.6990  0.6944
19455WAT     H279626   8.800   2.983   1.532 -0.7950 -0.7045 -0.1876
19455WAT    EPW79627   8.755   3.054   1.556 -0.1459 -0.2538 -0.2511
19456WAT      O79628   0.178   6.773   8.367  0.0283 -0.1823  0.4066
19456WAT     H179629   0.092   6.790   8.404  0.0231  0.0047  0.3134
19456WAT     H279630   0.181   6.678   8.354 -0.4231 -0.1182 -0.2164
19456WAT    EPW79631   0.167   6.763   8.370 -0.0319 -0.1490  0.3123
19457WAT      O79632  10.046   3.092   0.838 -0.3373 -0.2862  0.3150
19457WAT     H179633  10.000   3.121   0.759 -1.2323  1.8858  1.5309
19457WAT     H279634  10.091   3.011   0.812 -0.2017  0.5969 -2.5192
19457WAT    EPW79635  10.046   3.085   0.825 -0.4377  0.1166  0.1015
19458WAT      O79636   2.026   6.504   6.442 -0.4108 -0.0329 -0.0490
19458WAT     H179637   2.048   6.424   6.490 -1.0695  0.4613  1.1187
19458WAT     H279638   1.958   6.546   6.495  0.4161  1.6619 -0.2646
19458WAT    EPW79639   2.020   6.499   6.455 -0.3886  0.2556  0.0768
19459WAT      O79640   0.688   8.356   6.497  0.8430 -0.7545  0.2536
19459WAT     H179641   0.608   8.353   6.550 -1.0531 -1.6502 -2.4071
19459WAT     H279642   0.663   8.314   6.414  2.5406  3.3008 -2.6338
19459WAT    EPW79643   0.674   8.350   6.493  0.8168 -0.3376 -0.4780
19460WAT      O79644   6.815   1.651   3.379 -0.1770 -0.1298 -0.1833
19460WAT     H179645   6.909   1.663   3.389 -0.1628  0.0395 -0.5116
19460WAT     H279646   6.787   1.611   3.462  0.3938 -1.4721 -0.6141
19460WAT    EPW79647   6.824   1.647   3.391 -0.1001 -0.2846 -0.2834
19461WAT      O79648  10.720   7.681   7.047  0.1591 -0.3747  0.0483
19461WAT     H179649  10.770   7.712   7.123 -1.8458  1.3055  0.7923
19461WAT     H279650  10.665   7.756   7.023  0.8878 -0.7714 -3.2689
19461WAT    EPW79651  10.720   7.695   7.054 -0.0095 -0.2053 -0.2909
19462WAT      O79652   7.914   3.940   0.124  0.9339  0.8160  0.0799
19462WAT     H179653   7.967   3.869   0.160  0.8545  0.9921  0.5543
19462WAT     H279654   7.831   3.934   0.172  0.7805  0.9733 -0.1665
19462WAT    EPW79655   7.910   3.930   0.135  0.9029  0.8600  0.1100
19463WAT      O79656  10.200   5.115   7.188  0.0460  0.5094  0.4740
19463WAT     H179657  10.277   5.060   7.171  1.2289  2.6023 -1.4442
19463WAT     H279658  10.125   5.057   7.171  1.0322 -1.8708  3.2950
19463WAT    EPW79659  10.200   5.100   7.184  0.3324  0.4714  0.5929
19464WAT      O79660   1.146   8.228   8.432  0.0967  0.3541 -0.4036
19464WAT     H179661   1.138   8.174   8.354  0.4963 -0.4721  0.1193
19464WAT     H279662   1.235   8.214   8.462 -1.4230 -3.5995  3.2014
19464WAT    EPW79663   1.157   8.219   8.425 -0.0510 -0.2770  0.1407
19465WAT      O79664   6.728   3.025   0.648 -0.3867 -0.0652 -0.2202
19465WAT     H179665   6.758   3.113   0.627  1.2089 -0.7415 -0.9652
19465WAT     H279666   6.693   2.991   0.566  0.7747 -0.7670 -0.4586
19465WAT    EPW79667   6.727   3.032   0.634 -0.0231 -0.2469 -0.3499
19466WAT      O79668  10.622   6.445   5.785  0.3367 -0.0762  0.2686
19466WAT     H179669  10.641   6.478   5.698 -1.7502 -4.4129 -2.1172
19466WAT     H279670  10.708   6.435   5.826  1.2811  3.6281 -0.4048
19466WAT    EPW79671  10.636   6.448   5.779  0.1864 -0.1595 -0.1349
19467WAT      O79672   2.285   6.249   5.303  1.1928  0.0223  0.5041
19467WAT     H179673   2.375   6.271   5.280  0.8743 -1.8644 -3.1750
19467WAT     H279674   2.282   6.154   5.299 -1.0855  0.0707  0.0357
19467WAT    EPW79675   2.297   6.239   5.300  0.8503 -0.2203 -0.0432
19468WAT      O79676   8.882   3.297   1.887  0.5181 -0.5086 -0.0474
19468WAT     H179677   8.937   3.323   1.813 -0.7731 -1.4926 -1.4149
19468WAT     H279678   8.804   3.352   1.879  0.7040 -0.0428  1.0984
19468WAT    EPW79679   8.879   3.308   1.876  0.3719 -0.5769 -0.0767
19469WAT      O79680   7.858   0.328   0.916 -0.2977 -0.2220  0.9394
19469WAT     H179681   7.920   0.390   0.955 -2.7023  3.3614 -0.3180
19469WAT     H279682   7.870   0.338   0.822 -0.8169 -1.6339  0.7058
19469WAT    EPW79683   7.867   0.338   0.909 -0.6833  0.0644  0.7427
19470WAT      O79684   2.517   7.947   7.065 -0.2193 -0.2835  0.6681
19470WAT     H179685   2.532   7.858   7.097 -2.2213 -0.9108  0.0119
19470WAT     H279686   2.590   7.964   7.005  0.0053 -1.6015  0.5499
19470WAT    EPW79687   2.529   7.938   7.061 -0.4536 -0.5403  0.5660
19471WAT      O79688   9.903   9.977   8.655 -0.1114 -0.2746  0.3583
19471WAT     H179689   9.877   9.905   8.597 -1.1490  1.5104 -1.5249
19471WAT     H279690   9.833   9.982   8.720 -0.3313 -0.6047  0.1499
19471WAT    EPW79691   9.890   9.968   8.656 -0.2775 -0.0825  0.0830
19472WAT      O79692  10.777   9.100   4.338 -0.2239 -0.0743 -0.1366
19472WAT     H179693  10.838   9.096   4.412 -1.3996 -1.3163  0.8208
19472WAT     H279694  10.690   9.100   4.379 -0.9439 -2.0329 -1.5439
19472WAT    EPW79695  10.773   9.100   4.353 -0.4740 -0.4969 -0.1957
19473WAT      O79696   0.164   4.077   8.977 -0.0467 -0.2005  0.6278
19473WAT     H179697   0.139   4.146   8.915 -2.5881  0.0573  1.8304
19473WAT     H279698   0.132   3.996   8.937  2.8751 -0.8235 -0.7509
19473WAT    EPW79699   0.157   4.075   8.963  0.0035 -0.2487  0.6051
19474WAT      O79700   8.195   3.485   0.572 -1.0198 -0.4448  0.0877
19474WAT     H179701   8.188   3.554   0.638 -0.1115  1.9145 -2.1046
19474WAT     H279702   8.135   3.513   0.503 -0.2291 -1.6068 -1.1015
19474WAT    EPW79703   8.186   3.498   0.572 -0.7963 -0.2868 -0.3583
19475WAT      O79704   6.359   1.623   1.364  0.3393  1.0789  0.2287
19475WAT     H179705   6.376   1.670   1.283 -0.6400 -0.8380 -1.1663
19475WAT     H279706   6.446   1.599   1.396  0.7231  1.2779 -0.6351
19475WAT    EPW79707   6.373   1.626   1.358  0.2606  0.8523 -0.0692
19476WAT      O79708   0.554   8.040   8.848  0.3370 -0.0527 -0.4304
19476WAT     H179709   0.606   8.052   8.769 -0.8508  1.7139 -1.0038
19476WAT     H279710   0.559   8.124   8.893 -3.0939  0.7490 -1.2297
19476WAT    EPW79711   0.562   8.052   8.844 -0.2722  0.2856 -0.6113
19477WAT      O79712   6.633   3.066   0.183  0.0710  0.1446  0.1839
19477WAT     H179713   6.681   3.053   0.102  0.2663 -0.5232  0.3980
19477WAT     H279714   6.693   3.036   0.252 -0.0053  0.9195  0.5928
19477WAT    EPW79715   6.647   3.060   0.182  0.0868  0.1588  0.2661
19478WAT      O79716  10.336   7.539   3.404  0.9189 -0.1706 -0.3805
19478WAT     H179717  10.426   7.546   3.434  1.6135 -1.4951 -2.0537
19478WAT     H279718  10.295   7.479   3.466  0.9982  0.8310  0.6907
19478WAT    EPW79719  10.342   7.532   3.416  1.0214 -0.2131 -0.4599
19479WAT      O79720   5.468   9.043   2.656  0.3281  0.2939 -0.4949
19479WAT     H179721   5.462   9.055   2.750 -0.8359  0.8358 -0.6252
19479WAT     H279722   5.494   9.129   2.623  0.2786  0.2296 -0.7015
19479WAT    EPW79723   5.471   9.056   2.664  0.1681  0.3567 -0.5393
19480WAT      O79724   1.125   7.339   8.180 -0.5301 -0.0300 -0.4204
19480WAT     H179725   1.102   7.252   8.211 -1.1874  0.5105  0.6627
19480WAT     H279726   1.056   7.396   8.214  1.0409  1.2497  0.7689
19480WAT    EPW79727   1.113   7.335   8.189 -0.4095  0.2100 -0.1206
19481WAT      O79728  10.553   7.548   7.256  0.8615  0.2856  0.2301
19481WAT     H179729  10.458   7.550   7.261  0.9090  2.2315  1.0417
19481WAT     H279730  10.575   7.599   7.179  1.2771  1.3147  1.0095
19481WAT    EPW79731  10.543   7.555   7.247  0.9222  0.6778  0.4399
19482WAT      O79732   0.334   8.249   7.443  0.3859 -0.6560 -0.1520
19482WAT     H179733   0.257   8.240   7.387  1.1914  1.7826 -1.8331
19482WAT     H279734   0.408   8.232   7.386  1.1782 -0.2544  0.7235
19482WAT    EPW79735   0.334   8.246   7.428  0.5966 -0.2813 -0.2584
19483WAT      O79736  10.035   2.989   1.119  0.0464 -0.1974 -0.3760
19483WAT     H179737  10.031   2.893   1.127  0.5162 -0.1576  0.4875
19483WAT     H279738  10.001   3.007   1.032 -0.1579 -1.1473 -0.5067
19483WAT    EPW79739  10.030   2.979   1.109  0.0815 -0.3176 -0.2793
19484WAT      O79740   5.777   2.631   0.365 -0.9678 -0.2408 -0.8088
19484WAT     H179741   5.870   2.654   0.362 -1.5026  2.3973  0.3647
19484WAT     H279742   5.775   2.551   0.418  0.6175 -0.3409 -0.8310
19484WAT    EPW79743   5.789   2.623   0.371 -0.8292  0.0938 -0.6570
19485WAT      O79744   1.514   9.352   4.698  0.3133 -0.3970 -1.0409
19485WAT     H179745   1.457   9.427   4.715 -0.5425 -1.4766  1.1756
19485WAT     H279746   1.485   9.321   4.611 -2.9375 -1.1786  0.1531
19485WAT    EPW79747   1.502   9.358   4.689 -0.2284 -0.6423 -0.5910
19486WAT      O79748  10.317   6.693   5.858  0.1440 -0.5013 -0.4342
19486WAT     H179749  10.324   6.749   5.781 -0.7801 -0.0210 -0.1787
19486WAT     H279750  10.285   6.610   5.823  3.4233 -1.6454 -1.1255
19486WAT    EPW79751  10.314   6.689   5.843  0.4544 -0.5887 -0.4916
19487WAT      O79752   0.835   8.619   7.303  0.5195 -0.1291 -0.4893
19487WAT     H179753   0.889   8.683   7.257 -0.1000 -0.3153 -1.5187
19487WAT     H279754   0.898   8.557   7.341  1.0577 -1.1621 -2.8553
19487WAT    EPW79755   0.850   8.619   7.302  0.5088 -0.2899 -0.9372
19488WAT      O79756   1.630   9.886   6.317  0.5237  0.2230  0.5368
19488WAT     H179757   1.605   9.942   6.243  0.3857  1.9776  1.8637
19488WAT     H279758   1.572   9.810   6.309  0.0363  0.6935 -0.7595
19488WAT    EPW79759   1.619   9.883   6.306  0.4411  0.5164  0.5407
19489WAT      O79760   5.129   3.712   0.900 -0.6469  0.3140  0.2155
19489WAT     H179761   5.093   3.783   0.847 -1.5857  1.7640  2.6448
19489WAT     H279762   5.096   3.728   0.989  3.4308 -0.0554  2.0386
19489WAT    EPW79763   5.120   3.723   0.905 -0.2327  0.4566  0.7764
19490WAT      O79764   2.235   6.004   5.063 -0.0679 -0.3795  0.1166
19490WAT     H179765   2.151   6.023   5.105 -0.4883 -0.8790 -0.4799
19490WAT     H279766   2.212   5.955   4.984  0.6970  0.5664 -0.7330
19490WAT    EPW79767   2.221   6.000   5.058 -0.0224 -0.3207 -0.0741
19491WAT      O79768   2.268   8.292   3.157 -0.5713  0.3047  0.2621
19491WAT     H179769   2.276   8.204   3.120  0.4431  1.2060 -1.8874
19491WAT     H279770   2.355   8.312   3.192 -1.4518 -0.4315  3.1227
19491WAT    EPW79771   2.280   8.283   3.156 -0.5538  0.3266  0.3560
19492WAT      O79772   6.395   8.691   2.135  0.1544  0.0919 -0.6885
19492WAT     H179773   6.452   8.756   2.094  0.1076  0.7752  0.3083
19492WAT     H279774   6.428   8.607   2.102  1.3333  0.5063 -0.6221
19492WAT    EPW79775   6.407   8.689   2.125  0.3037  0.2370 -0.5484
19493WAT      O79776  10.851   7.067   8.747  0.6531  0.0421  0.0777
19493WAT     H179777  10.930   7.120   8.748  0.2013  0.7336  0.7399
19493WAT     H279778  10.789   7.115   8.803  0.0936 -0.9732  0.3638
19493WAT    EPW79779  10.853   7.080   8.755  0.5193 -0.0005  0.2027
19494WAT      O79780   1.480   8.552   7.002 -0.3619  0.2591 -0.4381
19494WAT     H179781   1.504   8.467   7.037  0.2393  0.2060 -0.9659
19494WAT     H279782   1.452   8.603   7.079  0.4095 -0.0255  0.0431
19494WAT    EPW79783   1.479   8.548   7.017 -0.1810  0.2146 -0.4444
19495WAT      O79784   0.202   7.951   5.656 -0.2459  0.4318  0.0248
19495WAT     H179785   0.242   8.036   5.636 -0.9173  0.8647  0.4921
19495WAT     H279786   0.154   7.965   5.737 -1.9597  0.1567 -0.8757
19495WAT    EPW79787   0.201   7.964   5.664 -0.5605  0.4525 -0.0324
19496WAT      O79788  10.449   7.738   6.343 -0.9901  0.3075 -0.1371
19496WAT     H179789  10.491   7.652   6.345  1.0134  1.2314  1.0046
19496WAT     H279790  10.380   7.729   6.277 -1.2302 -2.3083  0.3464
19496WAT    EPW79791  10.445   7.725   6.335 -0.7577  0.0844  0.0770
19497WAT      O79792   7.323   3.060   5.002 -0.4305  0.2318  0.0155
19497WAT     H179793   7.354   2.995   5.065 -2.3590  0.0221  0.8021
19497WAT     H279794   7.278   3.126   5.055  1.0843  2.0115 -0.8109
19497WAT    EPW79795   7.321   3.060   5.017 -0.4849  0.4388  0.0103
19498WAT      O79796   2.116   7.565   6.593 -0.5318 -0.0965 -0.4558
19498WAT     H179797   2.046   7.532   6.649  0.0263  0.1325  0.3996
19498WAT     H279798   2.181   7.495   6.593 -0.9120 -0.4552 -1.5353
19498WAT    EPW79799   2.116   7.552   6.601 -0.5082 -0.1137 -0.4854
19499WAT      O79800   1.088   0.993   1.737  0.0409 -0.6993 -0.3976
19499WAT     H179801   1.074   0.926   1.670 -1.0601 -0.3992 -0.4809
19499WAT     H279802   1.095   1.075   1.688 -1.9091 -0.3194 -0.1044
19499WAT    EPW79803   1.087   0.995   1.722 -0.3615 -0.6096 -0.3699
19500WAT      O79804   8.460   3.701   1.730 -0.6088  0.2178  0.4895
19500WAT     H179805   8.555   3.696   1.726 -0.5915 -0.2504  1.1569
19500WAT     H279806   8.436   3.640   1.801 -1.2574  1.8205  1.7105
19500WAT    EPW79807   8.469   3.692   1.739 -0.6924  0.3674  0.7386
19501WAT      O79808   2.693   0.602   4.495  0.1608 -0.2569  0.6314
19501WAT     H179809   2.676   0.621   4.402 -1.8671  1.1427  1.2308
19501WAT     H279810   2.777   0.645   4.513  0.2753 -0.0163 -0.3881
19501WAT    EPW79811   2.702   0.610   4.485 -0.0916 -0.0406  0.5758
19502WAT      O79812   0.567   1.476   3.397 -0.0369 -0.0299 -0.7668
19502WAT     H179813   0.502   1.431   3.451  0.4096 -0.7638 -0.8243
19502WAT     H279814   0.545   1.450   3.307 -1.7431  2.4135 -1.1443
19502WAT    EPW79815   0.556   1.467   3.392 -0.2030  0.1956 -0.8241
19503WAT      O79816   9.552   5.204   0.307  0.1806  0.5432  0.4598
19503WAT     H179817   9.621   5.237   0.249  2.8298 -0.8267  2.6201
19503WAT     H279818   9.596   5.142   0.364 -2.7629  0.0721  2.4349
19503WAT    EPW79819   9.567   5.200   0.307  0.1421  0.3002  1.0052
19504WAT      O79820   3.352   9.709   7.330  0.0982  0.2009  0.4100
19504WAT     H179821   3.386   9.630   7.289  1.2125  0.3314  1.0291
19504WAT     H279822   3.384   9.780   7.276 -2.6589  0.2186 -1.3910
19504WAT    EPW79823   3.361   9.708   7.318 -0.1184  0.2208  0.2542
19505WAT      O79824   2.008   0.750   8.079 -0.1325  0.3285 -0.4471
19505WAT     H179825   2.018   0.845   8.087 -1.6976  0.6117 -1.3421
19505WAT     H279826   1.935   0.729   8.138  1.4705 -0.6694  1.2981
19505WAT    EPW79827   2.000   0.760   8.088 -0.1275  0.2342 -0.3357
19506WAT      O79828   4.213   5.582   8.765  0.3130 -0.3997 -0.3291
19506WAT     H179829   4.259   5.631   8.834  2.1372  0.6585 -2.1759
19506WAT     H279830   4.121   5.595   8.784  0.6875 -1.5793  2.8578
19506WAT    EPW79831   4.207   5.590   8.777  0.6030 -0.4156 -0.1531
19507WAT      O79832   4.528   0.791   7.189 -0.8436  0.0751 -0.1057
19507WAT     H179833   4.463   0.721   7.194 -1.0513  0.2036 -0.8237
19507WAT     H279834   4.478   0.870   7.172 -0.5525  0.2798 -0.0261
19507WAT    EPW79835   4.513   0.792   7.187 -0.8328  0.1191 -0.1898
19508WAT      O79836   1.663   7.929   6.780  0.5015 -0.2575  0.4594
19508WAT     H179837   1.591   7.878   6.818  0.0977  0.0169  0.0694
19508WAT     H279838   1.621   7.985   6.714  1.0738 -0.1161  0.2069
19508WAT    EPW79839   1.648   7.929   6.776  0.5238 -0.2027  0.3746
19509WAT      O79840   1.262   8.082   8.196 -0.5506 -0.0776 -0.0820
19509WAT     H179841   1.203   8.008   8.184 -1.6312  0.5056  1.2396
19509WAT     H279842   1.336   8.047   8.245  0.9274 -1.1025 -2.8455
19509WAT    EPW79843   1.264   8.068   8.201 -0.4982 -0.1354 -0.2718
19510WAT      O79844   8.104   0.015   1.953 -0.3131  0.1053  0.7538
19510WAT     H179845   8.066  -0.065   1.991  1.8315 -0.7802  1.1837
19510WAT     H279846   8.072   0.086   2.007 -1.5396 -0.5605  0.9270
19510WAT    EPW79847   8.095   0.013   1.965 -0.1922 -0.0994  0.8335
19511WAT      O79848   7.230   5.463   2.458  0.1318 -0.0905  0.0629
19511WAT     H179849   7.205   5.491   2.547 -0.8297  1.0004 -0.5150
19511WAT     H279850   7.165   5.397   2.435 -0.8152  1.0080 -0.5266
19511WAT    EPW79851   7.218   5.458   2.467 -0.1199  0.1986 -0.0911
19512WAT      O79852   8.335   8.593   6.850 -0.1097 -0.1284 -0.0414
19512WAT     H179853   8.342   8.504   6.886  4.0138  0.9349  2.5605
19512WAT     H279854   8.406   8.599   6.787  2.0793  2.1090  2.3707
19512WAT    EPW79855   8.345   8.582   6.847  0.7229  0.3066  0.6199
19513WAT      O79856   8.166   3.546   0.947  0.1838 -0.5347 -0.3662
19513WAT     H179857   8.171   3.452   0.960 -1.4912 -0.4631  1.3971
19513WAT     H279858   8.194   3.583   1.031 -2.1704  0.3714  0.1259
19513WAT    EPW79859   8.170   3.539   0.960 -0.3476 -0.4058 -0.0687
19514WAT      O79860  10.164   7.691   4.480 -0.3268 -0.1242  0.2978
19514WAT     H179861  10.207   7.716   4.398 -1.2302 -2.6677 -1.0446
19514WAT     H279862  10.080   7.655   4.453 -0.6725 -1.0035  2.3572
19514WAT    EPW79863  10.159   7.690   4.466 -0.4911 -0.5755  0.3927
19515WAT      O79864   5.058   8.398   7.201 -0.4975 -0.2412  0.4601
19515WAT     H179865   4.977   8.393   7.251 -1.0960  0.3215 -0.4250
19515WAT     H279866   5.116   8.453   7.254 -0.0846 -1.9492  1.8734
19515WAT    EPW79867   5.055   8.404   7.214 -0.5219 -0.3920  0.5298
19516WAT      O79868   1.277   7.967   6.225 -0.5624 -0.5693  0.7087
19516WAT     H179869   1.237   7.950   6.311 -0.9398 -0.6834  0.5146
19516WAT     H279870   1.368   7.986   6.245 -0.3978 -1.6342  1.0397
19516WAT    EPW79871   1.283   7.967   6.239 -0.5904 -0.7246  0.7267
19517WAT      O79872   5.783   4.040   0.317 -0.4199 -0.5539  0.5414
19517WAT     H179873   5.728   4.118   0.307 -2.2208 -1.7968  0.1978
19517WAT     H279874   5.829   4.032   0.234 -2.3091 -1.3195 -0.5000
19517WAT    EPW79875   5.782   4.049   0.305 -0.9065 -0.8190  0.3587
19518WAT      O79876   4.940   0.259   4.274 -0.4080 -0.2378 -0.0134
19518WAT     H179877   4.852   0.246   4.309 -0.8177  0.2709 -0.8165
19518WAT     H279878   4.975   0.332   4.325 -0.0135 -1.1682  1.0732
19518WAT    EPW79879   4.933   0.267   4.285 -0.4098 -0.2934  0.0241
19519WAT      O79880   2.204   8.639   6.895  0.1973  0.5512  0.2422
19519WAT     H179881   2.251   8.718   6.869  2.6844 -1.3880 -1.7195
19519WAT     H279882   2.268   8.587   6.943 -0.7848 -1.0418 -0.0912
19519WAT    EPW79883   2.219   8.642   6.898  0.3958  0.0854 -0.0606
19520WAT      O79884   5.283   4.091   1.914 -0.5487 -0.1949 -0.3117
19520WAT     H179885   5.336   4.106   1.835 -0.4690  1.5091  0.0213
19520WAT     H279886   5.312   4.006   1.946  1.1387  0.1446 -0.8182
19520WAT    EPW79887   5.294   4.082   1.908 -0.3157  0.0744 -0.3346
19521WAT      O79888  10.882   8.666   5.421 -0.8513  0.4380  0.0936
19521WAT     H179889  10.892   8.735   5.486  0.0226  1.4126 -1.0376
19521WAT     H279890  10.787   8.661   5.405 -0.9349  1.2652  0.3025
19521WAT    EPW79891  10.871   8.674   5.428 -0.7467  0.6747 -0.0281
19522WAT      O79892   1.083   8.167   7.627 -0.4749 -0.3452  0.2363
19522WAT     H179893   1.075   8.249   7.578 -0.3456 -1.3858 -1.5760
19522WAT     H279894   1.051   8.099   7.568  1.0976 -1.8490  1.0087
19522WAT    EPW79895   1.078   8.169   7.613 -0.2504 -0.6809  0.0992
19523WAT      O79896   1.664   7.807   8.145  0.4860  0.3734  0.6155
19523WAT     H179897   1.721   7.847   8.080 -0.2967  1.2247  0.4239
19523WAT     H279898   1.631   7.728   8.103 -0.5594  1.2666 -0.3431
19523WAT    EPW79899   1.667   7.802   8.131  0.2449  0.6032  0.4640
19524WAT      O79900   1.367  10.163   6.780  0.0605 -0.5499 -0.3559
19524WAT     H179901   1.273  10.182   6.774  0.1046  0.2939  1.1284
19524WAT     H279902   1.395  10.206   6.861  0.8703 -4.1716  1.5024
19524WAT    EPW79903   1.358  10.171   6.790  0.1730 -0.9160  0.0849
19525WAT      O79904   8.541   7.119   0.519 -0.3242 -0.5135 -0.4986
19525WAT     H179905   8.582   7.171   0.588 -0.4731  0.8152 -1.3931
19525WAT     H279906   8.610   7.103   0.455 -0.7763  0.3483 -1.2206
19525WAT    EPW79907   8.555   7.124   0.520 -0.4039 -0.2246 -0.7118
19526WAT      O79908   9.401   1.539   2.818  0.2658  0.4356 -0.5878
19526WAT     H179909   9.415   1.520   2.726  0.8191  1.0047 -0.6280
19526WAT     H279910   9.486   1.568   2.850  0.5948 -1.6724  0.5961
19526WAT    EPW79911   9.414   1.540   2.810  0.3824  0.2326 -0.4370
19527WAT      O79912   9.157   3.301   0.504 -0.5376 -0.2935  0.2353
19527WAT     H179913   9.195   3.378   0.547 -1.8591  1.5784 -1.7052
19527WAT     H279914   9.075   3.285   0.552  0.5058 -1.6143  1.6826
19527WAT    EPW79915   9.151   3.309   0.516 -0.5741 -0.2207  0.1702
19528WAT      O79916   1.231   7.412   6.598  0.1499 -0.0225  0.6305
19528WAT     H179917   1.327   7.410   6.588  0.2817 -0.1880  1.8092
19528WAT     H279918   1.201   7.330   6.559  0.4352  0.2376 -0.1592
19528WAT    EPW79919   1.240   7.401   6.591  0.2049 -0.0100  0.6816
19529WAT      O79920  10.230   6.284   6.974 -0.2678  0.2794 -0.2172
19529WAT     H179921  10.312   6.268   6.928 -0.8434 -1.9371 -0.6333
19529WAT     H279922  10.248   6.357   7.033  0.6201  3.0853 -3.6205
19529WAT    EPW79923  10.243   6.291   6.976 -0.2265  0.3572 -0.7207
19530WAT      O79924   5.343   1.075   8.757  0.2577  0.3261 -0.6252
19530WAT     H179925   5.357   1.009   8.689  2.9141 -1.7943  1.7102
19530WAT     H279926   5.255   1.057   8.791  1.3114 -3.0723  0.7689
19530WAT    EPW79927   5.333   1.064   8.752  0.7472 -0.4017 -0.1335
19531WAT      O79928   3.596  10.249   6.174  0.8100  0.5588  0.5375
19531WAT     H179929   3.651  10.172   6.192 -2.4957 -1.9789  0.7528
19531WAT     H279930   3.557  10.271   6.259 -2.1478 -0.9370 -0.2782
19531WAT    EPW79931   3.598  10.242   6.188 -0.0161  0.0262  0.4580
19532WAT      O79932   1.801   6.702   8.246 -0.3818  0.2589 -0.2849
19532WAT     H179933   1.784   6.786   8.204 -1.5080 -0.8027 -2.0845
19532WAT     H279934   1.829   6.724   8.334  2.6786  2.6731 -1.6636
19532WAT    EPW79935   1.803   6.716   8.252 -0.1267  0.4373 -0.7043
19533WAT      O79936   7.374   1.530   2.375 -0.0954  0.1462  0.1884
19533WAT     H179937   7.411   1.448   2.343  0.3718  0.3705  0.1420
19533WAT     H279938   7.425   1.598   2.330  0.4611  0.4666  1.2779
19533WAT    EPW79939   7.386   1.528   2.364  0.0396  0.2180  0.3259
19534WAT      O79940   0.845   9.316   3.665 -0.0272  0.8807  0.1621
19534WAT     H179941   0.757   9.323   3.700 -1.1149 -2.5163 -1.4792
19534WAT     H279942   0.841   9.362   3.581 -1.1269 -1.5004 -1.1694
19534WAT    EPW79943   0.833   9.323   3.659 -0.3157  0.1187 -0.2300
19535WAT      O79944   5.462   0.641   6.994  0.8746  0.0693 -0.2057
19535WAT     H179945   5.480   0.623   7.087  0.4000 -0.0769 -0.1404
19535WAT     H279946   5.540   0.610   6.949  2.0302  2.0601  0.3142
19535WAT    EPW79947   5.475   0.634   7.001  0.9642  0.3126 -0.1287
19536WAT      O79948   1.482   6.019   8.569 -0.6784 -0.4798 -0.0429
19536WAT     H179949   1.423   6.038   8.496  2.5643  1.0654 -2.5067
19536WAT     H279950   1.525   5.937   8.545  0.5538  0.1360 -0.0346
19536WAT    EPW79951   1.480   6.011   8.556 -0.0882 -0.1950 -0.3662
19537WAT      O79952   1.436   6.793   4.653  0.5324 -0.0670  0.6083
19537WAT     H179953   1.475   6.859   4.710 -0.1569  1.7732 -0.9252
19537WAT     H279954   1.508   6.736   4.629  1.3202  0.5846  1.3624
19537WAT    EPW79955   1.451   6.794   4.658  0.5454  0.2618  0.5054
19538WAT      O79956   1.656   8.470   8.572  0.2528  0.6622  0.4932
19538WAT     H179957   1.670   8.533   8.502  0.4097  1.5228  1.2789
19538WAT     H279958   1.665   8.521   8.652  0.6900 -0.4177  1.1570
19538WAT    EPW79959   1.659   8.485   8.573  0.3312  0.6332  0.6843
19539WAT      O79960  10.462   7.261   8.576  0.1389  0.2297  0.1280
19539WAT     H179961  10.394   7.243   8.510 -2.2843  1.9599  1.9634
19539WAT     H279962  10.514   7.332   8.538  0.2337 -0.3325 -0.8329
19539WAT    EPW79963  10.460   7.268   8.562 -0.1678  0.3836  0.2437
19540WAT      O79964   5.515   1.732   0.659  0.6228  0.3166 -0.1949
19540WAT     H179965   5.496   1.639   0.652 -0.7963  0.5943 -0.3104
19540WAT     H279966   5.521   1.762   0.569 -3.2943  1.1212 -0.3594
19540WAT    EPW79967   5.513   1.724   0.647 -0.0811  0.4594 -0.2318
19541WAT      O79968  10.912   8.359   8.640  0.5500 -0.0410 -0.0144
19541WAT     H179969  10.935   8.416   8.714 -0.1985 -0.7680  0.8137
19541WAT     H279970  10.963   8.279   8.654  3.3383  1.1668 -2.4038
19541WAT    EPW79971  10.921   8.356   8.652  0.8192  0.0229 -0.2203
19542WAT      O79972   2.301  10.282   5.387 -0.5167  0.1354  0.1196
19542WAT     H179973   2.278  10.337   5.312 -1.3071 -1.0040 -0.5055
19542WAT     H279974   2.268  10.195   5.364  2.6234 -1.1685  0.0975
19542WAT    EPW79975   2.294  10.277   5.374 -0.2069 -0.1874  0.0343
19543WAT      O79976   7.581   0.677   0.560  0.4613 -0.7640  0.4218
19543WAT     H179977   7.530   0.666   0.641  0.9828 -1.7147  0.6382
19543WAT     H279978   7.631   0.596   0.552 -1.3351 -1.7485 -2.1024
19543WAT    EPW79979   7.581   0.665   0.570  0.2928 -1.0193  0.1174
19544WAT      O79980   0.323   8.532   7.894  0.0454  0.0411 -0.5076
19544WAT     H179981   0.336   8.583   7.973  1.9303 -1.4568  0.2418
19544WAT     H279982   0.231   8.504   7.898 -0.0188  0.3862  0.9110
19544WAT    EPW79983   0.312   8.535   7.905  0.2856 -0.1116 -0.2217
19545WAT      O79984   1.726   6.164   6.710 -0.1774 -0.0279 -0.5283
19545WAT     H179985   1.665   6.148   6.782  0.2302 -1.1498 -0.4057
19545WAT     H279986   1.791   6.224   6.746 -0.1641 -0.3204 -0.0581
19545WAT    EPW79987   1.726   6.170   6.724 -0.1219 -0.2143 -0.4504
19546WAT      O79988   2.315   8.404   8.634  0.1253 -0.0856 -0.6255
19546WAT     H179989   2.316   8.472   8.566  0.6189 -0.5581 -1.1049
19546WAT     H279990   2.375   8.337   8.601  0.9667  0.0177  0.6350
19546WAT    EPW79991   2.323   8.404   8.621  0.3014 -0.1345 -0.5226
19547WAT      O79992   9.384   6.816   0.451 -0.0106  0.2384 -0.4914
19547WAT     H179993   9.383   6.878   0.378 -1.1829  0.6264 -0.1573
19547WAT     H279994   9.477   6.799   0.466  0.2776  0.8476 -1.4854
19547WAT    EPW79995   9.396   6.822   0.443 -0.1273  0.3700 -0.5784
19548WAT      O79996   2.120   8.566   8.010  0.1669  0.4873  0.3255
19548WAT     H179997   2.120   8.533   7.920  0.1040 -1.3872  0.9637
19548WAT     H279998   2.189   8.631   8.012  1.1810 -0.5156 -0.7367
19548WAT    EPW79999   2.129   8.570   7.998  0.2925  0.1078  0.2699
19549WAT      O80000  10.811   9.452   4.356  0.3718 -0.4666  0.1192
19549WAT     H180001  10.894   9.499   4.353 -1.0245  2.3427 -4.2148
19549WAT     H280002  10.834   9.363   4.326  1.8048  0.5083 -1.9566
19549WAT    EPW80003  10.825   9.446   4.351  0.3767  0.0324 -0.7265
19550WAT      O80004   1.851   6.454   7.987 -0.4206  0.1597 -0.7959
19550WAT     H180005   1.808   6.406   7.916 -0.7675 -1.5260  0.4799
19550WAT     H280006   1.940   6.418   7.989 -0.3442  0.3642 -0.5259
19550WAT    EPW80007   1.857   6.443   7.978 -0.4563 -0.0358 -0.5918
19551WAT      O80008   1.502   7.824   3.937 -0.3921  0.2277 -0.6774
19551WAT     H180009   1.545   7.821   4.022  0.2276 -1.9259 -1.0093
19551WAT     H280010   1.439   7.896   3.944  3.0599  3.4755 -0.1468
19551WAT    EPW80011   1.499   7.833   3.949  0.1449  0.3717 -0.6512
19552WAT      O80012   3.851   1.513   8.650  0.4930  0.6496 -0.0977
19552WAT     H180013   3.887   1.501   8.563  0.6179  0.5814 -0.0361
19552WAT     H280014   3.847   1.425   8.688  1.5118  0.7989  0.3946
19552WAT    EPW80015   3.855   1.500   8.644  0.6438  0.6602 -0.0248
19553WAT      O80016   8.968   0.233   1.017 -0.4626  0.6876  0.3836
19553WAT     H180017   9.019   0.204   0.940 -1.0921  1.6532 -0.4103
19553WAT     H280018   9.024   0.211   1.092 -0.5526 -1.8537 -0.2003
19553WAT    EPW80019   8.982   0.226   1.017 -0.5574  0.4797  0.2019
19554WAT      O80020   0.074   6.554   0.591  0.6791 -0.6135  0.0933
19554WAT     H180021   0.028   6.620   0.644  1.2972  1.2161 -1.5395
19554WAT     H280022   0.047   6.470   0.629 -0.5632  0.5338  1.9206
19554WAT    EPW80023   0.065   6.552   0.603  0.5968 -0.2208  0.1189
19555WAT      O80024   2.809   9.213   5.627  0.4216 -1.1461 -0.3445
19555WAT     H180025   2.828   9.193   5.719  2.2422 -2.1600 -0.8863
19555WAT     H280026   2.772   9.131   5.593  1.1996 -1.2814 -0.8740
19555WAT    EPW80027   2.806   9.200   5.635  0.7643 -1.2980 -0.4857
19556WAT      O80028  10.211   2.889   2.565  0.8186  0.2963  0.1366
19556WAT     H180029  10.295   2.890   2.521  0.7432 -1.8569 -0.1776
19556WAT     H280030  10.161   2.821   2.520 -0.9639  1.2505  0.5618
19556WAT    EPW80031  10.215   2.880   2.554  0.5732  0.1382  0.1512
19557WAT      O80032   7.469   7.157   0.511 -0.0825 -0.6721  0.6783
19557WAT     H180033   7.500   7.240   0.474 -1.2133 -0.9258 -0.9365
19557WAT     H280034   7.477   7.095   0.439  0.0518 -1.8143  1.6568
19557WAT    EPW80035   7.474   7.160   0.496 -0.2141 -0.8562  0.5944
19558WAT      O80036   2.115   8.813   8.325  0.2383  0.1377 -0.0174
19558WAT     H180037   2.156   8.727   8.334  0.0196  0.1490  1.1725
19558WAT     H280038   2.184   8.875   8.348  0.3518  0.2907 -0.7311
19558WAT    EPW80039   2.129   8.810   8.329  0.2245  0.1593  0.0448
19559WAT      O80040   6.248   0.840   6.519  0.0401 -0.0284  0.3069
19559WAT     H180041   6.312   0.906   6.547 -0.1303 -0.2519  1.2643
19559WAT     H280042   6.195   0.824   6.597  0.0594 -1.2813  0.0781
19559WAT    EPW80043   6.250   0.847   6.533  0.0203 -0.2231  0.4032
19560WAT      O80044   2.128   6.399   8.076 -0.4838  0.5718  0.0087
19560WAT     H180045   2.148   6.479   8.125  0.0062 -0.0503  0.8568
19560WAT     H280046   2.138   6.329   8.140  0.5287 -0.3075 -1.0776
19560WAT    EPW80047   2.132   6.400   8.091 -0.2857  0.3736 -0.0229
19561WAT      O80048   9.462   3.023   1.529 -0.9254 -0.7156 -0.2797
19561WAT     H180049   9.375   3.002   1.563 -0.7281 -2.3220 -0.6682
19561WAT     H280050   9.483   3.108   1.568 -1.2827 -1.8008  2.5736
19561WAT    EPW80051   9.454   3.031   1.539 -0.9460 -1.0706  0.0454
19562WAT      O80052   3.029   9.011   6.218 -0.0365  0.0346  0.1412
19562WAT     H180053   3.044   8.957   6.141  2.0491 -0.6401  0.9480
19562WAT     H280054   3.079   8.968   6.288 -4.0634 -1.0689  2.7198
19562WAT    EPW80055   3.037   8.998   6.217 -0.2925 -0.1998  0.5875
19563WAT      O80056   9.015   7.521   5.912 -0.0221 -0.2111  0.1350
19563WAT     H180057   9.020   7.596   5.970  0.4285 -1.1960  1.4025
19563WAT     H280058   8.964   7.456   5.960 -1.6812 -0.2343 -1.5305
19563WAT    EPW80059   9.009   7.523   5.926 -0.1817 -0.3438  0.0823
19564WAT      O80060   1.593   8.240   8.770  0.6397 -0.0197  0.1213
19564WAT     H180061   1.544   8.278   8.697  0.7789 -2.5331 -1.4007
19564WAT     H280062   1.681   8.228   8.736  0.8082 -0.8585  0.8048
19564WAT    EPW80063   1.598   8.243   8.756  0.6803 -0.4616  0.0110
19565WAT      O80064   1.158   9.610   7.037  0.1653 -0.1086 -0.5452
19565WAT     H180065   1.187   9.699   7.057 -0.0252  0.0047 -0.7677
19565WAT     H280066   1.120   9.578   7.119 -2.1169  0.9381 -1.1294
19565WAT    EPW80067   1.157   9.617   7.051 -0.1609  0.0439 -0.6516
19566WAT      O80068   1.067   0.015   6.634 -0.0289 -0.0976  0.0172
19566WAT     H180069   1.083   0.103   6.600  2.0350 -0.3081  0.3193
19566WAT     H280070   0.994   0.025   6.695  0.3875  1.4775  0.2833
19566WAT    EPW80071   1.060   0.028   6.637  0.2983  0.0824  0.0923
19567WAT      O80072   7.763   3.996   0.422 -0.4341 -0.1279  0.1590
19567WAT     H180073   7.749   3.901   0.425  1.0227 -0.3626  0.9801
19567WAT     H280074   7.793   4.017   0.511 -1.9273  1.3354  0.3653
19567WAT    EPW80075   7.765   3.986   0.434 -0.4392  0.0343  0.2945
19568WAT      O80076   1.262   9.288   5.492 -0.9024  0.0989 -0.1173
19568WAT     H180077   1.187   9.254   5.541 -1.7469  2.2120  0.1835
19568WAT     H280078   1.223   9.342   5.423  0.2812  2.1378  0.7085
19568WAT    EPW80079   1.247   9.291   5.489 -0.8577  0.6471  0.0315
19569WAT      O80080   2.690   8.666   8.046 -0.3530  0.0384  0.6466
19569WAT     H180081   2.714   8.758   8.062 -0.4767 -0.1646  2.0550
19569WAT     H280082   2.631   8.670   7.971 -3.4563  1.5876  2.9514
19569WAT    EPW80083   2.686   8.679   8.038 -0.7786  0.2160  1.1363
19570WAT      O80084   8.265   3.785   2.153  0.0401 -0.8260  0.3175
19570WAT     H180085   8.294   3.876   2.147  0.9871 -1.2116 -1.8386
19570WAT     H280086   8.304   3.752   2.234 -0.1003  0.5964  0.9788
19570WAT    EPW80087   8.274   3.792   2.163  0.1459 -0.6894  0.1203
19571WAT      O80088   8.428   1.185   1.018  0.1186  0.2878 -0.0732
19571WAT     H180089   8.339   1.197   0.984  1.0478  2.1930 -2.1472
19571WAT     H280090   8.430   1.094   1.048 -2.3949  0.0729 -0.3188
19571WAT    EPW80091   8.417   1.174   1.017 -0.0901  0.5108 -0.3791
19572WAT      O80092   9.501   2.946   0.742 -0.6370 -0.1606  1.2392
19572WAT     H180093   9.436   2.883   0.710 -1.5622  1.4717 -0.3327
19572WAT     H280094   9.454   3.030   0.743  1.7465  1.3683 -1.3218
19572WAT    EPW80095   9.486   2.949   0.738 -0.4439  0.2563  0.6941
19573WAT      O80096   9.401   9.890   8.808  0.5940 -0.3545  0.5507
19573WAT     H180097   9.319   9.882   8.758  0.9064  0.7044 -0.1382
19573WAT     H280098   9.374   9.875   8.899 -0.4332  0.3169  0.3716
19573WAT    EPW80099   9.386   9.887   8.813  0.5002 -0.1264  0.4363
19574WAT      O80100   7.737   5.081   0.595 -0.2696  0.0626 -0.0592
19574WAT     H180101   7.693   5.165   0.608  0.9899  0.6520  0.6128
19574WAT     H280102   7.813   5.102   0.541 -0.4575 -0.8135 -0.6690
19574WAT    EPW80103   7.741   5.095   0.590 -0.1283  0.0248 -0.0510
19575WAT      O80104  10.158   3.331   0.617  0.2402 -0.0718  0.3714
19575WAT     H180105  10.179   3.381   0.696 -0.5410  1.0099 -0.0911
19575WAT     H280106  10.244   3.306   0.582  0.6756  1.2587  0.4195
19575WAT    EPW80107  10.172   3.334   0.623  0.1945  0.2463  0.3168
19576WAT      O80108   0.737   8.025   7.257  0.4852 -0.0481 -0.0156
19576WAT     H180109   0.699   7.939   7.271 -0.0882  0.2031  0.0040
19576WAT     H280110   0.668   8.087   7.282  0.6256  0.4114 -0.7050
19576WAT    EPW80111   0.723   8.022   7.262  0.4281  0.0453 -0.1042
19577WAT      O80112   7.729   3.990   1.640  0.0995  0.7855  0.3464
19577WAT     H180113   7.810   4.042   1.647  1.2015 -0.7566 -0.4860
19577WAT     H280114   7.735   3.927   1.712  0.3222 -0.2078 -0.5213
19577WAT    EPW80115   7.741   3.989   1.650  0.2742  0.4511  0.1222
19578WAT      O80116   5.402   2.318   8.217 -0.2214 -0.5234  0.0679
19578WAT     H180117   5.332   2.380   8.238  0.7417  0.0842  1.6304
19578WAT     H280118   5.438   2.352   8.134 -1.2854 -0.4448 -0.3854
19578WAT    EPW80119   5.398   2.331   8.209 -0.2348 -0.4330  0.2146
19579WAT      O80120  10.938   9.934   7.702  0.2477 -0.2462 -0.2288
19579WAT     H180121  10.977  10.020   7.690  3.2942 -1.3891  0.6972
19579WAT     H280122  10.897   9.937   7.788  2.4359 -0.3873  0.8654
19579WAT    EPW80123  10.938   9.945   7.711  0.9379 -0.4153  0.0374
19580WAT      O80124   8.474   3.115   2.396  0.7015  0.3874  0.4719
19580WAT     H180125   8.459   3.142   2.487 -0.9998 -0.1364  0.3713
19580WAT     H280126   8.541   3.048   2.402  1.3920  1.1181  1.2168
19580WAT    EPW80127   8.481   3.110   2.409  0.5679  0.4147  0.5569
19581WAT      O80128   7.647   3.374   0.588 -0.2708  0.1108 -0.6278
19581WAT     H180129   7.706   3.320   0.536 -0.5405 -0.9949  0.1709
19581WAT     H280130   7.590   3.416   0.524  0.1222 -0.3345 -1.2800
19581WAT    EPW80131   7.647   3.373   0.573 -0.2544 -0.0938 -0.6085
19582WAT      O80132   0.067   9.662   6.479 -0.2207  0.2048 -0.9389
19582WAT     H180133   0.077   9.727   6.548  0.6978  0.2133 -1.0691
19582WAT     H280134   0.030   9.586   6.523 -0.6215  0.5632 -0.6470
19582WAT    EPW80135   0.063   9.660   6.494 -0.1524  0.2537 -0.9174
19583WAT      O80136   2.190   6.262   3.045 -0.1705 -0.9379 -0.3263
19583WAT     H180137   2.115   6.292   3.095  1.1609 -1.5059  2.1676
19583WAT     H280138   2.232   6.342   3.014 -0.5343 -0.5254  0.2206
19583WAT    EPW80139   2.185   6.276   3.047 -0.0429 -0.9587  0.0747
19584WAT      O80140   8.584   2.876   1.373 -0.4940 -0.7618  0.3905
19584WAT     H180141   8.510   2.868   1.313  1.0633 -0.8757 -1.6217
19584WAT     H280142   8.628   2.957   1.346  1.5739 -2.0124 -0.2578
19584WAT    EPW80143   8.580   2.886   1.361 -0.0162 -0.9418  0.0396
19585WAT      O80144   8.957   4.769   0.172  0.2623  0.0934  0.2013
19585WAT     H180145   8.892   4.774   0.243 -0.0496  0.1000 -0.0853
19585WAT     H280146   8.942   4.848   0.120  2.3813  1.6556  1.7431
19585WAT    EPW80147   8.947   4.780   0.175  0.5007  0.3004  0.3669
19586WAT      O80148   8.841   2.986   4.499  0.1768 -0.0593  0.2688
19586WAT     H180149   8.763   2.990   4.554 -0.8848  1.4250 -1.2565
19586WAT     H280150   8.899   3.053   4.533  0.5922 -0.8115  1.0785
19586WAT    EPW80151   8.839   2.995   4.510  0.0920  0.0373  0.1743
19587WAT      O80152   5.738   3.886   0.536 -0.5224 -0.0278 -0.4145
19587WAT     H180153   5.688   3.821   0.487 -0.1875 -0.7735  0.2291
19587WAT     H280154   5.772   3.945   0.468  0.6127 -1.5075 -1.2014
19587WAT    EPW80155   5.736   3.885   0.520 -0.3283 -0.3213 -0.4334
19588WAT      O80156   6.716   3.628   1.713 -0.0321  1.1090  0.2603
19588WAT     H180157   6.668   3.545   1.719  1.4990  0.2013  0.5532
19588WAT     H280158   6.695   3.662   1.626 -3.2530  2.1229  1.2707
19588WAT    EPW80159   6.707   3.621   1.703 -0.2551  1.1230  0.4323
19589WAT      O80160   0.370   8.548   5.938 -0.5114  0.3588 -0.7417
19589WAT     H180161   0.339   8.465   5.974  0.4549  0.2195 -0.1980
19589WAT     H280162   0.450   8.525   5.891  0.3846  1.1445  0.3630
19589WAT    EPW80163   0.376   8.534   5.936 -0.2658  0.4439 -0.5243
19590WAT      O80164  10.650   7.328   7.375 -0.3079 -0.3258  0.1003
19590WAT     H180165  10.622   7.404   7.324  0.4290 -0.8099 -1.0573
19590WAT     H280166  10.623   7.252   7.323  1.7680 -0.8175 -0.3349
19590WAT    EPW80167  10.643   7.328   7.361  0.0625 -0.4544 -0.1097
19591WAT      O80168   5.250   0.076   0.806 -0.2943  0.2813  0.0939
19591WAT     H180169   5.179   0.051   0.865 -1.3577 -2.4440 -2.1595
19591WAT     H280170   5.207   0.105   0.726  1.0136 -2.0960 -1.5993
19591WAT    EPW80171   5.235   0.077   0.804 -0.2623 -0.3917 -0.4266
19592WAT      O80172   4.725   0.842   6.295 -0.2733  0.5737 -0.1459
19592WAT     H180173   4.746   0.803   6.380 -0.0059 -0.4669 -0.6772
19592WAT     H280174   4.805   0.888   6.269  0.0194 -0.0216 -0.3234
19592WAT    EPW80175   4.738   0.843   6.303 -0.1996  0.3580 -0.2394
19593WAT      O80176   7.562   2.497   5.780 -0.9611 -0.0069  0.2760
19593WAT     H180177   7.611   2.578   5.796  0.3937 -0.5148 -1.0004
19593WAT     H280178   7.480   2.526   5.740 -1.7289  0.8644  2.3875
19593WAT    EPW80179   7.557   2.512   5.777 -0.8841  0.0411  0.3860
19594WAT      O80180   0.410   7.170   6.603 -0.3382  0.7373 -0.2416
19594WAT     H180181   0.325   7.213   6.593  0.0377  1.6397  0.3632
19594WAT     H280182   0.411   7.104   6.534 -2.0404 -0.1300  0.5033
19594WAT    EPW80183   0.399   7.167   6.593 -0.5132  0.7420 -0.0637
19595WAT      O80184  10.113   6.995   5.621  0.6158  0.0111 -0.7625
19595WAT     H180185  10.206   7.017   5.616  0.9111 -0.6262  1.0840
19595WAT     H280186  10.074   7.038   5.545  2.5649 -0.5348 -2.1435
19595WAT    EPW80187  10.121   7.004   5.610  0.9112 -0.1450 -0.7010
19596WAT      O80188  10.512   0.483   0.640 -0.0750 -0.2563  0.3948
19596WAT     H180189  10.472   0.432   0.570 -0.4647  1.7760 -0.9627
19596WAT     H280190  10.476   0.571   0.628  3.7670  1.4463 -0.1408
19596WAT    EPW80191  10.502   0.488   0.629  0.3805  0.2363  0.1451
19597WAT      O80192   1.774   7.836   4.773  0.2802 -0.0173 -0.2057
19597WAT     H180193   1.731   7.920   4.790  1.8154  0.8971 -0.6125
19597WAT     H280194   1.780   7.795   4.859  1.8249  1.4909  0.4760
19597WAT    EPW80195   1.769   7.842   4.787  0.6864  0.3026 -0.1695
19598WAT      O80196  10.311   3.153   2.173  0.6572  0.1389 -0.2595
19598WAT     H180197  10.387   3.102   2.203 -0.5286 -1.2373  0.5467
19598WAT     H280198  10.239   3.090   2.175 -0.6934  1.6478 -0.1113
19598WAT    EPW80199  10.312   3.138   2.178  0.3228  0.1564 -0.1336
19599WAT      O80200   8.020   1.748   0.928 -0.0512  0.7131 -0.0164
19599WAT     H180201   8.031   1.653   0.935  0.1382  0.7381  0.0078
19599WAT     H280202   7.966   1.759   0.849  0.5177  0.6266 -0.4203
19599WAT    EPW80203   8.014   1.737   0.918  0.0482  0.7050 -0.0665
19600WAT      O80204   1.351   8.997   5.899  0.3106 -0.4713 -0.5393
19600WAT     H180205   1.300   8.924   5.934 -0.5052 -0.4377 -1.6008
19600WAT     H280206   1.315   9.075   5.942 -0.8256 -0.4085 -1.5459
19600WAT    EPW80207   1.340   8.998   5.909  0.0531 -0.4582 -0.8118
19601WAT      O80208  10.235   6.447   6.330 -0.2323 -0.2769  0.3629
19601WAT     H180209  10.223   6.417   6.420  1.2855  1.2311  1.1146
19601WAT     H280210  10.326   6.476   6.326 -0.9947  2.2673 -0.8185
19601WAT    EPW80211  10.245   6.447   6.341 -0.1330  0.2580  0.3064
19602WAT      O80212   2.362   6.012   7.113  0.7255 -0.2854  0.2081
19602WAT     H180213   2.406   6.079   7.166 -0.6159  1.3454 -0.6298
19602WAT     H280214   2.431   5.973   7.061  2.1383 -2.0488  3.1337
19602WAT    EPW80215   2.377   6.016   7.113  0.7349 -0.3030  0.4833
19603WAT      O80216   6.822   9.564   2.559  0.2258 -0.2657 -0.4754
19603WAT     H180217   6.871   9.488   2.591  0.7678 -0.4882 -1.7711
19603WAT     H280218   6.887   9.633   2.551 -0.2062  0.2590  0.3943
19603WAT    EPW80219   6.837   9.563   2.562  0.2403 -0.2255 -0.5314
19604WAT      O80220   1.991  10.079   6.115  0.4536 -0.0351  0.1281
19604WAT     H180221   2.060  10.103   6.052  0.5006 -0.2542  0.0961
19604WAT     H280222   1.921  10.044   6.060  0.2406  0.3567  0.1442
19604WAT    EPW80223   1.991  10.078   6.099  0.4317 -0.0124  0.1261
19605WAT      O80224   0.802   9.431   7.798 -0.3207  0.6409 -0.2539
19605WAT     H180225   0.822   9.411   7.889  1.8310 -0.3230 -0.8564
19605WAT     H280226   0.734   9.369   7.773 -0.1557  0.1770  0.4256
19605WAT    EPW80227   0.796   9.420   7.807 -0.0151  0.4520 -0.2439
19606WAT      O80228   2.413   4.522   6.778 -0.1733 -0.4218  0.7500
19606WAT     H180229   2.495   4.560   6.747 -2.2056  1.8959 -2.4687
19606WAT     H280230   2.384   4.580   6.848  1.0310 -1.5266  2.2424
19606WAT    EPW80231   2.420   4.535   6.783 -0.2825 -0.2620  0.5224
19607WAT      O80232   8.792   1.936   1.604  0.1587 -0.2313 -0.1451
19607WAT     H180233   8.766   2.027   1.593  2.0426  0.3851  0.0901
19607WAT     H280234   8.887   1.937   1.595  0.1113 -2.4265 -1.6974
19607WAT    EPW80235   8.801   1.948   1.601  0.4005 -0.4395 -0.3189
19608WAT      O80236   2.832   9.871   6.022 -0.1324  0.3011  0.0198
19608WAT     H180237   2.867   9.866   6.111  1.3533 -2.4331 -0.5942
19608WAT     H280238   2.901   9.911   5.970 -0.7191  1.2506 -0.0530
19608WAT    EPW80239   2.845   9.875   6.027 -0.0138  0.0658 -0.0706
19609WAT      O80240  10.796   2.732   0.005  0.7842 -0.1472  0.5403
19609WAT     H180241  10.889   2.708   0.008  0.9175  0.2458 -0.1926
19609WAT     H280242  10.775   2.757   0.095  1.0038 -1.6073  1.0290
19609WAT    EPW80243  10.805   2.732   0.017  0.8311 -0.2880  0.5081
19610WAT      O80244  10.142   7.823   4.751 -0.4829  0.3923 -0.2417
19610WAT     H180245  10.184   7.778   4.823 -1.6809  2.7157  2.0756
19610WAT     H280246  10.135   7.757   4.682 -0.6927 -2.4420  2.2954
19610WAT    EPW80247  10.147   7.808   4.751 -0.6685  0.3247  0.3989
19611WAT      O80248   7.781   1.281   3.910  0.0435  0.2767 -0.1006
19611WAT     H180249   7.692   1.247   3.915 -1.0494  2.3676 -2.7105
19611WAT     H280250   7.836   1.203   3.907 -1.7695 -1.0967  0.5480
19611WAT    EPW80251   7.776   1.266   3.910 -0.3400  0.3713 -0.3594
19612WAT      O80252   0.296   9.217   7.436  0.4556 -0.1851 -0.8736
19612WAT     H180253   0.216   9.266   7.453  0.4956 -0.6091  0.7325
19612WAT     H280254   0.355   9.241   7.508  1.3476 -0.7368 -1.3983
19612WAT    EPW80255   0.293   9.227   7.448  0.5785 -0.3138 -0.7308
19613WAT      O80256   2.825   5.804   8.714 -0.4634  0.2746  0.4345
19613WAT     H180257   2.903   5.757   8.684  0.3430  3.1907 -2.6405
19613WAT     H280258   2.858   5.885   8.752 -1.9191  0.1214  2.1378
19613WAT    EPW80259   2.840   5.808   8.715 -0.5490  0.6387  0.2532
19614WAT      O80260   6.814   0.750   6.075  1.0065 -0.1964 -0.1176
19614WAT     H180261   6.865   0.810   6.020  0.2658  0.9503  0.4079
19614WAT     H280262   6.723   0.765   6.049  0.4932  1.2880  2.2080
19614WAT    EPW80263   6.809   0.760   6.064  0.8411  0.1507  0.2582
19615WAT      O80264   2.261   8.388   6.426 -0.2273 -0.5206  0.4282
19615WAT     H180265   2.229   8.418   6.511 -0.2216  3.7344 -0.8375
19615WAT     H280266   2.342   8.438   6.411  0.3229 -1.8673 -1.7050
19615WAT    EPW80267   2.268   8.398   6.435 -0.1541 -0.1369 -0.0200
19616WAT      O80268   2.368   8.833   6.827  0.3493  0.1319  0.2374
19616WAT     H180269   2.434   8.839   6.896  2.3705 -2.7405 -1.2291
19616WAT     H280270   2.418   8.832   6.745 -1.8405  1.6428 -1.2505
19616WAT    EPW80271   2.384   8.834   6.825  0.3271 -0.0472 -0.1523
19617WAT      O80272   1.067   6.573   2.963  0.0227 -0.5701 -0.1116
19617WAT     H180273   1.045   6.666   2.958  0.4222 -0.4450  0.3534
19617WAT     H280274   1.060   6.551   3.056 -1.9328 -1.4883 -0.4366
19617WAT    EPW80275   1.063   6.582   2.974 -0.1826 -0.6745 -0.0932
19618WAT      O80276   6.930   2.859   2.433  0.3603 -0.2995  0.0641
19618WAT     H180277   6.938   2.948   2.467  0.8081 -0.2255 -0.2223
19618WAT     H280278   6.872   2.867   2.357  1.5339 -0.0002 -0.8304
19618WAT    EPW80279   6.923   2.872   2.427  0.5741 -0.2502 -0.0916
19619WAT      O80280  10.269   5.920   1.864  0.1378 -0.2495 -0.4770
19619WAT     H180281  10.219   5.889   1.789  1.3798  1.2747 -2.0129
19619WAT     H280282  10.208   5.977   1.912 -1.4345 -3.0216  1.1409
19619WAT    EPW80283  10.254   5.923   1.861  0.0944 -0.4141 -0.4661
19620WAT      O80284  10.990   3.012   3.097 -0.5379  0.2195  0.1950
19620WAT     H180285  11.040   3.093   3.111 -1.3156  0.7514 -0.0054
19620WAT     H280286  10.948   2.995   3.181 -2.0419  1.2121 -0.3023
19620WAT    EPW80287  10.991   3.020   3.110 -0.8388  0.4206  0.1030
19621WAT      O80288  10.697   9.803   6.726  0.0978  0.2410 -0.0725
19621WAT     H180289  10.651   9.794   6.809 -3.3642  3.1020 -1.3803
19621WAT     H280290  10.636   9.768   6.661  0.0028  3.2440 -1.8116
19621WAT    EPW80291  10.683   9.797   6.728 -0.3715  1.0147 -0.4745
19622WAT      O80292   0.786   5.739   8.349 -0.2430  0.2680  0.3595
19622WAT     H180293   0.809   5.726   8.257 -2.3216 -0.1475 -0.1588
19622WAT     H280294   0.817   5.827   8.369 -1.4710  1.1710 -1.3809
19622WAT    EPW80295   0.793   5.749   8.340 -0.6792  0.3324  0.0615
19623WAT      O80296   0.863   8.055   5.766  0.4171  0.6884 -0.1301
19623WAT     H180297   0.912   8.014   5.838  1.3653  0.0483 -1.1088
19623WAT     H280298   0.783   8.003   5.759  0.6408  0.3161  0.0240
19623WAT    EPW80299   0.859   8.042   5.775  0.5717  0.5546 -0.2391
19624WAT      O80300   3.488  10.311   3.296 -0.5484  0.2388  0.7013
19624WAT     H180301   3.498  10.217   3.281 -0.2923  0.6137 -1.9578
19624WAT     H280302   3.397  10.322   3.323 -0.5960 -0.7312  0.9756
19624WAT    EPW80303   3.477  10.301   3.298 -0.5211  0.1607  0.3868
19625WAT      O80304   3.910  10.027   5.914 -0.0647 -0.8292 -0.8580
19625WAT     H180305   3.832  10.022   5.968  1.4239 -0.0926  1.5363
19625WAT     H280306   3.944   9.937   5.911 -0.0217 -0.8297 -0.3465
19625WAT    EPW80307   3.904  10.014   5.921  0.1373 -0.7324 -0.4749
19626WAT      O80308   9.027   5.387   0.735  0.0518 -0.4481  0.0308
19626WAT     H180309   8.940   5.408   0.767 -0.3980  1.0707 -1.9950
19626WAT     H280310   9.079   5.466   0.750  0.8396 -0.9964  0.3177
19626WAT    EPW80311   9.023   5.400   0.741  0.0963 -0.3202 -0.1985
19627WAT      O80312  10.624   4.289   0.316 -0.1768 -0.0459  0.6856
19627WAT     H180313  10.553   4.320   0.372 -0.5254  1.1078 -0.3344
19627WAT     H280314  10.637   4.360   0.252  1.4727 -0.4953  0.4599
19627WAT    EPW80315  10.617   4.302   0.315 -0.0048  0.0467  0.5213
19628WAT      O80316   3.640   1.574   7.894  0.1505  0.2533 -0.3798
19628WAT     H180317   3.625   1.534   7.980 -0.9954 -1.3860 -1.2851
19628WAT     H280318   3.554   1.605   7.866  0.4172  0.3529 -1.1268
19628WAT    EPW80319   3.627   1.573   7.902  0.0345  0.0502 -0.5977
19629WAT      O80320   2.004  10.188   6.559 -0.3193  0.4923 -0.1850
19629WAT     H180321   1.995  10.099   6.523  1.6427  0.3361 -0.4126
19629WAT     H280322   1.921  10.230   6.539 -0.9445 -0.9952 -0.9285
19629WAT    EPW80323   1.992  10.182   6.551 -0.1431  0.2756 -0.3130
19630WAT      O80324   9.591   1.189   0.870 -0.4119 -0.3623  0.0912
19630WAT     H180325   9.531   1.242   0.817  0.6484  0.9436  0.1606
19630WAT     H280326   9.620   1.248   0.940  1.3461 -0.8023 -0.2339
19630WAT    EPW80327   9.587   1.204   0.873 -0.0405 -0.2480  0.0574
19631WAT      O80328   5.602   0.375   7.621  0.2205 -0.3263  0.2570
19631WAT     H180329   5.528   0.417   7.576  0.5374  0.9424  0.8879
19631WAT     H280330   5.680   0.410   7.578  0.4865 -0.4728  0.6147
19631WAT    EPW80331   5.602   0.385   7.609  0.2973 -0.1783  0.3874
19632WAT      O80332  10.469   9.528   4.695 -1.1415  0.2884 -0.1337
19632WAT     H180333  10.469   9.488   4.608 -2.2841  0.7508 -0.3679
19632WAT     H280334  10.559   9.518   4.726 -0.2153  1.7547 -2.1304
19632WAT    EPW80335  10.481   9.522   4.688 -1.1702  0.5426 -0.4280
19633WAT      O80336   8.113   1.687   1.780 -0.0084 -0.4781  0.3851
19633WAT     H180337   8.131   1.719   1.692  1.4046  0.0769  0.8421
19633WAT     H280338   8.189   1.633   1.802 -0.1732 -0.3240  1.3875
19633WAT    EPW80339   8.125   1.684   1.771  0.1564 -0.3846  0.5776
19634WAT      O80340   8.017   2.510   5.815 -0.3589  0.8934 -0.4084
19634WAT     H180341   8.090   2.452   5.796 -0.0697  0.9875  0.3759
19634WAT     H280342   8.035   2.590   5.765 -1.5153 -0.1778 -2.7206
19634WAT    EPW80343   8.029   2.513   5.806 -0.4730  0.7645 -0.6099
19635WAT      O80344   3.526   8.052   7.652 -0.4161  0.1061 -0.1027
19635WAT     H180345   3.519   8.093   7.738 -1.0527  1.2494 -0.6819
19635WAT     H280346   3.436   8.046   7.621 -0.3017 -1.3816 -0.2157
19635WAT    EPW80347   3.513   8.056   7.660 -0.4849  0.0606 -0.1936
19636WAT      O80348   1.704   9.224   7.137  0.5373  0.1443  0.5089
19636WAT     H180349   1.708   9.320   7.141  1.4027  0.1186  0.5051
19636WAT     H280350   1.792   9.195   7.161  0.3953 -0.6369  0.1391
19636WAT    EPW80351   1.716   9.233   7.141  0.6327  0.0381  0.4599
19637WAT      O80352   0.453   8.980   6.422 -0.0792  0.0689 -0.8450
19637WAT     H180353   0.390   8.918   6.387  0.4979  1.0470 -3.9066
19637WAT     H280354   0.507   9.005   6.347  0.7296  3.0600  0.5659
19637WAT    EPW80355   0.452   8.975   6.408  0.1036  0.5918 -1.0629
19638WAT      O80356   4.189   9.965   4.888  0.3457 -0.2733  0.4630
19638WAT     H180357   4.192   9.993   4.979  0.2035 -0.7769  0.6259
19638WAT     H280358   4.275   9.926   4.872  1.0820  1.4677 -0.1779
19638WAT    EPW80359   4.201   9.964   4.898  0.4241 -0.1097  0.3998
19639WAT      O80360   7.930   3.947   2.953  0.3326 -0.5005  0.6949
19639WAT     H180361   7.897   3.950   3.042  1.0384 -0.8864  0.9814
19639WAT     H280362   8.024   3.966   2.961  0.1893  0.6501 -0.0978
19639WAT    EPW80363   7.938   3.950   2.966  0.4067 -0.3997  0.6281
19640WAT      O80364   3.174   6.941   5.397 -0.2340 -0.6425  0.4258
19640WAT     H180365   3.122   6.994   5.456 -0.5979 -0.2969 -0.2017
19640WAT     H280366   3.125   6.859   5.388 -1.1092 -0.0018 -0.8196
19640WAT    EPW80367   3.161   6.937   5.404 -0.3976 -0.5126  0.1786
19641WAT      O80368   8.617   1.697   0.273 -0.2508 -0.0902 -0.2606
19641WAT     H180369   8.666   1.728   0.349  0.9792  2.7588 -2.0745
19641WAT     H280370   8.674   1.632   0.233 -0.0221 -0.1539  0.1650
19641WAT    EPW80371   8.631   1.692   0.277 -0.0582  0.2771 -0.4437
19642WAT      O80372  10.077   4.187   0.597 -0.6961  0.4448  0.6075
19642WAT     H180373  10.163   4.201   0.637 -0.4544 -0.8780  0.5716
19642WAT     H280374  10.083   4.101   0.556 -1.5242  1.0199 -0.7862
19642WAT    EPW80375  10.089   4.178   0.597 -0.7734  0.3459  0.4190
19643WAT      O80376   8.789   3.289   1.012  0.9018 -0.5980 -0.1078
19643WAT     H180377   8.870   3.295   0.961 -0.3517 -0.7908 -2.2205
19643WAT     H280378   8.776   3.377   1.047  1.8066 -0.4751 -0.0528
19643WAT    EPW80379   8.798   3.301   1.010  0.8559 -0.6073 -0.3792
19644WAT      O80380   0.942   9.068   7.068 -0.2006 -0.3642 -0.1797
19644WAT     H180381   0.928   9.130   7.140 -0.5585  0.0919 -0.6295
19644WAT     H280382   0.894   9.106   6.995  1.7183  0.1759 -1.2208
19644WAT    EPW80383   0.934   9.081   7.068  0.0053 -0.2327 -0.3765
19645WAT      O80384   6.627   4.697   2.398 -0.0359  0.1530 -0.0003
19645WAT     H180385   6.604   4.702   2.490 -1.9019 -2.3824 -0.2092
19645WAT     H280386   6.558   4.746   2.353 -0.3843 -0.4542 -0.1445
19645WAT    EPW80387   6.615   4.704   2.404 -0.3278 -0.2618 -0.0467
19646WAT      O80388   0.088   7.943   8.228  0.2654  0.6087 -0.1268
19646WAT     H180389   0.155   7.879   8.206 -0.7491 -0.7599  0.6066
19646WAT     H280390   0.041   7.959   8.146 -0.5416 -0.9145 -0.0020
19646WAT    EPW80391   0.090   7.937   8.214  0.0252  0.2270 -0.0138
19647WAT      O80392  10.179   7.252   7.904  0.9457  0.9028  0.3815
19647WAT     H180393  10.117   7.182   7.922  0.1909  1.2945 -0.5689
19647WAT     H280394  10.263   7.208   7.894  0.6046  0.2140  0.4698
19647WAT    EPW80395  10.182   7.237   7.905  0.8011  0.8633  0.2677
19648WAT      O80396   6.785   0.737   5.468  0.2248 -0.5135  0.3342
19648WAT     H180397   6.800   0.663   5.410  1.2241  1.2910 -1.8242
19648WAT     H280398   6.871   0.777   5.480 -0.2755  0.2801  1.5479
19648WAT    EPW80399   6.798   0.733   5.462  0.2906 -0.1709  0.2096
19649WAT      O80400   9.509   0.237   2.053 -0.2973 -0.1941  0.1215
19649WAT     H180401   9.443   0.277   1.997 -0.2518  0.5259  0.5701
19649WAT     H280402   9.486   0.144   2.054  1.0310 -0.6660 -2.9109
19649WAT    EPW80403   9.497   0.230   2.046 -0.1163 -0.1613 -0.2193
19650WAT      O80404   9.008   4.123   1.725  0.7393  0.0351  0.1195
19650WAT     H180405   9.013   4.084   1.639  0.2984  0.7536 -0.2448
19650WAT     H280406   9.096   4.116   1.760  0.7183 -1.0635 -0.0201
19650WAT    EPW80407   9.020   4.117   1.719  0.6785 -0.0150  0.0530
19651WAT      O80408   0.663   3.154   1.116  0.5716 -0.0561 -0.4041
19651WAT     H180409   0.724   3.228   1.118 -0.8257  1.1581 -0.9421
19651WAT     H280410   0.619   3.156   1.201  0.4174 -0.1894 -0.4795
19651WAT    EPW80411   0.665   3.164   1.127  0.3670  0.0865 -0.4850
19652WAT      O80412   3.040   7.067   6.645  0.1406  0.4969  0.6404
19652WAT     H180413   3.134   7.048   6.649 -0.2701 -1.6217  1.7743
19652WAT     H280414   3.008   7.050   6.733 -1.1783  2.1977  0.5371
19652WAT    EPW80415   3.048   7.062   6.657 -0.0875  0.4418  0.7763
19653WAT      O80416   0.514   6.406   4.308 -0.2783  0.8115 -0.2303
19653WAT     H180417   0.601   6.430   4.277  0.5518  0.2118  1.4841
19653WAT     H280418   0.499   6.319   4.271  2.0772 -1.3648  3.2720
19653WAT    EPW80419   0.524   6.398   4.299  0.1419  0.4454  0.4575
19654WAT      O80420   9.894   6.703   8.337  0.2969  0.1022 -0.2242
19654WAT     H180421   9.829   6.703   8.266  1.7673 -0.6272 -1.6379
19654WAT     H280422   9.880   6.620   8.382 -0.2898  0.3259  0.0206
19654WAT    EPW80423   9.883   6.692   8.333  0.4129  0.0358 -0.3781
19655WAT      O80424  10.844   6.633   8.835 -0.9325 -0.5775 -0.9661
19655WAT     H180425  10.748   6.637   8.841 -0.8552  0.4717 -0.0647
19655WAT     H280426  10.873   6.721   8.859  0.2933 -1.1562 -0.2109
19655WAT    EPW80427  10.835   6.645   8.839 -0.7606 -0.5157 -0.7477
19656WAT      O80428   7.063   0.748   3.928  0.3676  0.0737 -0.4674
19656WAT     H180429   6.994   0.721   3.989 -0.8058  0.3773 -1.6219
19656WAT     H280430   7.052   0.842   3.919  2.8024  0.6398  1.5339
19656WAT    EPW80431   7.052   0.757   3.935  0.5338  0.1884 -0.3557
19657WAT      O80432   9.646   5.360   8.506 -0.5777 -0.8427 -0.3397
19657WAT     H180433   9.575   5.305   8.538  0.5412 -1.7994  0.6041
19657WAT     H280434   9.706   5.298   8.463  0.2734 -0.2408 -0.0414
19657WAT    EPW80435   9.645   5.345   8.504 -0.3176 -0.8895 -0.1764
19658WAT      O80436   2.083   9.735   5.937  0.3501  0.1729  0.2192
19658WAT     H180437   2.122   9.803   5.882  1.3848 -1.1626 -0.7400
19658WAT     H280438   1.997   9.770   5.960 -0.2473  0.6830 -2.4677
19658WAT    EPW80439   2.077   9.749   5.933  0.4077  0.0639 -0.2613
19659WAT      O80440  10.267   9.477   7.059 -0.1253 -0.3891  0.6232
19659WAT     H180441  10.255   9.551   6.999  0.4205 -0.2997  0.6218
19659WAT     H280442  10.199   9.489   7.125 -0.8264 -0.5648 -0.0486
19659WAT    EPW80443  10.256   9.488   7.059 -0.1454 -0.4005  0.5343
19660WAT      O80444  10.202   8.756   6.962 -0.3667  1.5917 -0.5770
19660WAT     H180445  10.150   8.829   6.931 -3.4209 -0.5054 -0.8696
19660WAT     H280446  10.201   8.693   6.890  1.9332  1.0870 -0.2530
19660WAT    EPW80447  10.195   8.757   6.949 -0.4663  1.2484 -0.5727
19661WAT      O80448   6.020   3.705   1.079 -0.1333  0.2494  0.0748
19661WAT     H180449   5.992   3.715   0.988  0.8502 -0.6623 -0.3474
19661WAT     H280450   6.003   3.613   1.099  0.0179  0.3538  0.6988
19661WAT    EPW80451   6.014   3.694   1.070  0.0162  0.1429  0.1014
19662WAT      O80452  10.878   6.925   8.026 -0.2364  0.3263 -0.7146
19662WAT     H180453  10.945   6.892   8.087 -2.4230  0.2338  1.8277
19662WAT     H280454  10.863   6.853   7.966 -1.3717 -1.5861  1.6783
19662WAT    EPW80455  10.885   6.911   8.026 -0.6752  0.0620 -0.0634
19663WAT      O80456  10.406   5.759   6.968 -0.5772  0.2818 -0.0247
19663WAT     H180457  10.317   5.725   6.975 -0.4115  0.0015  0.9020
19663WAT     H280458  10.400   5.849   6.998 -0.6261  0.4134 -0.4186
19663WAT    EPW80459  10.394   5.766   6.973 -0.5617  0.2623  0.0455
19664WAT      O80460   7.555   2.813   2.252 -0.0259  0.2292 -0.6474
19664WAT     H180461   7.629   2.798   2.311  0.9073 -0.7584 -2.0200
19664WAT     H280462   7.595   2.836   2.169 -1.2929  0.3938 -1.2320
19664WAT    EPW80463   7.570   2.814   2.249 -0.0701  0.1205 -0.9054
19665WAT      O80464   7.689   2.139   1.232  0.0470  0.1254  0.0447
19665WAT     H180465   7.624   2.209   1.223 -0.6079  0.4409  4.8645
19665WAT     H280466   7.640   2.058   1.216  0.6395  0.3915 -4.7629
19665WAT    EPW80467   7.674   2.138   1.228  0.0389  0.2022  0.0463
19666WAT      O80468   9.819   6.919   8.491 -0.7700  0.0748 -0.9552
19666WAT     H180469   9.846   6.842   8.441  1.1223 -0.7207  1.1094
19666WAT     H280470   9.809   6.887   8.581 -4.0276  1.4331 -0.6898
19666WAT    EPW80471   9.822   6.904   8.497 -0.9503  0.1490 -0.6475
19667WAT      O80472   3.024   9.502   8.213 -0.5211  0.2434  0.2584
19667WAT     H180473   3.081   9.432   8.243  1.6697  0.8675 -2.1544
19667WAT     H280474   2.983   9.469   8.133 -2.6359  0.3037  1.2405
19667WAT    EPW80475   3.026   9.489   8.207 -0.5112  0.3343  0.0701
19668WAT      O80476   5.768   2.083   8.447  0.1105 -0.0583 -0.3482
19668WAT     H180477   5.759   2.010   8.386 -0.4683 -0.6831  0.4586
19668WAT     H280478   5.740   2.047   8.531  1.8665  0.4840  0.5160
19668WAT    EPW80479   5.763   2.069   8.450  0.2658 -0.0691 -0.1273
19669WAT      O80480   7.083   1.866   6.005 -0.1171  0.6629 -0.2302
19669WAT     H180481   7.097   1.847   6.097  0.2538 -0.5946 -0.5176
19669WAT     H280482   7.067   1.780   5.965  1.2017  0.9914 -1.5734
19669WAT    EPW80483   7.083   1.852   6.012  0.1059  0.5404 -0.4454
19670WAT      O80484   7.167   3.482   0.794  0.3599 -0.1519  0.1646
19670WAT     H180485   7.197   3.562   0.752 -0.6383 -0.8275 -1.9811
19670WAT     H280486   7.238   3.457   0.852  1.0002  1.8589  0.3300
19670WAT    EPW80487   7.180   3.489   0.796  0.3128  0.0241 -0.0966
19671WAT      O80488   0.122   8.431   6.598 -0.1549 -0.5702  0.3238
19671WAT     H180489   0.165   8.487   6.532 -2.4269  3.0953  1.6263
19671WAT     H280490   0.042   8.401   6.555 -0.2195 -0.6036  0.4685
19671WAT    EPW80491   0.117   8.435   6.583 -0.4630 -0.0911  0.5147
19672WAT      O80492   8.133   8.969   0.636  0.8550 -0.0019  0.2622
19672WAT     H180493   8.212   8.927   0.668  0.3890  0.7559  2.5645
19672WAT     H280494   8.161   9.019   0.560  2.2689 -0.8941  0.1628
19672WAT    EPW80495   8.147   8.970   0.630  0.9804 -0.0196  0.5528
19673WAT      O80496   5.559   9.724   1.930  0.1892 -0.0094  0.2462
19673WAT     H180497   5.560   9.653   1.866  0.8239 -0.4451  0.7301
19673WAT     H280498   5.542   9.680   2.014  2.5109  0.1241  0.8596
19673WAT    EPW80499   5.557   9.708   1.933  0.5789 -0.0491  0.3909
19674WAT      O80500  10.590   4.103   2.200  0.1455 -0.3201 -0.4252
19674WAT     H180501  10.554   4.091   2.287  1.0893 -0.4849 -0.0489
19674WAT     H280502  10.683   4.082   2.209  0.2634 -0.2950 -1.4565
19674WAT    EPW80503  10.597   4.099   2.212  0.2861 -0.3386 -0.5116
19675WAT      O80504   2.616  10.171   8.806  0.4597 -0.8487 -0.2235
19675WAT     H180505   2.621  10.266   8.797 -0.5735 -0.7815 -0.2285
19675WAT     H280506   2.705  10.144   8.828  1.2644 -0.1052 -2.3114
19675WAT    EPW80507   2.628  10.180   8.808  0.4295 -0.7415 -0.4997
19676WAT      O80508  10.672   8.808   3.458  0.7147  0.1674 -0.4288
19676WAT     H180509  10.748   8.854   3.493 -1.4358  1.8221  2.4932
19676WAT     H280510  10.627   8.874   3.405 -0.3864  0.3194  0.6467
19676WAT    EPW80511  10.676   8.823   3.455  0.2866  0.4058  0.0985
19677WAT      O80512   3.449   8.827   5.383 -0.0584  0.3201 -0.8689
19677WAT     H180513   3.429   8.744   5.426 -1.2625 -0.2750 -2.5009
19677WAT     H280514   3.540   8.845   5.407 -0.0845 -0.9592  0.2914
19677WAT    EPW80515   3.459   8.819   5.392 -0.2207  0.0730 -0.9313
19678WAT      O80516  10.153   3.657   0.107  0.4948  0.4482 -0.0534
19678WAT     H180517  10.082   3.670   0.170  0.0851  1.6776 -0.7258
19678WAT     H280518  10.173   3.564   0.112  0.5187  0.5175  1.9182
19678WAT    EPW80519  10.146   3.647   0.116  0.4444  0.6194  0.1179
19679WAT      O80520   7.218   0.330   5.848 -0.2274  0.0574  0.0740
19679WAT     H180521   7.138   0.295   5.886 -1.8991  3.3516 -0.0049
19679WAT     H280522   7.231   0.414   5.894  1.7238  0.8021 -1.6789
19679WAT    EPW80523   7.209   0.337   5.859 -0.1905  0.5901 -0.1676
19680WAT      O80524   2.384   9.682   8.895 -0.3530 -0.3189 -0.3628
19680WAT     H180525   2.317   9.624   8.857 -0.8719  0.4409 -0.6523
19680WAT     H280526   2.333   9.754   8.933  0.2641 -0.1977  0.2428
19680WAT    EPW80527   2.368   9.684   8.895 -0.3400 -0.2036 -0.3219
19681WAT      O80528   8.039   6.451   1.410 -0.3573  0.4854 -0.3204
19681WAT     H180529   8.020   6.367   1.367 -1.6918  1.3892 -1.5974
19681WAT     H280530   7.953   6.482   1.439 -0.3134  2.6364 -2.2577
19681WAT    EPW80531   8.025   6.444   1.408 -0.5269  0.8883 -0.7443
19682WAT      O80532   8.082   1.181   4.026 -0.1634 -0.1782 -0.2301
19682WAT     H180533   8.090   1.264   3.978 -0.2033 -0.2011 -0.2770
19682WAT     H280534   8.049   1.207   4.112  0.4226 -0.0837 -0.0307
19682WAT    EPW80535   8.078   1.196   4.031 -0.0916 -0.1687 -0.2100
19683WAT      O80536   0.270   1.240   1.524 -0.1480  0.3704  0.8424
19683WAT     H180537   0.352   1.288   1.538 -0.0789  0.1839  1.1041
19683WAT     H280538   0.203   1.297   1.561 -0.3461  1.2351 -0.7584
19683WAT    EPW80539   0.272   1.253   1.531 -0.1650  0.4599  0.6658
19684WAT      O80540   9.540   7.770   0.123  0.4826 -0.0676 -0.0205
19684WAT     H180541   9.581   7.846   0.163  1.6833 -1.1825  0.9443
19684WAT     H280542   9.515   7.714   0.197  0.8191 -1.2132 -0.7429
19684WAT    EPW80543   9.542   7.773   0.138  0.6852 -0.3657  0.0115
19685WAT      O80544   2.760  10.032   7.888  0.4274  0.1934 -0.4396
19685WAT     H180545   2.739  10.086   7.964 -2.3636 -0.4671 -0.6607
19685WAT     H280546   2.835   9.980   7.917 -1.5073 -1.2269  2.5507
19685WAT    EPW80547   2.767  10.032   7.902 -0.1959 -0.0811 -0.0746
19686WAT      O80548   6.036   2.082   4.620  0.0852 -0.0460 -0.9635
19686WAT     H180549   6.021   2.171   4.652  0.0939  0.6500 -2.7568
19686WAT     H280550   6.010   2.085   4.528 -0.1200 -1.9737 -1.0221
19686WAT    EPW80551   6.030   2.094   4.612  0.0591 -0.2084 -1.2081
19687WAT      O80552   5.780   1.593   7.463 -0.0476 -0.1678  0.2842
19687WAT     H180553   5.822   1.676   7.486  0.4969  0.6029 -3.0387
19687WAT     H280554   5.828   1.527   7.512  3.1588  0.9917 -1.0472
19687WAT    EPW80555   5.792   1.595   7.472  0.4473  0.0867 -0.3295
19688WAT      O80556   5.016   3.115   8.459 -0.6027 -0.2526  0.5435
19688WAT     H180557   5.024   3.083   8.549 -0.7485 -0.9440  0.3219
19688WAT     H280558   4.958   3.052   8.417  0.5165 -0.7016 -0.3944
19688WAT    EPW80559   5.009   3.102   8.465 -0.4742 -0.4029  0.3910
19689WAT      O80560   4.343   1.270   7.555  0.0043 -0.2419 -0.2718
19689WAT     H180561   4.312   1.348   7.508  0.7953 -0.4095 -1.1068
19689WAT     H280562   4.335   1.294   7.648 -2.5647 -0.2818 -0.4059
19689WAT    EPW80563   4.338   1.284   7.561 -0.2303 -0.2693 -0.3996
19690WAT      O80564   4.954   0.786   5.874  0.6549  0.2089  0.6015
19690WAT     H180565   5.044   0.763   5.850  1.0126  0.7946  1.3258
19690WAT     H280566   4.964   0.858   5.936 -0.3172  0.2281  0.7490
19690WAT    EPW80567   4.967   0.792   5.879  0.5739  0.2887  0.7167
19691WAT      O80568   2.001   7.391   7.110 -0.6310  0.3606 -0.5299
19691WAT     H180569   2.047   7.355   7.033  0.0858  1.0520 -0.4376
19691WAT     H280570   2.014   7.485   7.103 -1.0796  0.4716  0.1195
19691WAT    EPW80571   2.009   7.398   7.099 -0.5956  0.4663 -0.4320
19692WAT      O80572   0.613   7.771   8.452 -0.7217  0.2313 -0.1059
19692WAT     H180573   0.657   7.762   8.367 -1.9375  2.0340 -0.9949
19692WAT     H280574   0.520   7.775   8.431 -0.9422  3.0555  1.0143
19692WAT    EPW80575   0.607   7.770   8.438 -0.9111  0.8419 -0.0753
19693WAT      O80576   5.703   0.984   6.606  0.0857 -0.0683  0.7971
19693WAT     H180577   5.738   0.897   6.626  0.7367 -0.1126 -0.4201
19693WAT     H280578   5.624   0.991   6.659 -0.7789 -1.9892 -0.1226
19693WAT    EPW80579   5.698   0.973   6.615  0.0575 -0.3275  0.5152
19694WAT      O80580   7.156   1.399   8.415  0.4162 -0.1752 -0.6794
19694WAT     H180581   7.074   1.449   8.409  0.3957 -0.3547 -2.7674
19694WAT     H280582   7.221   1.455   8.371  1.3568 -0.2078  0.6078
19694WAT    EPW80583   7.154   1.413   8.408  0.5374 -0.2033 -0.7849
19695WAT      O80584   9.997   3.362   1.670  0.0528  0.0422 -0.4850
19695WAT     H180585   9.978   3.433   1.730  1.7558 -0.1843  0.3799
19695WAT     H280586   9.986   3.400   1.583  1.5427  1.5795 -0.0501
19695WAT    EPW80587   9.993   3.376   1.666  0.4740  0.2151 -0.3136
19696WAT      O80588   5.647   2.639   6.304 -0.8362  0.3518 -0.0775
19696WAT     H180589   5.631   2.678   6.390 -1.0919 -1.3321  0.6685
19696WAT     H280590   5.592   2.561   6.302 -0.1003 -0.1715 -1.4024
19696WAT    EPW80591   5.637   2.634   6.315 -0.7730  0.0606 -0.1538
19697WAT      O80592   5.251   0.340   3.804  0.1859 -0.5495  0.4066
19697WAT     H180593   5.303   0.267   3.837 -0.3701 -0.7751  0.7871
19697WAT     H280594   5.242   0.322   3.710  1.5586 -0.0305  0.1439
19697WAT    EPW80595   5.257   0.328   3.796  0.2935 -0.5108  0.4221
19698WAT      O80596   6.073   0.306   6.991 -0.3790 -0.1240  0.2876
19698WAT     H180597   6.153   0.327   7.038 -0.8993  1.1356  0.6466
19698WAT     H280598   6.101   0.293   6.900  0.0096  2.5688 -0.0764
19698WAT    EPW80599   6.087   0.307   6.985 -0.3965  0.3973  0.2871
19699WAT      O80600   9.817   7.825   4.244 -0.3483 -0.1134  0.0262
19699WAT     H180601   9.877   7.821   4.169 -0.1581  1.3131  0.0789
19699WAT     H280602   9.755   7.754   4.228  1.9385 -2.3873  0.5083
19699WAT    EPW80603   9.817   7.815   4.232 -0.0219 -0.2251  0.0968
19700WAT      O80604   2.627   6.416   8.877  0.2326 -0.5284 -0.3130
19700WAT     H180605   2.688   6.433   8.949  1.7426 -0.8537 -1.4617
19700WAT     H280606   2.618   6.500   8.832  0.0942 -0.5556 -0.3359
19700WAT    EPW80607   2.634   6.429   8.881  0.4135 -0.5751 -0.4673
19701WAT      O80608   3.150   2.035   6.492 -0.6573 -0.3401 -0.2469
19701WAT     H180609   3.144   2.121   6.449 -2.6753  0.8570  2.1365
19701WAT     H280610   3.126   1.972   6.424 -3.0949  1.3872 -1.1504
19701WAT    EPW80611   3.146   2.038   6.478 -1.2449  0.0457 -0.0517
19702WAT      O80612   1.498   4.049   3.915  0.3612 -0.0487  0.1938
19702WAT     H180613   1.472   3.959   3.932 -0.6777  0.1794 -0.1004
19702WAT     H280614   1.419   4.091   3.880  1.0908  0.7240 -0.5999
19702WAT    EPW80615   1.484   4.043   3.913  0.3204  0.0837  0.0503
19703WAT      O80616   8.786   5.110   1.554 -0.1888 -0.0072 -0.2915
19703WAT     H180617   8.752   5.022   1.569 -1.4073  0.4681 -0.1405
19703WAT     H280618   8.708   5.164   1.545  0.5319  1.2150  0.5272
19703WAT    EPW80619   8.771   5.106   1.555 -0.2546  0.2165 -0.1636
19704WAT      O80620   7.258   3.205   0.573  0.1455  0.4295 -0.2706
19704WAT     H180621   7.220   3.243   0.494  2.2214  1.5043 -0.8370
19704WAT     H280622   7.290   3.120   0.546 -0.0647  0.3613 -0.3076
19704WAT    EPW80623   7.257   3.199   0.559  0.3915  0.5622 -0.3502
19705WAT      O80624   0.164   8.921   6.957 -0.1532 -0.1690  0.3550
19705WAT     H180625   0.248   8.887   6.985 -0.3155 -1.4416 -0.6219
19705WAT     H280626   0.185   8.982   6.886  0.1261  1.7713  2.0184
19705WAT    EPW80627   0.178   8.925   6.951 -0.1378 -0.0806  0.4456
19706WAT      O80628   4.106   3.000   0.585 -0.1525  0.3458 -0.2081
19706WAT     H180629   4.062   2.984   0.502  0.5466  0.9528 -0.7070
19706WAT     H280630   4.043   2.971   0.652 -0.9830  0.4703 -0.9217
19706WAT    EPW80631   4.092   2.994   0.583 -0.1700  0.4423 -0.3681
19707WAT      O80632   1.603   3.536   0.876  0.4444 -0.2973 -0.6717
19707WAT     H180633   1.510   3.533   0.900 -0.2701 -0.4125 -3.1329
19707WAT     H280634   1.625   3.445   0.854  0.5339  0.0152 -1.9897
19707WAT    EPW80635   1.594   3.523   0.876  0.3620 -0.2714 -1.1701
19708WAT      O80636   1.350   7.305   5.647  0.3804  0.3705  0.9751
19708WAT     H180637   1.380   7.256   5.723 -0.7023  0.4054  1.4482
19708WAT     H280638   1.368   7.396   5.668  0.0486  0.3829  1.2166
19708WAT    EPW80639   1.356   7.310   5.660  0.1937  0.3767  1.0693
19709WAT      O80640   5.729   4.622   0.616  0.0592  0.2354  0.3745
19709WAT     H180641   5.788   4.623   0.691 -0.0850  1.3709  0.5006
19709WAT     H280642   5.645   4.592   0.651 -0.1947  1.4440  0.8370
19709WAT    EPW80643   5.726   4.618   0.630  0.0069  0.5445  0.4521
19710WAT      O80644   9.965   5.514   1.418 -0.0706  0.1715  0.5668
19710WAT     H180645   9.900   5.556   1.361 -0.1205 -0.5885  0.0512
19710WAT     H280646  10.022   5.467   1.359  1.1498  1.0682  0.9992
19710WAT    EPW80647   9.964   5.514   1.403  0.0839  0.1898  0.5559
19711WAT      O80648   1.313   8.082   7.736  0.1203 -0.0095 -0.3373
19711WAT     H180649   1.230   8.111   7.699  0.4914  1.3690 -0.1476
19711WAT     H280650   1.290   8.009   7.794 -0.9875  0.5228 -0.0928
19711WAT    EPW80651   1.299   8.076   7.739  0.0232  0.2422 -0.2801
19712WAT      O80652   6.898   0.814   4.479 -0.0412  0.3711 -0.1971
19712WAT     H180653   6.886   0.887   4.418 -0.1567 -0.4390 -1.1645
19712WAT     H280654   6.810   0.798   4.514  0.1063  1.1307  0.5328
19712WAT    EPW80655   6.885   0.821   4.476 -0.0367  0.3645 -0.2284
19713WAT      O80656  10.484   9.450   8.574  0.5968  0.6048  0.4988
19713WAT     H180657  10.439   9.473   8.656  0.0405 -1.4955  0.8331
19713WAT     H280658  10.456   9.360   8.556  2.3283  0.3088 -0.9220
19713WAT    EPW80659  10.474   9.441   8.582  0.7524  0.2890  0.3552
19714WAT      O80660   5.926   9.422   8.618  0.3366 -0.2023  0.0356
19714WAT     H180661   5.877   9.423   8.536  0.7191 -0.2138 -0.1920
19714WAT     H280662   5.860   9.404   8.685 -1.0079  4.7902  0.4440
19714WAT    EPW80663   5.911   9.419   8.616  0.2098  0.4549  0.0596
19715WAT      O80664   4.287   7.318   6.324 -1.1605 -0.2591 -0.6924
19715WAT     H180665   4.232   7.240   6.334 -0.0933 -1.3534 -2.5862
19715WAT     H280666   4.320   7.312   6.234  3.5735 -0.7399  0.8317
19715WAT    EPW80667   4.284   7.307   6.313 -0.3955 -0.4671 -0.7412
19716WAT      O80668   7.729   1.913   7.978 -0.6681  0.4549  0.3628
19716WAT     H180669   7.722   2.008   7.974 -0.8219  0.4097 -1.4912
19716WAT     H280670   7.750   1.887   7.888 -0.4356 -1.2530  0.8689
19716WAT    EPW80671   7.731   1.922   7.966 -0.6578  0.2238  0.1853
19717WAT      O80672   0.800   1.344   0.373 -0.3805  0.0079  0.0723
19717WAT     H180673   0.818   1.414   0.310  0.3108 -2.1084 -2.2173
19717WAT     H280674   0.884   1.301   0.387 -1.4958 -3.6797 -2.8981
19717WAT    EPW80675   0.813   1.348   0.367 -0.4364 -0.7576 -0.6215
19718WAT      O80676   2.913   1.546   6.729  0.2120 -0.1817  0.6367
19718WAT     H180677   2.999   1.541   6.688  0.1166  0.0696  0.4026
19718WAT     H280678   2.930   1.586   6.815  0.2033  0.7991  0.1940
19718WAT    EPW80679   2.927   1.551   6.735  0.1984 -0.0191  0.5474
19719WAT      O80680   5.696   1.128   5.611  0.1841  0.3836  0.1522
19719WAT     H180681   5.708   1.097   5.701  1.1977  0.5928  0.1049
19719WAT     H280682   5.764   1.194   5.600 -1.1956  1.8047 -0.1421
19719WAT    EPW80683   5.707   1.133   5.622  0.1359  0.5986  0.1070
19720WAT      O80684   5.485   0.633   7.995 -0.5934  0.1888 -0.5687
19720WAT     H180685   5.572   0.629   7.955 -0.2898  0.9559  0.0025
19720WAT     H280686   5.441   0.703   7.948 -0.2113  1.1417  0.4732
19720WAT    EPW80687   5.491   0.641   7.983 -0.5031  0.4157 -0.3562
19721WAT      O80688   1.638   2.412   1.584  0.2835  0.1067  0.2612
19721WAT     H180689   1.582   2.483   1.616  1.4516  0.5487  1.4104
19721WAT     H280690   1.579   2.356   1.535 -0.8348  1.4370  0.0194
19721WAT    EPW80691   1.623   2.414   1.582  0.2901  0.3406  0.3809
19722WAT      O80692   0.903   6.845   4.122 -0.6217 -0.3064 -0.1632
19722WAT     H180693   0.962   6.828   4.195 -1.6749 -0.1877  0.7435
19722WAT     H280694   0.856   6.763   4.108 -1.0727 -0.0659 -0.0932
19722WAT    EPW80695   0.905   6.832   4.130 -0.8201 -0.2587 -0.0341
19723WAT      O80696   2.588   0.263   5.187 -1.1068 -0.5978 -0.1552
19723WAT     H180697   2.534   0.185   5.198 -0.1627 -1.0562  1.8547
19723WAT     H280698   2.640   0.267   5.268  0.7388  0.6609 -1.3355
19723WAT    EPW80699   2.588   0.253   5.199 -0.7387 -0.4923 -0.0458
19724WAT      O80700   7.769   0.000   8.076  0.5342  0.7197 -0.4786
19724WAT     H180701   7.705  -0.046   8.131  0.9813  0.9832  0.2723
19724WAT     H280702   7.763  -0.043   7.990 -1.4922  1.4846 -0.7806
19724WAT    EPW80703   7.760  -0.012   8.072  0.3262  0.8554 -0.4191
19725WAT      O80704   2.055   0.905   7.433  0.5398 -0.2469 -0.5854
19725WAT     H180705   1.989   0.879   7.498  1.3118 -2.1951 -0.5021
19725WAT     H280706   2.043   0.842   7.362 -0.1692  1.7406 -2.3096
19725WAT    EPW80707   2.045   0.893   7.432  0.5480 -0.2417 -0.8020
19726WAT      O80708   2.724   9.418   2.621  0.1296 -0.0650 -0.6555
19726WAT     H180709   2.730   9.377   2.535 -0.7836 -0.2513 -0.6453
19726WAT     H280710   2.676   9.500   2.604 -0.8961 -0.5562 -0.1882
19726WAT    EPW80711   2.718   9.424   2.607 -0.1261 -0.1545 -0.5925
19727WAT      O80712   5.634   0.149   7.776 -0.1190  0.1890  0.3404
19727WAT     H180713   5.661   0.186   7.860 -3.1473 -0.6830  1.8172
19727WAT     H280714   5.608   0.224   7.723  0.7345  0.6574  0.5765
19727WAT    EPW80715   5.634   0.164   7.780 -0.4060  0.1358  0.5665
19728WAT      O80716   2.174   4.705   1.186 -0.3417 -0.2390  0.5124
19728WAT     H180717   2.122   4.738   1.259  1.9527 -0.5742  2.4135
19728WAT     H280718   2.168   4.609   1.194  0.6351 -0.2841  0.8546
19728WAT    EPW80719   2.166   4.696   1.197  0.0896 -0.2894  0.8082
19729WAT      O80720   3.508   8.761   8.290  0.2008  0.0044 -0.0603
19729WAT     H180721   3.429   8.806   8.260  0.5038 -0.2080 -1.2557
19729WAT     H280722   3.579   8.822   8.271  0.4573 -0.3610 -0.2970
19729WAT    EPW80723   3.507   8.775   8.283  0.2745 -0.0715 -0.2489
19730WAT      O80724   0.483   6.784   8.493 -0.3155 -0.0660  0.4383
19730WAT     H180725   0.442   6.698   8.480 -0.2962  0.0025 -0.0904
19730WAT     H280726   0.409   6.844   8.508 -0.2650 -0.4983  2.9213
19730WAT    EPW80727   0.468   6.780   8.493 -0.3063 -0.1140  0.6962
19731WAT      O80728   9.677   4.420   0.276 -0.0066  0.3318  0.1594
19731WAT     H180729   9.680   4.390   0.367 -1.3462 -1.5000 -0.3343
19731WAT     H280730   9.590   4.393   0.245 -0.8347  3.6285 -0.8050
19731WAT    EPW80731   9.666   4.412   0.284 -0.2923  0.5250 -0.0329
19732WAT      O80732   0.435   4.349   1.927 -0.5424  0.3679  0.2170
19732WAT     H180733   0.355   4.400   1.943 -1.5923 -1.5820  1.6406
19732WAT     H280734   0.502   4.394   1.977 -1.3736  0.5519  1.2070
19732WAT    EPW80735   0.433   4.362   1.936 -0.7905  0.1347  0.5353
19733WAT      O80736   1.472   9.797   7.333  0.4103  0.3901 -0.3137
19733WAT     H180737   1.470   9.890   7.312 -1.5955  0.1857 -1.2802
19733WAT     H280738   1.543   9.762   7.278  2.3846  1.5569  1.3476
19733WAT    EPW80739   1.481   9.805   7.323  0.4061  0.5169 -0.2220
19734WAT      O80740   5.470   2.378   6.840 -0.1637 -0.7763 -0.0910
19734WAT     H180741   5.431   2.452   6.886 -0.5344 -1.9899  1.7000
19734WAT     H280742   5.455   2.304   6.899  0.2200 -2.2730 -1.7801
19734WAT    EPW80743   5.463   2.378   6.854 -0.1621 -1.1337 -0.0777
19735WAT      O80744   2.494   9.524   7.064  0.3533  0.1664  0.5346
19735WAT     H180745   2.409   9.479   7.061  0.0553  0.7706 -0.7080
19735WAT     H280746   2.524   9.511   7.154 -1.2651  0.3069  1.1377
19735WAT    EPW80747   2.487   9.516   7.075  0.1005  0.2646  0.4499
19736WAT      O80748   1.617   3.657   1.376  0.2022  0.0942  0.0258
19736WAT     H180749   1.559   3.599   1.426 -1.1295  1.2338 -0.1509
19736WAT     H280750   1.651   3.718   1.441 -0.2049  0.5246 -0.1576
19736WAT    EPW80751   1.614   3.657   1.391 -0.0271  0.3012 -0.0217
19737WAT      O80752  10.091   3.992   2.404  0.2385 -0.1522  0.1806
19737WAT     H180753  10.076   4.078   2.366 -0.6771 -0.8556 -1.1292
19737WAT     H280754  10.050   3.931   2.343 -0.3060 -1.4380  1.7293
19737WAT    EPW80755  10.083   3.995   2.391  0.0453 -0.4147  0.2121
19738WAT      O80756   0.251   9.186   6.839  0.3764  0.0298  0.4588
19738WAT     H180757   0.339   9.213   6.865  0.3845  0.7624 -0.2635
19738WAT     H280758   0.194   9.256   6.873  0.0650 -0.4653  0.9670
19738WAT    EPW80759   0.255   9.199   6.847  0.3364  0.0615  0.4306
19739WAT      O80760   0.423   7.887   6.015 -0.1601  0.1188 -0.1888
19739WAT     H180761   0.374   7.842   5.945  0.1710 -0.6317  0.0461
19739WAT     H280762   0.356   7.912   6.078 -0.4211  0.4775 -0.6028
19739WAT    EPW80763   0.407   7.884   6.014 -0.1508  0.0670 -0.2124
19740WAT      O80764   0.096   6.116   0.028 -0.0004 -0.2474  0.3786
19740WAT     H180765   0.145   6.060   0.088 -1.4693  0.2239  2.0631
19740WAT     H280766   0.164   6.157  -0.026  1.2379 -1.9741  0.5121
19740WAT    EPW80767   0.112   6.114   0.029 -0.0309 -0.4129  0.6184
19741WAT      O80768   2.733   7.662   6.664  0.3835 -0.2041  0.2593
19741WAT     H180769   2.686   7.685   6.744 -0.0076  0.3149 -0.1161
19741WAT     H280770   2.702   7.574   6.643  0.7147 -0.4680  0.8390
19741WAT    EPW80771   2.723   7.653   6.672  0.3756 -0.1705  0.2863
19742WAT      O80772   1.880   9.908   7.012 -0.0857 -0.4066 -0.6714
19742WAT     H180773   1.924   9.958   6.943 -0.1918 -1.3416 -1.4316
19742WAT     H280774   1.823   9.972   7.055  0.9906  0.5001 -0.5577
19742WAT    EPW80775   1.878   9.923   7.009  0.0423 -0.4101 -0.7567
19743WAT      O80776   0.304  10.196   8.569  0.1894  0.0671 -0.1679
19743WAT     H180777   0.233  10.153   8.616  1.0318  0.3411  1.4289
19743WAT     H280778   0.270  10.210   8.481 -1.0156 -1.5373  0.0112
19743WAT    EPW80779   0.290  10.192   8.564  0.1416 -0.1087  0.0653
19744WAT      O80780   1.339   8.636   6.548 -0.9502 -0.2086 -0.0878
19744WAT     H180781   1.340   8.580   6.626 -0.9075  0.0821  0.1209
19744WAT     H280782   1.427   8.627   6.511 -0.3519  1.0880  0.9297
19744WAT    EPW80783   1.351   8.627   6.553 -0.8656  0.0005  0.0739
19745WAT      O80784   0.820   9.062   6.093  0.1533 -0.6470  0.3036
19745WAT     H180785   0.798   9.086   6.003  0.9597  0.7057  0.4333
19745WAT     H280786   0.866   9.138   6.127  0.1042 -1.2496  1.7841
19745WAT    EPW80787   0.823   9.075   6.085  0.2532 -0.5484  0.5159
19746WAT      O80788   6.087   9.283   5.832  0.7145 -0.2128  0.2860
19746WAT     H180789   6.068   9.265   5.924 -1.2499  0.9160  0.1738
19746WAT     H280790   6.082   9.198   5.790  2.6278 -0.8988  1.3289
19746WAT    EPW80791   6.084   9.269   5.839  0.7076 -0.1540  0.4086
19747WAT      O80792   9.498  10.300   6.007 -0.5423  0.0717 -0.3688
19747WAT     H180793   9.584  10.257   6.003 -0.6935 -1.2386  4.0794
19747WAT     H280794   9.437  10.236   5.971 -0.0525 -0.7695  0.2652
19747WAT    EPW80795   9.502  10.286   6.002 -0.4978 -0.2112  0.3016
19748WAT      O80796   4.782   2.071   4.247  0.0644 -0.6223 -0.0078
19748WAT     H180797   4.864   2.067   4.296 -0.3261  0.6626  0.7980
19748WAT     H280798   4.751   2.160   4.259 -1.1251 -0.8909 -0.8590
19748WAT    EPW80799   4.789   2.082   4.255 -0.1440 -0.4882 -0.0138
19749WAT      O80800   2.769   8.869   3.100 -0.0133  0.3171 -0.2892
19749WAT     H180801   2.704   8.871   3.171  0.6545  2.6364  0.3306
19749WAT     H280802   2.718   8.844   3.023 -1.2196  0.0190  0.5665
19749WAT    EPW80803   2.754   8.866   3.099 -0.0844  0.5836 -0.0947
19750WAT      O80804   1.915   6.542   6.182  0.4130 -0.1231 -0.4458
19750WAT     H180805   1.968   6.528   6.261  1.5909  0.8023 -1.0410
19750WAT     H280806   1.825   6.538   6.213  0.8355  2.2777  1.3704
19750WAT    EPW80807   1.910   6.540   6.197  0.6241  0.3157 -0.2847
19751WAT      O80808  10.139   1.606   0.252  0.1651 -0.5747  0.6091
19751WAT     H180809  10.046   1.616   0.271  0.1311  0.0114  0.1622
19751WAT     H280810  10.173   1.695   0.250  0.0300 -0.4815 -2.6256
19751WAT    EPW80811  10.131   1.619   0.254  0.1431 -0.4851  0.1235
19752WAT      O80812   6.195   1.953   1.237  0.4836 -0.1253  0.3898
19752WAT     H180813   6.120   1.900   1.264  1.0280 -0.8887  0.4513
19752WAT     H280814   6.204   2.019   1.304  0.0436 -0.2151  0.5380
19752WAT    EPW80815   6.186   1.954   1.249  0.4976 -0.2378  0.4174
19753WAT      O80816   6.121   0.947   5.274 -0.5147 -0.3425 -0.1744
19753WAT     H180817   6.046   0.957   5.333 -0.7946 -0.3968 -0.5180
19753WAT     H280818   6.160   1.034   5.269 -1.1173 -0.0935 -0.7342
19753WAT    EPW80819   6.117   0.960   5.281 -0.6311 -0.3168 -0.2935
19754WAT      O80820   4.797   0.637   4.072 -0.0145  0.9642  0.3827
19754WAT     H180821   4.881   0.661   4.111 -0.1195 -0.4714  1.5873
19754WAT     H280822   4.753   0.586   4.140 -1.4916  0.9233 -0.5581
19754WAT    EPW80823   4.802   0.634   4.087 -0.2232  0.7694  0.4170
19755WAT      O80824   8.086   3.637   8.854 -0.3182 -0.8552 -0.1087
19755WAT     H180825   8.108   3.616   8.945 -0.3387 -0.3340  0.0195
19755WAT     H280826   8.001   3.595   8.840 -0.4555 -0.6911  0.2066
19755WAT    EPW80827   8.078   3.628   8.864 -0.3390 -0.7647 -0.0505
19756WAT      O80828   8.846   6.745   4.839 -0.6534  0.1347  0.5320
19756WAT     H180829   8.751   6.738   4.834 -0.6277 -0.2890  0.6036
19756WAT     H280830   8.862   6.832   4.875 -0.9577  1.2316 -1.7639
19756WAT    EPW80831   8.835   6.756   4.843 -0.6900  0.2234  0.2387
19757WAT      O80832   3.518   0.873   2.838  0.9168 -0.2831 -0.3550
19757WAT     H180833   3.530   0.838   2.750 -1.8507 -1.7058 -0.2844
19757WAT     H280834   3.510   0.794   2.893  0.6199  0.5671  0.8531
19757WAT    EPW80835   3.519   0.858   2.834  0.5125 -0.3587 -0.1863
19758WAT      O80836   9.079   3.637   1.246  0.2376  0.2059  0.0460
19758WAT     H180837   9.173   3.647   1.256  0.4293 -1.0516 -0.2949
19758WAT     H280838   9.045   3.631   1.335  0.2463  2.2906  0.2342
19758WAT    EPW80839   9.087   3.637   1.259  0.2642  0.3151  0.0259
19759WAT      O80840   0.564   8.793   5.735  0.6279  0.3293  0.2208
19759WAT     H180841   0.646   8.841   5.740 -0.2633  1.9208  0.4053
19759WAT     H280842   0.497   8.857   5.761 -0.6660 -0.9177  0.1146
19759WAT    EPW80843   0.566   8.807   5.739  0.3397  0.3743  0.2313
19760WAT      O80844   2.235   8.935   2.762  0.1878  0.3213 -0.0618
19760WAT     H180845   2.312   8.894   2.722 -1.3626 -0.6375 -2.2749
19760WAT     H280846   2.220   8.885   2.842 -0.0364 -1.7206 -1.3111
19760WAT    EPW80847   2.243   8.923   2.767 -0.0463 -0.0749 -0.5184
19761WAT      O80848   1.021   6.658   6.312  0.1110 -0.0306  0.6128
19761WAT     H180849   0.983   6.624   6.393  1.2151 -3.7953 -0.2372
19761WAT     H280850   1.112   6.678   6.335 -0.3971  2.1689  0.9754
19761WAT    EPW80851   1.028   6.656   6.326  0.1895 -0.2370  0.5486
19762WAT      O80852   2.541   0.020   4.965  0.4185 -0.3320 -0.7172
19762WAT     H180853   2.549  -0.074   4.983  2.6269  0.0310  0.5653
19762WAT     H280854   2.629   0.047   4.936  0.7624  1.8668  1.9489
19762WAT    EPW80855   2.554   0.011   4.964  0.7551  0.0059 -0.1967
19763WAT      O80856  10.510   9.979   6.237 -0.4803 -0.1234  0.9974
19763WAT     H180857  10.426   9.973   6.192 -0.8610 -3.6719  1.8905
19763WAT     H280858  10.569  10.020   6.173 -2.4944  1.2101 -0.1263
19763WAT    EPW80859  10.507   9.984   6.223 -0.7968 -0.4158  0.9670
19764WAT      O80860   5.484   0.170   7.114  0.1254  0.7597 -0.1569
19764WAT     H180861   5.394   0.141   7.128 -0.1577  1.5648 -0.2574
19764WAT     H280862   5.508   0.211   7.197 -0.9009  3.8494 -1.2427
19764WAT    EPW80863   5.475   0.172   7.127 -0.0470  1.2734 -0.3135
19765WAT      O80864   9.866   0.182   8.637 -0.2092  0.2281  0.1382
19765WAT     H180865   9.779   0.199   8.674  1.0552  2.4111  2.3914
19765WAT     H280866   9.872   0.239   8.561  0.0134  1.8466  1.3161
19765WAT    EPW80867   9.855   0.192   8.632 -0.0129  0.7295  0.5913
19766WAT      O80868   4.930   0.762   8.847  0.2676 -1.0406 -0.3465
19766WAT     H180869   4.956   0.694   8.785 -0.8779 -3.2918  1.4777
19766WAT     H280870   4.834   0.760   8.844  0.1770  1.5886 -1.2972
19766WAT    EPW80871   4.921   0.753   8.838  0.1044 -0.9907 -0.2313
19767WAT      O80872   6.756   1.716   6.777 -0.1754  0.0414  0.4122
19767WAT     H180873   6.850   1.733   6.769 -0.0244  1.0162  3.3008
19767WAT     H280874   6.750   1.631   6.819 -0.3762  1.2968  3.1753
19767WAT    EPW80875   6.767   1.707   6.781 -0.1819  0.3356  1.1578
19768WAT      O80876   0.530   6.771   7.777 -0.0037 -0.1520  0.1239
19768WAT     H180877   0.449   6.770   7.827 -1.4068  0.1501 -1.9732
19768WAT     H280878   0.584   6.703   7.816 -1.2262 -0.2955  1.6419
19768WAT    EPW80879   0.526   6.762   7.788 -0.3500 -0.1311  0.0474
19769WAT      O80880   5.047   1.285   8.580 -0.3217 -0.3998  0.3610
19769WAT     H180881   5.047   1.345   8.655 -2.3759  0.8570 -0.5371
19769WAT     H280882   4.992   1.212   8.609  0.1080 -0.6414  0.5774
19769WAT    EPW80883   5.040   1.283   8.594 -0.5362 -0.2658  0.2708
19770WAT      O80884  10.874   8.806   7.267 -0.4701  0.3036 -0.0121
19770WAT     H180885  10.929   8.730   7.245 -0.9081  0.3453 -1.3047
19770WAT     H280886  10.784   8.773   7.261 -0.6404  0.7032  0.2987
19770WAT    EPW80887  10.869   8.792   7.264 -0.5498  0.3614 -0.1414
19771WAT      O80888   5.790   0.509   5.065  0.0403  0.4988  0.4107
19771WAT     H180889   5.788   0.509   4.970  0.6459 -0.1527  0.3815
19771WAT     H280890   5.800   0.601   5.090  0.5452  0.6070 -0.1784
19771WAT    EPW80891   5.791   0.521   5.056  0.1869  0.4271  0.3293
19772WAT      O80892   1.788   8.375   8.316 -0.6330 -0.3864  0.5961
19772WAT     H180893   1.863   8.376   8.257 -0.9893 -1.7135  0.0977
19772WAT     H280894   1.761   8.283   8.319 -2.4203  0.1081  0.5353
19772WAT    EPW80895   1.795   8.363   8.309 -0.9157 -0.4969  0.5221
19773WAT      O80896   6.517   0.070   7.321  0.8108 -0.5198 -0.0234
19773WAT     H180897   6.576   0.101   7.254 -1.3234 -2.4329 -3.0604
19773WAT     H280898   6.569   0.008   7.373  1.7798 -1.4403 -1.9880
19773WAT    EPW80899   6.531   0.066   7.319  0.6573 -0.8935 -0.6831
19774WAT      O80900   2.774   1.215   6.200 -0.5502 -0.3057  0.4434
19774WAT     H180901   2.794   1.284   6.263  0.0019 -1.3653  1.4781
19774WAT     H280902   2.859   1.190   6.163  0.2312 -4.0613  4.0361
19774WAT    EPW80903   2.788   1.221   6.203 -0.3742 -0.9409  1.0536
19775WAT      O80904   6.150   1.188   7.354  0.0974 -0.0984 -0.2962
19775WAT     H180905   6.217   1.225   7.411 -0.6142 -0.0556  0.5246
19775WAT     H280906   6.182   1.205   7.265  1.1598 -0.0701  0.0864
19775WAT    EPW80907   6.163   1.195   7.350  0.1438 -0.0890 -0.1376
19776WAT      O80908   1.470   8.212   8.456  0.1883  0.1534  0.7357
19776WAT     H180909   1.514   8.296   8.447  0.1233  0.3442  2.0279
19776WAT     H280910   1.518   8.153   8.398 -0.6645  1.3765 -1.3781
19776WAT    EPW80911   1.482   8.215   8.447  0.0673  0.3400  0.6270
19777WAT      O80912   2.547   9.300   6.457 -0.9106  0.2355  0.3054
19777WAT     H180913   2.560   9.386   6.416  0.4511 -0.7389 -1.4834
19777WAT     H280914   2.513   9.246   6.386 -1.9208 -0.6830  1.4568
19777WAT    EPW80915   2.544   9.304   6.442 -0.8643 -0.0143  0.2213
19778WAT      O80916   5.785   3.361   0.143  0.1282 -0.4055 -0.2517
19778WAT     H180917   5.839   3.314   0.080  0.7198 -0.9960  0.6761
19778WAT     H280918   5.695   3.341   0.118  0.2839  0.7707 -1.9547
19778WAT    EPW80919   5.780   3.352   0.132  0.2267 -0.3283 -0.3540
19779WAT      O80920   0.450   7.415   0.371  0.5836  0.9632  0.1422
19779WAT     H180921   0.534   7.374   0.355  0.8962  0.2255  3.0934
19779WAT     H280922   0.471   7.502   0.406  0.6141 -0.8048  5.4756
19779WAT    EPW80923   0.464   7.421   0.374  0.6288  0.6328  1.2349
19780WAT      O80924   9.302   2.650   1.221  0.0744  0.0168  0.5033
19780WAT     H180925   9.380   2.655   1.275  1.0566  0.4563 -0.8983
19780WAT     H280926   9.304   2.563   1.183  0.1535  0.2008  0.0792
19780WAT    EPW80927   9.312   2.640   1.223  0.2141  0.0992  0.2625
19781WAT      O80928  10.206   0.875   1.479  1.0688 -0.6150 -0.3868
19781WAT     H180929  10.178   0.965   1.462 -0.2013 -0.9033  0.0136
19781WAT     H280930  10.281   0.884   1.537 -0.2044  0.2023  1.2420
19781WAT    EPW80931  10.212   0.888   1.484  0.7334 -0.5452 -0.1192
19782WAT      O80932   3.993   1.148   6.518 -0.1396 -0.2553  0.0524
19782WAT     H180933   3.916   1.201   6.537  0.1452  0.4456 -0.7119
19782WAT     H280934   4.061   1.182   6.577 -0.2077 -0.3925  0.2126
19782WAT    EPW80935   3.992   1.159   6.528 -0.1111 -0.1810 -0.0272
19783WAT      O80936   8.246   5.632   0.217  0.1702 -0.7452  0.2978
19783WAT     H180937   8.180   5.683   0.264  0.0900  0.0135 -0.5888
19783WAT     H280938   8.329   5.658   0.256 -0.0044 -1.2992  1.0573
19783WAT    EPW80939   8.249   5.642   0.228  0.1369 -0.7181  0.2811
19784WAT      O80940   4.005   1.210   7.373  0.1781  0.0168  0.4271
19784WAT     H180941   4.065   1.155   7.423 -0.8475 -0.2097  1.4444
19784WAT     H280942   3.993   1.288   7.428  1.3527  1.1409 -0.8439
19784WAT    EPW80943   4.011   1.213   7.387  0.1976  0.1351  0.3936
19785WAT      O80944   6.675   1.029   6.595  0.2866  1.5946 -0.1579
19785WAT     H180945   6.679   0.995   6.506 -0.3503 -0.8859  0.6717
19785WAT     H280946   6.761   1.008   6.632  0.6902  2.9677 -0.2646
19785WAT    EPW80947   6.687   1.022   6.588  0.2558  1.4486 -0.0625
19786WAT      O80948  10.417   8.864   7.919 -0.0439 -0.5826 -0.0772
19786WAT     H180949  10.333   8.847   7.961  0.1781 -1.6572 -0.0256
19786WAT     H280950  10.435   8.784   7.869  1.2508 -0.6365  0.4428
19786WAT    EPW80951  10.408   8.851   7.918  0.1564 -0.7315 -0.0017
19787WAT      O80952   9.298   1.660   3.661  0.2041  0.3126  0.0725
19787WAT     H180953   9.212   1.647   3.622  0.4296 -1.0638 -0.0269
19787WAT     H280954   9.326   1.747   3.630 -2.1615  1.9362  2.1459
19787WAT    EPW80955   9.291   1.670   3.652 -0.0782  0.3452  0.3330
19788WAT      O80956   1.273  10.029   8.875  0.8928  0.0544  0.1677
19788WAT     H180957   1.259   9.995   8.787  1.1039 -0.7464  0.4241
19788WAT     H280958   1.275   9.950   8.930 -1.6866  0.6496  1.2670
19788WAT    EPW80959   1.272  10.014   8.871  0.5804  0.0277  0.3467
19789WAT      O80960   6.112  10.243   7.714 -0.3925 -0.3339 -0.1391
19789WAT     H180961   6.102  10.170   7.775  3.3841 -1.7300 -0.9128
19789WAT     H280962   6.199  10.278   7.733 -1.6693  3.4242 -0.4798
19789WAT    EPW80963   6.122  10.238   7.724 -0.0629 -0.0224 -0.2859
19790WAT      O80964   5.638   2.205   6.271  0.4954  0.0962 -0.3411
19790WAT     H180965   5.558   2.194   6.219  0.3728  0.7404 -0.2990
19790WAT     H280966   5.706   2.221   6.206  0.0272  2.8558 -0.3092
19790WAT    EPW80967   5.636   2.206   6.256  0.4177  0.5451 -0.3314
19791WAT      O80968   1.744   9.873   8.632  0.3315  0.4052 -0.1043
19791WAT     H180969   1.821   9.819   8.653  0.0183 -0.6616 -1.5285
19791WAT     H280970   1.671   9.827   8.674  0.2944  0.7546  0.2236
19791WAT    EPW80971   1.744   9.860   8.641  0.2853  0.3099 -0.2484
19792WAT      O80972   3.769   9.534   1.063  0.3082 -0.0722 -0.1682
19792WAT     H180973   3.741   9.605   1.120  1.9832 -0.5010  1.2761
19792WAT     H280974   3.852   9.565   1.026 -0.7795  0.2353 -2.5242
19792WAT    EPW80975   3.776   9.548   1.066  0.3856 -0.0882 -0.2884
19793WAT      O80976   1.320   2.055   5.276  0.9505  0.1623  0.0528
19793WAT     H180977   1.298   2.113   5.349  4.3552  0.4469  1.0385
19793WAT     H280978   1.305   1.967   5.311  1.8243  0.3215  0.8867
19793WAT    EPW80979   1.315   2.051   5.290  1.5148  0.2209  0.2928
19794WAT      O80980  10.484   3.329   7.746  0.1866 -0.0392 -0.7787
19794WAT     H180981  10.433   3.264   7.697 -0.4313 -0.2879  0.1433
19794WAT     H280982  10.498   3.401   7.685  0.7285 -0.9590 -1.7726
19794WAT    EPW80983  10.479   3.330   7.732  0.1764 -0.1934 -0.7882
19795WAT      O80984   9.223   8.377   5.896 -1.1269  1.0195 -0.7632
19795WAT     H180985   9.139   8.406   5.860 -2.1027 -0.8467 -0.1587
19795WAT     H280986   9.206   8.369   5.990 -0.4253  0.1744 -0.7019
19795WAT    EPW80987   9.210   8.379   5.903 -1.1630  0.6614 -0.6754
19796WAT      O80988   2.470   3.949   7.164  0.2830 -0.2735 -0.7437
19796WAT     H180989   2.544   3.912   7.213  0.8184 -0.1515 -1.4398
19796WAT     H280990   2.396   3.945   7.225  0.1929 -2.9329 -0.9050
19796WAT    EPW80991   2.470   3.943   7.179  0.3418 -0.6083 -0.8569
19797WAT      O80992   3.299   2.898   6.438  0.0287  0.8801 -0.3469
19797WAT     H180993   3.215   2.908   6.394 -0.1834  0.3043 -0.0733
19797WAT     H280994   3.292   2.953   6.516 -0.0736  0.8729 -0.3511
19797WAT    EPW80995   3.287   2.907   6.442 -0.0126  0.8032 -0.3114
19798WAT      O80996   6.118   2.312   2.301 -1.4771 -0.0100 -0.3382
19798WAT     H180997   6.094   2.297   2.392  2.1265 -0.9124  0.6018
19798WAT     H280998   6.036   2.297   2.252 -2.7429 -3.3433  2.3740
19798WAT    EPW80999   6.104   2.308   2.306 -1.1690 -0.5686  0.1436
19799WAT      O81000   2.856   6.479   4.957 -0.0961 -0.1537  0.9083
19799WAT     H181001   2.881   6.567   4.930 -0.4982 -0.6088 -1.1018
19799WAT     H281002   2.918   6.456   5.027  0.7909  1.2419  0.6089
19799WAT    EPW81003   2.867   6.487   4.963 -0.0323 -0.0296  0.6039
19800WAT      O81004   0.599   5.352   6.443 -0.3060  0.7276 -0.3717
19800WAT     H181005   0.656   5.397   6.506  2.0748 -1.2063 -0.9930
19800WAT     H281006   0.525   5.320   6.495  0.7110  0.6886  1.1043
19800WAT    EPW81007   0.597   5.354   6.458  0.1422  0.4673 -0.2592
19801WAT      O81008   9.495   5.310   5.264 -0.1615 -0.1393  0.6999
19801WAT     H181009   9.410   5.273   5.240 -0.2009 -0.8879  1.9219
19801WAT     H281010   9.553   5.282   5.194 -0.7476 -0.3222  0.2737
19801WAT    EPW81011   9.491   5.301   5.252 -0.2446 -0.2620  0.8049
19802WAT      O81012   7.580   6.433   6.568  0.0234 -0.0927  0.7116
19802WAT     H181013   7.585   6.342   6.596  0.8351 -0.5284 -0.7194
19802WAT     H281014   7.495   6.440   6.524  0.2559 -0.3846  0.1912
19802WAT    EPW81015   7.570   6.422   6.566  0.1612 -0.1888  0.4542
19803WAT      O81016   7.136   7.550   0.470 -0.3551  0.2353  0.0717
19803WAT     H181017   7.085   7.623   0.505 -1.4104  0.2935 -1.4761
19803WAT     H281018   7.107   7.542   0.379  2.4427  0.3007 -0.9425
19803WAT    EPW81019   7.126   7.559   0.463 -0.1252  0.2515 -0.2662
19804WAT      O81020   8.462   7.274   8.619  0.3515  0.4475 -0.7230
19804WAT     H181021   8.481   7.185   8.589 -0.2280 -0.0617  0.3429
19804WAT     H281022   8.381   7.265   8.669  1.1583  1.2465  0.8131
19804WAT    EPW81023   8.454   7.261   8.622  0.3815  0.4859 -0.3800
19805WAT      O81024   3.521   1.750   7.359  0.3791  0.2489  0.0630
19805WAT     H181025   3.506   1.660   7.386 -0.0495  0.3121  0.0535
19805WAT     H281026   3.507   1.749   7.264 -0.1528  0.4243  0.1348
19805WAT    EPW81027   3.517   1.738   7.350  0.2525  0.2804  0.0713
19806WAT      O81028   6.314   1.715   6.213  0.7698 -0.7590 -0.2455
19806WAT     H181029   6.318   1.779   6.142  1.5517 -1.1854 -0.5906
19806WAT     H281030   6.376   1.746   6.279 -0.0801 -0.2696  0.3487
19806WAT    EPW81031   6.322   1.727   6.212  0.7608 -0.7507 -0.2124
19807WAT      O81032   0.584   8.266   4.633 -0.1324  0.7440  0.3316
19807WAT     H181033   0.495   8.296   4.650 -0.5414  0.3051 -0.9248
19807WAT     H281034   0.633   8.345   4.613 -0.4267  0.9145  0.2779
19807WAT    EPW81035   0.579   8.280   4.632 -0.2252  0.7081  0.1590
19808WAT      O81036   0.006   5.244   8.522 -0.1507  0.4160  0.1577
19808WAT     H181037  -0.022   5.216   8.435 -0.0834 -1.9722  0.8191
19808WAT     H281038  -0.073   5.283   8.561 -1.1668 -1.4241  0.1074
19808WAT    EPW81039  -0.008   5.245   8.516 -0.2756 -0.1416  0.2379
19809WAT      O81040   1.124   5.784   7.549  0.0549  0.8756 -0.4297
19809WAT     H181041   1.200   5.842   7.552  1.5169 -0.9626  1.9219
19809WAT     H281042   1.126   5.746   7.461  3.6256 -1.1813  0.3605
19809WAT    EPW81043   1.134   5.787   7.538  0.7187  0.3617 -0.0153
19810WAT      O81044   2.126   6.023   7.301  0.3455  0.2610  0.0816
19810WAT     H181045   2.195   6.056   7.359 -1.4192  1.1754  1.7670
19810WAT     H281046   2.064   6.096   7.293 -1.6960 -1.3166  0.6866
19810WAT    EPW81047   2.127   6.037   7.308 -0.1564  0.1736  0.3839
19811WAT      O81048   1.110   7.183   6.794 -0.0356  0.3855  0.2233
19811WAT     H181049   1.113   7.087   6.792 -0.1550  0.3890 -0.6351
19811WAT     H281050   1.201   7.210   6.778 -0.1124  0.4097 -0.1946
19811WAT    EPW81051   1.123   7.174   6.791 -0.0614  0.3893  0.0551
19812WAT      O81052  10.198   4.134   5.413  0.0830 -0.1337  0.1711
19812WAT     H181053  10.111   4.131   5.451 -0.9512  0.3450 -1.9897
19812WAT     H281054  10.216   4.044   5.385 -1.3743  0.3292 -2.6555
19812WAT    EPW81055  10.189   4.122   5.414 -0.2456 -0.0095 -0.4871
19813WAT      O81056   2.091   5.211   5.650 -0.0069 -0.2319  0.0196
19813WAT     H181057   2.142   5.239   5.574 -0.9093 -0.8068 -0.8147
19813WAT     H281058   2.098   5.116   5.651  0.2571 -0.2114  0.8484
19813WAT    EPW81059   2.098   5.202   5.640 -0.0911 -0.3052  0.0186
19814WAT      O81060   1.139   0.171   8.729 -0.2671  0.2781  0.1545
19814WAT     H181061   1.226   0.159   8.766 -0.9864  0.4640  2.0163
19814WAT     H281062   1.147   0.248   8.673  0.8579  0.0316 -0.0383
19814WAT    EPW81063   1.151   0.180   8.727 -0.2136  0.2701  0.3743
19815WAT      O81064   2.155   2.164   6.051  0.1301 -0.6490 -0.4077
19815WAT     H181065   2.115   2.225   5.989 -0.8697 -0.0450  0.7859
19815WAT     H281066   2.236   2.207   6.079 -0.0214 -0.3606 -0.4036
19815WAT    EPW81067   2.160   2.178   6.047 -0.0218 -0.5313 -0.2496
19816WAT      O81068   1.900   8.172   5.195 -0.2336 -0.5222  0.2446
19816WAT     H181069   1.907   8.165   5.100  2.3893  2.8765 -0.0014
19816WAT     H281070   1.808   8.195   5.210 -0.4007  0.2192 -1.6287
19816WAT    EPW81071   1.889   8.174   5.184  0.0903  0.0238 -0.0350
19817WAT      O81072   1.991   6.899   7.120  0.7331  0.3503 -0.5964
19817WAT     H181073   1.921   6.959   7.146  0.7051  0.5372 -1.0959
19817WAT     H281074   2.048   6.895   7.197  1.0890  1.5358 -0.7732
19817WAT    EPW81075   1.989   6.907   7.134  0.7764  0.5317 -0.6857
19818WAT      O81076   0.281   5.173   6.254 -0.4178 -0.1701 -0.1054
19818WAT     H181077   0.316   5.202   6.338 -0.1990  0.0938 -0.2847
19818WAT     H281078   0.325   5.089   6.238  1.4060  0.9098 -1.0952
19818WAT    EPW81079   0.292   5.166   6.263 -0.1484  0.0074 -0.2599
19819WAT      O81080   2.551   4.803   7.456 -0.7365 -0.4225  0.0177
19819WAT     H181081   2.530   4.896   7.444 -1.7560 -0.5312  0.8513
19819WAT     H281082   2.547   4.766   7.368 -0.0616  0.3611 -0.3579
19819WAT    EPW81083   2.548   4.810   7.443 -0.7819 -0.3335  0.0782
19820WAT      O81084   8.470   7.017   8.441  0.8172  0.2361 -0.0737
19820WAT     H181085   8.395   6.967   8.473 -0.7080  2.6436  0.3230
19820WAT     H281086   8.521   6.953   8.390 -0.8004 -1.7817  0.6999
19820WAT    EPW81087   8.467   7.002   8.438  0.4029  0.2875  0.0806
19821WAT      O81088   5.898   0.480   1.637  0.0119  0.3104  0.3766
19821WAT     H181089   5.988   0.493   1.608  0.4191 -2.6466 -0.0208
19821WAT     H281090   5.881   0.387   1.621 -2.9232  0.6389  1.0055
19821WAT    EPW81091   5.908   0.469   1.631 -0.3216 -0.0362  0.4071
19822WAT      O81092   2.016   6.561   7.104  0.1518  0.6493 -0.2217
19822WAT     H181093   2.096   6.578   7.153 -1.0651 -0.1445  2.2159
19822WAT     H281094   1.952   6.621   7.141 -1.1687 -0.9339  0.1928
19822WAT    EPW81095   2.018   6.571   7.115 -0.1827  0.3359  0.1545
19823WAT      O81096   9.805   4.768   6.980  0.1348  0.6638  0.2212
19823WAT     H181097   9.787   4.737   6.891 -1.7576  0.5842  0.5818
19823WAT     H281098   9.832   4.859   6.969 -2.3577  1.4256 -0.3516
19823WAT    EPW81099   9.806   4.776   6.966 -0.4430  0.7539  0.1931
19824WAT      O81100  10.685   5.536   3.646  0.4705  0.6361 -0.2513
19824WAT     H181101  10.709   5.628   3.646 -0.2535  0.8392 -0.7951
19824WAT     H281102  10.671   5.515   3.554  4.0596 -0.9953 -0.5838
19824WAT    EPW81103  10.686   5.545   3.634  0.8478  0.4478 -0.3669
19825WAT      O81104   2.821   3.083   4.945 -0.1199 -0.3365  0.4379
19825WAT     H181105   2.883   3.133   4.998  1.5758 -1.7010 -0.1335
19825WAT     H281106   2.856   3.089   4.856 -1.7259  0.1645 -0.1953
19825WAT    EPW81107   2.834   3.090   4.940 -0.1080 -0.4504  0.2792
19826WAT      O81108   0.570   1.937   8.045  0.1448 -0.3429 -0.2332
19826WAT     H181109   0.488   1.959   8.001  0.1707 -1.3254 -0.7970
19826WAT     H281110   0.639   1.975   7.989  0.1580 -1.2530 -0.8628
19826WAT    EPW81111   0.569   1.945   8.032  0.1500 -0.5925 -0.3905
19827WAT      O81112   7.990   4.894   6.685 -0.2780 -0.8235 -0.3617
19827WAT     H181113   8.043   4.972   6.703 -2.1599  0.6080 -0.6977
19827WAT     H281114   8.047   4.821   6.706  1.8246  0.6194 -0.7351
19827WAT    EPW81115   8.005   4.895   6.690 -0.2489 -0.4447 -0.4556
19828WAT      O81116  10.414   6.289   5.009  0.2896 -0.5432  0.0480
19828WAT     H181117  10.390   6.296   4.917  2.4497 -2.1036 -0.7177
19828WAT     H281118  10.395   6.376   5.045  0.6549  0.5403 -2.1823
19828WAT    EPW81119  10.408   6.302   5.002  0.6223 -0.6061 -0.3471
19829WAT      O81120  10.172   0.077   0.364  0.2517  0.3739 -0.3299
19829WAT     H181121  10.244   0.101   0.305 -0.3940 -1.2776 -1.8593
19829WAT     H281122  10.102   0.138   0.343  0.1191 -0.0353 -1.1217
19829WAT    EPW81123  10.172   0.088   0.354  0.1488  0.1021 -0.6360
19830WAT      O81124   0.997   2.565   6.538 -0.0861 -0.7923 -0.5602
19830WAT     H181125   1.000   2.502   6.610 -3.3546  0.7396  1.1421
19830WAT     H281126   1.047   2.640   6.569 -0.1643 -0.7393 -0.5607
19830WAT    EPW81127   1.004   2.566   6.551 -0.5276 -0.5832 -0.3355
19831WAT      O81128   1.982   3.354   6.911  0.2772  0.1183  0.6355
19831WAT     H181129   1.898   3.335   6.870 -0.4188 -2.4757  2.9752
19831WAT     H281130   1.960   3.381   7.000  1.8575 -2.3304  1.8895
19831WAT    EPW81131   1.968   3.355   6.917  0.3939 -0.5467  1.1094
19832WAT      O81132   1.732   8.388   4.486  0.5328  0.1465  0.0451
19832WAT     H181133   1.820   8.427   4.486  0.2918  0.7680 -1.4350
19832WAT     H281134   1.721   8.354   4.575  2.0227  0.6072  0.4416
19832WAT    EPW81135   1.742   8.389   4.498  0.6976  0.2890 -0.0978
19833WAT      O81136   0.699   4.670   8.540 -0.3532 -0.1288  0.0767
19833WAT     H181137   0.652   4.706   8.616 -0.5229  0.0304 -0.1007
19833WAT     H281138   0.791   4.679   8.562 -0.3847  0.6653 -0.0727
19833WAT    EPW81139   0.705   4.676   8.553 -0.3797 -0.0031  0.0334
19834WAT      O81140  10.540   7.379   3.750  0.6547 -0.1924 -0.1719
19834WAT     H181141  10.569   7.422   3.670 -2.1356  0.0944 -1.1537
19834WAT     H281142  10.461   7.428   3.776  0.3992 -1.4693  1.6636
19834WAT    EPW81143  10.533   7.391   3.743  0.2527 -0.3231 -0.0592
19835WAT      O81144   9.680   5.722   8.450  0.6435  0.7178  0.6855
19835WAT     H181145   9.656   5.815   8.453  0.7010  0.7190  1.6558
19835WAT     H281146   9.703   5.701   8.541 -0.3921 -0.5250  0.6911
19835WAT    EPW81147   9.680   5.732   8.463  0.5145  0.5541  0.8140
19836WAT      O81148   0.637   6.662   2.415  0.4959  0.7829  0.2319
19836WAT     H181149   0.594   6.589   2.372 -1.0069  1.9890 -0.4119
19836WAT     H281150   0.673   6.625   2.496  1.2094 -0.9774 -0.8431
19836WAT    EPW81151   0.636   6.648   2.420  0.3918  0.7098  0.0054
19837WAT      O81152   0.528   4.783   8.743 -0.1133 -0.3478  0.6019
19837WAT     H181153   0.506   4.876   8.755  0.3027 -0.0759 -0.6436
19837WAT     H281154   0.499   4.742   8.824 -3.3941  0.2841 -0.1214
19837WAT    EPW81155   0.521   4.790   8.755 -0.4912 -0.2289  0.3419
19838WAT      O81156   0.523   6.540   7.322 -0.0371 -0.0963 -0.1435
19838WAT     H181157   0.455   6.600   7.291  1.1613  1.4769  0.2118
19838WAT     H281158   0.575   6.520   7.244  0.9632  1.2092  0.1638
19838WAT    EPW81159   0.521   6.545   7.308  0.2529  0.2832 -0.0560
19839WAT      O81160   3.058   6.005   6.135  0.0347 -0.1024  0.3189
19839WAT     H181161   3.024   5.917   6.152 -1.4622 -0.3453 -3.0997
19839WAT     H281162   3.134   5.990   6.078 -0.7356  0.7810 -0.9822
19839WAT    EPW81163   3.064   5.991   6.129 -0.2644 -0.0179 -0.3033
19840WAT      O81164   1.150   6.173   7.141 -0.5258  0.7830 -0.0015
19840WAT     H181165   1.081   6.229   7.174  0.3532  1.7630  0.2157
19840WAT     H281166   1.211   6.233   7.098 -1.5609 -0.3686 -3.4282
19840WAT    EPW81167   1.149   6.188   7.139 -0.5464  0.7603 -0.4249
19841WAT      O81168   4.131   9.567   0.068  0.0715  0.7431 -0.5808
19841WAT     H181169   4.068   9.633   0.037  0.4054  1.6989  0.6969
19841WAT     H281170   4.079   9.506   0.119  0.3159  2.4063  1.8264
19841WAT    EPW81171   4.116   9.568   0.071  0.1478  1.0891 -0.0948
19842WAT      O81172   1.842   9.142   7.889 -0.3714  0.4317  0.5446
19842WAT     H181173   1.764   9.121   7.940 -1.6072  0.8128 -1.1009
19842WAT     H281174   1.870   9.227   7.923 -1.7918  1.1758 -0.0408
19842WAT    EPW81175   1.835   9.151   7.900 -0.7218  0.5798  0.2503
19843WAT      O81176   1.741   7.180   5.709  0.5900  0.4504  0.1191
19843WAT     H181177   1.742   7.154   5.617  2.2804  0.7985 -0.0085
19843WAT     H281178   1.650   7.169   5.737  0.2466 -0.6412 -1.3077
19843WAT    EPW81179   1.729   7.175   5.701  0.7676  0.3521 -0.0858
19844WAT      O81180   1.623   3.395   6.874 -0.3988 -0.0712  0.2584
19844WAT     H181181   1.607   3.310   6.913  1.3445  0.8052  3.2107
19844WAT     H281182   1.614   3.457   6.946 -1.6564  2.3206 -1.7787
19844WAT    EPW81183   1.620   3.392   6.888 -0.3347  0.3598  0.3791
19845WAT      O81184   1.211   4.671   5.135  0.1907  0.8271  0.1317
19845WAT     H181185   1.164   4.650   5.216 -1.5730 -1.6966 -1.3956
19845WAT     H281186   1.145   4.664   5.066  2.2412 -0.2135 -1.8583
19845WAT    EPW81187   1.196   4.667   5.137  0.2286  0.3567 -0.3324
19846WAT      O81188   2.975   7.039   5.984  0.7540  0.3296  0.2201
19846WAT     H181189   2.907   7.068   5.924 -1.2623 -1.2201  1.6317
19846WAT     H281190   3.053   7.087   5.957 -0.5577  1.1962 -2.2927
19846WAT    EPW81191   2.977   7.049   5.973  0.3151  0.2396  0.0746
19847WAT      O81192   9.987   4.618   7.351  0.3371  0.0052  0.2574
19847WAT     H181193  10.011   4.688   7.290  3.6964 -3.4230 -2.8935
19847WAT     H281194  10.045   4.631   7.426  3.4860 -1.0692 -1.7955
19847WAT    EPW81195   9.998   4.629   7.353  1.1954 -0.5889 -0.4292
19848WAT      O81196  10.050   5.908   4.966  0.1374 -0.4164 -0.2432
19848WAT     H181197  10.030   5.834   4.909 -0.4142 -0.9606  0.6251
19848WAT     H281198  10.001   5.890   5.046 -0.0781  0.9438 -0.0479
19848WAT    EPW81199  10.041   5.896   4.969  0.0367 -0.3085 -0.1028
19849WAT      O81200   3.249   5.218   5.881  0.2573  0.3172 -0.1504
19849WAT     H181201   3.180   5.166   5.922 -0.5806 -0.2063 -2.0785
19849WAT     H281202   3.329   5.168   5.898 -0.4285 -1.2966 -1.3169
19849WAT    EPW81203   3.250   5.204   5.888  0.0565  0.0353 -0.5589
19850WAT      O81204   2.292   3.380   8.534  0.5823 -0.0795 -0.7161
19850WAT     H181205   2.270   3.468   8.503  1.0298 -0.3265 -1.7863
19850WAT     H281206   2.218   3.355   8.588  0.9071  1.3432  0.4504
19850WAT    EPW81207   2.279   3.388   8.537  0.6841  0.0755 -0.7033
19851WAT      O81208   9.499   9.976   6.248  0.2321  0.5603  0.3232
19851WAT     H181209   9.456   9.969   6.163  1.0953  1.0536 -0.1660
19851WAT     H281210   9.483  10.067   6.276  0.0619  0.4378  0.6355
19851WAT    EPW81211   9.491   9.987   6.240  0.3233  0.6094  0.2997
19852WAT      O81212   1.330   4.621   7.553 -0.2293  0.4427 -0.5088
19852WAT     H181213   1.373   4.647   7.634 -0.5617  0.8968 -0.4739
19852WAT     H281214   1.248   4.580   7.581 -0.0592  0.0492 -0.5916
19852WAT    EPW81215   1.325   4.619   7.567 -0.2508  0.4506 -0.5152
19853WAT      O81216   1.723   8.580   7.223 -0.2159  0.0501  0.1467
19853WAT     H181217   1.708   8.503   7.168  0.4853  2.6787 -4.1398
19853WAT     H281218   1.639   8.595   7.266 -1.2412 -1.4661 -1.1955
19853WAT    EPW81219   1.710   8.572   7.222 -0.2587  0.1969 -0.5958
19854WAT      O81220   8.409   3.853   3.913 -0.4240  0.6016 -0.5821
19854WAT     H181221   8.430   3.761   3.899  0.8757  0.9836 -1.3726
19854WAT     H281222   8.474   3.884   3.975 -3.1151  0.1627  2.7424
19854WAT    EPW81223   8.420   3.845   3.919 -0.6075  0.5941 -0.2478
19855WAT      O81224   2.742   7.178   6.900 -0.0827 -0.3719 -0.2391
19855WAT     H181225   2.801   7.107   6.873  1.5613  1.1145 -0.7597
19855WAT     H281226   2.675   7.135   6.953  1.0722 -2.2502 -0.2229
19855WAT    EPW81227   2.741   7.163   6.903  0.2865 -0.4234 -0.3057
19856WAT      O81228   2.269   4.757   7.013 -0.1211  0.0811 -0.2592
19856WAT     H181229   2.195   4.701   6.987 -0.0805  0.4299 -1.1812
19856WAT     H281230   2.307   4.786   6.930  1.5490 -0.7067  0.1855
19856WAT    EPW81231   2.264   4.754   6.998  0.1045  0.0234 -0.3221
19857WAT      O81232   9.716   2.800   5.212  0.4475 -0.4484 -0.4766
19857WAT     H181233   9.769   2.871   5.177  0.2689 -0.4367 -0.7238
19857WAT     H281234   9.691   2.829   5.300 -0.4813  0.2432 -0.9577
19857WAT    EPW81235   9.720   2.813   5.219  0.3018 -0.3556 -0.5727
19858WAT      O81236  10.924   6.349   7.194 -0.3526  0.5665  0.1071
19858WAT     H181237  10.962   6.286   7.132 -1.4251 -1.1561  1.1168
19858WAT     H281238  10.989   6.358   7.263 -0.5811 -0.2197  0.4399
19858WAT    EPW81239  10.937   6.342   7.195 -0.5240  0.2358  0.2840
19859WAT      O81240  10.090   1.967   5.360  0.1650 -0.0302  0.2678
19859WAT     H181241  10.116   1.935   5.274 -1.6141 -1.6515  0.2655
19859WAT     H281242  10.139   1.912   5.422 -0.8693 -1.0111  0.2540
19859WAT    EPW81243  10.100   1.955   5.357 -0.2065 -0.3734  0.2658
19860WAT      O81244   7.594   8.122   7.029 -0.5976  0.4103 -0.3123
19860WAT     H181245   7.555   8.210   7.023 -0.7903  0.4191  0.8858
19860WAT     H281246   7.570   8.091   7.116 -2.9873 -2.0294 -1.6945
19860WAT    EPW81247   7.585   8.130   7.039 -0.9384  0.0892 -0.3364
19861WAT      O81248   3.617   4.780   4.084  0.2146 -0.4784  0.0431
19861WAT     H181249   3.705   4.760   4.053 -0.0515  0.6988 -1.5430
19861WAT     H281250   3.630   4.807   4.175  1.3930 -0.9501  0.0411
19861WAT    EPW81251   3.630   4.781   4.092  0.3349 -0.3853 -0.1662
19862WAT      O81252   2.888   2.563   4.584  0.1622 -0.0165  0.1345
19862WAT     H181253   2.870   2.472   4.559  0.0824  0.5389 -1.9887
19862WAT     H281254   2.805   2.594   4.621  0.0345 -0.6581  0.4004
19862WAT    EPW81255   2.874   2.555   4.586  0.1349 -0.0278 -0.1104
19863WAT      O81256   9.732   2.100   0.744 -0.3697  0.8060  0.2717
19863WAT     H181257   9.652   2.048   0.750 -2.5786  3.8054 -0.9925
19863WAT     H281258   9.735   2.149   0.827  0.2528  0.6187  0.3674
19863WAT    EPW81259   9.722   2.100   0.756 -0.5784  1.1768  0.1176
19864WAT      O81260  10.788   4.646   3.675  0.7648 -0.2599  0.3637
19864WAT     H181261  10.834   4.563   3.686  3.8681  1.4403  1.5639
19864WAT     H281262  10.832   4.688   3.601 -1.5724 -0.1086 -1.0332
19864WAT    EPW81263  10.800   4.640   3.667  0.8655 -0.0155  0.3377
19865WAT      O81264   3.204   5.800   4.946  0.5055 -0.0534 -0.0236
19865WAT     H181265   3.268   5.737   4.912  0.0654 -0.5460  0.0305
19865WAT     H281266   3.199   5.868   4.879 -1.0091 -1.4552 -1.4322
19865WAT    EPW81267   3.212   5.800   4.933  0.2477 -0.3033 -0.2022
19866WAT      O81268   9.243   9.494   7.546  0.0841  0.6736  0.0605
19866WAT     H181269   9.216   9.460   7.632 -0.0859 -2.6118 -1.1484
19866WAT     H281270   9.187   9.570   7.532 -2.5117 -0.8455  1.3518
19866WAT    EPW81271   9.232   9.500   7.556 -0.2809  0.0396  0.0715
19867WAT      O81272  10.693   6.875   3.226 -0.2937 -0.3111 -0.3272
19867WAT     H181273  10.726   6.874   3.315  2.1016 -0.0682 -1.1527
19867WAT     H281274  10.721   6.959   3.190 -0.8559 -0.5682 -1.4327
19867WAT    EPW81275  10.701   6.886   3.233 -0.0520 -0.3133 -0.5820
19868WAT      O81276   2.704   3.917   4.540  0.3006 -0.5618  0.1865
19868WAT     H181277   2.711   3.884   4.630 -1.7722 -0.6953  0.3555
19868WAT     H281278   2.659   3.847   4.493  0.7026 -0.1829 -0.7799
19868WAT    EPW81279   2.699   3.903   4.546  0.0803 -0.5295  0.0811
19869WAT      O81280   2.088   6.092   5.547 -0.8532  0.2103  0.9917
19869WAT     H181281   2.005   6.111   5.503 -0.5619  0.1970  0.4258
19869WAT     H281282   2.136   6.175   5.545  0.0149 -0.2826 -0.6029
19869WAT    EPW81283   2.084   6.105   5.541 -0.7002  0.1435  0.7067
19870WAT      O81284   2.029   0.504   6.664  0.4556  0.5136 -0.2772
19870WAT     H181285   1.970   0.452   6.609  0.8791 -0.5932  0.2773
19870WAT     H281286   2.004   0.594   6.647  3.2333  0.6612 -5.4070
19870WAT    EPW81287   2.018   0.509   6.655  0.8776  0.3871 -0.8807
19871WAT      O81288   2.128   6.850   2.058 -0.3209  0.2017  0.0851
19871WAT     H181289   2.102   6.828   2.148  0.0036 -0.6305 -0.0163
19871WAT     H281290   2.047   6.842   2.008 -0.7649  1.7997  0.4720
19871WAT    EPW81291   2.114   6.846   2.063 -0.3366  0.3026  0.1228
19872WAT      O81292   1.838   4.360   5.648  0.4665 -0.3743  0.6901
19872WAT     H181293   1.855   4.436   5.593 -1.6499  0.1102  0.5855
19872WAT     H281294   1.921   4.340   5.691  2.3192 -0.9617 -2.8652
19872WAT    EPW81295   1.851   4.367   5.647  0.4318 -0.3877  0.2074
19873WAT      O81296  10.663   4.529   3.989 -0.5570  0.0262 -0.1083
19873WAT     H181297  10.627   4.569   3.910 -1.7361  0.0317  0.4148
19873WAT     H281298  10.656   4.434   3.973  0.3989  0.0179 -0.5292
19873WAT    EPW81299  10.657   4.522   3.976 -0.5865  0.0257 -0.0948
19874WAT      O81300   1.598   6.047   6.274  0.0420  0.6039 -0.3807
19874WAT     H181301   1.503   6.038   6.272 -0.3366  3.2258  1.4132
19874WAT     H281302   1.625   6.038   6.183 -1.7009 -1.6235 -0.7584
19874WAT    EPW81303   1.589   6.045   6.262 -0.2378  0.6561 -0.1941
19875WAT      O81304   0.063   6.826   4.435  0.3145  0.0013 -0.0839
19875WAT     H181305   0.127   6.802   4.502 -0.7811 -1.5585  0.4776
19875WAT     H281306   0.027   6.909   4.464 -0.8329 -1.1093  1.8462
19875WAT    EPW81307   0.067   6.834   4.447  0.0187 -0.3512  0.2449
19876WAT      O81308  10.690   5.840   7.638  0.1160  0.0154 -0.6207
19876WAT     H181309  10.714   5.818   7.548  2.6838 -0.6511  0.1198
19876WAT     H281310  10.662   5.931   7.634 -0.7135 -0.2863 -2.2197
19876WAT    EPW81311  10.690   5.849   7.626  0.3452 -0.1123 -0.7341
19877WAT      O81312   8.921   4.207   5.761  0.7791  0.0184  0.2777
19877WAT     H181313   8.913   4.146   5.688 -0.7302  0.2636  0.2045
19877WAT     H281314   8.832   4.238   5.776  1.3799  1.5896  0.8376
19877WAT    EPW81315   8.908   4.203   5.753  0.6590  0.2580  0.3419
19878WAT      O81316   1.880   6.654   4.143  0.3597  0.7135 -0.0996
19878WAT     H181317   1.924   6.585   4.192  1.4059 -0.8857 -3.0462
19878WAT     H281318   1.795   6.663   4.186  1.6865  0.4689  2.7780
19878WAT    EPW81319   1.874   6.646   4.155  0.6728  0.4702 -0.1087
19879WAT      O81320   9.582   2.846   7.158 -0.7988  0.0071 -0.1035
19879WAT     H181321   9.675   2.830   7.143 -0.5046  0.8078  0.7971
19879WAT     H281322   9.542   2.837   7.071  0.0879 -0.4870 -0.4731
19879WAT    EPW81323   9.589   2.843   7.144 -0.6433  0.0474 -0.0336
19880WAT      O81324   9.963   2.873   7.445 -0.4214 -0.3807 -0.1304
19880WAT     H181325  10.055   2.888   7.426 -0.6139  0.3743 -0.4919
19880WAT     H281326   9.956   2.778   7.458  0.0848 -0.6869 -1.8683
19880WAT    EPW81327   9.974   2.862   7.444 -0.3800 -0.3215 -0.4072
19881WAT      O81328   0.835   7.337   4.787  0.1983  0.4690  0.0810
19881WAT     H181329   0.779   7.413   4.771 -0.1898  0.1050 -0.3111
19881WAT     H281330   0.841   7.294   4.702 -0.4133 -0.4986  0.5183
19881WAT    EPW81331   0.828   7.341   4.774  0.0665  0.2933  0.0870
19882WAT      O81332   0.800   6.025   8.423 -0.2358 -0.7758 -0.2789
19882WAT     H181333   0.743   6.069   8.360  0.3266 -0.4020 -0.5395
19882WAT     H281334   0.887   6.061   8.405 -0.2223  0.0859  1.3704
19882WAT    EPW81335   0.804   6.035   8.412 -0.1598 -0.6127 -0.0958
19883WAT      O81336  10.657   3.099   6.604  0.4484  0.6592 -0.7340
19883WAT     H181337  10.699   3.012   6.608  1.2645  0.8667 -3.2324
19883WAT     H281338  10.731   3.160   6.606 -0.0873  1.2970  0.1816
19883WAT    EPW81339  10.672   3.095   6.605  0.4849  0.7708 -0.9425
19884WAT      O81340   0.122   6.851   6.994  0.1949  0.4069 -0.4654
19884WAT     H181341   0.052   6.855   7.059 -1.1952  2.6834 -1.9313
19884WAT     H281342   0.203   6.862   7.044 -0.6647 -0.0506  1.0571
19884WAT    EPW81343   0.124   6.853   7.009 -0.1019  0.6468 -0.4580
19885WAT      O81344   2.214   7.427   5.252  0.2526 -0.4296 -0.4568
19885WAT     H181345   2.194   7.405   5.161 -0.2285  1.0541 -0.7365
19885WAT     H281346   2.204   7.522   5.257  0.3604 -0.4684  1.1343
19885WAT    EPW81347   2.210   7.437   5.241  0.2034 -0.2394 -0.2837
19886WAT      O81348   8.229   5.047   7.307  0.3294 -0.1616  0.2809
19886WAT     H181349   8.197   4.987   7.240 -2.8117 -0.3194  1.6983
19886WAT     H281350   8.233   5.132   7.263 -0.5067 -0.4815 -0.4563
19886WAT    EPW81351   8.225   5.050   7.292 -0.1955 -0.2246  0.3705
19887WAT      O81352   8.746   1.213   1.228  0.4815 -0.4347  0.1561
19887WAT     H181353   8.711   1.133   1.267 -0.0474  1.4902  4.1832
19887WAT     H281354   8.669   1.255   1.187  0.5610 -1.4269 -1.0720
19887WAT    EPW81355   8.731   1.208   1.228  0.4225 -0.3117  0.5252
19888WAT      O81356   2.271   1.791   5.826 -0.9670  0.0344  1.2115
19888WAT     H181357   2.193   1.761   5.781 -0.4079 -0.4041  0.5133
19888WAT     H281358   2.239   1.829   5.908 -1.8758 -0.4172  1.0718
19888WAT    EPW81359   2.257   1.792   5.831 -1.0130 -0.0830  1.1013
19889WAT      O81360   8.916   5.480   7.983 -0.1137 -0.4027 -0.0602
19889WAT     H181361   8.929   5.568   7.949  2.9739  0.5917  3.0234
19889WAT     H281362   8.895   5.494   8.076 -0.7332 -2.8987  0.2324
19889WAT    EPW81363   8.915   5.494   7.991  0.2117 -0.6008  0.3850
19890WAT      O81364  10.244   7.585   6.202  0.0842  0.3187  1.0260
19890WAT     H181365  10.289   7.527   6.140 -2.0725  0.4725 -0.8101
19890WAT     H281366  10.244   7.536   6.284  2.9990  0.0807  0.9950
19890WAT    EPW81367  10.250   7.571   6.204  0.1841  0.3076  0.7801
19891WAT      O81368   0.001   1.277   5.988 -0.3234 -0.8728 -0.0350
19891WAT     H181369   0.064   1.334   6.033  0.1694 -2.7098  1.7616
19891WAT     H281370  -0.072   1.335   5.965  0.8092  0.7600  0.3523
19891WAT    EPW81371  -0.001   1.292   5.991 -0.1090 -0.8997  0.2530
19892WAT      O81372   0.684   2.646   5.462  0.0051  0.8251 -0.2999
19892WAT     H181373   0.709   2.558   5.491  2.5988  1.2850 -0.8963
19892WAT     H281374   0.693   2.701   5.540 -1.2544  0.6668 -0.0188
19892WAT    EPW81375   0.689   2.642   5.476  0.1811  0.8647 -0.3414
19893WAT      O81376   0.690   7.848   0.429 -0.0786  0.0549 -0.2468
19893WAT     H181377   0.740   7.768   0.442  0.9815  0.4475 -1.6442
19893WAT     H281378   0.699   7.896   0.511  1.0556 -0.3031 -0.1502
19893WAT    EPW81379   0.698   7.844   0.442  0.2108  0.0594 -0.4183
19894WAT      O81380  10.369   2.511   0.714 -0.5930  0.5947 -0.3346
19894WAT     H181381  10.320   2.571   0.658 -0.4835  1.9774  0.9979
19894WAT     H281382  10.455   2.553   0.724  0.4030 -1.0353 -1.3914
19894WAT    EPW81383  10.374   2.525   0.708 -0.4478  0.5623 -0.2982
19895WAT      O81384   2.634   4.839   6.915 -0.1205 -0.5373  0.0217
19895WAT     H181385   2.656   4.800   6.831 -1.0875  0.0854 -0.5394
19895WAT     H281386   2.696   4.911   6.926 -0.0874 -0.5275 -0.2367
19895WAT    EPW81387   2.645   4.843   6.906 -0.2437 -0.4539 -0.0865
19896WAT      O81388   4.576   9.047   0.808 -0.2184  0.1601  0.7222
19896WAT     H181389   4.540   9.005   0.886  1.0713 -0.2907  1.1011
19896WAT     H281390   4.531   9.005   0.735 -0.8142 -0.0261  1.1865
19896WAT    EPW81391   4.565   9.036   0.809 -0.1268  0.0758  0.8334
19897WAT      O81392   9.774   0.847   8.544  0.3818 -0.4562  0.7095
19897WAT     H181393   9.826   0.926   8.562  4.9909 -2.7177 -0.9958
19897WAT     H281394   9.805   0.783   8.608 -1.0611 -1.7189  0.1980
19897WAT    EPW81395   9.785   0.849   8.555  0.7997 -0.9210  0.4172
19898WAT      O81396   0.838   6.022   6.555  0.8629  0.3481 -0.0664
19898WAT     H181397   0.882   5.937   6.560  2.1826  0.9613 -0.7011
19898WAT     H281398   0.749   6.004   6.584  1.3227 -1.0939  0.5792
19898WAT    EPW81399   0.832   6.008   6.560  1.0976  0.2389 -0.0651
19899WAT      O81400   0.699   5.489   4.724  0.5072 -0.2597  0.3306
19899WAT     H181401   0.648   5.556   4.678  1.3287 -0.5968 -1.1529
19899WAT     H281402   0.660   5.406   4.696  0.2065 -0.4475  1.2773
19899WAT    EPW81403   0.687   5.487   4.714  0.5759 -0.3288  0.2596
19900WAT      O81404   9.693   6.335   8.260 -0.4447 -0.0151 -0.1965
19900WAT     H181405   9.730   6.284   8.332 -0.4285  0.6508  0.2694
19900WAT     H281406   9.628   6.277   8.220 -0.9092 -0.1531  0.7444
19900WAT    EPW81407   9.690   6.320   8.264 -0.5045  0.0544 -0.0110
19901WAT      O81408   0.392   5.731   5.542  0.3424  0.1192 -0.3284
19901WAT     H181409   0.389   5.815   5.496  3.2751 -0.1792 -1.2512
19901WAT     H281410   0.415   5.667   5.475 -3.7691 -1.9336 -0.0755
19901WAT    EPW81411   0.395   5.734   5.527  0.1869 -0.1910 -0.4170
19902WAT      O81412   8.800   2.433   3.784 -0.0788 -0.3104  0.5788
19902WAT     H181413   8.894   2.450   3.777 -0.0457 -0.9985 -0.9321
19902WAT     H281414   8.772   2.489   3.857  0.8224  2.8420 -1.2563
19902WAT    EPW81415   8.809   2.443   3.793  0.0443  0.0145  0.1376
19903WAT      O81416   0.502   6.727   8.192  0.5043  0.4010  0.1824
19903WAT     H181417   0.587   6.752   8.227  0.3991  3.8095 -1.5639
19903WAT     H281418   0.443   6.798   8.219 -1.8150 -1.7837  1.2366
19903WAT    EPW81419   0.505   6.740   8.200  0.1845  0.5624  0.0906
19904WAT      O81420   1.084   0.769   7.354 -0.1606  0.0213  0.1360
19904WAT     H181421   1.080   0.674   7.348 -3.1541  0.0634 -0.3893
19904WAT     H281422   1.112   0.798   7.267 -2.1960 -0.3959 -0.7340
19904WAT    EPW81423   1.087   0.760   7.342 -0.8239 -0.0282 -0.0479
19905WAT      O81424   7.829   6.651   8.316  0.0902 -0.4096 -0.2048
19905WAT     H181425   7.814   6.664   8.410 -0.1785 -1.9297 -0.0093
19905WAT     H281426   7.742   6.633   8.281  0.5255 -3.1755 -0.1251
19905WAT    EPW81427   7.816   6.650   8.324  0.1121 -0.9747 -0.1688
19906WAT      O81428   3.418   7.544   5.581  0.1044 -0.2375  1.1049
19906WAT     H181429   3.327   7.570   5.569  0.3628  0.7301  1.1319
19906WAT     H281430   3.465   7.627   5.594  0.8890 -0.7658  1.7446
19906WAT    EPW81431   3.412   7.558   5.581  0.2421 -0.1795  1.1928
19907WAT      O81432   9.220   4.807   7.712 -0.1603  0.2301  0.4298
19907WAT     H181433   9.137   4.759   7.715 -1.8753  2.9642 -0.1724
19907WAT     H281434   9.265   4.772   7.635 -0.1804 -2.0347  1.3609
19907WAT    EPW81435   9.215   4.796   7.702 -0.3891  0.2921  0.4733
19908WAT      O81436   1.243   4.269   7.689  0.0269 -1.2472  0.1354
19908WAT     H181437   1.295   4.265   7.609 -2.0195  0.9025 -1.4374
19908WAT     H281438   1.181   4.196   7.682 -1.3085 -0.0487 -1.2060
19908WAT    EPW81439   1.241   4.259   7.677 -0.4191 -0.8059 -0.2489
19909WAT      O81440   0.028   7.923   4.016  0.5045  0.0111  0.6823
19909WAT     H181441   0.084   7.846   4.007  2.7873  1.3323  2.4856
19909WAT     H281442  -0.023   7.907   4.095 -1.2726 -0.8591 -0.5548
19909WAT    EPW81443   0.028   7.911   4.025  0.5713  0.0703  0.7572
19910WAT      O81444   0.174   4.184   6.987  0.6389  0.0838 -0.0956
19910WAT     H181445   0.243   4.243   7.018  2.0994 -0.4438 -2.1719
19910WAT     H281446   0.160   4.124   7.061  4.8399 -1.8885 -0.5751
19910WAT    EPW81447   0.181   4.184   7.001  1.3857 -0.2460 -0.4325
19911WAT      O81448   2.310   3.186   4.544 -0.5668 -0.0074 -0.0430
19911WAT     H181449   2.268   3.115   4.592 -1.1430 -0.7910 -1.6099
19911WAT     H281450   2.299   3.162   4.452 -1.1376  2.3041 -0.6606
19911WAT    EPW81451   2.303   3.174   4.538 -0.7179  0.1941 -0.3309
19912WAT      O81452   1.825   5.896   5.816 -0.5272  0.2615  0.2169
19912WAT     H181453   1.820   5.892   5.721 -0.9100  0.3142  0.2351
19912WAT     H281454   1.770   5.970   5.841 -1.0121 -0.1926  0.5271
19912WAT    EPW81455   1.817   5.905   5.807 -0.6416  0.2086  0.2601
19913WAT      O81456   7.321   0.016   1.406  0.0158 -0.1132  0.2246
19913WAT     H181457   7.339   0.077   1.335 -3.4395  2.6279  1.4198
19913WAT     H281458   7.385  -0.055   1.394  2.6375  2.4624 -2.7542
19913WAT    EPW81459   7.332   0.015   1.395 -0.0941  0.5879 -0.0107
19914WAT      O81460   2.722   1.895   5.414  0.3531 -0.0617  0.3127
19914WAT     H181461   2.790   1.828   5.424  0.9784  0.5468  0.1705
19914WAT     H281462   2.759   1.959   5.353 -1.6267 -1.3648 -2.4659
19914WAT    EPW81463   2.735   1.895   5.408  0.1745 -0.1533 -0.0725
19915WAT      O81464   7.891   5.199   5.830  0.3543  0.0828  0.4136
19915WAT     H181465   7.823   5.239   5.776 -0.4532 -0.8007  0.7503
19915WAT     H281466   7.942   5.273   5.864  1.3760  0.6746 -2.1253
19915WAT    EPW81467   7.889   5.214   5.827  0.3829  0.0443  0.1233
19916WAT      O81468   5.621   0.192   3.990 -0.6417  0.2121  0.0560
19916WAT     H181469   5.643   0.180   3.897  1.4037 -0.2942  0.5560
19916WAT     H281470   5.624   0.103   4.026  0.2771  0.5889  0.9297
19916WAT    EPW81471   5.624   0.178   3.982 -0.2506  0.1950  0.2371
19917WAT      O81472   2.395   4.610   4.896  0.0895  0.3040 -0.3405
19917WAT     H181473   2.388   4.673   4.967  0.8757 -1.4343  1.3671
19917WAT     H281474   2.405   4.663   4.817 -2.0086  2.3252  0.6361
19917WAT    EPW81475   2.395   4.625   4.895 -0.0836  0.3414  0.0134
19918WAT      O81476   9.985   6.990   4.893  0.6124 -0.4714  0.4334
19918WAT     H181477  10.020   6.902   4.907 -0.7930 -0.8625  1.7292
19918WAT     H281478  10.048   7.049   4.934  0.0846 -1.1136  2.2429
19918WAT    EPW81479   9.998   6.986   4.900  0.3572 -0.6075  0.8430
19919WAT      O81480   2.580   8.094   4.744 -0.0801 -0.1052  0.2836
19919WAT     H181481   2.588   8.031   4.816 -1.1448 -0.3312  0.2203
19919WAT     H281482   2.500   8.143   4.764  0.3925  0.7964 -0.0050
19919WAT    EPW81483   2.570   8.092   4.756 -0.1582 -0.0157  0.2370
19920WAT      O81484   0.445   4.281   7.030 -0.2842  0.2337  0.4164
19920WAT     H181485   0.465   4.209   6.970  0.7552  1.0900 -0.3199
19920WAT     H281486   0.522   4.286   7.086 -1.8295 -1.4784  2.8494
19920WAT    EPW81487   0.458   4.272   7.029 -0.3509  0.1206  0.6402
19921WAT      O81488   2.705   5.250   8.274 -0.0687  0.0328  0.1717
19921WAT     H181489   2.651   5.326   8.252 -0.6034 -0.8958 -1.9923
19921WAT     H281490   2.794   5.277   8.253 -0.3011 -0.0216 -0.9643
19921WAT    EPW81491   2.709   5.264   8.268 -0.1699 -0.0968 -0.2632
19922WAT      O81492  10.272   7.894   6.152 -0.2903 -0.3345 -0.2221
19922WAT     H181493  10.273   7.876   6.058  2.4723  0.6335 -0.4627
19922WAT     H281494  10.296   7.986   6.159 -2.0076  0.0478  1.4259
19922WAT    EPW81495  10.275   7.903   6.141 -0.1526 -0.1564 -0.0367
19923WAT      O81496   2.038   8.174   6.840 -0.1093 -0.6049  0.2403
19923WAT     H181497   1.955   8.128   6.854  0.2839 -1.8510 -1.1959
19923WAT     H281498   2.104   8.105   6.843  1.0677  0.5329  2.5912
19923WAT    EPW81499   2.035   8.159   6.842  0.0978 -0.6194  0.3610
19924WAT      O81500   4.535   7.243   5.328  0.5757  0.1964 -0.1383
19924WAT     H181501   4.440   7.236   5.336  0.4313  0.3230 -1.4280
19924WAT     H281502   4.560   7.168   5.275  1.0550  0.7181 -0.6725
19924WAT    EPW81503   4.525   7.232   5.322  0.6196  0.2818 -0.3788
19925WAT      O81504   5.005   6.261   4.391  0.1219  0.6892  0.1305
19925WAT     H181505   4.973   6.290   4.477  0.1474 -0.1532  0.4389
19925WAT     H281506   5.090   6.304   4.382  0.4647  0.1904  0.8791
19925WAT    EPW81507   5.012   6.270   4.401  0.1702  0.5124  0.2699
19926WAT      O81508   2.784   6.730   6.145 -0.5555 -0.3561  0.2425
19926WAT     H181509   2.761   6.639   6.163 -0.0498 -0.9377 -1.8693
19926WAT     H281510   2.725   6.756   6.075  0.4351  0.4123 -0.3230
19926WAT    EPW81511   2.773   6.721   6.138 -0.3582 -0.3316 -0.1106
19927WAT      O81512   2.028   6.710   7.412  0.3478 -0.6155  0.2097
19927WAT     H181513   2.084   6.785   7.390  0.3232 -1.1030 -1.6971
19927WAT     H281514   1.961   6.746   7.470  0.2728  0.8885 -0.7650
19927WAT    EPW81515   2.027   6.725   7.416  0.3346 -0.4814 -0.1705
19928WAT      O81516   3.393   9.386   6.298  0.3019  0.3835  0.2682
19928WAT     H181517   3.401   9.461   6.240  0.0750  1.8273  1.9986
19928WAT     H281518   3.312   9.342   6.271  1.7296 -0.7854 -2.3978
19928WAT    EPW81519   3.383   9.390   6.287  0.4603  0.4196  0.1450
19929WAT      O81520   0.243   8.304   5.263  1.1822 -0.2934 -0.0357
19929WAT     H181521   0.207   8.391   5.283  2.0720  0.0395  0.1762
19929WAT     H281522   0.219   8.290   5.171 -2.6711 -1.7098  0.9961
19929WAT    EPW81523   0.235   8.314   5.254  0.7913 -0.4368  0.1283
19930WAT      O81524   1.570   9.043   7.591 -0.4052 -0.3445 -0.1002
19930WAT     H181525   1.646   9.101   7.590  0.1478 -1.0288 -1.9079
19930WAT     H281526   1.598   8.967   7.642  1.0125 -1.5927 -2.5287
19930WAT    EPW81527   1.583   9.041   7.597 -0.1453 -0.5994 -0.6590
19931WAT      O81528   1.748   4.474   7.198  0.6648 -0.1121 -0.3189
19931WAT     H181529   1.681   4.504   7.137  0.1552 -2.7085 -1.1281
19931WAT     H281530   1.714   4.495   7.285 -2.1208 -2.8861 -0.5892
19931WAT    EPW81531   1.735   4.481   7.201  0.2302 -0.8206 -0.4613
19932WAT      O81532   0.596   8.080   5.412 -0.0662  0.0338 -0.4165
19932WAT     H181533   0.564   8.114   5.495  0.0770 -0.0346 -0.3329
19932WAT     H281534   0.582   7.986   5.416  1.7656 -0.2590  0.3713
19932WAT    EPW81535   0.590   8.072   5.423  0.1943 -0.0138 -0.3014
19933WAT      O81536   2.043   8.906   7.253 -0.1048 -0.7344 -0.0415
19933WAT     H181537   2.025   8.845   7.324  2.0543 -3.0179 -1.2834
19933WAT     H281538   1.965   8.904   7.198 -1.1342 -0.2034  1.3571
19933WAT    EPW81539   2.030   8.898   7.255  0.0441 -0.9656 -0.0210
19934WAT      O81540  10.938   5.390   5.860 -0.1970  0.3018  0.3221
19934WAT     H181541  11.021   5.379   5.814 -0.6041  1.4147 -0.7480
19934WAT     H281542  10.957   5.367   5.950  1.0541 -0.3028 -0.0741
19934WAT    EPW81543  10.952   5.386   5.865 -0.0858  0.3688  0.1287
19935WAT      O81544   1.801   6.637   4.881  0.2279 -0.5297 -0.2137
19935WAT     H181545   1.713   6.600   4.871 -1.5753  3.0545  0.7375
19935WAT     H281546   1.804   6.668   4.971  1.5899  1.3843 -0.8472
19935WAT    EPW81547   1.790   6.636   4.891  0.1697  0.1955 -0.1719
19936WAT      O81548   0.262  10.070   5.013 -0.2323  0.1393  0.2947
19936WAT     H181549   0.272  10.074   5.109  1.9233 -0.2226  0.1413
19936WAT     H281550   0.352  10.070   4.980 -0.6185 -4.3604 -1.5278
19936WAT    EPW81551   0.275  10.070   5.022  0.0011 -0.5016  0.0339
19937WAT      O81552   0.812   8.591   6.938  0.3048  0.3934 -0.4130
19937WAT     H181553   0.856   8.561   6.859  0.2489 -3.3479  0.8047
19937WAT     H281554   0.883   8.621   6.995  0.5635  0.7330 -0.8947
19937WAT    EPW81555   0.827   8.591   6.935  0.3316 -0.0553 -0.3161
19938WAT      O81556   7.746   5.780   0.554  0.8480  0.7677 -0.3586
19938WAT     H181557   7.723   5.752   0.642  3.6232  0.1770  0.2846
19938WAT     H281558   7.711   5.869   0.546 -0.4256  0.3970  0.8864
19938WAT    EPW81559   7.739   5.788   0.564  1.0464  0.6409 -0.1095
19939WAT      O81560   8.999   2.424   0.867 -0.2776 -0.4685  0.8387
19939WAT     H181561   8.905   2.421   0.886 -0.4684  0.1699  0.0372
19939WAT     H281562   9.004   2.452   0.776  0.7211  1.2326  1.3811
19939WAT    EPW81563   8.987   2.427   0.858 -0.1712 -0.1597  0.8046
19940WAT      O81564   1.222   2.627   0.535  0.7714 -0.1769 -0.4080
19940WAT     H181565   1.265   2.542   0.525  0.1923 -0.3729 -1.3012
19940WAT     H281566   1.294   2.688   0.552  1.1713 -0.8708  0.5193
19940WAT    EPW81567   1.237   2.624   0.536  0.7478 -0.2943 -0.4035
19941WAT      O81568   0.160   8.060   2.673 -0.0673 -0.0757 -0.3551
19941WAT     H181569   0.177   8.137   2.728  2.9466 -0.2682 -0.8583
19941WAT     H281570   0.185   8.088   2.585  0.3087 -1.3737 -0.6808
19941WAT    EPW81571   0.166   8.074   2.669  0.3798 -0.2723 -0.4644
19942WAT      O81572   3.911   8.733   6.974 -0.1022  0.2029  0.6286
19942WAT     H181573   3.868   8.710   6.891 -1.2071  3.0353  0.3160
19942WAT     H281574   4.004   8.738   6.951 -0.2584 -0.1735 -0.1306
19942WAT    EPW81575   3.918   8.730   6.960 -0.2686  0.5274  0.4871
19943WAT      O81576  10.093   4.109   5.786  0.5357  0.5316 -0.0875
19943WAT     H181577  10.021   4.057   5.823 -1.3421  2.2938 -1.0192
19943WAT     H281578  10.059   4.140   5.703  2.2432  1.8190 -0.3597
19943WAT    EPW81579  10.079   4.106   5.780  0.5140  0.9339 -0.2463
19944WAT      O81580   7.240   1.022   0.520 -0.4909 -0.6267 -0.2802
19944WAT     H181581   7.168   1.038   0.459  0.1146 -2.7505 -1.6474
19944WAT     H281582   7.209   0.952   0.577 -0.2573 -0.1279  0.4726
19944WAT    EPW81583   7.227   1.015   0.519 -0.3800 -0.8410 -0.3612
19945WAT      O81584   1.923   4.692   6.429 -0.1437 -0.4496 -0.3174
19945WAT     H181585   1.966   4.728   6.506 -0.2264 -1.0736  0.0303
19945WAT     H281586   1.992   4.687   6.363  0.3866 -1.5959  0.2848
19945WAT    EPW81587   1.938   4.696   6.430 -0.0846 -0.6831 -0.1924
19946WAT      O81588   2.983   9.747   4.477  0.2959 -0.0935 -0.3696
19946WAT     H181589   2.974   9.693   4.399  0.3629  0.9708 -1.1395
19946WAT     H281590   3.023   9.828   4.446  0.4425  0.3039  0.7947
19946WAT    EPW81591   2.987   9.751   4.462  0.3241  0.0992 -0.3176
19947WAT      O81592   9.417   8.255   7.169  0.0901  0.0322  0.5029
19947WAT     H181593   9.433   8.348   7.155 -0.9354  0.3117  1.0862
19947WAT     H281594   9.443   8.239   7.260 -2.2702  0.3840  1.3081
19947WAT    EPW81595   9.423   8.265   7.179 -0.3567  0.1154  0.6862
19948WAT      O81596   6.795   3.827   1.469 -0.2839  0.4387  0.1817
19948WAT     H181597   6.815   3.918   1.447  1.0211  0.5194  1.5428
19948WAT     H281598   6.878   3.790   1.498 -0.9440 -0.9889  0.3505
19948WAT    EPW81599   6.809   3.834   1.470 -0.1986  0.2612  0.3834
19949WAT      O81600  10.458   9.419   5.145 -0.1077 -0.3341  0.5414
19949WAT     H181601  10.390   9.430   5.211  0.4282  0.2777  1.0001
19949WAT     H281602  10.509   9.500   5.148  0.2885 -0.5411 -0.2053
19949WAT    EPW81603  10.456   9.431   5.154  0.0153 -0.2809  0.5033
19950WAT      O81604   3.652   6.168   5.392  0.1558  0.5901  0.2447
19950WAT     H181605   3.704   6.222   5.332 -1.0421 -2.0694 -3.5324
19950WAT     H281606   3.706   6.091   5.409 -0.5440  0.1287  0.4397
19950WAT    EPW81607   3.666   6.165   5.386 -0.0945  0.1786 -0.2275
19951WAT      O81608   1.746   6.205   6.045  0.1692  0.4889 -0.5407
19951WAT     H181609   1.825   6.226   5.995  0.1716 -0.2146 -0.8389
19951WAT     H281610   1.763   6.241   6.132  1.1964 -0.4373 -0.3436
19951WAT    EPW81611   1.759   6.213   6.050  0.3051  0.2737 -0.5538
19952WAT      O81612   0.566   8.205   5.680 -0.1253 -0.1753  0.0837
19952WAT     H181613   0.592   8.129   5.733  1.3598 -0.5010 -1.0441
19952WAT     H281614   0.579   8.280   5.739 -0.1056 -0.6673  0.7173
19952WAT    EPW81615   0.571   8.205   5.695  0.0732 -0.2832  0.0186
19953WAT      O81616  10.061   5.620   8.687  1.2774 -0.0915  0.4911
19953WAT     H181617  10.112   5.605   8.767  1.0524  1.0538  0.8745
19953WAT     H281618  10.122   5.666   8.629  1.6239 -1.4291 -0.2460
19953WAT    EPW81619  10.076   5.624   8.690  1.2932 -0.1171  0.4444
19954WAT      O81620   1.938   6.916   6.784 -0.4430  0.3857  0.4662
19954WAT     H181621   1.999   6.968   6.836 -2.6681  1.6514  2.0087
19954WAT     H281622   1.971   6.826   6.791  3.0573  1.3360 -1.5971
19954WAT    EPW81623   1.950   6.911   6.792 -0.2748  0.6783  0.3974
19955WAT      O81624   7.794   0.765   8.866  0.9692 -0.0550  0.1614
19955WAT     H181625   7.754   0.849   8.889  1.0594 -0.3153  1.3692
19955WAT     H281626   7.855   0.786   8.796  0.7028  0.8167  0.1744
19955WAT    EPW81627   7.797   0.779   8.860  0.9458  0.0256  0.3223
19956WAT      O81628   5.153   0.834   7.598 -0.0569  0.1767 -0.6214
19956WAT     H181629   5.125   0.923   7.574  2.0228  1.0864  0.0329
19956WAT     H281630   5.081   0.800   7.651 -0.2951  2.0878  0.4018
19956WAT    EPW81631   5.140   0.841   7.602  0.1860  0.5488 -0.4001
19957WAT      O81632  10.368   6.459   3.586  0.3535 -0.3353  0.1938
19957WAT     H181633  10.450   6.470   3.537 -0.4792 -0.4562 -1.2989
19957WAT     H281634  10.378   6.376   3.632  2.3122  1.1042  2.6596
19957WAT    EPW81635  10.380   6.450   3.585  0.5026 -0.1614  0.3221
19958WAT      O81636   2.115   4.768   3.828 -0.5124 -0.4580  0.0136
19958WAT     H181637   2.086   4.829   3.895 -3.3830  0.6975 -2.0801
19958WAT     H281638   2.070   4.686   3.849  0.3570 -0.7659  0.7114
19958WAT    EPW81639   2.105   4.765   3.840 -0.7763 -0.3464 -0.1705
19959WAT      O81640   3.225   5.500   1.930  0.8926  0.2752 -0.4676
19959WAT     H181641   3.153   5.547   1.889 -0.5909 -1.1332  0.3964
19959WAT     H281642   3.258   5.560   1.997  0.0137  0.6783 -0.3829
19959WAT    EPW81643   3.220   5.514   1.934  0.5811  0.1426 -0.3424
19960WAT      O81644   1.644   7.941   1.427  0.3536 -0.0828  0.4009
19960WAT     H181645   1.611   8.022   1.388  0.2906  0.0992  0.8217
19960WAT     H281646   1.591   7.872   1.387  0.0138  0.1355  0.4644
19960WAT    EPW81647   1.633   7.943   1.417  0.3005 -0.0300  0.4647
19961WAT      O81648   0.938   8.362   1.979  0.2013 -0.4956 -0.4210
19961WAT     H181649   0.944   8.390   1.887  0.2482  2.4976  0.4097
19961WAT     H281650   0.852   8.322   1.986 -0.7890  1.3574 -1.2818
19961WAT    EPW81651   0.928   8.360   1.968  0.0769  0.1440 -0.4249
19962WAT      O81652   0.858   5.317   8.629 -0.5622 -0.2332 -0.2740
19962WAT     H181653   0.803   5.383   8.672 -0.4560  0.4678 -1.1708
19962WAT     H281654   0.798   5.269   8.573 -0.3752  0.1452 -0.8091
19962WAT    EPW81655   0.843   5.319   8.627 -0.5235 -0.0906 -0.4625
19963WAT      O81656   2.384   7.255   4.142 -0.2907 -0.1354 -0.6302
19963WAT     H181657   2.431   7.337   4.155  1.9341 -1.6953  1.9794
19963WAT     H281658   2.292   7.282   4.131  0.1826  2.6508  1.2319
19963WAT    EPW81659   2.378   7.269   4.142  0.0652  0.0262 -0.0403
19964WAT      O81660   1.744   4.675   5.296  0.2349 -0.1222 -0.6044
19964WAT     H181661   1.668   4.662   5.352  0.1886  0.3097 -0.5627
19964WAT     H281662   1.819   4.656   5.352  0.1892  0.2982 -0.3954
19964WAT    EPW81663   1.744   4.671   5.311  0.2227 -0.0098 -0.5715
19965WAT      O81664   1.241   5.734   7.076 -0.1294 -0.3382  0.0186
19965WAT     H181665   1.245   5.823   7.043  0.4861 -0.0219  0.9195
19965WAT     H281666   1.302   5.685   7.020  1.9022  0.4620  1.4126
19965WAT    EPW81667   1.249   5.739   7.064  0.2197 -0.1910  0.3214
19966WAT      O81668   7.059   7.929   8.662 -0.3237 -0.1635 -0.4945
19966WAT     H181669   7.139   7.903   8.616  0.3618 -0.1436  0.6518
19966WAT     H281670   7.067   8.024   8.671 -2.3037  0.4409 -3.7059
19966WAT    EPW81671   7.071   7.938   8.657 -0.4942 -0.0811 -0.7668
19967WAT      O81672   1.691   7.276   2.928  0.2094  0.6645  0.1595
19967WAT     H181673   1.785   7.274   2.948  0.0551 -0.9825  0.7944
19967WAT     H281674   1.671   7.189   2.894 -0.3438  2.0921 -3.7059
19967WAT    EPW81675   1.701   7.265   2.926  0.1161  0.6359 -0.2668
19968WAT      O81676   4.750   3.705   4.669 -0.3792  0.2815 -0.1113
19968WAT     H181677   4.707   3.621   4.688 -0.1091  0.2619  0.4266
19968WAT     H281678   4.691   3.771   4.705  0.0202  0.2566  0.5898
19968WAT    EPW81679   4.737   3.702   4.676 -0.2909  0.2757  0.0520
19969WAT      O81680  10.938   6.639   7.970  0.4771 -0.6459  0.8258
19969WAT     H181681  11.019   6.602   8.003  1.0855 -1.7228 -1.5975
19969WAT     H281682  10.869   6.582   8.006  0.8771 -0.3710  2.0443
19969WAT    EPW81683  10.940   6.626   7.979  0.6104 -0.7517  0.6671
19970WAT      O81684   5.010   8.492   2.809 -0.5640  0.9094 -0.1692
19970WAT     H181685   4.987   8.399   2.816  0.6065  0.3035 -3.0313
19970WAT     H281686   5.105   8.492   2.797 -0.5919  2.4807 -0.5744
19970WAT    EPW81687   5.020   8.480   2.809 -0.4132  1.0362 -0.6002
19971WAT      O81688   1.094   5.982   6.092  0.2504 -0.5501  0.1550
19971WAT     H181689   1.020   6.013   6.145 -0.2225  0.6550 -1.1577
19971WAT     H281690   1.073   5.891   6.074  0.2172 -0.8689  1.6702
19971WAT    EPW81691   1.081   5.974   6.097  0.1837 -0.4337  0.1817
19972WAT      O81692   6.364   5.329   7.385 -0.5889  0.0271  0.7165
19972WAT     H181693   6.279   5.324   7.429  0.5311  0.9366  3.1369
19972WAT     H281694   6.404   5.409   7.419  0.2410  1.0833 -2.3578
19972WAT    EPW81695   6.358   5.339   7.395 -0.3316  0.2861  0.6304
19973WAT      O81696   0.860   5.768   3.946 -0.3990 -0.0092  0.0430
19973WAT     H181697   0.907   5.746   3.866  3.1482  1.3876  1.5167
19973WAT     H281698   0.904   5.718   4.015 -1.7359  0.6545  1.4578
19973WAT    EPW81699   0.872   5.759   3.945 -0.1075  0.2625  0.4241
19974WAT      O81700   3.359   6.772   4.776 -0.5950 -0.1913  0.2901
19974WAT     H181701   3.323   6.807   4.857 -0.0541 -0.8414  0.8232
19974WAT     H281702   3.322   6.683   4.769 -3.3149  0.9426 -1.9144
19974WAT    EPW81703   3.349   6.765   4.786 -0.8824 -0.1276  0.0696
19975WAT      O81704   2.790   8.546   8.826  0.0508  0.0167  1.0319
19975WAT     H181705   2.825   8.523   8.912 -1.1238 -0.5024  1.3937
19975WAT     H281706   2.820   8.476   8.768  0.3452  0.0516  1.1396
19975WAT    EPW81707   2.799   8.534   8.830 -0.0652 -0.0467  1.0939
19976WAT      O81708   5.580   1.114   0.490  0.2656 -0.2461 -0.1973
19976WAT     H181709   5.657   1.060   0.509  0.7096 -0.2140 -1.7984
19976WAT     H281710   5.526   1.106   0.569  1.9922 -0.0855  1.0681
19976WAT    EPW81711   5.583   1.106   0.503  0.5517 -0.2207 -0.2416
19977WAT      O81712   3.399   8.444   6.352 -0.0666 -0.1317  0.6178
19977WAT     H181713   3.425   8.534   6.333  1.8000 -0.5009  1.1792
19977WAT     H281714   3.434   8.393   6.279 -0.7074 -0.4634  0.5388
19977WAT    EPW81715   3.407   8.449   6.340  0.0951 -0.2246  0.6814
19978WAT      O81716   2.081   6.575   7.691 -0.3773  0.5267 -0.4855
19978WAT     H181717   2.147   6.640   7.668 -0.1185  0.0193 -1.2379
19978WAT     H281718   2.000   6.625   7.703 -0.0100  1.0729 -0.2555
19978WAT    EPW81719   2.079   6.590   7.689 -0.2947  0.5319 -0.5541
19979WAT      O81720   0.346   8.945   4.801  0.4890 -0.0174  0.2340
19979WAT     H181721   0.300   8.989   4.729 -0.2510  2.0223  1.8654
19979WAT     H281722   0.365   8.857   4.767 -1.6376  0.1838 -1.7033
19979WAT    EPW81723   0.342   8.939   4.787  0.1109  0.2785  0.1938
19980WAT      O81724   0.474   5.301   5.244 -0.8541  0.8031  0.1833
19980WAT     H181725   0.386   5.263   5.241  0.0386 -1.3513 -0.1107
19980WAT     H281726   0.498   5.313   5.153 -0.4358  0.3788  0.2351
19980WAT    EPW81727   0.465   5.298   5.232 -0.6812  0.4630  0.1514
19981WAT      O81728   2.161   5.168   8.510 -0.0719  0.1526  0.6777
19981WAT     H181729   2.206   5.111   8.449 -0.0959 -1.7683  2.3340
19981WAT     H281730   2.080   5.121   8.532 -1.7334  2.3535 -0.3137
19981WAT    EPW81731   2.156   5.155   8.505 -0.2943  0.1893  0.7653
19982WAT      O81732   1.132   8.514   4.607 -0.7691 -0.9590 -0.0070
19982WAT     H181733   1.155   8.449   4.540  1.4570  0.8292 -1.1254
19982WAT     H281734   1.189   8.492   4.681  2.3624  1.3468 -1.4940
19982WAT    EPW81735   1.143   8.502   4.608 -0.0625 -0.4187 -0.3502
19983WAT      O81736   0.074   6.403   2.867 -0.7992  0.4985 -0.1485
19983WAT     H181737   0.158   6.401   2.820 -0.5575 -0.7576  0.3005
19983WAT     H281738   0.019   6.460   2.814 -0.5415 -0.8943 -2.0333
19983WAT    EPW81739   0.078   6.410   2.854 -0.7333  0.1490 -0.3378
19984WAT      O81740   2.437   7.372   5.935  0.3058  0.2649  0.2991
19984WAT     H181741   2.366   7.307   5.928  0.9251 -0.3352 -0.6049
19984WAT     H281742   2.403   7.448   5.888  1.0089 -0.7259 -1.9473
19984WAT    EPW81743   2.423   7.373   5.928  0.4803  0.0548 -0.1166
19985WAT      O81744   1.206   9.455   5.963 -0.7326  0.0223 -0.2883
19985WAT     H181745   1.289   9.495   5.936  0.4410 -0.4652  2.2813
19985WAT     H281746   1.177   9.405   5.886  1.2134  0.4205 -1.3499
19985WAT    EPW81747   1.213   9.454   5.949 -0.3211  0.0105 -0.0892
19986WAT      O81748   9.890   1.697   1.172  0.4743 -0.6547  0.8542
19986WAT     H181749   9.917   1.645   1.096 -0.4913  0.6748 -0.4708
19986WAT     H281750   9.796   1.681   1.180 -0.6043  3.0953 -1.5979
19986WAT    EPW81751   9.881   1.688   1.163  0.2050  0.0152  0.3560
19987WAT      O81752   1.998   9.460   5.229  0.4632  0.1924  0.6045
19987WAT     H181753   1.988   9.463   5.134 -1.9815 -1.5415  0.6925
19987WAT     H281754   2.001   9.552   5.256 -3.3996  0.9591 -0.8797
19987WAT    EPW81755   1.997   9.472   5.220 -0.3687  0.0648  0.4206
19988WAT      O81756   9.935   4.400   4.587  0.0330 -0.3104 -0.4426
19988WAT     H181757   9.874   4.461   4.545  0.7610 -1.2316 -3.0535
19988WAT     H281758   9.963   4.342   4.516  2.3257 -1.2454  1.1113
19988WAT    EPW81759   9.930   4.400   4.572  0.4315 -0.5553 -0.5820
19989WAT      O81760   8.860   7.645   4.440  0.2515  0.3084  0.5700
19989WAT     H181761   8.888   7.715   4.381 -1.9672 -1.4634 -2.8650
19989WAT     H281762   8.835   7.573   4.383 -0.3065 -2.3369  3.8091
19989WAT    EPW81763   8.861   7.645   4.425 -0.1144 -0.2744  0.5443
19990WAT      O81764   0.035   7.185   6.278  0.5484  0.4949 -1.1844
19990WAT     H181765   0.055   7.180   6.372  0.6924 -1.0123 -1.2784
19990WAT     H281766  -0.032   7.118   6.264  0.7720  0.4767 -2.2213
19990WAT    EPW81767   0.029   7.176   6.289  0.5969  0.2937 -1.3335
19991WAT      O81768   8.277   2.864   1.299 -0.1694  0.3623 -0.1557
19991WAT     H181769   8.220   2.926   1.346 -1.2957 -0.8056  0.0667
19991WAT     H281770   8.261   2.780   1.342  0.7324 -0.2466 -0.9781
19991WAT    EPW81771   8.267   2.861   1.311 -0.1988  0.1280 -0.2348
19992WAT      O81772   3.907   9.633   7.126  0.4249 -0.3393 -0.4320
19992WAT     H181773   3.832   9.650   7.183  1.6278  1.8813  0.6098
19992WAT     H281774   3.965   9.708   7.140  1.8376 -0.8800 -2.8759
19992WAT    EPW81775   3.905   9.645   7.135  0.7699 -0.1178 -0.6170
19993WAT      O81776   0.350   9.304   3.989  0.5138  0.2546  0.9279
19993WAT     H181777   0.301   9.281   3.910  2.9174  0.7895 -0.7980
19993WAT     H281778   0.288   9.356   4.041 -1.0804  0.0000 -0.6386
19993WAT    EPW81779   0.335   9.308   3.986  0.6206  0.2918  0.4936
19994WAT      O81780   1.569   5.318   7.007 -0.0582 -0.1430 -0.0009
19994WAT     H181781   1.600   5.408   7.014 -0.0935 -0.1510  0.2849
19994WAT     H281782   1.649   5.266   7.001 -0.0002 -0.1834  0.9812
19994WAT    EPW81783   1.584   5.323   7.007 -0.0551 -0.1495  0.1662
19995WAT      O81784   1.770   8.703   4.983 -0.6220  0.3860  0.1845
19995WAT     H181785   1.702   8.667   4.925 -0.7846  0.2573  0.4495
19995WAT     H281786   1.752   8.797   4.986 -0.0161  0.5442 -0.7468
19995WAT    EPW81787   1.758   8.710   4.976 -0.5636  0.3901  0.0966
19996WAT      O81788   9.861   9.777   8.459  0.2351  0.2931  0.1037
19996WAT     H181789   9.948   9.738   8.449  0.0392 -0.9471  2.5665
19996WAT     H281790   9.800   9.705   8.445 -0.4029  0.9521 -0.6663
19996WAT    EPW81791   9.865   9.763   8.456  0.1249  0.2170  0.3271
19997WAT      O81792   0.871   7.110   4.934 -0.0345  1.1069  0.3787
19997WAT     H181793   0.822   7.184   4.899  0.7110  2.3115  1.8048
19997WAT     H281794   0.836   7.034   4.887 -2.5026  2.0370  0.5822
19997WAT    EPW81795   0.860   7.109   4.923 -0.2617  1.3885  0.5939
19998WAT      O81796   2.709   4.989   7.686 -0.1582 -0.2255  0.6464
19998WAT     H181797   2.692   4.990   7.592 -0.4433 -1.4946  0.6626
19998WAT     H281798   2.766   4.913   7.699  1.1927  0.8636  1.3040
19998WAT    EPW81799   2.714   4.979   7.675 -0.0176 -0.2491  0.7350
19999WAT      O81800   1.259   5.908   3.615 -0.2737  0.0275  0.0225
19999WAT     H181801   1.235   5.997   3.591 -0.5547  0.8875  3.1642
19999WAT     H281802   1.176   5.859   3.614 -0.1832 -0.1464 -1.2468
19999WAT    EPW81803   1.245   5.913   3.612 -0.2989  0.1183  0.2694
20000WAT      O81804   9.533   6.834   8.517 -0.1241  0.0812 -0.1745
20000WAT     H181805   9.628   6.828   8.510  0.4858  4.4456  0.9753
20000WAT     H281806   9.511   6.782   8.594  1.5651 -0.0380  0.2645
20000WAT    EPW81807   9.543   6.827   8.527  0.1783  0.6413  0.0348
20001WAT      O81808   0.931   4.179   6.039  0.2419  0.7496  0.6326
20001WAT     H181809   0.866   4.238   6.076  0.1256  0.9835  0.0669
20001WAT     H281810   1.006   4.184   6.099  0.3385  1.6852  0.4406
20001WAT    EPW81811   0.932   4.187   6.051  0.2393  0.9038  0.5326
20002WAT      O81812   2.097   9.284   4.361  0.3756  0.6481 -0.8891
20002WAT     H181813   2.072   9.340   4.288 -1.0430 -0.8218 -1.6021
20002WAT     H281814   2.016   9.240   4.386  0.7742  1.2228  1.7264
20002WAT    EPW81815   2.083   9.285   4.355  0.2412  0.5298 -0.6382
20003WAT      O81816   3.737  10.309   5.469  0.2908  0.6294  0.3877
20003WAT     H181817   3.788  10.280   5.544  2.1673  0.2150 -0.9821
20003WAT     H281818   3.784  10.386   5.436  1.8184 -1.4033 -2.5948
20003WAT    EPW81819   3.750  10.316   5.475  0.7398  0.3061 -0.1867
20004WAT      O81820   0.861   8.694   8.978 -0.3906  0.8143 -0.1118
20004WAT     H181821   0.879   8.608   8.940 -1.4611  0.0386  1.0874
20004WAT     H281822   0.774   8.717   8.945 -0.2141  1.3378 -0.2273
20004WAT    EPW81823   0.852   8.686   8.968 -0.5085  0.7811  0.0310
20005WAT      O81824   3.353   4.896   5.326  0.5748  0.2054 -0.0144
20005WAT     H181825   3.430   4.950   5.308  0.7653 -0.1950 -0.4275
20005WAT     H281826   3.348   4.893   5.422  0.2520  1.3770  0.0167
20005WAT    EPW81827   3.363   4.903   5.336  0.5574  0.3071 -0.0646
20006WAT      O81828  10.069   7.909   5.363 -0.5574  0.6382  0.5326
20006WAT     H181829  10.111   7.959   5.434  1.3445  0.9431 -0.7266
20006WAT     H281830   9.995   7.867   5.405  1.9079 -1.3163  3.3913
20006WAT    EPW81831  10.065   7.910   5.378  0.0186  0.4206  0.7436
20007WAT      O81832   1.553   5.677   4.557 -0.0335  0.4132  0.1402
20007WAT     H181833   1.474   5.625   4.539 -1.1627  2.1119  0.0218
20007WAT     H281834   1.521   5.758   4.596  1.5387  1.7224 -1.1097
20007WAT    EPW81835   1.538   5.681   4.559  0.0249  0.8099 -0.0403
20008WAT      O81836   2.958   8.781   6.001  0.2286  0.2202 -0.3393
20008WAT     H181837   2.916   8.798   5.917  0.5890  1.0172 -0.3605
20008WAT     H281838   2.888   8.748   6.056  0.0401 -0.5515 -1.0204
20008WAT    EPW81839   2.943   8.779   5.997  0.2512  0.2241 -0.4318
20009WAT      O81840   0.411   5.699   2.822  0.8462 -0.5473 -0.5063
20009WAT     H181841   0.429   5.774   2.880  1.4703 -1.5003  0.5641
20009WAT     H281842   0.391   5.627   2.881  0.0531 -1.2054 -1.5346
20009WAT    EPW81843   0.410   5.700   2.837  0.8239 -0.7598 -0.5007
20010WAT      O81844   3.675   8.274   3.617  0.0380  0.1568  1.0008
20010WAT     H181845   3.738   8.277   3.546 -1.4534  0.8004 -0.3562
20010WAT     H281846   3.716   8.323   3.688  2.5027 -2.3661  1.4755
20010WAT    EPW81847   3.688   8.281   3.617  0.1663 -0.0911  0.8845
20011WAT      O81848   9.517   8.097   3.136  0.4116 -0.0260  0.2350
20011WAT     H181849   9.443   8.097   3.074  0.7246 -1.2902 -0.1741
20011WAT     H281850   9.565   8.177   3.116 -0.3911  0.3995 -0.0486
20011WAT    EPW81851   9.513   8.107   3.125  0.3476 -0.1364  0.1436
20012WAT      O81852  10.638   5.054   6.815  0.8330  0.0755  0.6803
20012WAT     H181853  10.614   4.962   6.804 -0.0475  0.2279  1.2422
20012WAT     H281854  10.658   5.084   6.727 -0.3005 -0.2666  0.2935
20012WAT    EPW81855  10.637   5.046   6.802  0.5670  0.0503  0.7031
20013WAT      O81856   1.671   8.900   6.610 -0.3345 -0.1832  0.0173
20013WAT     H181857   1.718   8.941   6.683  0.4272  1.9333 -1.5683
20013WAT     H281858   1.588   8.871   6.648  0.5840 -0.3533  2.0011
20013WAT    EPW81859   1.666   8.901   6.625 -0.1128  0.0734  0.0696
20014WAT      O81860   1.674   5.643   6.281 -0.2629 -0.1429  0.0246
20014WAT     H181861   1.652   5.631   6.374  0.8229  0.3252  0.3514
20014WAT     H281862   1.726   5.723   6.279 -0.6310  0.0842 -1.0612
20014WAT    EPW81863   1.678   5.652   6.293 -0.1682 -0.0513 -0.0756
20015WAT      O81864   4.623   7.152   3.065 -0.0993  0.4813 -0.5932
20015WAT     H181865   4.608   7.101   2.985 -1.8593 -2.7177  1.5533
20015WAT     H281866   4.562   7.225   3.058 -2.9400 -1.7070 -0.7416
20015WAT    EPW81867   4.613   7.155   3.053 -0.7062 -0.2294 -0.3296
20016WAT      O81868   1.956   6.062   5.114  0.6427  0.3002 -0.3366
20016WAT     H181869   1.957   6.112   5.196 -0.7814  1.3638 -0.9247
20016WAT     H281870   1.912   5.980   5.137 -1.0194  1.1563 -0.2833
20016WAT    EPW81871   1.950   6.057   5.128  0.2356  0.5534 -0.4070
20017WAT      O81872   1.132   5.831   5.382  0.2699 -0.6245  0.1954
20017WAT     H181873   1.109   5.858   5.293  0.2066  1.0252  0.6880
20017WAT     H281874   1.090   5.896   5.438  2.2098 -0.2905  1.3213
20017WAT    EPW81875   1.123   5.843   5.377  0.5174 -0.3629  0.4089
20018WAT      O81876   9.516   6.168   3.702  0.6292  0.6106 -0.0511
20018WAT     H181877   9.456   6.221   3.650  0.6840  0.1215 -0.6230
20018WAT     H281878   9.460   6.107   3.749  0.5543  1.2557  0.7225
20018WAT    EPW81879   9.501   6.167   3.702  0.6266  0.6313 -0.0246
20019WAT      O81880  10.255   5.565   7.827 -0.3524  1.1368 -0.3257
20019WAT     H181881  10.199   5.559   7.749  0.2468  0.5866 -0.7179
20019WAT     H281882  10.277   5.474   7.847 -0.3185  1.2935  0.3555
20019WAT    EPW81883  10.250   5.552   7.819 -0.2685  1.0848 -0.2875
20020WAT      O81884   9.213   2.657   0.822  0.5134  0.3248 -0.3898
20020WAT     H181885   9.236   2.727   0.761  1.2764  0.6469  0.2353
20020WAT     H281886   9.298   2.623   0.852  0.1515 -0.2810 -0.0266
20020WAT    EPW81887   9.227   2.662   0.818  0.5665  0.2874 -0.2595
20021WAT      O81888   0.365   0.373   7.627 -0.0365 -0.3326  0.3476
20021WAT     H181889   0.304   0.342   7.695  0.1681 -0.5000  0.4550
20021WAT     H281890   0.310   0.382   7.549 -0.0840 -1.0477  0.2902
20021WAT    EPW81891   0.349   0.370   7.626 -0.0158 -0.4490  0.3543
20022WAT      O81892   9.156  10.139   6.138  0.2494 -0.7653  0.3339
20022WAT     H181893   9.085  10.202   6.124  0.9456  0.4420  1.9897
20022WAT     H281894   9.111  10.061   6.171 -0.4756 -0.6380 -0.3102
20022WAT    EPW81895   9.140  10.137   6.140  0.2451 -0.5894  0.4671
20023WAT      O81896   1.675   5.651   7.677 -0.3849  0.3892 -0.2309
20023WAT     H181897   1.610   5.624   7.741  0.2217 -0.3475  0.0827
20023WAT     H281898   1.759   5.633   7.718  0.0155  0.4354 -1.0027
20023WAT    EPW81899   1.678   5.645   7.691 -0.2520  0.2978 -0.2913
20024WAT      O81900   0.226   6.800   7.507  0.2985 -0.1263 -0.1881
20024WAT     H181901   0.255   6.883   7.544 -0.0913 -0.5297  1.0653
20024WAT     H281902   0.272   6.734   7.559  0.8392 -0.7122 -1.3644
20024WAT    EPW81903   0.236   6.802   7.518  0.3184 -0.2570 -0.1779
20025WAT      O81904   1.341  10.331   7.454  0.5609  0.7173  0.0672
20025WAT     H181905   1.285  10.318   7.377  0.4769 -0.5166  0.3140
20025WAT     H281906   1.392  10.408   7.433 -2.0164  2.6419  0.3097
20025WAT    EPW81907   1.340  10.339   7.441  0.2099  0.8087  0.1318
20026WAT      O81908   5.037   7.429   4.924  0.1914 -0.1522 -1.2182
20026WAT     H181909   4.950   7.458   4.951  0.6311 -0.6839  1.0594
20026WAT     H281910   5.067   7.494   4.862 -1.2924  0.7943 -0.9818
20026WAT    EPW81911   5.029   7.441   4.919  0.0539 -0.0975 -0.8867
20027WAT      O81912   8.552   8.997   7.185  0.1979  0.0822  0.1332
20027WAT     H181913   8.616   9.016   7.254 -1.5916 -0.5270  2.0642
20027WAT     H281914   8.544   8.902   7.186 -1.0403  0.1718  0.2480
20027WAT    EPW81915   8.560   8.987   7.194 -0.2017  0.0134  0.4029
20028WAT      O81916  10.357   4.787   7.723  0.1557 -0.1418 -0.9522
20028WAT     H181917  10.335   4.703   7.682 -0.2540 -1.5297  1.8588
20028WAT     H281918  10.448   4.778   7.750  0.6423  1.0215 -2.1323
20028WAT    EPW81919  10.366   4.775   7.721  0.1655 -0.1714 -0.7370
20029WAT      O81920   0.004   7.339   8.485  0.4677 -0.0092  0.0933
20029WAT     H181921  -0.002   7.433   8.502  1.4893 -0.1801  1.5528
20029WAT     H281922  -0.007   7.298   8.571  2.6700 -1.0840 -0.0663
20029WAT    EPW81923   0.002   7.346   8.498  0.8926 -0.1736  0.2651
20030WAT      O81924   0.896   6.594   6.552  0.3119  0.0742  0.1498
20030WAT     H181925   0.809   6.623   6.526  0.6557 -1.0968 -2.7604
20030WAT     H281926   0.897   6.500   6.533  1.9413 -0.0939  0.8629
20030WAT    EPW81927   0.885   6.586   6.546  0.5721 -0.1025 -0.1400
20031WAT      O81928   5.533   1.962   8.835 -0.0592 -0.0120  0.8320
20031WAT     H181929   5.583   2.030   8.791 -0.2205 -1.0518 -1.0377
20031WAT     H281930   5.460   1.944   8.776  1.2976 -3.5079 -0.0313
20031WAT    EPW81931   5.530   1.968   8.822  0.0985 -0.6103  0.4716
20032WAT      O81932  10.965   3.458   5.485 -0.2456 -0.6123  0.7199
20032WAT     H181933  10.934   3.522   5.549 -0.2000 -0.3858  0.5157
20032WAT     H281934  10.998   3.510   5.413 -1.3419 -0.8828  0.0094
20032WAT    EPW81935  10.965   3.473   5.484 -0.3843 -0.6180  0.5994
20033WAT      O81936   0.683   9.179   5.874 -0.1732  0.7385 -0.1243
20033WAT     H181937   0.592   9.151   5.862 -0.7224  1.8385  1.2727
20033WAT     H281938   0.684   9.271   5.846  0.5369  0.7264 -0.1694
20033WAT    EPW81939   0.671   9.187   5.869 -0.1520  0.8821  0.0541
20034WAT      O81940   0.454   6.158   7.270 -0.9642 -0.0993  0.0764
20034WAT     H181941   0.407   6.214   7.209 -0.2290  0.1276 -0.2916
20034WAT     H281942   0.543   6.155   7.236 -0.3191  0.7207  1.6027
20034WAT    EPW81943   0.459   6.165   7.258 -0.7821  0.0386  0.2291
20035WAT      O81944   3.627   7.344   2.856 -0.0748  0.1861 -0.0147
20035WAT     H181945   3.560   7.295   2.905  1.0482 -0.2263  1.1556
20035WAT     H281946   3.704   7.289   2.860  0.0257  0.0678 -2.4509
20035WAT    EPW81947   3.628   7.330   2.863  0.0865  0.1159 -0.1817
20036WAT      O81948   0.578   6.336   8.621  0.7253  0.1518  0.2146
20036WAT     H181949   0.499   6.285   8.637  1.4792 -1.0965  0.0776
20036WAT     H281950   0.645   6.293   8.674  1.4116  0.9448  0.0049
20036WAT    EPW81951   0.576   6.324   8.630  0.9152  0.0920  0.1688
20037WAT      O81952   0.043   5.254   7.433  0.0521  0.1900 -0.5114
20037WAT     H181953   0.075   5.255   7.343 -1.1946 -1.2569 -0.9951
20037WAT     H281954   0.037   5.162   7.456  2.1947  0.4991  1.7794
20037WAT    EPW81955   0.046   5.242   7.424  0.1703  0.0398 -0.2730
20038WAT      O81956   0.430   7.515   7.222  0.2874  0.9102  0.0183
20038WAT     H181957   0.502   7.552   7.171 -0.1125  2.9836  0.8376
20038WAT     H281958   0.472   7.452   7.280  1.6390  2.7008  1.0947
20038WAT    EPW81959   0.445   7.512   7.223  0.4129  1.4195  0.2685
20039WAT      O81960   1.739   8.332   7.104 -0.3586 -0.1378  0.3857
20039WAT     H181961   1.675   8.263   7.119 -0.7046  0.5628  2.5530
20039WAT     H281962   1.824   8.287   7.105 -0.6793 -0.7751 -0.2801
20039WAT    EPW81963   1.742   8.317   7.106 -0.4466 -0.1292  0.5836
20040WAT      O81964   1.618   7.020   8.630  0.2830  0.1839 -0.6291
20040WAT     H181965   1.554   6.954   8.655 -0.8392  0.7870 -1.8026
20040WAT     H281966   1.618   7.019   8.535  1.2801  0.9092 -0.6554
20040WAT    EPW81967   1.610   7.011   8.621  0.2665  0.3591 -0.7873
20041WAT      O81968   8.984   6.649   7.582  0.0053 -0.2183  0.3107
20041WAT     H181969   8.925   6.696   7.642 -2.5089 -2.2636 -0.3460
20041WAT     H281970   9.014   6.574   7.633  1.5922  0.4580  0.4149
20041WAT    EPW81971   8.980   6.646   7.597 -0.1168 -0.3989  0.2379
20042WAT      O81972  10.563   7.403   4.550  0.1411 -0.4904  0.7611
20042WAT     H181973  10.503   7.442   4.486  0.9857 -0.6627 -0.1554
20042WAT     H281974  10.621   7.348   4.498  1.1241 -0.2914  1.6197
20042WAT    EPW81975  10.563   7.401   4.535  0.3819 -0.4869  0.7534
20043WAT      O81976  10.564   8.299   3.682 -0.5489  0.3346  0.2498
20043WAT     H181977  10.594   8.236   3.617  0.0988  0.2857  0.5850
20043WAT     H281978  10.546   8.379   3.632 -0.1747  0.2582 -0.0052
20043WAT    EPW81979  10.565   8.301   3.667 -0.4139  0.3181  0.2602
20044WAT      O81980  10.308   8.058   7.081  0.1007 -0.2381  0.2698
20044WAT     H181981  10.379   8.102   7.128  1.0672 -1.4148 -0.0323
20044WAT     H281982  10.234   8.060   7.141  0.4883  0.7184  0.7291
20044WAT    EPW81983  10.308   8.064   7.095  0.2789 -0.2670  0.2904
20045WAT      O81984   1.075   7.182   5.657 -0.4188  0.3885  0.1954
20045WAT     H181985   1.012   7.251   5.678  0.8632  2.6182 -2.4865
20045WAT     H281986   1.035   7.136   5.582  0.3595  0.7406 -0.4525
20045WAT    EPW81987   1.061   7.185   5.650 -0.1470  0.7293 -0.2439
20046WAT      O81988   2.389   6.615   6.694 -0.3277 -0.5568 -0.5153
20046WAT     H181989   2.455   6.662   6.744 -0.7022  1.0264 -1.4122
20046WAT     H281990   2.387   6.528   6.732  2.4606 -0.7577 -0.6345
20046WAT    EPW81991   2.397   6.610   6.705 -0.0093 -0.3743 -0.6495
20047WAT      O81992   0.585   5.224   5.909  0.3149  0.1920  0.3138
20047WAT     H181993   0.640   5.268   5.974  1.4348  2.1105 -1.8087
20047WAT     H281994   0.550   5.294   5.855 -0.1987 -1.3606 -1.4680
20047WAT    EPW81995   0.587   5.239   5.911  0.3949  0.2398 -0.2012
20048WAT      O81996   0.578   7.081   4.060  0.0055  0.6040 -0.5065
20048WAT     H181997   0.487   7.108   4.059  0.1962  1.4644  1.3919
20048WAT     H281998   0.579   6.999   4.110  0.2068  0.2503 -1.0730
20048WAT    EPW81999   0.566   7.073   4.066  0.0572  0.6709 -0.3309
20049WAT      O82000   0.547   6.934   5.644  0.6711 -0.1236  0.7902
20049WAT     H182001   0.509   6.952   5.558 -0.0162 -0.0395  1.1034
20049WAT     H282002   0.601   7.011   5.663  0.4778  0.0554  0.6215
20049WAT    EPW82003   0.549   6.947   5.635  0.5550 -0.0887  0.8094
20050WAT      O82004  10.648   6.557   3.797  0.3369 -0.2332 -0.6007
20050WAT     H182005  10.639   6.635   3.742  1.0235  1.2768  1.3057
20050WAT     H282006  10.583   6.569   3.866 -1.0432 -2.4666 -1.4013
20050WAT    EPW82007  10.638   6.569   3.798  0.2451 -0.3285 -0.4549
20051WAT      O82008  10.317   4.030   5.035 -0.1193  0.0164  0.0039
20051WAT     H182009  10.383   4.093   5.006 -0.9483  1.3985  1.0298
20051WAT     H282010  10.238   4.082   5.048 -1.0655 -1.3895  0.0472
20051WAT    EPW82011  10.315   4.045   5.033 -0.3543  0.0131  0.1450
20052WAT      O82012   1.448   6.181   7.351 -0.1388  0.0067  0.7783
20052WAT     H182013   1.525   6.159   7.403 -0.0809  0.3268  0.8297
20052WAT     H282014   1.425   6.270   7.378 -0.8979 -0.3108  1.2161
20052WAT    EPW82015   1.455   6.190   7.362 -0.2313  0.0072  0.8428
20053WAT      O82016   2.543   6.698   3.912 -0.2625  0.0436  0.7659
20053WAT     H182017   2.514   6.640   3.982 -1.8841  1.5236  1.3954
20053WAT     H282018   2.462   6.725   3.869  0.5283  1.0599 -0.1347
20053WAT    EPW82019   2.528   6.694   3.915 -0.3721  0.3729  0.7303
20054WAT      O82020   1.674   8.825   6.246 -0.0609 -0.3531 -0.0468
20054WAT     H182021   1.720   8.892   6.196 -0.0076 -0.7329 -0.5114
20054WAT     H282022   1.583   8.832   6.218  0.0988 -1.0808 -0.7853
20054WAT    EPW82023   1.668   8.835   6.236 -0.0327 -0.4992 -0.2058
20055WAT      O82024   1.153   3.628   6.009 -0.2114 -0.2010 -0.1256
20055WAT     H182025   1.207   3.698   5.973 -1.4095  0.7064 -0.1855
20055WAT     H282026   1.063   3.657   5.997 -0.7459 -1.7319 -0.1245
20055WAT    EPW82027   1.149   3.641   6.002 -0.4399 -0.2832 -0.1335
20056WAT      O82028   5.435   0.946   7.556  1.0448  0.1318  0.1819
20056WAT     H182029   5.434   0.857   7.593 -1.9122 -0.7825 -1.7366
20056WAT     H282030   5.523   0.954   7.517  1.0461 -2.4638 -0.5825
20056WAT    EPW82031   5.447   0.935   7.555  0.6552 -0.3311 -0.1719
20057WAT      O82032   1.096   6.342   6.842  0.3035  0.3687  0.0863
20057WAT     H182033   1.057   6.256   6.861  1.7168 -0.1384  0.8343
20057WAT     H282034   1.151   6.360   6.918  1.5890  1.0077 -0.9627
20057WAT    EPW82035   1.098   6.333   6.855  0.6595  0.3862  0.0467
20058WAT      O82036   1.597   5.597   6.561 -1.0734 -0.7120  0.0194
20058WAT     H182037   1.692   5.587   6.564 -0.8264  0.1377 -2.5001
20058WAT     H282038   1.563   5.521   6.608  0.8372 -1.9566 -0.4965
20058WAT    EPW82039   1.605   5.586   6.567 -0.7888 -0.7641 -0.3810
20059WAT      O82040   8.557   3.468   7.893 -0.0274  0.7846 -0.3846
20059WAT     H182041   8.484   3.530   7.895 -1.9756 -1.3900  0.7316
20059WAT     H282042   8.598   3.477   7.979 -0.6480  0.2057 -0.0148
20059WAT    EPW82043   8.552   3.477   7.904 -0.3657  0.4215 -0.1886
20060WAT      O82044   2.422   8.193   7.123 -0.4096 -0.1544  0.1645
20060WAT     H182045   2.472   8.234   7.194 -0.9237  0.3799  0.2253
20060WAT     H282046   2.466   8.110   7.108  2.0542  1.2832 -1.4580
20060WAT    EPW82047   2.434   8.188   7.130 -0.1523  0.1054 -0.0415
20061WAT      O82048   2.987   5.424   3.232  0.5581 -0.8226  0.3188
20061WAT     H182049   3.040   5.450   3.308  0.1673  1.3670 -0.0762
20061WAT     H282050   3.018   5.482   3.162  0.0272 -1.9254 -0.8446
20061WAT    EPW82051   2.998   5.435   3.233  0.4367 -0.6790  0.1134
20062WAT      O82052   0.560   6.542   6.182  0.6089  0.3246  0.2415
20062WAT     H182053   0.644   6.506   6.211  0.5062  0.7173  1.0478
20062WAT     H282054   0.577   6.635   6.168  0.3662  0.3633  0.1939
20062WAT    EPW82055   0.573   6.550   6.184  0.5634  0.3815  0.3417
20063WAT      O82056   1.420   8.193   4.607  0.3343 -0.1471 -0.0675
20063WAT     H182057   1.478   8.134   4.558 -1.2152  0.0930 -2.3321
20063WAT     H282058   1.334   8.150   4.604 -0.8641  2.1634 -1.8332
20063WAT    EPW82059   1.416   8.179   4.600 -0.0281  0.1888 -0.5991
20064WAT      O82060   5.456   8.514   7.062 -0.2096  0.3580 -0.1818
20064WAT     H182061   5.530   8.564   7.097  1.3001 -0.8423 -1.5413
20064WAT     H282062   5.442   8.549   6.974 -2.1967  1.4813  0.5073
20064WAT    EPW82063   5.464   8.526   7.055 -0.2725  0.3481 -0.2704
20065WAT      O82064   1.630   6.408   5.343 -0.1305  0.6942 -0.3538
20065WAT     H182065   1.625   6.386   5.250 -1.8441  0.4219 -0.2408
20065WAT     H282066   1.544   6.446   5.363 -1.0596 -2.1406  1.8011
20065WAT    EPW82067   1.618   6.410   5.333 -0.4790  0.2844 -0.0548
20066WAT      O82068   0.945   6.362   7.211  0.7194  0.1090 -0.3998
20066WAT     H182069   0.967   6.453   7.191  2.2283 -0.2055 -0.2441
20066WAT     H282070   0.956   6.355   7.306 -1.7553  0.3562 -0.0305
20066WAT    EPW82071   0.949   6.373   7.221  0.5921  0.0999 -0.3304
20067WAT      O82072   0.043   7.262   7.668 -0.0694  0.3601 -0.1622
20067WAT     H182073   0.131   7.276   7.632 -0.5610 -1.7048 -2.4628
20067WAT     H282074   0.057   7.220   7.752  1.1771 -0.2452 -0.6497
20067WAT    EPW82075   0.056   7.259   7.674  0.0302  0.0081 -0.5302
20068WAT      O82076   2.677   9.528   6.332 -0.3612  0.3614  0.2746
20068WAT     H182077   2.708   9.605   6.380 -3.3855  1.2342  1.0695
20068WAT     H282078   2.688   9.551   6.239  0.4993  0.9608  0.5230
20068WAT    EPW82079   2.682   9.541   6.326 -0.6466  0.5550  0.4122
20069WAT      O82080  10.593   9.696   6.983  0.1075 -0.1167  0.3437
20069WAT     H182081  10.515   9.742   6.952  0.3723  0.3664  0.3799
20069WAT     H282082  10.595   9.714   7.077 -0.4990 -1.2863  0.5944
20069WAT    EPW82083  10.583   9.704   6.992  0.0625 -0.2074  0.3815
20070WAT      O82084   2.966   5.456   7.152  0.0039  0.4611 -0.8191
20070WAT     H182085   3.054   5.477   7.183  0.0008 -0.7034  0.1002
20070WAT     H282086   2.976   5.436   7.059  0.9289 -0.6829 -0.4977
20070WAT    EPW82087   2.979   5.456   7.144  0.1253  0.1566 -0.6554
20071WAT      O82088   8.969   5.622   4.254  0.0883 -0.8899 -0.0509
20071WAT     H182089   8.960   5.714   4.227 -1.1097 -1.2370 -0.9682
20071WAT     H282090   9.037   5.587   4.197 -0.7951 -1.0223 -1.0660
20071WAT    EPW82091   8.977   5.630   4.243 -0.1864 -0.9530 -0.3057
20072WAT      O82092   1.506   8.639   4.945  0.0998 -0.1720 -0.3137
20072WAT     H182093   1.497   8.568   4.883  1.2272 -1.2659  0.7254
20072WAT     H282094   1.455   8.612   5.021  1.2916 -0.3381  0.4544
20072WAT    EPW82095   1.498   8.626   4.947  0.4057 -0.3386 -0.0751
20073WAT      O82096   3.748   9.194   8.085  0.0348 -0.2825  0.2364
20073WAT     H182097   3.718   9.283   8.064  2.3053  0.5781  0.4046
20073WAT     H282098   3.825   9.182   8.030  0.1442 -1.9170  0.7216
20073WAT    EPW82099   3.754   9.204   8.075  0.3487 -0.3843  0.3228
20074WAT      O82100   2.232   3.318   3.528 -0.0085 -0.1406 -0.0598
20074WAT     H182101   2.263   3.235   3.565  0.3296  0.1946  0.4215
20074WAT     H282102   2.258   3.313   3.435 -1.4935 -1.2885 -0.4538
20074WAT    EPW82103   2.240   3.306   3.520 -0.1597 -0.2477 -0.0483
20075WAT      O82104   0.706   3.710   6.918  0.2016 -0.1816 -0.4508
20075WAT     H182105   0.615   3.706   6.944  0.0913  1.7561 -0.4110
20075WAT     H282106   0.706   3.679   6.827 -1.0123  2.5702 -1.4788
20075WAT    EPW82107   0.694   3.705   6.909  0.0270  0.4369 -0.5813
20076WAT      O82108   3.320   0.589   5.240  0.2921  0.2902  0.0363
20076WAT     H182109   3.260   0.571   5.167  0.6573 -0.2462 -0.1333
20076WAT     H282110   3.387   0.646   5.202  0.9329 -0.6461 -0.2669
20076WAT    EPW82111   3.321   0.594   5.225  0.4247  0.0960 -0.0262
20077WAT      O82112   2.858   2.804   3.159  0.2389 -0.5473 -0.0427
20077WAT     H182113   2.911   2.807   3.079  3.1009  2.3049  1.7370
20077WAT     H282114   2.830   2.895   3.173 -3.9513 -1.6339  0.0430
20077WAT    EPW82115   2.861   2.816   3.150  0.0637 -0.3144  0.2034
20078WAT      O82116   0.971   7.990   6.027 -0.4211  0.2927  0.3096
20078WAT     H182117   1.016   8.065   5.988  0.1244 -0.1231  0.1417
20078WAT     H282118   0.891   8.028   6.064 -1.1066  0.6704 -1.4322
20078WAT    EPW82119   0.966   8.005   6.027 -0.4396  0.2875  0.0577
20079WAT      O82120   3.533   5.057   1.811  0.3097 -0.1015 -0.3840
20079WAT     H182121   3.528   5.131   1.751 -0.0267 -0.9884 -1.4706
20079WAT     H282122   3.572   5.093   1.890 -0.1382  1.3076 -0.7831
20079WAT    EPW82123   3.537   5.071   1.814  0.2062 -0.0327 -0.5800
20080WAT      O82124   2.217   5.351   7.184 -0.4652 -0.1579  0.3414
20080WAT     H182125   2.272   5.413   7.136 -0.1845  1.4030  2.5091
20080WAT     H282126   2.238   5.368   7.276 -0.4202 -3.5107  1.0568
20080WAT    EPW82127   2.227   5.362   7.190 -0.4221 -0.3943  0.7215
20081WAT      O82128  10.553   8.491   3.474  0.1876 -0.3182  0.2419
20081WAT     H182129  10.646   8.501   3.457  0.1802  1.4899  1.0170
20081WAT     H282130  10.518   8.581   3.470 -1.8757 -1.0880 -1.8897
20081WAT    EPW82131  10.561   8.504   3.471 -0.0854 -0.1812  0.0628
20082WAT      O82132   3.051   4.462   5.966 -0.0632  0.0182  0.0876
20082WAT     H182133   3.087   4.509   5.891 -3.8518 -2.2838 -3.6119
20082WAT     H282134   3.006   4.529   6.017  4.1764  1.9615  1.7685
20082WAT    EPW82135   3.050   4.477   5.963 -0.0037 -0.0291 -0.1788
20083WAT      O82136   1.327   9.174   7.594  0.1808  0.5743  0.2549
20083WAT     H182137   1.280   9.196   7.674  1.0616  1.7530  0.4727
20083WAT     H282138   1.415   9.149   7.624  0.0796 -0.4076 -0.2385
20083WAT    EPW82139   1.333   9.173   7.609  0.2836  0.5999  0.2186
20084WAT      O82140   0.822   6.625   8.189 -0.2301  0.2529  0.1049
20084WAT     H182141   0.891   6.581   8.239 -0.3292 -0.2265 -0.1798
20084WAT     H282142   0.741   6.585   8.221 -0.3533  0.5652  0.1847
20084WAT    EPW82143   0.820   6.614   8.200 -0.2595  0.2310  0.0777
20085WAT      O82144   0.931   4.749   7.638 -0.5054 -0.9045 -0.0961
20085WAT     H182145   0.988   4.678   7.665 -1.5685 -1.5415  0.5222
20085WAT     H282146   0.974   4.786   7.561  0.8110 -1.2547  0.4468
20085WAT    EPW82147   0.944   4.745   7.631 -0.4720 -1.0350  0.0572
20086WAT      O82148   0.169  10.360   6.697  0.0381 -0.3704 -0.2454
20086WAT     H182149   0.133  10.443   6.728 -0.1450 -0.3601 -0.4879
20086WAT     H282150   0.186  10.374   6.604  1.4357 -0.0947  0.0175
20086WAT    EPW82151   0.167  10.373   6.689  0.1983 -0.3328 -0.2427
20087WAT      O82152   3.444   9.975   5.495 -0.4504 -0.2477 -0.6827
20087WAT     H182153   3.405   9.890   5.512  0.2756 -0.2208  1.3724
20087WAT     H282154   3.509   9.959   5.427 -0.8102 -1.1756 -0.8175
20087WAT    EPW82155   3.448   9.962   5.489 -0.4021 -0.3667 -0.4294
20088WAT      O82156   7.861   2.204   0.059 -0.1257 -0.4962 -0.2757
20088WAT     H182157   7.844   2.290   0.021 -1.2691  0.1507  1.5884
20088WAT     H282158   7.956   2.194   0.055  0.3107  1.9616  1.6816
20088WAT    EPW82159   7.871   2.214   0.053 -0.2191 -0.0865  0.2283
20089WAT      O82160   9.543   4.964   6.083 -0.2760  0.7138 -0.5674
20089WAT     H182161   9.618   5.019   6.105 -0.4148  0.4596  0.5985
20089WAT     H282162   9.574   4.875   6.096  0.0289  0.4541 -2.7061
20089WAT    EPW82163   9.557   4.960   6.088 -0.2546  0.6461 -0.6957
20090WAT      O82164   1.614   6.292   8.529 -0.1424 -0.2511  0.3079
20090WAT     H182165   1.702   6.254   8.535  0.1441  0.3735  0.1936
20090WAT     H282166   1.555   6.217   8.528  0.2657 -0.6464  2.2945
20090WAT    EPW82167   1.618   6.277   8.529 -0.0507 -0.2205  0.5546
20091WAT      O82168   1.691   7.725   7.295  0.0766  0.1654 -0.5002
20091WAT     H182169   1.689   7.629   7.296 -1.2597  0.1681 -1.0479
20091WAT     H282170   1.619   7.751   7.352 -0.4383  0.8261 -1.4277
20091WAT    EPW82171   1.681   7.716   7.303 -0.1677  0.2532 -0.6948
20092WAT      O82172   0.083   6.007   7.403 -0.2440  0.1687  0.3161
20092WAT     H182173   0.093   6.002   7.498  0.1665 -0.0274  0.2651
20092WAT     H282174   0.162   5.965   7.368 -1.4590 -1.9628 -0.0977
20092WAT    EPW82175   0.095   6.001   7.411 -0.3501 -0.1383  0.2549
20093WAT      O82176   0.218   7.107   5.001 -0.7316 -0.0247  0.1642
20093WAT     H182177   0.125   7.127   4.994 -0.5759  1.1844  1.1458
20093WAT     H282178   0.260   7.170   4.943 -0.5815 -1.4084 -1.2811
20093WAT    EPW82179   0.211   7.118   4.993 -0.6912 -0.0479  0.1030
20094WAT      O82180   9.186   1.096   0.149  0.1283 -0.2167 -0.2484
20094WAT     H182181   9.183   1.074   0.242 -3.1562 -0.6519 -0.3483
20094WAT     H282182   9.183   1.011   0.104  0.8168  0.0204 -0.7643
20094WAT    EPW82183   9.185   1.082   0.155 -0.2141 -0.2428 -0.3296
20095WAT      O82184   0.174   2.541   8.746  0.6294  0.3034  0.2004
20095WAT     H182185   0.176   2.494   8.830  0.5744  0.4908  0.3071
20095WAT     H282186   0.231   2.617   8.760  0.4558  0.4451  0.1340
20095WAT    EPW82187   0.182   2.545   8.759  0.5992  0.3468  0.2060
20096WAT      O82188   9.877   9.409   8.719  0.3246  0.6461  0.0378
20096WAT     H182189   9.970   9.410   8.742  0.3245  1.1300  0.0332
20096WAT     H282190   9.850   9.500   8.727 -0.3692  0.3815  0.9224
20096WAT    EPW82191   9.886   9.421   8.723  0.2332  0.6752  0.1540
20097WAT      O82192  10.710   8.283   8.010 -0.1412  0.4539  0.9170
20097WAT     H182193  10.663   8.235   8.078 -1.8699  0.0418 -0.4780
20097WAT     H282194  10.652   8.278   7.933  2.0845  0.1733 -0.8396
20097WAT    EPW82195  10.696   8.276   8.009 -0.0753  0.3624  0.5012
20098WAT      O82196   7.544   0.193   6.958  0.1432  0.3631 -0.0747
20098WAT     H182197   7.562   0.283   6.930 -1.4517  1.0738  1.0600
20098WAT     H282198   7.540   0.198   7.053  0.4367 -1.0106  0.0297
20098WAT    EPW82199   7.546   0.205   6.967 -0.0286  0.2757  0.0889
20099WAT      O82200   2.773   6.959   5.637 -0.7307 -0.0281 -0.5521
20099WAT     H182201   2.688   6.924   5.612 -0.1212 -1.6246 -0.4635
20099WAT     H282202   2.755   7.049   5.665 -2.4843 -0.5558  0.1182
20099WAT    EPW82203   2.760   6.966   5.637 -0.8816 -0.3083 -0.4520
20100WAT      O82204  10.297   9.761   5.833  0.5106  0.2090 -0.2989
20100WAT     H182205  10.315   9.847   5.871  0.5414  0.5448 -1.0559
20100WAT     H282206  10.245   9.716   5.899  1.1562  0.5267  0.4286
20100WAT    EPW82207  10.292   9.766   5.846  0.5994  0.2956 -0.3028
20101WAT      O82208   1.382   7.278   2.961  0.4304  0.3007 -0.7684
20101WAT     H182209   1.354   7.328   3.037 -2.0426 -4.1249  1.6385
20101WAT     H282210   1.478   7.286   2.961  0.6772 -0.4207  3.6978
20101WAT    EPW82211   1.391   7.285   2.971  0.1367 -0.3781  0.1382
20102WAT      O82212   3.559   7.415   6.522 -0.0526 -0.2939 -0.1497
20102WAT     H182213   3.466   7.394   6.536 -0.2352  0.4206 -0.2024
20102WAT     H282214   3.591   7.344   6.467 -1.0551  0.3693 -1.6735
20102WAT    EPW82215   3.551   7.403   6.516 -0.2089 -0.1123 -0.3576
20103WAT      O82216   3.866   8.029   5.921 -0.4152  0.3351  0.2481
20103WAT     H182217   3.922   8.044   5.845  1.3328 -1.2395  1.1499
20103WAT     H282218   3.843   8.117   5.951  2.3608  1.1114  0.3681
20103WAT    EPW82219   3.870   8.043   5.915  0.1814  0.2298  0.3827
20104WAT      O82220   1.742   8.284   4.753  0.0516 -0.3623 -0.6572
20104WAT     H182221   1.663   8.236   4.776  0.2907  0.0422  1.1177
20104WAT     H282222   1.721   8.375   4.771  0.5366 -0.1089 -1.3285
20104WAT    EPW82223   1.729   8.289   4.758  0.1470 -0.2756 -0.5116
20105WAT      O82224   0.680   7.735   4.275  0.3760 -0.7966 -0.2870
20105WAT     H182225   0.755   7.792   4.257  0.5001 -0.0002  2.2392
20105WAT     H282226   0.719   7.657   4.314 -0.0601 -0.5166  0.7310
20105WAT    EPW82227   0.695   7.733   4.278  0.3349 -0.6549  0.1807
20106WAT      O82228   3.238   6.794   5.035  0.1855  0.4334 -0.6856
20106WAT     H182229   3.143   6.791   5.037 -0.0883  2.8628 -3.1620
20106WAT     H282230   3.266   6.707   5.065 -2.7194 -0.0242  1.0207
20106WAT    EPW82231   3.229   6.782   5.039 -0.2337  0.6938 -0.7873
20107WAT      O82232   9.774  10.100   6.750  0.1349 -0.1651  0.1411
20107WAT     H182233   9.725  10.120   6.830  1.7716 -1.2381  1.4910
20107WAT     H282234   9.804  10.185   6.719  2.4576  0.1229  2.7335
20107WAT    EPW82235   9.771  10.113   6.757  0.6571 -0.2685  0.6611
20108WAT      O82236   0.348   5.091   5.500  0.3753  0.4829  0.1260
20108WAT     H182237   0.413   5.139   5.551  0.9079  0.7729 -0.8001
20108WAT     H282238   0.399   5.024   5.453 -0.0564  0.3995 -0.2281
20108WAT    EPW82239   0.363   5.089   5.500  0.3886  0.5102 -0.0427
20109WAT      O82240   3.342   9.247   5.781  0.2886  0.2389 -0.1829
20109WAT     H182241   3.297   9.186   5.723 -0.0983 -0.1246  0.4820
20109WAT     H282242   3.369   9.194   5.856 -2.1404  1.2660  1.5662
20109WAT    EPW82243   3.340   9.232   5.783 -0.0829  0.3266  0.1354
20110WAT      O82244   1.335   4.016   8.363  0.5380  0.3955  0.2054
20110WAT     H182245   1.366   4.024   8.453 -2.3682  0.8031  1.2626
20110WAT     H282246   1.273   3.944   8.365  0.1350  0.6618 -1.3969
20110WAT    EPW82247   1.331   4.007   8.375  0.1016  0.4840  0.1335
20111WAT      O82248   6.843   2.949   0.914 -0.3373  0.9599 -0.3769
20111WAT     H182249   6.922   2.936   0.861 -0.1502 -2.9230  0.5219
20111WAT     H282250   6.772   2.916   0.860 -0.7133  0.6687  0.2802
20111WAT    EPW82251   6.844   2.943   0.900 -0.3624  0.4094 -0.1717
20112WAT      O82252  10.490   6.686   7.253  0.4770  0.2760 -0.2053
20112WAT     H182253  10.564   6.626   7.257 -0.8822 -1.4904 -0.4260
20112WAT     H282254  10.464   6.699   7.344 -0.2699 -0.8697 -0.2356
20112WAT    EPW82255  10.496   6.680   7.265  0.1988 -0.1085 -0.2382
20113WAT      O82256   1.777   8.695   5.839 -1.1565 -0.1019 -0.9015
20113WAT     H182257   1.725   8.773   5.823  1.3478  2.3674  1.6897
20113WAT     H282258   1.846   8.698   5.772 -0.6238  0.3951 -0.3441
20113WAT    EPW82259   1.779   8.706   5.828 -0.7560  0.2894 -0.4861
20114WAT      O82260   3.448   3.137   8.616 -0.2201 -0.9748 -0.1211
20114WAT     H182261   3.541   3.145   8.594  0.8799 -1.8257  3.5238
20114WAT     H282262   3.428   3.218   8.664 -1.9434 -0.0398 -2.2126
20114WAT    EPW82263   3.457   3.149   8.620 -0.3023 -0.9638  0.0839
20115WAT      O82264   2.567   7.512   6.160 -0.3450  0.3047 -0.0022
20115WAT     H182265   2.591   7.441   6.219  4.1567  0.8740 -0.8506
20115WAT     H282266   2.541   7.467   6.079  2.0234 -0.4937 -0.3847
20115WAT    EPW82267   2.567   7.497   6.157  0.5610  0.2749 -0.1643
20116WAT      O82268   0.575   9.455   4.269 -0.2033  0.2410 -0.1717
20116WAT     H182269   0.661   9.413   4.274 -0.3388  0.0861  1.5912
20116WAT     H282270   0.562   9.494   4.355 -1.6939  0.6822 -0.5559
20116WAT    EPW82271   0.584   9.454   4.281 -0.4178  0.2785  0.0103
20117WAT      O82272   6.459   2.329   0.441  0.2863  0.6795  0.0994
20117WAT     H182273   6.477   2.422   0.429 -1.1743  1.0713  0.7525
20117WAT     H282274   6.540   2.285   0.413  1.3251  2.1735  0.6324
20117WAT    EPW82275   6.472   2.336   0.436  0.2308  0.9283  0.2559
20118WAT      O82276   0.878   6.525   6.835  0.1460 -0.0530 -0.2661
20118WAT     H182277   0.881   6.561   6.747  1.7085  0.8592  0.1211
20118WAT     H282278   0.960   6.477   6.845 -0.0335 -0.1948  0.6775
20118WAT    EPW82279   0.889   6.524   6.825  0.3284  0.0484 -0.0908
20119WAT      O82280   9.438   7.571   5.507  0.2247  0.3894  0.2745
20119WAT     H182281   9.460   7.559   5.415 -1.8558  2.4970 -0.6198
20119WAT     H282282   9.452   7.485   5.547  2.1589 -0.3176 -1.7519
20119WAT    EPW82283   9.443   7.558   5.500  0.2050  0.5744 -0.1109
20120WAT      O82284   3.420   7.365   5.144  0.2948  0.0692  0.1036
20120WAT     H182285   3.458   7.280   5.169 -0.3679  0.1019  1.2819
20120WAT     H282286   3.355   7.343   5.077  0.6880 -0.2627 -0.1727
20120WAT    EPW82287   3.416   7.351   5.139  0.2593  0.0298  0.2224
20121WAT      O82288   2.001   7.403   8.956 -0.1943  0.2949 -0.5768
20121WAT     H182289   2.037   7.491   8.944  0.4367  0.3601  1.4037
20121WAT     H282290   2.077   7.345   8.949 -0.2796  0.0999  0.0712
20121WAT    EPW82291   2.016   7.407   8.954 -0.1223  0.2778 -0.2298
20122WAT      O82292   3.072  10.096   5.574  0.0574 -0.4032 -0.2737
20122WAT     H182293   3.002  10.040   5.540  0.3479  0.4150 -2.3771
20122WAT     H282294   3.112  10.045   5.644 -0.8652 -2.0466 -0.8941
20122WAT    EPW82295   3.068  10.082   5.579 -0.0261 -0.5116 -0.6330
20123WAT      O82296   1.456   8.917   3.146 -0.5746  0.1129 -1.0184
20123WAT     H182297   1.541   8.907   3.190 -1.0959 -1.1272 -0.2323
20123WAT     H282298   1.473   8.894   3.055  0.2467  1.4255 -1.2284
20123WAT    EPW82299   1.470   8.913   3.140 -0.5350  0.1225 -0.9425
20124WAT      O82300   2.494   6.310   7.684 -0.1854 -0.6648  0.4938
20124WAT     H182301   2.415   6.313   7.630 -0.5886 -2.3221  0.9329
20124WAT     H282302   2.461   6.317   7.774  0.2072 -0.9464  0.6587
20124WAT    EPW82303   2.479   6.312   7.689 -0.1868 -0.9203  0.5736
20125WAT      O82304   1.194   8.492   7.119 -0.4101 -0.3616 -0.6426
20125WAT     H182305   1.220   8.424   7.056 -1.7267 -0.1356 -1.4626
20125WAT     H282306   1.218   8.456   7.204  1.2949 -0.7292 -1.2367
20125WAT    EPW82307   1.201   8.478   7.122 -0.3588 -0.3810 -0.8292
20126WAT      O82308   1.200   7.289   3.484  0.1346  0.1309  0.2495
20126WAT     H182309   1.295   7.279   3.475  0.2431  1.9450 -0.9725
20126WAT     H282310   1.189   7.349   3.558 -0.0799  0.0634  0.2740
20126WAT    EPW82311   1.211   7.296   3.493  0.1206  0.3610  0.0916
20127WAT      O82312   8.971   2.365   5.155  0.4430 -0.4746 -0.5692
20127WAT     H182313   9.061   2.333   5.166  0.3881  0.1564  2.2855
20127WAT     H282314   8.947   2.400   5.240 -2.5488 -0.6291 -1.2445
20127WAT    EPW82315   8.980   2.365   5.167  0.0415 -0.4116 -0.2816
20128WAT      O82316   4.693   6.816   4.184 -0.0245 -0.4430  0.2118
20128WAT     H182317   4.697   6.881   4.113 -3.2512  0.5507  0.7673
20128WAT     H282318   4.774   6.829   4.233  2.0622 -0.7649 -2.8638
20128WAT    EPW82319   4.704   6.826   4.181 -0.1748 -0.3543 -0.1204
20129WAT      O82320   0.119   7.064   3.923  0.4186  0.0912  0.3768
20129WAT     H182321   0.103   7.005   3.996 -2.3880  1.3897  0.9520
20129WAT     H282322   0.198   7.111   3.947  2.6893 -3.1932 -0.0592
20129WAT    EPW82323   0.127   7.062   3.936  0.3479 -0.1705  0.3952
20130WAT      O82324   4.070   7.649   7.144  1.1371  0.3492 -0.0022
20130WAT     H182325   4.081   7.554   7.137  1.3367  0.4573 -1.3777
20130WAT     H282326   4.123   7.673   7.220  1.0705 -0.6341  0.3771
20130WAT    EPW82327   4.079   7.640   7.153  1.1544  0.2339 -0.1335
20131WAT      O82328   2.844   0.061   3.681  0.5797 -0.2983 -0.4556
20131WAT     H182329   2.927   0.014   3.675 -0.2338 -1.8717  0.0520
20131WAT     H282330   2.862   0.145   3.640  2.6711 -0.2219  0.4787
20131WAT    EPW82331   2.857   0.066   3.674  0.7483 -0.4958 -0.2655
20132WAT      O82332   1.065   8.508   5.269 -0.2059  0.4455  0.0099
20132WAT     H182333   1.029   8.580   5.320 -4.5487  0.6290 -2.7785
20132WAT     H282334   1.006   8.435   5.286  2.0054 -1.4336  0.0223
20132WAT    EPW82335   1.053   8.508   5.278 -0.4870  0.2227 -0.3562
20133WAT      O82336   1.708   8.654   5.486  0.5455  0.2146  0.2837
20133WAT     H182337   1.723   8.582   5.548  0.1386 -0.1333 -0.0182
20133WAT     H282338   1.719   8.733   5.538  0.4703 -0.0713  0.7386
20133WAT    EPW82339   1.712   8.655   5.501  0.4819  0.1311  0.3040
20134WAT      O82340  10.740   2.585   0.960  0.0160  0.1231 -0.4619
20134WAT     H182341  10.779   2.671   0.943  0.4588 -0.0331 -0.2519
20134WAT     H282342  10.814   2.530   0.987 -0.2487 -0.3479 -0.6772
20134WAT    EPW82343  10.755   2.589   0.961  0.0396  0.0403 -0.4626
20135WAT      O82344   3.268   7.930   7.521  0.2625 -0.1159  0.7538
20135WAT     H182345   3.264   7.932   7.617  0.1335 -2.3809  0.8513
20135WAT     H282346   3.198   7.989   7.493 -0.0613  0.1557  2.0674
20135WAT    EPW82347   3.258   7.938   7.530  0.2028 -0.3788  0.9398
20136WAT      O82348   7.035   1.243   5.035 -0.3608 -0.4538 -0.7105
20136WAT     H182349   7.106   1.265   4.976  1.0433  0.9335  1.3583
20136WAT     H282350   6.964   1.303   5.011  0.5911  0.8676 -0.2925
20136WAT    EPW82351   7.035   1.254   5.024 -0.0503 -0.0966 -0.3827
20137WAT      O82352   3.615   0.042   7.617 -0.0481  0.1020  0.5426
20137WAT     H182353   3.567   0.010   7.541 -1.1176 -0.8526  1.5738
20137WAT     H282354   3.633   0.134   7.598 -1.4135  0.2039 -0.3138
20137WAT    EPW82355   3.611   0.050   7.604 -0.3693 -0.0104  0.5655
20138WAT      O82356   2.603   9.212   3.936  0.3167  0.3720 -0.0563
20138WAT     H182357   2.559   9.227   3.853  1.2725 -0.0658 -0.6562
20138WAT     H282358   2.684   9.264   3.931 -0.1767  1.3112  1.0988
20138WAT    EPW82359   2.608   9.221   3.924  0.3777  0.4387  0.0168
20139WAT      O82360   2.373   6.486   5.052  0.0212 -0.1327 -0.2298
20139WAT     H182361   2.308   6.542   5.009 -0.4416 -1.7573 -1.7573
20139WAT     H282362   2.399   6.424   4.984  2.4740 -0.1455  0.6388
20139WAT    EPW82363   2.368   6.485   5.037  0.2837 -0.3488 -0.3166
20140WAT      O82364   8.304   3.303   1.066 -0.3692  0.0823 -0.6406
20140WAT     H182365   8.382   3.338   1.021  2.9530  0.1457  4.4290
20140WAT     H282366   8.315   3.208   1.064 -0.9561  0.0151 -1.0511
20140WAT    EPW82367   8.316   3.295   1.059 -0.0086  0.0818 -0.0261
20141WAT      O82368   6.368   0.612   3.576  0.4620 -0.8294 -0.6049
20141WAT     H182369   6.437   0.678   3.567 -1.8566  1.7766 -0.8355
20141WAT     H282370   6.339   0.596   3.486 -1.2889  0.5972 -0.3554
20141WAT    EPW82371   6.373   0.619   3.563 -0.0749 -0.2975 -0.6024
20142WAT      O82372   1.117   7.720   4.385  0.2469  0.0820  0.2594
20142WAT     H182373   1.058   7.794   4.378  0.2392 -0.0270 -1.0421
20142WAT     H282374   1.075   7.662   4.449 -1.1040 -0.0390 -0.7011
20142WAT    EPW82375   1.104   7.722   4.393  0.0677  0.0515 -0.0389
20143WAT      O82376   6.600   0.228   4.464 -0.2452 -0.1982  0.3807
20143WAT     H182377   6.563   0.257   4.548 -1.0087 -2.8237  1.0463
20143WAT     H282378   6.650   0.149   4.486  1.4120  0.2801 -1.3512
20143WAT    EPW82379   6.602   0.221   4.478 -0.1273 -0.4814  0.2403
20144WAT      O82380   9.213   0.005   0.996 -0.2422  0.5114  0.3989
20144WAT     H182381   9.183   0.034   0.910  1.0667 -1.2634 -0.7140
20144WAT     H282382   9.155  -0.068   1.018  0.5041 -0.1564  0.2000
20144WAT    EPW82383   9.201  -0.001   0.988  0.0286  0.1898  0.2259
20145WAT      O82384   5.501   1.366   3.618  0.2602  0.0717  0.0923
20145WAT     H182385   5.508   1.288   3.563  0.4885 -1.5206  2.2180
20145WAT     H282386   5.419   1.408   3.590 -0.9417 -2.0599  0.1951
20145WAT    EPW82387   5.491   1.361   3.607  0.1318 -0.4194  0.3862
20146WAT      O82388   5.290   8.383   5.847 -0.0655 -0.3370 -0.1467
20146WAT     H182389   5.328   8.358   5.762 -0.8036  0.4361 -0.7244
20146WAT     H282390   5.359   8.435   5.889  0.5394 -1.2365  0.0114
20146WAT    EPW82391   5.304   8.386   5.841 -0.0827 -0.3538 -0.2024
20147WAT      O82392   0.605   6.333   3.778  0.4944  0.6624 -0.0067
20147WAT     H182393   0.632   6.424   3.768 -0.2366  0.8132 -0.6543
20147WAT     H282394   0.510   6.335   3.776  0.4660 -0.2385 -1.3435
20147WAT    EPW82395   0.596   6.345   3.776  0.3943  0.5634 -0.2685
20148WAT      O82396   7.568   0.169   5.364 -0.1790 -0.0288  0.7696
20148WAT     H182397   7.659   0.197   5.365 -0.1571  0.0064 -0.5683
20148WAT     H282398   7.544   0.168   5.272 -1.0194 -1.7205  0.9706
20148WAT    EPW82399   7.577   0.173   5.352 -0.2871 -0.2473  0.6196
20149WAT      O82400   1.906   9.270   1.991  0.0461  0.1439 -0.3292
20149WAT     H182401   1.815   9.245   2.008  0.7323 -3.1634 -0.8719
20149WAT     H282402   1.953   9.246   2.070  1.0907 -2.5242 -1.6602
20149WAT    EPW82403   1.900   9.264   2.004  0.2744 -0.6442 -0.5764
20150WAT      O82404   3.679   9.620   5.191 -0.2993 -0.1072 -0.2621
20150WAT     H182405   3.587   9.622   5.217  0.0262  1.1841  0.8415
20150WAT     H282406   3.677   9.639   5.097 -1.1247  0.5350 -0.1267
20150WAT    EPW82407   3.667   9.623   5.182 -0.3654  0.1473 -0.0987
20151WAT      O82408   1.423   7.281   3.803  0.2127  0.4182  0.0289
20151WAT     H182409   1.484   7.208   3.799  0.1046  0.3594 -0.6319
20151WAT     H282410   1.336   7.241   3.796  0.0450  0.4404  1.5995
20151WAT    EPW82411   1.419   7.266   3.802  0.1764  0.4134  0.1489
20152WAT      O82412   1.893   9.145   8.275  0.2593  0.4962  0.5958
20152WAT     H182413   1.920   9.100   8.355  0.2618 -0.4347  0.0843
20152WAT     H282414   1.971   9.192   8.246  0.7521 -0.4929  0.2649
20152WAT    EPW82415   1.907   9.145   8.281  0.3246  0.2422  0.4845
20153WAT      O82416   1.641   7.528   4.639  0.1419 -0.0155  0.7935
20153WAT     H182417   1.598   7.462   4.692  0.5251  0.0500  1.1937
20153WAT     H282418   1.619   7.611   4.681 -2.2433  0.3610 -0.9964
20153WAT    EPW82419   1.633   7.530   4.651 -0.1222  0.0427  0.6101
20154WAT      O82420   9.878   9.178   4.720 -0.5695 -0.5571  0.6406
20154WAT     H182421   9.973   9.188   4.715 -0.7608  2.1173  0.4000
20154WAT     H282422   9.849   9.174   4.629 -0.8164  1.2343  0.6042
20154WAT    EPW82423   9.887   9.179   4.708 -0.6275  0.0315  0.6042
20155WAT      O82424   3.079   8.749   4.220  0.4534  0.2471 -0.8669
20155WAT     H182425   3.075   8.665   4.175  1.4285  0.0183 -0.5490
20155WAT     H282426   2.987   8.772   4.235  0.0914  0.2320 -2.7465
20155WAT    EPW82427   3.066   8.741   4.216  0.5341  0.2151 -1.0729
20156WAT      O82428   1.946  10.110   4.308 -0.2349  0.0964 -0.2181
20156WAT     H182429   2.033  10.131   4.273  0.3669 -1.1150  0.4997
20156WAT     H282430   1.913  10.194   4.341  0.0903  0.8337 -1.6479
20156WAT    EPW82431   1.953  10.124   4.307 -0.1127  0.0339 -0.3121
20157WAT      O82432   4.554   7.573   6.827  0.1739  0.6406  0.1080
20157WAT     H182433   4.588   7.488   6.798  1.7406  0.9346  0.9710
20157WAT     H282434   4.498   7.552   6.901  0.9849  0.3872  0.6600
20157WAT    EPW82435   4.551   7.559   6.833  0.4876  0.6459  0.2947
20158WAT      O82436   4.039   7.894   7.489 -0.3988 -0.2967 -0.0654
20158WAT     H182437   3.982   7.952   7.538 -1.7810 -2.2683  0.8048
20158WAT     H282438   4.016   7.806   7.520  2.8823 -1.2425  0.1080
20158WAT    EPW82439   4.029   7.890   7.500 -0.1483 -0.6819  0.0725
20159WAT      O82440   0.814   8.170   3.718  0.2299  0.0305  0.2494
20159WAT     H182441   0.863   8.099   3.760 -0.5539 -0.0669  1.0311
20159WAT     H282442   0.881   8.233   3.691  1.0282 -1.3666 -1.2059
20159WAT    EPW82443   0.829   8.169   3.720  0.2318 -0.1664  0.1606
20160WAT      O82444   7.201   0.639   4.386  0.3263  0.1802 -0.3565
20160WAT     H182445   7.295   0.627   4.368 -0.4171 -2.0752 -3.7879
20160WAT     H282446   7.181   0.726   4.353  1.0491  0.2606 -0.6091
20160WAT    EPW82447   7.211   0.649   4.379  0.3240 -0.1067 -0.8426
20161WAT      O82448   5.012   6.710   7.097  0.3837 -0.9287  0.4367
20161WAT     H182449   4.971   6.625   7.109 -1.4177 -0.0409  0.9881
20161WAT     H282450   5.049   6.731   7.183  0.6520 -1.0695  0.3550
20161WAT    EPW82451   5.012   6.702   7.110  0.1812 -0.8299  0.4985
20162WAT      O82452   2.009   5.303   4.632  0.2317 -0.3011 -0.2582
20162WAT     H182453   2.035   5.245   4.704 -0.6690 -1.3352 -0.7274
20162WAT     H282454   1.916   5.284   4.619  0.2767  0.1944 -1.3918
20162WAT    EPW82455   2.000   5.293   4.640  0.1189 -0.3719 -0.4692
20163WAT      O82456   3.908   9.788   5.193  0.2368 -0.5407  0.6220
20163WAT     H182457   3.823   9.743   5.195 -0.2400  0.3541  1.1103
20163WAT     H282458   3.886   9.880   5.208  1.1907 -0.1350 -0.3549
20163WAT    EPW82459   3.894   9.795   5.195  0.2999 -0.3691  0.5574
20164WAT      O82460   0.119   5.953   4.575  0.6558 -0.3899 -0.5526
20164WAT     H182461   0.185   5.930   4.509  1.9832 -2.0444  1.2167
20164WAT     H282462   0.170   5.975   4.653 -0.8396  2.3704 -0.2396
20164WAT    EPW82463   0.135   5.953   4.576  0.6336 -0.2439 -0.2780
20165WAT      O82464   2.284   8.705   5.304  0.1649  0.2823 -0.2957
20165WAT     H182465   2.192   8.730   5.313 -0.6190 -2.3310 -0.0094
20165WAT     H282466   2.285   8.611   5.324  2.7146 -0.0395 -1.5026
20165WAT    EPW82467   2.272   8.696   5.308  0.3978 -0.1049 -0.4175
20166WAT      O82468   3.313  10.213   3.595  0.0792 -0.9484  0.2729
20166WAT     H182469   3.341  10.142   3.537  0.7030 -0.2390 -0.3033
20166WAT     H282470   3.291  10.169   3.677  2.3819 -1.6212  0.5885
20166WAT    EPW82471   3.314  10.198   3.598  0.4653 -0.9437  0.2387
20167WAT      O82472   9.472   8.817   4.681  0.5326 -0.2611  0.8754
20167WAT     H182473   9.486   8.906   4.647 -2.9978  1.0831  2.5295
20167WAT     H282474   9.461   8.763   4.602  2.0233  0.8227 -0.1396
20167WAT    EPW82475   9.473   8.821   4.666  0.2637  0.0591  0.9596
20168WAT      O82476   1.109  10.283   7.261  0.3561 -0.1878 -0.0998
20168WAT     H182477   1.117  10.375   7.236  1.5258 -0.7439 -1.8991
20168WAT     H282478   1.130  10.234   7.182 -3.3969 -2.0457 -0.1682
20168WAT    EPW82479   1.112  10.289   7.248  0.0154 -0.5064 -0.3462
20169WAT      O82480   2.685   8.781   5.838  0.5193 -0.4595  0.6684
20169WAT     H182481   2.603   8.803   5.883 -0.8667  1.1458 -2.2955
20169WAT     H282482   2.696   8.688   5.853 -4.2045 -1.8103 -1.9407
20169WAT    EPW82483   2.676   8.772   5.846 -0.2865 -0.4258 -0.0665
20170WAT      O82484   4.834   7.269   3.307  0.1879  0.0672 -0.0413
20170WAT     H182485   4.903   7.335   3.308 -0.7124  1.0147  0.4327
20170WAT     H282486   4.753   7.317   3.290 -0.6656 -0.7060  1.5648
20170WAT    EPW82487   4.832   7.284   3.305 -0.0434  0.0901  0.2329
20171WAT      O82488   1.409   5.860   5.897  0.4862 -0.3593 -0.1167
20171WAT     H182489   1.447   5.948   5.906 -0.5519  0.1820 -0.7754
20171WAT     H282490   1.484   5.803   5.881  1.0751  0.6038 -0.9236
20171WAT    EPW82491   1.424   5.864   5.896  0.4269 -0.1609 -0.3102
20172WAT      O82492   2.292   9.811   7.231  0.2153 -0.2365 -0.0100
20172WAT     H182493   2.338   9.740   7.275 -0.1365  0.4383  1.4897
20172WAT     H282494   2.302   9.886   7.290  0.2827  0.8849 -1.3829
20172WAT    EPW82495   2.300   9.812   7.244  0.1779  0.0005  0.0067
20173WAT      O82496   6.888   2.090   4.729 -0.4253 -0.8041  0.4860
20173WAT     H182497   6.915   1.999   4.737 -0.2557 -0.8746 -0.6595
20173WAT     H282498   6.956   2.130   4.674 -2.2232 -0.8281 -1.9194
20173WAT    EPW82499   6.900   2.083   4.723 -0.6399 -0.8166  0.0176
20174WAT      O82500   1.418   5.201   8.494  0.0875 -0.7828 -0.3590
20174WAT     H182501   1.327   5.180   8.515 -0.5008 -0.1631 -2.1541
20174WAT     H282502   1.434   5.285   8.537  0.4883 -1.7944  1.6106
20174WAT    EPW82503   1.408   5.209   8.502  0.0628 -0.8345 -0.3362
20175WAT      O82504   1.731   7.460   5.665  0.3429  0.7313 -0.7850
20175WAT     H182505   1.731   7.364   5.666 -1.9354  0.6805 -0.3889
20175WAT     H282506   1.692   7.485   5.749  0.4832  1.9939 -1.0751
20175WAT    EPW82507   1.726   7.451   5.677  0.0609  0.8907 -0.7710
20176WAT      O82508   2.815   6.009   7.749  0.1079 -0.6767  0.4782
20176WAT     H182509   2.797   6.101   7.769 -1.4498 -0.4438 -1.6365
20176WAT     H282510   2.907   5.996   7.772  0.5382  1.5968  0.2127
20176WAT    EPW82511   2.825   6.019   7.755 -0.0409 -0.3462  0.1640
20177WAT      O82512   1.488   6.893   6.468  0.1801 -0.4547 -0.2588
20177WAT     H182513   1.479   6.986   6.490 -0.2842 -0.8666  1.3605
20177WAT     H282514   1.571   6.889   6.419  1.1644  0.5447  1.2423
20177WAT    EPW82515   1.498   6.905   6.464  0.2487 -0.3772  0.1528
20178WAT      O82516   0.405   3.072   4.666 -0.2078 -0.6027 -0.2081
20178WAT     H182517   0.493   3.034   4.662  0.7212  1.3195  0.8231
20178WAT     H282518   0.407   3.145   4.604 -0.5932  0.3347  0.8500
20178WAT    EPW82519   0.417   3.077   4.658 -0.1361 -0.2255  0.0675
20179WAT      O82520   0.629   9.949   7.703  0.1357 -0.0547  0.3354
20179WAT     H182521   0.567   9.907   7.644  0.1536  0.7228 -0.2557
20179WAT     H282522   0.713   9.908   7.682  0.0921  0.0129  0.0166
20179WAT    EPW82523   0.632   9.938   7.692  0.1323  0.0572  0.2155
20180WAT      O82524   0.385   9.513   7.431 -0.4223 -0.0270 -0.2337
20180WAT     H182525   0.408   9.440   7.488 -2.2109  0.9204  1.8858
20180WAT     H282526   0.305   9.484   7.386 -0.5612  0.2405 -0.1601
20180WAT    EPW82527   0.377   9.500   7.433 -0.6765  0.1330  0.0553
20181WAT      O82528   3.714   5.093   7.447 -0.4609  0.2111  1.3563
20181WAT     H182529   3.720   5.164   7.511  0.4065  0.7263  0.7233
20181WAT     H282530   3.694   5.137   7.364  0.4966 -0.2254  0.8738
20181WAT    EPW82531   3.712   5.108   7.444 -0.2202  0.2215  1.2090
20182WAT      O82532   0.438   7.363   5.169 -0.8892 -0.3502 -0.0573
20182WAT     H182533   0.461   7.429   5.104  0.1585 -1.1146 -0.4897
20182WAT     H282534   0.347   7.341   5.149 -0.3915 -1.0736 -1.7461
20182WAT    EPW82535   0.429   7.369   5.158 -0.6854 -0.5467 -0.3369
20183WAT      O82536   4.346   7.664   6.684  0.6200 -0.0833 -0.0670
20183WAT     H182537   4.432   7.640   6.718  0.1886 -0.2734  0.9235
20183WAT     H282538   4.343   7.625   6.596  1.7920  0.4959 -0.3966
20183WAT    EPW82539   4.357   7.656   6.677  0.7176 -0.0322  0.0203
20184WAT      O82540  10.868   8.942   6.657  0.0904 -0.0089  0.7438
20184WAT     H182541  10.898   8.856   6.626  1.9806  0.4070  1.2469
20184WAT     H282542  10.815   8.922   6.734 -0.3792 -0.7699  0.2441
20184WAT    EPW82543  10.865   8.928   6.663  0.2785 -0.0539  0.7441
20185WAT      O82544   6.026   0.973   4.291  0.1378  0.7173  0.3188
20185WAT     H182545   6.015   0.879   4.303 -2.2367  0.8586 -0.2931
20185WAT     H282546   6.063   0.982   4.203  2.3038  0.3199  1.1475
20185WAT    EPW82547   6.029   0.962   4.281  0.1106  0.6835  0.3474
20186WAT      O82548   2.185   2.933   4.618 -0.0015 -0.4417 -0.0649
20186WAT     H182549   2.104   2.976   4.593  0.4830  1.4008  1.3105
20186WAT     H282550   2.168   2.839   4.607 -2.1456 -0.0662 -0.1993
20186WAT    EPW82551   2.172   2.926   4.613 -0.2203 -0.1491  0.0987
20187WAT      O82552   4.603   6.664   3.869 -0.3354  0.5166  0.3592
20187WAT     H182553   4.667   6.687   3.802 -1.2019  0.6307 -0.4469
20187WAT     H282554   4.527   6.633   3.820 -0.6019 -0.4137  1.3298
20187WAT    EPW82555   4.602   6.663   3.854 -0.4849  0.4089  0.3810
20188WAT      O82556   6.946   1.023   3.910  0.3925  0.0636 -0.1409
20188WAT     H182557   6.970   1.115   3.902  0.7606 -0.0850 -0.9554
20188WAT     H282558   6.864   1.015   3.861  1.6181 -0.4802 -2.2432
20188WAT    EPW82559   6.939   1.034   3.902  0.6025 -0.0278 -0.5256
20189WAT      O82560   9.404   4.040   1.202 -0.2577 -0.3455 -0.2008
20189WAT     H182561   9.484   3.989   1.193  0.5616  0.7628  0.4742
20189WAT     H282562   9.336   3.975   1.223  0.4140 -1.3185 -0.9583
20189WAT    EPW82563   9.406   4.025   1.204 -0.0610 -0.3276 -0.2117
20190WAT      O82564   1.556   6.047   4.342  0.3227 -0.3678 -0.1750
20190WAT     H182565   1.466   6.035   4.372 -0.3442  1.2495 -1.3728
20190WAT     H282566   1.588   6.121   4.393 -0.0164  0.8511 -1.6479
20190WAT    EPW82567   1.548   6.055   4.352  0.1900  0.0062 -0.5267
20191WAT      O82568   4.289   0.672   7.798 -0.2341  0.0247 -0.2064
20191WAT     H182569   4.195   0.655   7.786 -0.2112 -1.7690  1.6450
20191WAT     H282570   4.296   0.767   7.794 -1.4453  0.1351 -4.5411
20191WAT    EPW82571   4.277   0.682   7.796 -0.3908 -0.1973 -0.5338
20192WAT      O82572   2.173   8.942   2.394  0.2708  0.8879  0.0643
20192WAT     H182573   2.202   8.918   2.482  2.2759  1.8560 -0.2617
20192WAT     H282574   2.240   9.004   2.364 -1.4344  2.1068 -1.3890
20192WAT    EPW82575   2.186   8.947   2.402  0.3102  1.1764 -0.1702
20193WAT      O82576   1.739   8.079   8.313  0.1807  0.3966 -0.1878
20193WAT     H182577   1.735   7.983   8.311  0.8833  0.3505  0.2126
20193WAT     H282578   1.761   8.100   8.404  0.5931  0.9167 -0.4025
20193WAT    EPW82579   1.741   8.069   8.325  0.3278  0.4587 -0.1631
20194WAT      O82580   5.643   0.604   6.292  0.5285 -0.0297 -0.5679
20194WAT     H182581   5.627   0.699   6.298 -0.5997 -0.2970  1.9827
20194WAT     H282582   5.733   0.593   6.321  0.8654  0.2943 -1.4605
20194WAT    EPW82583   5.653   0.615   6.297  0.4244 -0.0222 -0.3493
20195WAT      O82584   7.233   0.711   4.699 -0.2099  0.4994 -0.4127
20195WAT     H182585   7.229   0.704   4.603 -2.1854 -0.9157 -0.3115
20195WAT     H282586   7.142   0.725   4.725  0.1991  0.2335  1.2836
20195WAT    EPW82587   7.220   0.712   4.690 -0.4165  0.2777 -0.1755
20196WAT      O82588   1.574   3.210   0.470 -0.2187  0.0319  0.2565
20196WAT     H182589   1.654   3.254   0.498 -0.9356  0.9360  0.9413
20196WAT     H282590   1.505   3.251   0.522 -1.6166  1.5911 -2.6104
20196WAT    EPW82591   1.575   3.221   0.481 -0.4976  0.3568 -0.0313
20197WAT      O82592   5.659   1.034   3.526  0.2261 -0.2818  0.9245
20197WAT     H182593   5.695   1.108   3.476 -1.9137  1.6621  2.0723
20197WAT     H282594   5.634   0.970   3.459 -3.6228  2.6944 -0.8570
20197WAT    EPW82595   5.660   1.035   3.511 -0.5639  0.3671  0.8409
20198WAT      O82596   4.279  10.190   5.733 -0.4925  0.3662 -0.1362
20198WAT     H182597   4.270  10.172   5.639 -1.3911  0.5397 -0.0954
20198WAT     H282598   4.199  10.238   5.756 -0.9547 -0.8655  0.9997
20198WAT    EPW82599   4.267  10.194   5.724 -0.6719  0.2265  0.0191
20199WAT      O82600   0.083   9.118   7.141 -0.2953  0.3260  0.3584
20199WAT     H182601   0.094   9.050   7.074 -0.2066 -1.2244  1.8665
20199WAT     H282602   0.001   9.162   7.117 -0.7949 -0.8721 -0.2177
20199WAT    EPW82603   0.074   9.115   7.129 -0.3495 -0.0367  0.4814
20200WAT      O82604   8.864   3.183   8.804 -0.1801  0.2998 -0.0205
20200WAT     H182605   8.949   3.226   8.795  0.9648 -1.1127  2.7366
20200WAT     H282606   8.818   3.235   8.869 -0.0450 -0.7839  0.9709
20200WAT    EPW82607   8.869   3.195   8.811 -0.0114 -0.0296  0.4745
20201WAT      O82608   9.555   7.565   6.359 -0.2740  0.1228 -0.1529
20201WAT     H182609   9.615   7.639   6.373 -1.5145  1.0038  0.6621
20201WAT     H282610   9.609   7.499   6.314  1.5429  0.5478  1.2668
20201WAT    EPW82611   9.570   7.566   6.355 -0.1979  0.2952  0.1416
20202WAT      O82612   4.574   0.353   6.492  1.0015  0.0247 -0.6284
20202WAT     H182613   4.589   0.375   6.400  1.3142 -2.6669 -1.3068
20202WAT     H282614   4.479   0.359   6.503  0.8910 -0.2671 -1.3366
20202WAT    EPW82615   4.563   0.356   6.481  1.0281 -0.3688 -0.8116
20203WAT      O82616  10.905   8.742   3.276  0.3930  0.3445 -0.1464
20203WAT     H182617  10.812   8.741   3.254  0.4944  0.2849 -0.5820
20203WAT     H282618  10.942   8.669   3.226  1.1865  2.1091 -2.2749
20203WAT    EPW82619  10.897   8.732   3.267  0.5116  0.5698 -0.4846
20204WAT      O82620   0.839   6.294   7.497 -0.0085  0.2043  0.2218
20204WAT     H182621   0.816   6.234   7.426  0.6741 -2.8807  2.4161
20204WAT     H282622   0.933   6.282   7.508  0.4387  2.8659 -0.1885
20204WAT    EPW82623   0.848   6.284   7.489  0.1405  0.1481  0.4570
20205WAT      O82624   2.163   9.279   4.000 -0.2581  0.3221 -0.2335
20205WAT     H182625   2.102   9.353   4.002  0.0490  0.6352 -1.3483
20205WAT     H282626   2.222   9.294   4.074 -1.3565  0.1576  0.6963
20205WAT    EPW82627   2.163   9.291   4.010 -0.3625  0.3424 -0.2577
20206WAT      O82628   6.574   0.370   7.062 -0.2745 -0.9667 -0.3262
20206WAT     H182629   6.484   0.395   7.080 -0.4423  0.1914 -2.3874
20206WAT     H282630   6.570   0.277   7.038 -0.5073 -1.5843  1.9251
20206WAT    EPW82631   6.562   0.361   7.061 -0.3273 -0.8954 -0.3009
20207WAT      O82632   4.594   0.087   6.387  0.1457  0.0173 -0.0136
20207WAT     H182633   4.524   0.064   6.326 -0.1382 -0.9676  0.6615
20207WAT     H282634   4.559   0.161   6.438 -0.2618 -0.2377  0.0753
20207WAT    EPW82635   4.580   0.094   6.386  0.0548 -0.1462  0.0873
20208WAT      O82636   2.865   7.310   4.395  1.2894  0.7465  0.2241
20208WAT     H182637   2.867   7.370   4.320  1.7879  1.5151  0.8362
20208WAT     H282638   2.930   7.345   4.456  1.0145  0.0360  0.9488
20208WAT    EPW82639   2.873   7.322   4.393  1.3189  0.7539  0.4005
20209WAT      O82640   3.138   8.012   7.838  0.4336 -0.7221 -0.2286
20209WAT     H182641   3.178   7.965   7.911  1.4161  0.1390 -0.1844
20209WAT     H282642   3.126   8.101   7.871  0.0160 -0.5606 -0.8052
20209WAT    EPW82643   3.142   8.017   7.852  0.5080 -0.5879 -0.2985
20210WAT      O82644   4.728   0.432   7.867 -0.0608 -0.4020  0.2245
20210WAT     H182645   4.681   0.431   7.783  1.3598 -0.7177 -0.6034
20210WAT     H282646   4.819   0.411   7.844  0.8705  1.8196  1.5481
20210WAT    EPW82647   4.734   0.429   7.853  0.2494 -0.1506  0.2899
20211WAT      O82648   4.718   6.717   5.529 -0.2891  0.3527  0.8266
20211WAT     H182649   4.751   6.806   5.531  0.2315  0.1843  0.2276
20211WAT     H282650   4.628   6.724   5.561  0.3358  0.7940  2.5974
20211WAT    EPW82651   4.710   6.729   5.533 -0.1378  0.3886  0.9809
20212WAT      O82652   6.187   0.043   4.668  0.2390  0.3749  0.6427
20212WAT     H182653   6.190   0.095   4.587 -1.5901  0.7278  0.7611
20212WAT     H282654   6.194   0.108   4.738  0.2321  0.2303  0.7772
20212WAT    EPW82655   6.189   0.058   4.667 -0.0033  0.4024  0.6759
20213WAT      O82656   4.194   5.906   7.465 -0.0776  0.4331  0.0664
20213WAT     H182657   4.251   5.980   7.445  1.8215 -0.4921  1.6871
20213WAT     H282658   4.220   5.838   7.403 -1.6072  0.9427 -1.2147
20213WAT    EPW82659   4.205   5.907   7.454 -0.0288  0.3781  0.1111
20214WAT      O82660   7.046   1.172   4.710 -0.3875 -0.1029  0.5447
20214WAT     H182661   7.042   1.264   4.735 -0.1544 -0.2698  1.2033
20214WAT     H282662   7.061   1.125   4.792 -0.1614 -0.6985  0.1692
20214WAT    EPW82663   7.047   1.178   4.724 -0.3266 -0.2035  0.5817
20215WAT      O82664   8.150   0.641   6.741  0.3458  0.0619  0.2226
20215WAT     H182665   8.076   0.648   6.802  0.0742 -3.0630  0.4364
20215WAT     H282666   8.110   0.629   6.655  0.6477  0.1439  0.0685
20215WAT    EPW82667   8.135   0.640   6.738  0.3500 -0.3394  0.2306
20216WAT      O82668   1.819   5.224   4.003  0.0741  0.1488 -0.1283
20216WAT     H182669   1.885   5.159   3.977  0.1071  0.7238 -1.5867
20216WAT     H282670   1.846   5.251   4.091 -0.4165 -2.3834  0.9098
20216WAT    EPW82671   1.831   5.219   4.011  0.0137 -0.1094 -0.1836
20217WAT      O82672   3.755   9.624   6.781 -0.5380  0.9365 -0.0228
20217WAT     H182673   3.698   9.640   6.856 -2.0534 -0.6004 -0.7581
20217WAT     H282674   3.842   9.612   6.818 -0.8514  2.3115  1.2536
20217WAT    EPW82675   3.759   9.624   6.796 -0.7793  0.9151  0.0486
20218WAT      O82676   2.595   9.772   2.448  0.1431  0.1543  1.3830
20218WAT     H182677   2.499   9.775   2.443  0.2013  1.8815 -3.2093
20218WAT     H282678   2.620   9.699   2.392  1.3771  3.1974 -2.4584
20218WAT    EPW82679   2.585   9.763   2.440  0.3135  0.7834  0.2707
20219WAT      O82680  10.427   7.855   8.304 -0.0080 -0.0862 -0.5412
20219WAT     H182681  10.389   7.943   8.298 -0.7591 -0.2655  1.0389
20219WAT     H282682  10.402   7.813   8.222 -1.3342  0.5545 -0.4980
20219WAT    EPW82683  10.419   7.861   8.292 -0.2828 -0.0255 -0.3271
20220WAT      O82684   3.337   9.049   7.957 -0.1931  0.1476 -0.1644
20220WAT     H182685   3.347   9.057   7.862  0.6506  2.0530  0.0516
20220WAT     H282686   3.414   9.092   7.993  0.4527 -2.1296  1.4206
20220WAT    EPW82687   3.348   9.055   7.949  0.0035  0.0982  0.0732
20221WAT      O82688   8.470   0.949   1.982 -0.1332  0.1415 -0.0063
20221WAT     H182689   8.445   0.861   1.955  0.0230  0.2875 -0.6468
20221WAT     H282690   8.565   0.947   1.988 -0.2321 -0.8196  3.8500
20221WAT    EPW82691   8.479   0.937   1.979 -0.1254  0.0339  0.4179
20222WAT      O82692   1.624   0.879   7.045  0.6055 -0.4307 -0.0072
20222WAT     H182693   1.655   0.948   6.986  1.7419 -0.9921 -0.0912
20222WAT     H282694   1.529   0.879   7.034  0.6159  0.9279 -0.2137
20222WAT    EPW82695   1.616   0.888   7.036  0.7567 -0.3255 -0.0453
20223WAT      O82696   4.674   6.167   6.868 -0.0550  0.0826  0.4412
20223WAT     H182697   4.695   6.160   6.961  0.3846 -0.5306  0.3022
20223WAT     H282698   4.744   6.119   6.824  1.0597  2.3155 -0.3833
20223WAT    EPW82699   4.686   6.160   6.875  0.1497  0.2961  0.3142
20224WAT      O82700   6.583   1.854   5.074  0.1712  0.2190  0.9419
20224WAT     H182701   6.535   1.833   5.154 -0.5624 -0.7363  0.2702
20224WAT     H282702   6.517   1.852   5.005  1.1736 -1.2585 -0.0250
20224WAT    EPW82703   6.568   1.851   5.076  0.2067 -0.1019  0.7260
20225WAT      O82704   2.310   9.679   6.098  0.6704  0.2865 -0.0609
20225WAT     H182705   2.298   9.667   6.192  1.1618 -3.8328 -0.2967
20225WAT     H282706   2.225   9.709   6.066 -0.3473 -0.8409  1.4457
20225WAT    EPW82707   2.297   9.681   6.106  0.6009 -0.4053  0.1070
20226WAT      O82708   5.920   1.646   1.290  0.2866 -0.5856 -0.6126
20226WAT     H182709   5.869   1.699   1.352  0.1481  0.1166 -1.3114
20226WAT     H282710   5.857   1.580   1.259  0.5362 -1.3787  0.4710
20226WAT    EPW82711   5.905   1.644   1.294  0.3016 -0.5977 -0.5619
20227WAT      O82712   5.574   0.784   3.939  0.2754  0.1871  0.2511
20227WAT     H182713   5.617   0.742   4.013  0.4009 -1.6659 -0.8051
20227WAT     H282714   5.573   0.717   3.870 -0.7750  1.4819 -1.0779
20227WAT    EPW82715   5.579   0.770   3.939  0.1533  0.1135 -0.0635
20228WAT      O82716   4.236   1.606   3.408 -0.4606 -0.4264 -0.0555
20228WAT     H182717   4.219   1.594   3.315  2.6179  0.6119 -0.8625
20228WAT     H282718   4.213   1.698   3.425  1.6561  0.2669 -0.5850
20228WAT    EPW82719   4.231   1.617   3.398  0.2246 -0.1980 -0.2319
20229WAT      O82720   4.457   1.191   6.170  0.3203 -0.4907  0.0033
20229WAT     H182721   4.395   1.203   6.098 -0.1027 -0.1467  0.4222
20229WAT     H282722   4.414   1.229   6.246  1.5389  0.8490  0.0603
20229WAT    EPW82723   4.443   1.197   6.170  0.4253 -0.2686  0.0663
20230WAT      O82724   1.059   6.764   5.449  0.4169 -0.5723  0.4957
20230WAT     H182725   1.110   6.842   5.427  0.8208 -0.5916  1.3378
20230WAT     H282726   1.033   6.776   5.540 -2.6310  0.2618 -0.3992
20230WAT    EPW82727   1.063   6.776   5.458  0.0681 -0.4649  0.4888
20231WAT      O82728   6.032   5.915   1.889 -0.4371  0.2467  0.1081
20231WAT     H182729   6.107   5.870   1.850 -1.1378  0.0774 -1.0565
20231WAT     H282730   5.968   5.923   1.819 -1.8211 -0.2454  1.2539
20231WAT    EPW82731   6.033   5.910   1.875 -0.7122  0.1595  0.1057
20232WAT      O82732   3.421   8.002   6.842 -0.8005  0.4010 -0.5092
20232WAT     H182733   3.390   8.030   6.928 -1.0148  1.0355 -0.7846
20232WAT     H282734   3.478   7.928   6.860  0.2506  1.3751  0.3170
20232WAT    EPW82735   3.424   7.996   6.856 -0.6900  0.6130 -0.4365
20233WAT      O82736   3.769  10.149   2.984  0.2327  0.4812 -0.4940
20233WAT     H182737   3.824  10.209   3.035 -1.8892  1.8936  0.2962
20233WAT     H282738   3.720  10.207   2.925 -0.5619 -0.6858 -1.0005
20233WAT    EPW82739   3.769  10.165   2.983 -0.1521  0.5136 -0.4565
20234WAT      O82740   6.165   0.745   4.133 -0.5015  0.6660  0.4061
20234WAT     H182741   6.167   0.650   4.122 -1.3410  0.6745  0.0873
20234WAT     H282742   6.199   0.780   4.051  1.6745  0.6507  1.2202
20234WAT    EPW82743   6.170   0.737   4.121 -0.3250  0.6651  0.4714
20235WAT      O82744   5.746   1.235   6.026  0.1048 -0.5476 -0.4563
20235WAT     H182745   5.778   1.178   6.095  0.5539  0.5688  0.2773
20235WAT     H282746   5.811   1.304   6.019 -1.2596  0.8291 -0.1249
20235WAT    EPW82747   5.759   1.236   6.034 -0.0155 -0.2189 -0.3159
20236WAT      O82748  10.632   6.899   4.189  0.2902  0.5237 -0.2336
20236WAT     H182749  10.700   6.917   4.124  1.1151  0.1264  0.5070
20236WAT     H282750  10.552   6.888   4.137  0.7476  1.1441 -1.1033
20236WAT    EPW82751  10.630   6.900   4.174  0.4587  0.5534 -0.2506
20237WAT      O82752   3.861   7.738   2.633 -0.3437  0.0939 -0.8029
20237WAT     H182753   3.780   7.726   2.582 -1.1952 -0.3487  0.5840
20237WAT     H282754   3.895   7.823   2.604  0.6775 -1.2187 -3.9955
20237WAT    EPW82755   3.854   7.748   2.622 -0.3214 -0.1376 -1.0411
20238WAT      O82756   4.479   9.930   4.870  0.1425  0.1843  0.1646
20238WAT     H182757   4.533   9.872   4.924 -0.5143  0.1373  0.7921
20238WAT     H282758   4.529  10.010   4.861 -0.0582  0.4748  1.4941
20238WAT    EPW82759   4.493   9.933   4.876  0.0293  0.2160  0.4227
20239WAT      O82760   3.825   9.195   5.901  0.3184 -0.7756  0.1159
20239WAT     H182761   3.780   9.272   5.934 -1.3596 -1.0003 -1.4920
20239WAT     H282762   3.850   9.146   5.979 -2.2609 -0.6346  1.0978
20239WAT    EPW82763   3.823   9.199   5.915 -0.2432 -0.7863  0.0334
20240WAT      O82764   5.592   6.600   7.697  0.1333  0.2457  0.6171
20240WAT     H182765   5.646   6.627   7.771 -2.2349  1.3198  2.0494
20240WAT     H282766   5.542   6.526   7.730  0.4378 -0.5366 -0.5941
20240WAT    EPW82767   5.593   6.594   7.711 -0.1390  0.2844  0.6461
20241WAT      O82768   5.455   8.577   5.948  0.6046 -0.5681 -0.4617
20241WAT     H182769   5.402   8.651   5.976 -0.1134 -1.6568  1.1978
20241WAT     H282770   5.522   8.568   6.015  0.9812 -1.1384 -0.8969
20241WAT    EPW82771   5.457   8.585   5.960  0.5596 -0.7868 -0.3002
20242WAT      O82772  10.126   9.770   6.536  0.3971  0.2407  0.4260
20242WAT     H182773  10.039   9.731   6.529 -0.4415  2.1680 -0.7128
20242WAT     H282774  10.185   9.695   6.544 -1.2991 -1.1378  0.5773
20242WAT    EPW82775  10.122   9.755   6.536  0.0625  0.3133  0.2959
20243WAT      O82776   0.999   9.998   6.440  0.2506  0.3850  0.0894
20243WAT     H182777   0.992   9.910   6.476 -0.6617 -0.2396 -1.5338
20243WAT     H282778   0.975  10.056   6.513  0.6621 -0.6969  1.1148
20243WAT    EPW82779   0.995   9.994   6.455  0.1845  0.1602  0.0105
20244WAT      O82780   3.186  10.035   8.836 -0.0519 -0.3065  0.0851
20244WAT     H182781   3.255  10.089   8.799 -1.1007  0.0597 -1.4218
20244WAT     H282782   3.190   9.954   8.784 -2.1187  0.5571 -1.5673
20244WAT    EPW82783   3.196  10.031   8.824 -0.4627 -0.1440 -0.3314
20245WAT      O82784   5.132   9.507   5.915  0.0617 -0.0854  0.3553
20245WAT     H182785   5.172   9.565   5.851  0.2775  1.2887  1.6668
20245WAT     H282786   5.072   9.563   5.965  0.5655 -0.8673  1.9267
20245WAT    EPW82787   5.129   9.522   5.913  0.1564 -0.0072  0.7355
20246WAT      O82788   1.504  10.286   7.003 -0.4300 -0.0003 -0.1825
20246WAT     H182789   1.595  10.263   6.988 -0.5342 -1.5644  1.2189
20246WAT     H282790   1.503  10.381   7.011  0.4603  0.4266 -3.8443
20246WAT    EPW82791   1.516  10.295   7.002 -0.3263 -0.1497 -0.4807
20247WAT      O82792   3.538   8.683   8.738  0.1118  0.0211  0.6334
20247WAT     H182793   3.631   8.700   8.725 -0.0740 -0.3972 -1.6347
20247WAT     H282794   3.516   8.617   8.672 -2.0987  1.2706 -0.0012
20247WAT    EPW82795   3.547   8.677   8.727 -0.2042  0.1311  0.2513
20248WAT      O82796   0.843   4.650   7.938 -0.1987 -0.1028  0.4512
20248WAT     H182797   0.904   4.696   7.996 -1.3454  0.5001  1.2084
20248WAT     H282798   0.796   4.589   7.996  0.8366 -1.8210 -0.4141
20248WAT    EPW82799   0.845   4.648   7.953 -0.2134 -0.2499  0.4370
20249WAT      O82800  10.232   7.893   6.782 -0.2254  0.8243  0.0244
20249WAT     H182801  10.159   7.942   6.821 -0.0441  1.6926 -0.7170
20249WAT     H282802  10.194   7.808   6.761 -0.9951  1.2154 -0.2208
20249WAT    EPW82803  10.217   7.888   6.785 -0.3028  0.9904 -0.1056
20250WAT      O82804   0.845   8.346   2.706 -0.5417 -0.4364  0.3288
20250WAT     H182805   0.934   8.341   2.741 -0.8360 -1.1116  1.0125
20250WAT     H282806   0.835   8.265   2.656 -0.1422  0.4955 -1.3276
20250WAT    EPW82807   0.855   8.334   2.704 -0.5278 -0.4025  0.2005
20251WAT      O82808   0.085   4.960   0.671 -0.9778  0.3895 -0.2489
20251WAT     H182809   0.071   4.981   0.763 -0.0901 -0.7422  0.1695
20251WAT     H282810   0.145   4.885   0.672 -0.0394  1.0605 -1.7695
20251WAT    EPW82811   0.091   4.953   0.683 -0.7370  0.3288 -0.3943
20252WAT      O82812   3.234   6.033   6.337 -0.1548 -0.2031  0.5557
20252WAT     H182813   3.318   6.078   6.327 -1.0687  1.4193 -0.1052
20252WAT     H282814   3.188   6.049   6.254 -1.8043  0.4492  1.5423
20252WAT    EPW82815   3.239   6.041   6.324 -0.4929  0.0970  0.5987
20253WAT      O82816   3.148   8.168   6.080  0.2441  0.0960 -0.3245
20253WAT     H182817   3.100   8.193   6.001 -2.8426  1.2829  1.7352
20253WAT     H282818   3.106   8.087   6.109 -0.3413  0.9174  1.2876
20253WAT    EPW82819   3.136   8.161   6.073 -0.2402  0.3614  0.1595
20254WAT      O82820   1.937   8.683   3.845 -0.3162 -0.4996  0.1700
20254WAT     H182821   1.930   8.658   3.938  3.8215 -1.0403  0.5665
20254WAT     H282822   1.889   8.765   3.838 -2.0116 -1.2044  2.3974
20254WAT    EPW82823   1.930   8.691   3.857  0.0058 -0.6638  0.5161
20255WAT      O82824   4.246   6.716   5.610  0.4095  0.5581  0.2159
20255WAT     H182825   4.169   6.692   5.558 -0.7797 -0.0992  2.1445
20255WAT     H282826   4.308   6.646   5.596 -1.7957 -2.3577  3.3030
20255WAT    EPW82827   4.244   6.704   5.601 -0.0381  0.0870  0.8776
20256WAT      O82828   3.479   7.072   7.371  0.0745 -0.3042  0.4680
20256WAT     H182829   3.430   7.143   7.412  0.1651 -0.7800  1.4373
20256WAT     H282830   3.570   7.098   7.378  0.0697 -0.2279  0.2525
20256WAT    EPW82831   3.484   7.085   7.377  0.0858 -0.3569  0.5674
20257WAT      O82832   3.261   7.844   8.047  0.5968  0.2342  0.4138
20257WAT     H182833   3.319   7.849   8.122  0.9898  1.7998  0.0340
20257WAT     H282834   3.219   7.758   8.055  1.0871  0.1151  2.0617
20257WAT    EPW82835   3.263   7.833   8.058  0.7132  0.4251  0.5808
20258WAT      O82836   1.914   6.531   8.527  0.0542  0.2561  0.3915
20258WAT     H182837   1.994   6.494   8.566  0.6687  1.5685  0.4249
20258WAT     H282838   1.850   6.531   8.599 -0.2951 -1.6428  0.1269
20258WAT    EPW82839   1.916   6.526   8.542  0.0892  0.1786  0.3610
20259WAT      O82840  10.437   3.442   0.273  0.0595  0.4136  0.9013
20259WAT     H182841  10.409   3.526   0.310 -2.4062 -1.2947  3.1984
20259WAT     H282842  10.531   3.437   0.294  0.1127  2.2886  1.2867
20259WAT    EPW82843  10.446   3.453   0.280 -0.2584  0.4356  1.2551
20260WAT      O82844   1.530   5.748   5.602 -0.4543 -0.0339  0.3536
20260WAT     H182845   1.573   5.674   5.646 -0.3425 -0.1029  0.1308
20260WAT     H282846   1.526   5.722   5.510  0.4714  0.6455  0.1103
20260WAT    EPW82847   1.535   5.735   5.596 -0.3174  0.0467  0.2921
20261WAT      O82848   1.825   7.920   6.058 -0.0283  0.0834 -0.6710
20261WAT     H182849   1.842   7.967   5.977 -2.4892  2.3768 -0.0046
20261WAT     H282850   1.905   7.933   6.110  0.7034  0.4845 -1.8497
20261WAT    EPW82851   1.838   7.927   6.054 -0.2564  0.4387 -0.7384
20262WAT      O82852  10.700   9.292   7.755 -0.1022  0.1067 -0.1390
20262WAT     H182853  10.706   9.370   7.701 -0.9616 -1.7333 -3.1123
20262WAT     H282854  10.792   9.269   7.773  0.2509  0.3734 -1.4729
20262WAT    EPW82855  10.713   9.299   7.750 -0.1693 -0.1011 -0.7069
20263WAT      O82856   4.883   7.533   4.260 -0.1737  0.0233 -0.3992
20263WAT     H182857   4.931   7.562   4.182  0.7132 -0.1846  0.0465
20263WAT     H282858   4.949   7.487   4.312 -0.8766 -0.2890  0.2351
20263WAT    EPW82859   4.898   7.531   4.257 -0.1495 -0.0455 -0.2568
20264WAT      O82860   2.502   8.732   4.733  0.0806  0.1487  0.0545
20264WAT     H182861   2.418   8.715   4.690 -1.3313  1.2509  2.1809
20264WAT     H282862   2.542   8.801   4.681  0.5781 -1.6042 -2.0257
20264WAT    EPW82863   2.496   8.739   4.721 -0.0401  0.0629  0.0603
20265WAT      O82864   3.750   9.610   4.105 -0.9927  0.1261 -0.3822
20265WAT     H182865   3.707   9.589   4.022  0.0477 -2.3275 -0.4026
20265WAT     H282866   3.731   9.534   4.161  3.3901 -1.3294 -0.4884
20265WAT    EPW82867   3.741   9.597   4.101 -0.2774 -0.3896 -0.3989
20266WAT      O82868   1.578   8.617   3.716  0.6259 -0.6317  0.2335
20266WAT     H182869   1.592   8.680   3.786 -2.0981  0.0614  0.2599
20266WAT     H282870   1.581   8.532   3.759 -2.6125 -0.1664  1.6397
20266WAT    EPW82871   1.580   8.614   3.731 -0.1605 -0.4792  0.4225
20267WAT      O82872   3.186   8.506   1.568  0.2215 -0.8791 -0.1567
20267WAT     H182873   3.135   8.440   1.616 -1.3310  0.6940  0.4669
20267WAT     H282874   3.278   8.482   1.585 -0.2609 -3.2238 -0.5068
20267WAT    EPW82875   3.192   8.494   1.577 -0.0471 -0.9809 -0.1207
20268WAT      O82876   1.524   8.289   4.164  0.6151  0.7311  1.0006
20268WAT     H182877   1.463   8.350   4.206 -3.0151 -1.1378 -1.0764
20268WAT     H282878   1.554   8.232   4.236 -1.3849  0.7434  1.9032
20268WAT    EPW82879   1.520   8.290   4.179 -0.1275  0.4864  0.8459
20269WAT      O82880   9.032   3.380   1.638 -0.4790 -0.0832 -0.4491
20269WAT     H182881   9.050   3.313   1.571 -0.3505  0.2790 -0.7804
20269WAT     H282882   9.013   3.459   1.587 -1.9830 -0.1923 -0.0976
20269WAT    EPW82883   9.032   3.381   1.622 -0.6604 -0.0498 -0.4464
20270WAT      O82884   5.333   0.447   7.555 -0.0414 -0.0571  0.4617
20270WAT     H182885   5.261   0.509   7.569  1.0046  0.9459  1.6435
20270WAT     H282886   5.332   0.392   7.633 -0.5320 -1.1138 -0.2722
20270WAT    EPW82887   5.323   0.448   7.567  0.0319 -0.0642  0.5207
20271WAT      O82888   1.441   7.103   5.842  0.2697 -0.2858  0.1358
20271WAT     H182889   1.492   7.025   5.861  0.1574 -0.0947  1.2933
20271WAT     H282890   1.400   7.126   5.925 -1.3664 -0.1803 -0.6509
20271WAT    EPW82891   1.442   7.096   5.855  0.0391 -0.2470  0.1850
20272WAT      O82892   0.423   9.546   6.471  0.3836 -1.2120 -0.3285
20272WAT     H182893   0.485   9.618   6.476 -1.3350  0.2723  1.7568
20272WAT     H282894   0.337   9.589   6.468 -0.6665 -3.1843 -0.2765
20272WAT    EPW82895   0.420   9.561   6.471  0.0184 -1.2765 -0.0465
20273WAT      O82896   2.862   9.054   7.175 -1.2092 -0.2898  0.3565
20273WAT     H182897   2.861   9.073   7.269 -1.1199  2.5292 -0.1467
20273WAT     H282898   2.770   9.034   7.154 -1.9647  2.5933  0.4851
20273WAT    EPW82899   2.849   9.053   7.185 -1.2971  0.4621  0.3068
20274WAT      O82900   5.304   1.957   2.929  0.0668  0.2104 -0.2645
20274WAT     H182901   5.283   2.046   2.958  0.2400 -0.1455  1.0466
20274WAT     H282902   5.219   1.915   2.916 -0.0348  0.1288  0.5982
20274WAT    EPW82903   5.290   1.963   2.931  0.0761  0.1527  0.0222
20275WAT      O82904   8.491   0.966   3.515 -0.1465  0.0012  0.2854
20275WAT     H182905   8.435   0.889   3.509 -0.3272  0.2139 -2.2702
20275WAT     H282906   8.577   0.936   3.486  0.3017  0.3275  1.2541
20275WAT    EPW82907   8.495   0.952   3.510 -0.1111  0.0723  0.0759
20276WAT      O82908   3.278   1.250   6.265 -0.1086  0.3216 -1.0706
20276WAT     H182909   3.218   1.235   6.192 -0.4852  2.6186 -1.2854
20276WAT     H282910   3.272   1.169   6.317 -0.9101 -0.7863 -2.7791
20276WAT    EPW82911   3.270   1.237   6.262 -0.2638  0.4784 -1.3244
20277WAT      O82912   5.638   8.718   2.887 -0.5541 -0.3821 -0.5745
20277WAT     H182913   5.732   8.700   2.883 -0.3612  0.6805 -1.2354
20277WAT     H282914   5.601   8.664   2.817  0.0362  1.6806 -2.6397
20277WAT    EPW82915   5.646   8.708   2.877 -0.4508  0.0300 -0.9341
20278WAT      O82916   2.270   9.368   7.090  0.4563 -0.0708 -0.9589
20278WAT     H182917   2.224   9.339   7.012  0.6660  0.4572 -1.2879
20278WAT     H282918   2.307   9.288   7.127 -2.1483 -0.8092  0.3063
20278WAT    EPW82919   2.269   9.354   7.084  0.1403 -0.0987 -0.8354
20279WAT      O82920   4.197  10.072   5.152 -0.0894 -0.6395  0.4020
20279WAT     H182921   4.234  10.062   5.240  1.2306  1.1564  0.1172
20279WAT     H282922   4.121  10.128   5.165  2.1561  2.7947  0.1219
20279WAT    EPW82923   4.192  10.078   5.166  0.3808  0.0505  0.3273
20280WAT      O82924   1.234   8.866   6.273  0.2475 -0.4425 -0.3842
20280WAT     H182925   1.160   8.818   6.310 -0.3772  0.5878 -0.2634
20280WAT     H282926   1.265   8.922   6.343 -0.6923  1.2315 -1.2542
20280WAT    EPW82927   1.228   8.867   6.287  0.0412 -0.0854 -0.4830
20281WAT      O82928   0.142   1.202   0.937  0.0938 -0.0506 -0.7455
20281WAT     H182929   0.216   1.158   0.978  0.2845  0.9025 -0.0310
20281WAT     H282930   0.094   1.132   0.893  0.1443 -1.0656  0.7219
20281WAT    EPW82931   0.145   1.187   0.937  0.1256 -0.0588 -0.4577
20282WAT      O82932  10.527   8.443   4.429  0.2324  0.0599 -0.6530
20282WAT     H182933  10.536   8.440   4.334 -2.5465 -4.0559 -1.0661
20282WAT     H282934  10.449   8.497   4.445  1.0286  1.2245 -0.5980
20282WAT    EPW82935  10.518   8.449   4.419 -0.0291 -0.3295 -0.7002
20283WAT      O82936  10.318   7.177   8.365 -0.3055  0.0354 -0.0384
20283WAT     H182937  10.392   7.188   8.304  0.6338 -0.9711  0.8726
20283WAT     H282938  10.252   7.238   8.333  0.8889  0.9190 -0.9393
20283WAT    EPW82939  10.319   7.186   8.353 -0.0243  0.0191 -0.0367
20284WAT      O82940   2.084   3.434   7.917 -0.3603 -0.8403 -0.4527
20284WAT     H182941   2.112   3.493   7.987 -0.0045  0.2215 -1.4681
20284WAT     H282942   1.991   3.453   7.905 -0.4894 -1.2251 -0.0856
20284WAT    EPW82943   2.075   3.444   7.925 -0.3303 -0.7510 -0.5381
20285WAT      O82944   3.034   8.317   6.292  0.2350 -0.0386  0.0607
20285WAT     H182945   3.110   8.308   6.235  1.6471  0.3470  1.7681
20285WAT     H282946   3.050   8.255   6.363 -0.8226  0.3567  0.6655
20285WAT    EPW82947   3.046   8.308   6.294  0.2817  0.0644  0.3657
20286WAT      O82948   6.627   2.054   6.197  0.0604  0.6091 -0.0198
20286WAT     H182949   6.627   2.137   6.245 -2.2249  0.0011  1.1502
20286WAT     H282950   6.567   2.069   6.124 -1.6587 -0.4187  1.1045
20286WAT    EPW82951   6.619   2.067   6.194 -0.4680  0.3934  0.2828
20287WAT      O82952   4.376   0.866   4.440 -0.3421 -0.0871  0.4208
20287WAT     H182953   4.385   0.944   4.386 -2.0337  0.2750  0.6264
20287WAT     H282954   4.295   0.825   4.411  1.2441 -2.6774 -0.7773
20287WAT    EPW82955   4.367   0.871   4.429 -0.3557 -0.3810  0.2899
20288WAT      O82956   0.760   9.034   4.801 -0.1986 -0.2649  0.4285
20288WAT     H182957   0.758   9.019   4.706 -1.9991  0.6119  0.2851
20288WAT     H282958   0.852   9.051   4.821  0.3218 -1.1908 -1.0310
20288WAT    EPW82959   0.772   9.034   4.791 -0.3675 -0.2718  0.2170
20289WAT      O82960   3.717   8.813   7.217  0.4482 -0.2633  0.1241
20289WAT     H182961   3.737   8.903   7.241  1.5895 -0.5000  0.0962
20289WAT     H282962   3.778   8.793   7.146 -3.1306  0.6322 -3.6379
20289WAT    EPW82963   3.727   8.822   7.211  0.1267 -0.1769 -0.3755
20290WAT      O82964   4.557   6.170   8.364  0.1269  0.9431  0.2771
20290WAT     H182965   4.611   6.200   8.291 -2.1370 -0.3450 -2.1342
20290WAT     H282966   4.467   6.187   8.336 -0.8953 -0.6375  2.2883
20290WAT    EPW82967   4.552   6.176   8.351 -0.3066  0.5651  0.2241
20291WAT      O82968   7.116   0.483   7.242 -0.0380 -0.8429  0.2960
20291WAT     H182969   7.138   0.498   7.334  1.3998 -1.3180  0.0591
20291WAT     H282970   7.201   0.465   7.201  0.0141  3.3039 -1.9253
20291WAT    EPW82971   7.130   0.483   7.249  0.1588 -0.3586 -0.0281
20292WAT      O82972   3.444   0.951   6.835  0.6007 -0.5086  0.5223
20292WAT     H182973   3.519   1.011   6.831  1.1931 -1.2595 -0.1677
20292WAT     H282974   3.384   0.992   6.896  1.8470 -0.1805  1.5763
20292WAT    EPW82975   3.446   0.964   6.842  0.8433 -0.5644  0.5703
20293WAT      O82976   4.763   7.441   2.285 -0.3579  0.1404  0.2285
20293WAT     H182977   4.776   7.442   2.380 -0.4818  0.4376  0.2426
20293WAT     H282978   4.842   7.481   2.250 -1.1693  1.8748  0.3110
20293WAT    EPW82979   4.775   7.446   2.293 -0.4814  0.4086  0.2414
20294WAT      O82980   0.678   7.644   7.105 -0.0219  0.0335 -0.7688
20294WAT     H182981   0.710   7.566   7.059  0.3410  0.4286 -1.1989
20294WAT     H282982   0.711   7.717   7.053  0.7395  0.5069  0.3561
20294WAT    EPW82983   0.687   7.643   7.092  0.1264  0.1483 -0.6773
20295WAT      O82984   6.079   0.047   7.263 -0.0315  0.2206 -0.5437
20295WAT     H182985   6.171   0.035   7.284 -0.0593 -0.8962 -0.9797
20295WAT     H282986   6.074   0.033   7.168 -1.0647 -2.9582 -0.1718
20295WAT    EPW82987   6.090   0.043   7.253 -0.1714 -0.3457 -0.5519
20296WAT      O82988   1.829   9.052   4.956 -0.1184 -0.6801  0.7671
20296WAT     H182989   1.860   9.072   4.868  0.9115 -1.7798  0.8581
20296WAT     H282990   1.796   9.135   4.989  1.0206  0.1301 -0.0440
20296WAT    EPW82991   1.829   9.065   4.949  0.1677 -0.7181  0.6719
20297WAT      O82992   3.290   7.372   6.519 -0.5854  0.1180 -0.0007
20297WAT     H182993   3.284   7.280   6.543 -0.1947  0.6304  2.2157
20297WAT     H282994   3.213   7.413   6.559 -0.0996  0.9683  0.0937
20297WAT    EPW82995   3.279   7.366   6.527 -0.4697  0.2978  0.3042
20298WAT      O82996   7.556   3.615   6.535 -0.2331 -0.1808  0.2987
20298WAT     H182997   7.515   3.661   6.461 -1.8902 -0.4499  1.0117
20298WAT     H282998   7.648   3.643   6.532 -0.5795  0.9489 -0.9838
20298WAT    EPW82999   7.563   3.625   6.525 -0.4976 -0.0674  0.2236
20299WAT      O83000   7.120   0.754   7.751 -0.2551 -0.0109  0.4313
20299WAT     H183001   7.215   0.751   7.767 -0.1589 -0.0217 -0.1351
20299WAT     H283002   7.109   0.721   7.662 -0.9457 -1.4252  1.0193
20299WAT    EPW83003   7.131   0.750   7.741 -0.3333 -0.1989  0.4342
20300WAT      O83004   5.804   8.756   3.494 -0.6479  0.1900 -0.8091
20300WAT     H183005   5.717   8.796   3.501 -0.8473 -0.2570 -0.6819
20300WAT     H283006   5.851   8.788   3.571 -0.5486  0.7946 -1.1208
20300WAT    EPW83007   5.798   8.765   3.505 -0.6614  0.2103 -0.8335
20301WAT      O83008   1.645   8.665   4.462 -0.1768 -0.0169  0.4054
20301WAT     H183009   1.656   8.570   4.466  0.3676  0.0739  1.4784
20301WAT     H283010   1.722   8.697   4.415 -0.6575 -0.1478 -0.4827
20301WAT    EPW83011   1.657   8.657   4.456 -0.1684 -0.0219  0.4296
20302WAT      O83012   4.333   7.786   8.436  0.1686 -0.7714 -0.4329
20302WAT     H183013   4.311   7.769   8.528  0.4053 -2.7694 -0.7097
20302WAT     H283014   4.355   7.879   8.434  0.3252 -0.7142  1.5713
20302WAT    EPW83015   4.333   7.796   8.448  0.2205 -1.0273 -0.2060
20303WAT      O83016   4.169   9.643   6.265 -0.1862 -0.6078 -0.4954
20303WAT     H183017   4.247   9.591   6.245 -1.1853 -1.4482 -2.4188
20303WAT     H283018   4.103   9.613   6.202 -1.9244  0.4365  0.7446
20303WAT    EPW83019   4.171   9.632   6.254 -0.5474 -0.5803 -0.5856
20304WAT      O83020   7.811   9.053   5.619 -0.3298 -0.2544  0.2631
20304WAT     H183021   7.721   9.024   5.604 -0.3880 -0.4277  0.8976
20304WAT     H283022   7.813   9.144   5.589 -0.8969 -0.0398  0.8702
20304WAT    EPW83023   7.800   9.061   5.613 -0.4127 -0.2489  0.4268
20305WAT      O83024   8.364   0.463   7.787  0.6398  1.0762 -0.3834
20305WAT     H183025   8.319   0.485   7.868 -0.8658 -0.8745 -0.6188
20305WAT     H283026   8.309   0.498   7.717 -0.6678 -1.3179 -0.6721
20305WAT    EPW83027   8.351   0.470   7.788  0.2699  0.5032 -0.4523
20306WAT      O83028   0.179   2.684   0.966 -0.7109 -0.1303 -0.1986
20306WAT     H183029   0.128   2.630   1.026 -0.5569 -1.6618 -1.3715
20306WAT     H283030   0.270   2.668   0.990 -0.6820  1.7151  1.1475
20306WAT    EPW83031   0.184   2.675   0.977 -0.6868 -0.0888 -0.1758
20307WAT      O83032   4.710   9.130   8.579  0.6908  0.1069  0.4862
20307WAT     H183033   4.725   9.147   8.486 -0.8745 -3.3256 -0.5804
20307WAT     H283034   4.784   9.075   8.606  0.3290 -0.2353  0.7966
20307WAT    EPW83035   4.722   9.125   8.570  0.4365 -0.3910  0.3867
20308WAT      O83036   1.389  10.084   3.934  0.3193 -0.3712 -0.1199
20308WAT     H183037   1.387  10.073   3.839  0.1309 -1.9074  0.0347
20308WAT     H283038   1.334  10.014   3.967  0.9019 -0.2527  1.1585
20308WAT    EPW83039   1.382  10.074   3.926  0.3713 -0.5579  0.0690
20309WAT      O83040   7.164   1.464   6.175  0.0031 -0.5880  0.2458
20309WAT     H183041   7.128   1.464   6.087  2.3680 -1.2143 -0.7962
20309WAT     H283042   7.259   1.461   6.162  0.4529  0.2067  2.8057
20309WAT    EPW83043   7.172   1.464   6.162  0.3741 -0.5658  0.4463
20310WAT      O83044   3.358   8.365   5.802 -0.2406  0.0514 -0.4186
20310WAT     H183045   3.399   8.432   5.747  3.4912 -1.2120  0.5149
20310WAT     H283046   3.341   8.410   5.885  1.9516  0.0697  0.0974
20310WAT    EPW83047   3.362   8.380   5.806  0.5407 -0.1130 -0.2275
20311WAT      O83048   8.674   1.090   4.992 -0.1936  0.2183 -0.0293
20311WAT     H183049   8.620   1.106   5.069 -2.6332 -3.0725 -0.8298
20311WAT     H283050   8.631   1.138   4.921 -1.5514 -1.4949 -0.4340
20311WAT    EPW83051   8.661   1.098   4.993 -0.6943 -0.4417 -0.1884
20312WAT      O83052   5.859   0.291   6.203 -0.3498 -0.9754 -0.5540
20312WAT     H183053   5.933   0.321   6.150  1.1162 -1.7997  0.9413
20312WAT     H283054   5.842   0.202   6.173 -0.0411 -1.1552 -0.2091
20312WAT    EPW83055   5.866   0.283   6.192 -0.1156 -1.1078 -0.3114
20313WAT      O83056   4.198   9.520   5.473  0.1443 -0.6303 -0.6673
20313WAT     H183057   4.288   9.530   5.503 -0.3092  0.7491  0.3409
20313WAT     H283058   4.196   9.433   5.432  0.9109 -2.6498  3.1085
20313WAT    EPW83059   4.210   9.510   5.472  0.1855 -0.7148 -0.0365
20314WAT      O83060   6.056   0.811   6.717  0.2423  0.6294  0.6539
20314WAT     H183061   6.060   0.852   6.803 -0.9562  0.4981  0.7857
20314WAT     H283062   5.963   0.791   6.704  0.1652  1.9287 -1.2562
20314WAT    EPW83063   6.044   0.814   6.727  0.0741  0.7835  0.4194
20315WAT      O83064   0.620   6.384   0.092 -0.0417  0.0742 -0.0607
20315WAT     H183065   0.533   6.394   0.130  0.6851  1.4994  1.3411
20315WAT     H283066   0.663   6.318   0.147 -0.1768 -0.5700 -0.7023
20315WAT    EPW83067   0.614   6.376   0.104  0.0363  0.1771  0.0396
20316WAT      O83068   5.144   8.316   5.468 -0.3779 -0.3747  0.4964
20316WAT     H183069   5.114   8.405   5.452  0.5854 -0.2123 -0.5102
20316WAT     H283070   5.178   8.286   5.384  0.2584 -1.3117  1.0619
20316WAT    EPW83071   5.145   8.324   5.455 -0.1669 -0.4778  0.4380
20317WAT      O83072   2.251  10.211   6.840 -0.1887 -0.0319  0.4304
20317WAT     H183073   2.178  10.150   6.835 -0.3819  0.2277  0.0478
20317WAT     H283074   2.272  10.230   6.748 -0.4350  0.8395  0.5475
20317WAT    EPW83075   2.244  10.206   6.827 -0.2466  0.1173  0.3953
20318WAT      O83076   3.632   8.242   6.850  0.2173  0.2213 -0.1073
20318WAT     H183077   3.659   8.160   6.891 -0.0327  0.8591  1.4307
20318WAT     H283078   3.539   8.250   6.874  0.1412  0.7510 -0.5742
20318WAT    EPW83079   3.623   8.232   6.859  0.1742  0.3753  0.0339
20319WAT      O83080   4.662   0.449   4.989 -0.3797  0.5262  0.1105
20319WAT     H183081   4.732   0.466   5.052 -3.7719  3.9128  3.4625
20319WAT     H283082   4.677   0.513   4.919 -0.7722  2.1574  1.4711
20319WAT    EPW83083   4.673   0.460   4.988 -0.8786  1.1880  0.7322
20320WAT      O83084   6.180   1.507   3.992 -0.3780  0.4636  0.4722
20320WAT     H183085   6.147   1.548   3.911 -1.5108 -0.9576  0.1840
20320WAT     H283086   6.275   1.516   3.985 -0.3923 -0.2821 -1.3980
20320WAT    EPW83087   6.188   1.514   3.980 -0.5295  0.1777  0.1875
20321WAT      O83088   3.898   8.799   3.992 -0.4245 -0.2201 -0.4534
20321WAT     H183089   3.835   8.822   4.061  0.7759 -0.2922  0.7254
20321WAT     H283090   3.947   8.880   3.977 -0.6066 -0.2396 -1.1471
20321WAT    EPW83091   3.896   8.813   3.999 -0.2903 -0.2322 -0.3895
20322WAT      O83092   4.036   8.595   4.294 -0.0015  0.6955 -0.5970
20322WAT     H183093   3.945   8.565   4.290 -0.1826  1.1336  0.0040
20322WAT     H283094   4.051   8.613   4.387  1.1591 -0.7544 -0.4745
20322WAT    EPW83095   4.026   8.594   4.306  0.1278  0.5622 -0.5016
20323WAT      O83096   8.517   0.528   7.299 -0.0251  0.0388 -0.2289
20323WAT     H183097   8.565   0.509   7.218  0.9679 -0.8875  0.5451
20323WAT     H283098   8.580   0.511   7.369 -0.7140  1.2782  0.7398
20323WAT    EPW83099   8.532   0.523   7.298  0.0153  0.0801  0.0007
20324WAT      O83100   1.677   7.739   6.438  0.3544 -0.2693 -0.0559
20324WAT     H183101   1.712   7.798   6.505 -2.2507  0.2760  0.9033
20324WAT     H283102   1.730   7.659   6.446 -0.0615 -0.3313  2.8432
20324WAT    EPW83103   1.689   7.736   6.448 -0.0441 -0.2055  0.4528
20325WAT      O83104   3.078   9.617   7.312 -0.5368 -0.1940 -0.4905
20325WAT     H183105   3.009   9.677   7.340 -2.3226 -0.8455 -3.1250
20325WAT     H283106   3.159   9.667   7.324 -1.6947  1.7034 -0.0380
20325WAT    EPW83107   3.079   9.632   7.317 -0.9251 -0.0291 -0.7784
20326WAT      O83108   4.007   9.808   4.569  0.3524 -0.1752  0.4357
20326WAT     H183109   3.912   9.818   4.573  0.2077 -0.8029 -0.9108
20326WAT     H283110   4.034   9.857   4.491  1.2334  0.5992  1.2023
20326WAT    EPW83111   3.998   9.816   4.559  0.4498 -0.1559  0.3591
20327WAT      O83112   6.757   3.796   0.254 -0.3753 -0.2461 -0.1036
20327WAT     H183113   6.690   3.748   0.206  0.1543 -0.6521 -0.4496
20327WAT     H283114   6.810   3.838   0.186 -0.3136  0.1290  0.1689
20327WAT    EPW83115   6.755   3.795   0.239 -0.2971 -0.2501 -0.1133
20328WAT      O83116   4.716   0.505   5.740  0.2181 -0.0280  0.2156
20328WAT     H183117   4.636   0.523   5.789  0.9569 -0.1170  1.4911
20328WAT     H283118   4.716   0.410   5.728 -0.5004  0.0931 -0.9524
20328WAT    EPW83119   4.706   0.495   5.745  0.2210 -0.0237  0.2298
20329WAT      O83120   2.724   9.797   8.258 -0.9640 -0.0115 -0.3929
20329WAT     H183121   2.750   9.748   8.335 -3.2680 -2.2886 -0.9152
20329WAT     H283122   2.751   9.743   8.184  0.6841  1.8537 -1.2642
20329WAT    EPW83123   2.731   9.783   8.258 -1.0506 -0.0663 -0.5774
20330WAT      O83124   3.612   6.527   8.947  0.1674  0.0644  0.4306
20330WAT     H183125   3.688   6.574   8.913  0.4359 -0.5357  0.1982
20330WAT     H283126   3.540   6.554   8.890  0.2407  0.4902  0.5377
20330WAT    EPW83127   3.612   6.537   8.935  0.2126  0.0415  0.4144
20331WAT      O83128   2.370   9.243   3.775  0.3572  0.3671 -0.1920
20331WAT     H183129   2.317   9.259   3.853  0.7962  3.6387 -0.4097
20331WAT     H283130   2.320   9.281   3.703  1.6271  0.8791 -0.8491
20331WAT    EPW83131   2.357   9.250   3.776  0.5826  0.8659 -0.3072
20332WAT      O83132   1.434   8.763   8.942  0.0334  0.6028  0.4982
20332WAT     H183133   1.422   8.713   8.862 -0.3813 -2.1943  2.1566
20332WAT     H283134   1.370   8.834   8.937 -3.0800 -2.0085  0.1406
20332WAT    EPW83135   1.424   8.766   8.931 -0.4320 -0.1097  0.6700
20333WAT      O83136   7.718   0.164   7.496 -0.1421 -0.1445 -0.0746
20333WAT     H183137   7.653   0.233   7.489 -1.1793 -1.1184 -0.3191
20333WAT     H283138   7.751   0.171   7.586  0.2822  1.0980 -0.3145
20333WAT    EPW83139   7.714   0.174   7.507 -0.2232 -0.1091 -0.1385
20334WAT      O83140   4.679  10.122   5.914  0.6412 -0.3568  0.5359
20334WAT     H183141   4.678  10.207   5.959 -1.8697  0.3088 -0.6287
20334WAT     H283142   4.619  10.067   5.964  0.8106 -0.8483  0.2087
20334WAT    EPW83143   4.671  10.126   5.927  0.3324 -0.3338  0.3393
20335WAT      O83144   0.454   3.050   1.655 -0.4879 -0.3537  0.2796
20335WAT     H183145   0.439   3.054   1.749  0.1138 -2.5389  0.5124
20335WAT     H283146   0.486   2.962   1.639 -1.9597 -0.5502 -2.1762
20335WAT    EPW83147   0.456   3.039   1.665 -0.6027 -0.6677 -0.0136
20336WAT      O83148   0.384   7.911   7.326 -0.2040 -0.0599 -0.2742
20336WAT     H183149   0.461   7.859   7.350 -0.6908 -1.0062 -0.7065
20336WAT     H283150   0.396   7.994   7.372  0.6353 -0.5229  0.3725
20336WAT    EPW83151   0.395   7.915   7.336 -0.1575 -0.2458 -0.2460
20337WAT      O83152   8.689   0.268   5.264 -0.2793  0.0600 -0.3542
20337WAT     H183153   8.685   0.179   5.299 -0.6097  0.1317 -0.2112
20337WAT     H283154   8.603   0.283   5.225 -0.3322  0.4332 -0.0933
20337WAT    EPW83155   8.677   0.258   5.264 -0.3295  0.1187 -0.3009
20338WAT      O83156   7.823   2.192   7.818 -0.5182  0.8483 -0.5429
20338WAT     H183157   7.783   2.279   7.815 -2.3323  0.1338  0.8385
20338WAT     H283158   7.879   2.188   7.741 -0.3845  3.2259 -0.6371
20338WAT    EPW83159   7.825   2.203   7.808 -0.7398  1.0675 -0.3729
20339WAT      O83160   5.112   8.409   7.865  0.2710 -0.1840 -0.4907
20339WAT     H183161   5.201   8.383   7.844  0.3732  0.9576 -1.6366
20339WAT     H283162   5.104   8.498   7.831 -0.2888  1.0387  2.5265
20339WAT    EPW83163   5.122   8.417   7.858  0.2105  0.1278 -0.2439
20340WAT      O83164   1.472   3.857   0.079 -0.7241  0.1229 -0.4215
20340WAT     H183165   1.542   3.910   0.040 -0.9649  0.3551 -0.5425
20340WAT     H283166   1.500   3.767   0.067  0.7239  0.2333  1.6474
20340WAT    EPW83167   1.485   3.852   0.072 -0.5648  0.1680 -0.1646
20341WAT      O83168   3.746   8.259   7.259  0.2931 -0.4450 -0.5509
20341WAT     H183169   3.759   8.303   7.175 -1.3245  1.7653  0.2412
20341WAT     H283170   3.757   8.329   7.324  0.4754 -1.8766  1.0108
20341WAT    EPW83171   3.749   8.274   7.257  0.1038 -0.3424 -0.2406
20342WAT      O83172   1.196   2.168   0.175  0.4737 -0.4303  0.2342
20342WAT     H183173   1.213   2.080   0.143  2.8457  0.4431 -1.1244
20342WAT     H283174   1.281   2.201   0.203  0.1732  2.2857 -1.6411
20342WAT    EPW83175   1.209   2.161   0.175  0.7470  0.0432 -0.1923
20343WAT      O83176   8.426   9.689   6.245 -0.1308 -0.0317 -0.2991
20343WAT     H183177   8.416   9.779   6.214  1.9648 -0.3313 -2.0185
20343WAT     H283178   8.519   9.681   6.265 -0.3775 -1.6982  0.3195
20343WAT    EPW83179   8.437   9.700   6.244  0.1130 -0.2904 -0.4447
20344WAT      O83180  10.814   4.408   1.498 -0.0660 -0.2052 -0.2945
20344WAT     H183181  10.859   4.330   1.464  2.2335  0.8490  0.1603
20344WAT     H283182  10.826   4.474   1.429 -0.7355  0.1805 -0.0502
20344WAT    EPW83183  10.821   4.406   1.484  0.1488 -0.0153 -0.2022
20345WAT      O83184   0.961   7.214   2.844  0.8061  0.1697 -0.2828
20345WAT     H183185   0.885   7.188   2.896  0.8233 -0.4041 -0.5383
20345WAT     H283186   0.931   7.205   2.753  0.2278  2.7488 -0.4123
20345WAT    EPW83187   0.947   7.209   2.839  0.7320  0.4344 -0.3335
20346WAT      O83188   7.981   1.946   5.641 -0.0170 -0.4721  0.2480
20346WAT     H183189   8.015   2.022   5.593 -0.2506  0.4277  1.4670
20346WAT     H283190   8.033   1.943   5.721 -1.0011 -0.6867  0.9032
20346WAT    EPW83191   7.992   1.956   5.645 -0.1774 -0.3816  0.4950
20347WAT      O83192   2.954   0.605   5.386  0.0207  0.4230 -0.1313
20347WAT     H183193   2.874   0.646   5.352 -0.2790 -1.3332 -1.8007
20347WAT     H283194   2.927   0.565   5.469 -0.7882  0.0710 -0.5519
20347WAT    EPW83195   2.940   0.605   5.392 -0.1255  0.1450 -0.4072
20348WAT      O83196   6.477   7.796   7.508 -0.1667 -0.3595 -0.0754
20348WAT     H183197   6.511   7.768   7.423  0.8274 -1.6378  0.7094
20348WAT     H283198   6.552   7.835   7.553 -0.8787  1.0803 -0.0715
20348WAT    EPW83199   6.491   7.797   7.503 -0.1295 -0.3383  0.0286
20349WAT      O83200   1.815   6.589   6.826 -0.2015 -0.4149  0.0549
20349WAT     H183201   1.906   6.612   6.846  1.3330 -4.8774 -0.6577
20349WAT     H283202   1.769   6.599   6.909  1.7144 -0.9622  1.2510
20349WAT    EPW83203   1.821   6.593   6.839  0.2536 -1.0753  0.1187
20350WAT      O83204   0.026   5.820   2.811 -0.2616  0.1571 -0.0215
20350WAT     H183205   0.110   5.802   2.768  0.2626 -1.4943  1.5513
20350WAT     H283206   0.012   5.914   2.799  1.0984  0.2153 -1.5222
20350WAT    EPW83207   0.035   5.830   2.804 -0.0131 -0.0529 -0.0120
20351WAT      O83208   8.388   9.832   0.171  0.0527 -0.0268 -0.5936
20351WAT     H183209   8.470   9.852   0.127 -0.6171 -0.0710 -1.9032
20351WAT     H283210   8.414   9.809   0.260  1.7377 -2.6627 -1.6490
20351WAT    EPW83211   8.402   9.832   0.177  0.1864 -0.3805 -0.9055
20352WAT      O83212   6.535  10.159   7.625  0.3975  0.5799 -0.0897
20352WAT     H183213   6.616  10.121   7.591  0.6235  0.7333  0.2690
20352WAT     H283214   6.469  10.138   7.559  0.6271  0.0277 -0.1516
20352WAT    EPW83215   6.537  10.151   7.612  0.4575  0.5274 -0.0503
20353WAT      O83216   0.608   8.542   8.344  0.1007  0.1211  0.4753
20353WAT     H183217   0.537   8.526   8.405 -0.0114 -2.3435 -0.1709
20353WAT     H283218   0.629   8.635   8.354 -2.8332  0.8146  1.0393
20353WAT    EPW83219   0.602   8.552   8.353 -0.3010 -0.1125  0.4644
20354WAT      O83220   3.270   9.280   7.645 -0.1036 -0.4116 -0.3517
20354WAT     H183221   3.180   9.308   7.631  0.6237  2.6158  0.1096
20354WAT     H283222   3.317   9.310   7.567  0.7313 -0.6093  0.0556
20354WAT    EPW83223   3.264   9.288   7.633  0.1024 -0.0381 -0.2367
20355WAT      O83224   0.281   9.970   6.267  0.3405 -0.0818 -0.1740
20355WAT     H183225   0.220   9.901   6.240 -0.0838  0.0252  0.4921
20355WAT     H283226   0.274  10.037   6.198 -0.1661 -0.1496 -0.1896
20355WAT    EPW83227   0.272   9.970   6.254  0.2177 -0.0763 -0.0885
20356WAT      O83228   5.726   9.102   5.570 -0.0674 -0.6128  0.3679
20356WAT     H183229   5.742   9.048   5.647  2.1057 -1.6457 -0.7064
20356WAT     H283230   5.760   9.188   5.594 -0.3726 -0.6335  0.9017
20356WAT    EPW83231   5.732   9.106   5.583  0.1791 -0.7515  0.2968
20357WAT      O83232  10.930   4.057   0.463 -0.0915  0.1120 -0.1629
20357WAT     H183233  10.907   4.104   0.383  0.8550 -0.0467 -0.5376
20357WAT     H283234  10.926   4.123   0.532 -0.2457  0.3979 -0.4430
20357WAT    EPW83235  10.926   4.072   0.461  0.0129  0.1290 -0.2493
20358WAT      O83236   3.882   8.367   4.525 -0.1243  0.2372  0.5177
20358WAT     H183237   3.872   8.460   4.547  0.1705  0.6482 -1.0054
20358WAT     H283238   3.922   8.367   4.438 -0.6459 -1.3124  0.2501
20358WAT    EPW83239   3.886   8.379   4.517 -0.1541  0.0868  0.2816
20359WAT      O83240   4.293   8.652   7.334 -0.4989 -0.0532  0.7220
20359WAT     H183241   4.345   8.686   7.407  0.2013 -0.5717  0.4691
20359WAT     H283242   4.323   8.562   7.323 -1.3018 -0.2922  0.4304
20359WAT    EPW83243   4.304   8.645   7.342 -0.5126 -0.1526  0.6504
20360WAT      O83244   1.791   9.951   5.996 -0.8250  0.2100  0.5346
20360WAT     H183245   1.706   9.987   6.021 -1.3712  0.7716 -1.8570
20360WAT     H283246   1.773   9.901   5.916  0.9502 -0.4073  0.4760
20360WAT    EPW83247   1.777   9.949   5.988 -0.6629  0.2031  0.2115
20361WAT      O83248   9.801   0.906   6.436 -0.2875 -0.0484 -0.6575
20361WAT     H183249   9.728   0.864   6.481 -0.2011 -0.1774 -0.6373
20361WAT     H283250   9.841   0.962   6.503 -1.8060  1.8935 -1.2864
20361WAT    EPW83251   9.797   0.908   6.451 -0.4764  0.1907 -0.7379
20362WAT      O83252   7.800   2.490   7.897  0.1626  0.0164 -0.1231
20362WAT     H183253   7.712   2.510   7.931  0.0214 -1.4863  0.4866
20362WAT     H283254   7.842   2.575   7.888 -1.8819  0.9271 -1.9700
20362WAT    EPW83255   7.794   2.504   7.900 -0.1256 -0.0618 -0.2863
20363WAT      O83256   0.054   9.627   4.334  0.0125  0.5100  0.4592
20363WAT     H183257   0.072   9.720   4.345 -2.5710  1.2899 -1.0487
20363WAT     H283258   0.042   9.615   4.240  0.4493 -1.4293  0.5923
20363WAT    EPW83259   0.055   9.638   4.323 -0.2708  0.3572  0.2778
20364WAT      O83260   4.456   9.346   4.328  0.6365  0.4527  0.3471
20364WAT     H183261   4.461   9.325   4.421  0.2358  2.8211  0.9668
20364WAT     H283262   4.366   9.325   4.303  0.5715  0.3739  0.6404
20364WAT    EPW83263   4.445   9.340   4.337  0.5753  0.7544  0.4675
20365WAT      O83264   9.665   2.478   0.497 -0.0830  0.1731  0.4127
20365WAT     H183265   9.662   2.491   0.592 -2.0633  0.3436  0.3781
20365WAT     H283266   9.713   2.396   0.485 -1.4726 -0.9076  1.7391
20365WAT    EPW83267   9.671   2.469   0.508 -0.5279  0.0530  0.5831
20366WAT      O83268   3.417   9.455   5.491 -0.1699 -0.4829  0.6590
20366WAT     H183269   3.408   9.360   5.496  1.2382 -0.6394  0.8270
20366WAT     H283270   3.512   9.469   5.481 -0.1272  0.9659  2.5998
20366WAT    EPW83271   3.429   9.445   5.490  0.0215 -0.3123  0.9370
20367WAT      O83272   6.062   2.177   5.518  0.4143 -0.1648 -0.3598
20367WAT     H183273   6.039   2.125   5.441  1.7538  1.7022 -2.1317
20367WAT     H283274   6.157   2.171   5.523  0.2982 -1.2265  1.9591
20367WAT    EPW83275   6.071   2.169   5.509  0.5755 -0.0585 -0.2880
20368WAT      O83276   3.484   7.431   7.725 -0.1489 -0.2730 -0.5487
20368WAT     H183277   3.417   7.475   7.673  0.1277  0.2730 -0.4539
20368WAT     H283278   3.463   7.338   7.718  0.2734 -0.2687 -2.1921
20368WAT    EPW83279   3.472   7.425   7.717 -0.0567 -0.2005 -0.7527
20369WAT      O83280   5.766   7.199   8.050 -0.8665 -0.5430 -0.1885
20369WAT     H183281   5.685   7.237   8.014 -2.2072 -2.6295  0.4586
20369WAT     H283282   5.742   7.110   8.074  1.7621 -1.3682 -0.3169
20369WAT    EPW83283   5.752   7.192   8.048 -0.6964 -0.9272 -0.1202
20370WAT      O83284   3.545  10.222   8.294 -0.1881 -0.0340 -0.1211
20370WAT     H183285   3.466  10.179   8.261 -0.8976  3.0716 -2.9649
20370WAT     H283286   3.613  10.198   8.232  0.2989 -0.0186  0.4002
20370WAT    EPW83287   3.544  10.213   8.281 -0.2173  0.3777 -0.4272
20371WAT      O83288   4.067   8.840   8.371 -0.5783 -0.4346 -0.4350
20371WAT     H183289   4.110   8.755   8.370  1.5839  0.5933 -1.6183
20371WAT     H283290   4.105   8.888   8.297 -1.1616  1.8293  0.6267
20371WAT    EPW83291   4.077   8.835   8.361 -0.3700 -0.0010 -0.4511
20372WAT      O83292   7.538   1.250   5.476  0.1338  0.4799  0.2034
20372WAT     H183293   7.553   1.221   5.565  0.6080  0.8186  0.2375
20372WAT     H283294   7.618   1.226   5.429 -0.7922 -1.3068 -0.5573
20372WAT    EPW83295   7.551   1.243   5.481  0.0741  0.2889  0.1078
20373WAT      O83296   4.149   8.143   7.345  0.5347  0.7186 -0.2269
20373WAT     H183297   4.094   8.219   7.326  0.2640  1.1834  2.0966
20373WAT     H283298   4.086   8.073   7.364  0.6448  1.2041  2.2625
20373WAT    EPW83299   4.133   8.143   7.345  0.5133  0.8440  0.4082
20374WAT      O83300   1.444   5.022   0.658 -0.2517 -0.5207  0.5365
20374WAT     H183301   1.372   5.081   0.639 -0.2464 -0.8752 -0.6592
20374WAT     H283302   1.509   5.077   0.704 -1.1602 -0.1516  1.4169
20374WAT    EPW83303   1.443   5.037   0.662 -0.3709 -0.5188  0.4949
20375WAT      O83304   1.892   7.517   6.161  0.4714 -0.3305 -0.0408
20375WAT     H183305   1.961   7.466   6.118 -0.8147 -0.1431 -2.4753
20375WAT     H283306   1.936   7.598   6.189  1.2404 -0.1507 -1.6724
20375WAT    EPW83307   1.907   7.521   6.159  0.4032 -0.2825 -0.5772
20376WAT      O83308  10.613   4.475   0.083  0.1439 -0.0329  0.1567
20376WAT     H183309  10.519   4.491   0.087  0.2819  0.7397  0.5088
20376WAT     H283310  10.651   4.561   0.061  1.0061  0.5131  3.2251
20376WAT    EPW83311  10.606   4.489   0.081  0.2756  0.1411  0.6075
20377WAT      O83312   5.114   8.384   6.474  0.8884  0.6105  0.6781
20377WAT     H183313   5.195   8.334   6.474  0.0787 -0.7726  1.4273
20377WAT     H283314   5.142   8.475   6.486  2.2585 -0.0080  2.7275
20377WAT    EPW83315   5.128   8.390   6.476  0.9623  0.3471  1.0471
20378WAT      O83316   7.903   8.196   1.118 -0.2888  0.6580  0.5373
20378WAT     H183317   7.908   8.261   1.188  1.7941 -0.9521  1.9930
20378WAT     H283318   7.911   8.247   1.037 -3.8034  2.6839  1.2604
20378WAT    EPW83319   7.905   8.211   1.116 -0.4778  0.7133  0.8246
20379WAT      O83320   3.550   0.680   6.167 -0.6686 -0.0441 -0.0954
20379WAT     H183321   3.461   0.663   6.136  0.1180 -1.1208 -1.9032
20379WAT     H283322   3.605   0.621   6.116  0.9802 -0.3046  1.8831
20379WAT    EPW83323   3.545   0.670   6.156 -0.3475 -0.2205 -0.0730
20380WAT      O83324   0.756  10.170   7.618 -0.0103 -0.2946 -1.1413
20380WAT     H183325   0.706  10.089   7.627 -0.6203  0.2558  0.8991
20380WAT     H283326   0.689  10.239   7.613  0.2374  0.7464  4.2773
20380WAT    EPW83327   0.741  10.168   7.618 -0.0581 -0.0844 -0.1571
20381WAT      O83328   2.319   8.969   7.908  0.2567 -0.1367  0.2108
20381WAT     H183329   2.235   8.965   7.953  0.6561  0.9641  1.1009
20381WAT     H283330   2.314   9.047   7.854  1.1507  0.6793  1.2514
20381WAT    EPW83331   2.307   8.978   7.907  0.4272  0.1163  0.4654
20382WAT      O83332   3.033   8.015   4.894  0.3754  0.1922  0.0002
20382WAT     H183333   3.084   8.052   4.966 -0.2752  2.0696 -0.4443
20382WAT     H283334   2.942   8.041   4.913  0.1007  0.1157 -1.1126
20382WAT    EPW83335   3.027   8.023   4.906  0.2534  0.4296 -0.2050
20383WAT      O83336   4.547   3.203   6.554 -0.4434  0.4143  0.6976
20383WAT     H183337   4.627   3.236   6.595  3.2738 -3.7859 -2.2192
20383WAT     H283338   4.517   3.133   6.612  2.9176 -3.2839 -1.4626
20383WAT    EPW83339   4.554   3.198   6.567  0.4902 -0.6275  0.0279
20384WAT      O83340   9.259   2.100   3.785 -0.1886  0.2049  0.4923
20384WAT     H183341   9.225   2.113   3.696  1.1336  0.7549  0.0274
20384WAT     H283342   9.212   2.023   3.818 -1.3176  0.5035 -0.3530
20384WAT    EPW83343   9.249   2.092   3.777 -0.1636  0.3170  0.3196
20385WAT      O83344   7.969   0.415   6.855 -0.4498  0.4713  0.0694
20385WAT     H183345   8.031   0.404   6.783 -0.2408 -0.4785  0.3853
20385WAT     H283346   7.892   0.456   6.814 -1.4310 -2.4517 -1.2992
20385WAT    EPW83347   7.967   0.419   6.840 -0.5517 -0.0395 -0.0691
20386WAT      O83348   4.836   0.819   4.832  0.3585  0.6383  0.9896
20386WAT     H183349   4.743   0.796   4.825  0.6890 -0.5018 -0.1410
20386WAT     H283350   4.869   0.813   4.742  1.7988 -0.2305  1.5376
20386WAT    EPW83351   4.828   0.815   4.819  0.5922  0.3733  0.9129
20387WAT      O83352   4.863   9.716   4.756 -0.4081  1.3748 -0.4383
20387WAT     H183353   4.859   9.693   4.664 -0.4484  0.3179 -0.1868
20387WAT     H283354   4.776   9.751   4.777 -1.3077 -0.8699 -0.1900
20387WAT    EPW83355   4.851   9.718   4.747 -0.5322  0.9389 -0.3724
20388WAT      O83356   8.861   3.651   5.024  0.4944  0.4547 -0.6055
20388WAT     H183357   8.944   3.699   5.029  0.3269  0.6695  0.2551
20388WAT     H283358   8.794   3.717   5.038  0.1454  0.3446 -1.6720
20388WAT    EPW83359   8.863   3.666   5.026  0.4268  0.4685 -0.6328
20389WAT      O83360   4.129   7.422   5.646  0.3868 -0.3383 -0.1015
20389WAT     H183361   4.172   7.397   5.564  0.9358  0.7964 -0.1837
20389WAT     H283362   4.182   7.379   5.714 -0.3558 -1.6815 -0.3320
20389WAT    EPW83363   4.142   7.413   5.645  0.3614 -0.3660 -0.1428
20390WAT      O83364   4.902   7.549   8.170  0.3833  0.0829 -0.1786
20390WAT     H183365   4.959   7.477   8.198  0.3417 -1.0067 -2.5817
20390WAT     H283366   4.814   7.514   8.178  0.4125 -1.0349 -3.1636
20390WAT    EPW83367   4.898   7.535   8.175  0.3817 -0.2084 -0.8898
20391WAT      O83368   4.683   8.974   7.801  0.1777  0.4086 -0.3809
20391WAT     H183369   4.606   9.011   7.758 -1.9492 -2.3764  0.6878
20391WAT     H283370   4.696   8.890   7.757  1.6694  0.1565  0.4960
20391WAT    EPW83371   4.674   8.968   7.789  0.0939  0.0081 -0.1242
20392WAT      O83372   2.272   8.639   7.425  0.2638 -0.3510 -0.4046
20392WAT     H183373   2.333   8.631   7.498  0.7113 -0.7227 -0.8130
20392WAT     H283374   2.243   8.550   7.408  0.7760 -0.3769 -1.1930
20392WAT    EPW83375   2.276   8.627   7.432  0.3903 -0.4029 -0.5627
20393WAT      O83376   6.350   9.263   5.965 -0.0236  0.5608 -0.2516
20393WAT     H183377   6.360   9.340   6.020 -0.4799  1.6846 -1.6851
20393WAT     H283378   6.257   9.241   5.971  0.3748 -0.9648  1.4764
20393WAT    EPW83379   6.339   9.270   5.973 -0.0310  0.5083 -0.2127
20394WAT      O83380   2.024   9.774   7.227 -0.4024  0.0478 -0.4353
20394WAT     H183381   2.007   9.837   7.157  1.9442 -1.1529 -2.2388
20394WAT     H283382   2.119   9.777   7.238  0.0207 -3.9882 -1.5408
20394WAT    EPW83383   2.034   9.783   7.219 -0.0371 -0.6428 -0.8190
20395WAT      O83384   1.233   7.043   3.021  0.6061 -0.0799 -0.0290
20395WAT     H183385   1.287   7.119   3.001 -0.1638  0.7677  1.0302
20395WAT     H283386   1.205   7.056   3.111  1.1690 -2.0779  0.4900
20395WAT    EPW83387   1.237   7.055   3.030  0.5788 -0.2320  0.1792
20396WAT      O83388   2.010   8.781   5.194 -0.1972  0.1165 -0.5358
20396WAT     H183389   2.057   8.822   5.121  0.1384  2.4049  0.8783
20396WAT     H283390   1.976   8.855   5.245 -1.1109 -1.4304  1.1889
20396WAT    EPW83391   2.012   8.796   5.191 -0.2735  0.2141 -0.1216
20397WAT      O83392   3.632   7.792   8.209 -0.3116 -0.4897  0.1796
20397WAT     H183393   3.553   7.843   8.194  0.2501 -0.1065 -1.7868
20397WAT     H283394   3.659   7.815   8.298 -1.7633  0.2502  0.4551
20397WAT    EPW83395   3.625   7.801   8.218 -0.4290 -0.3414 -0.0434
20398WAT      O83396   3.995   9.099   6.098 -0.2250  0.6525 -0.1945
20398WAT     H183397   3.980   9.081   6.191 -1.8785 -0.0919 -0.5688
20398WAT     H283398   4.088   9.119   6.093 -0.1887  1.2502  1.6984
20398WAT    EPW83399   4.005   9.099   6.110 -0.4382  0.6328  0.0057
20399WAT      O83400   6.316  10.340   7.137 -0.5375 -0.0819  0.1973
20399WAT     H183401   6.287  10.424   7.100  3.5287  1.3071 -0.2804
20399WAT     H283402   6.290  10.276   7.071 -3.6065  0.6666  0.4937
20399WAT    EPW83403   6.309  10.343   7.124 -0.4063  0.2003  0.1733
20400WAT      O83404   7.941   1.499   6.724  0.4936  0.6575  0.1601
20400WAT     H183405   7.963   1.513   6.632 -0.0332 -0.9534 -0.2525
20400WAT     H283406   7.893   1.577   6.750  0.3144  0.9676 -1.0459
20400WAT    EPW83407   7.938   1.511   6.715  0.4008  0.4859 -0.0536
20401WAT      O83408   2.955   7.445   3.889  0.9840  0.6506  0.0640
20401WAT     H183409   3.005   7.507   3.942  1.5787  0.3438 -0.1332
20401WAT     H283410   2.995   7.450   3.802 -1.4865  2.9710 -1.1097
20401WAT    EPW83411   2.967   7.454   3.884  0.7366  0.9160 -0.1167
20402WAT      O83412   2.378   7.534   8.422  0.3729  0.2931  0.8188
20402WAT     H183413   2.368   7.440   8.407  2.5738  0.3013 -1.3636
20402WAT     H283414   2.341   7.576   8.345  5.0935  0.7616 -1.5250
20402WAT    EPW83415   2.372   7.527   8.410  1.2858  0.3557  0.2217
20403WAT      O83416   8.375   3.196   5.145 -0.3890 -0.1307 -0.0150
20403WAT     H183417   8.337   3.166   5.062  1.2807 -1.3257 -0.3895
20403WAT     H283418   8.449   3.250   5.119 -1.2977  1.5565  0.7170
20403WAT    EPW83419   8.379   3.199   5.130 -0.2885 -0.0657  0.0319
20404WAT      O83420   4.235   7.466   8.124  0.8569  0.3027 -0.1932
20404WAT     H183421   4.255   7.384   8.169  2.2136 -0.3602 -1.8548
20404WAT     H283422   4.217   7.439   8.034 -5.3632  1.1191  0.3983
20404WAT    EPW83423   4.236   7.452   8.118  0.2155  0.3228 -0.3343
20405WAT      O83424   1.185   8.068   2.743 -0.1385  0.0931 -0.0389
20405WAT     H183425   1.248   7.998   2.727  2.1682  2.2855 -1.4016
20405WAT     H283426   1.148   8.087   2.657 -0.8080  0.4583  0.3252
20405WAT    EPW83427   1.189   8.061   2.730  0.0775  0.4301 -0.1708
20406WAT      O83428   1.226   3.794   0.241 -0.4419 -0.0526 -0.4349
20406WAT     H183429   1.295   3.815   0.178  1.7860 -2.0719  1.1531
20406WAT     H283430   1.172   3.729   0.196 -1.1337  1.2226 -1.5327
20406WAT    EPW83431   1.228   3.788   0.227 -0.2393 -0.1508 -0.3702
20407WAT      O83432   5.106  10.190   4.795 -0.5560  0.8071 -0.5060
20407WAT     H183433   5.194  10.204   4.760  0.6854 -2.4940  0.9133
20407WAT     H283434   5.062  10.137   4.728 -0.4059 -0.0439  0.0556
20407WAT    EPW83435   5.112  10.185   4.781 -0.3724  0.2594 -0.2449
20408WAT      O83436  10.843   1.998   0.499  0.2627 -0.0973 -0.0094
20408WAT     H183437  10.776   1.954   0.552  2.6554 -3.1802  0.7318
20408WAT     H283438  10.857   1.939   0.425  3.0695 -0.3432  0.6161
20408WAT    EPW83439  10.836   1.984   0.496  0.9489 -0.5363  0.1709
20409WAT      O83440   0.633   7.740   6.131  0.1268 -0.3939  1.3020
20409WAT     H183441   0.558   7.787   6.095 -1.2275 -2.5155  1.1695
20409WAT     H283442   0.704   7.805   6.131 -0.3947  0.5149 -2.8851
20409WAT    EPW83443   0.632   7.755   6.126 -0.1206 -0.5541  0.7322
20410WAT      O83444   6.732   1.625   6.514 -0.6059  0.0682  0.0941
20410WAT     H183445   6.809   1.570   6.519 -0.8338 -0.1814  0.9961
20410WAT     H283446   6.732   1.675   6.596 -0.0673  1.8740 -0.9393
20410WAT    EPW83447   6.742   1.625   6.525 -0.5648  0.2735  0.0768
20411WAT      O83448   7.871   3.800   1.492 -0.1912 -0.4270  0.4761
20411WAT     H183449   7.959   3.809   1.530 -0.5651 -1.5605  1.6787
20411WAT     H283450   7.820   3.869   1.534  0.5541  1.6322 -1.7724
20411WAT    EPW83451   7.876   3.810   1.503 -0.1419 -0.3049  0.3382
20412WAT      O83452   2.873   8.441   7.392 -0.2648 -0.6343 -0.3584
20412WAT     H183453   2.905   8.366   7.442 -0.2790 -0.2776  0.2031
20412WAT     H283454   2.801   8.475   7.445 -0.3237 -0.2871 -0.6617
20412WAT    EPW83455   2.867   8.436   7.406 -0.2744 -0.5417 -0.3242
20413WAT      O83456   6.272   0.085   7.702  0.5335 -1.0099 -0.0074
20413WAT     H183457   6.229   0.031   7.635  0.0938 -0.3640 -0.2501
20413WAT     H283458   6.203   0.100   7.767  0.6273 -0.6668  0.0131
20413WAT    EPW83459   6.257   0.079   7.702  0.4880 -0.8795 -0.0370
20414WAT      O83460   5.534   9.727   3.825 -0.6835  0.3131  0.0844
20414WAT     H183461   5.596   9.680   3.769 -1.1765  2.0599 -2.0708
20414WAT     H283462   5.559   9.703   3.914  0.4922 -2.1755 -0.8308
20414WAT    EPW83463   5.546   9.718   3.829 -0.5937  0.2155 -0.3207
20415WAT      O83464   7.063   8.555   7.125 -0.3691  0.3739  0.4411
20415WAT     H183465   6.992   8.492   7.121  1.7066 -2.1379  0.2981
20415WAT     H283466   7.085   8.560   7.219 -0.9396  1.4290  0.5314
20415WAT    EPW83467   7.057   8.548   7.137 -0.1707  0.1817  0.4342
20416WAT      O83468   7.573   1.324   6.383  0.1310  0.2013  0.1509
20416WAT     H183469   7.520   1.359   6.454 -0.2811 -0.2369  0.0578
20416WAT     H283470   7.560   1.386   6.311  0.5746  0.6653  0.4542
20416WAT    EPW83471   7.565   1.337   6.383  0.1352  0.2048  0.1783
20417WAT      O83472   7.569   3.292   4.795  0.2196 -0.3323  0.0165
20417WAT     H183473   7.503   3.223   4.795  1.3577 -1.6223 -3.3015
20417WAT     H283474   7.519   3.373   4.808 -1.4985 -1.5282  1.2988
20417WAT    EPW83475   7.554   3.293   4.797  0.1428 -0.6602 -0.2522
20418WAT      O83476   5.305   6.897   6.704  0.2740 -0.3212  0.2998
20418WAT     H183477   5.212   6.915   6.688  0.4377  0.4316  0.1585
20418WAT     H283478   5.305   6.832   6.774 -0.3619 -0.4136  0.2243
20418WAT    EPW83479   5.293   6.890   6.711  0.2117 -0.2339  0.2713
20419WAT      O83480   3.984   6.119   5.142  0.3236 -0.0240 -0.0239
20419WAT     H183481   4.045   6.131   5.214 -0.5098 -1.1556  0.9015
20419WAT     H283482   3.960   6.026   5.145 -2.7083  0.6606  0.7103
20419WAT    EPW83483   3.989   6.108   5.152 -0.1861 -0.0830  0.1950
20420WAT      O83484   3.091   9.287   3.617 -0.7967 -0.2103  0.0964
20420WAT     H183485   3.108   9.316   3.707 -2.2066  0.3994  0.1889
20420WAT     H283486   3.053   9.200   3.627 -0.2207 -0.4713  0.0384
20420WAT    EPW83487   3.088   9.280   3.630 -0.9067 -0.1640  0.1009
20421WAT      O83488   2.664   9.732   7.428 -0.6632  0.0882 -0.2812
20421WAT     H183489   2.641   9.801   7.365  2.0119  0.3132 -1.1692
20421WAT     H283490   2.678   9.654   7.374 -0.5847 -0.3221  0.3276
20421WAT    EPW83491   2.663   9.731   7.413 -0.2998  0.0639 -0.3178
20422WAT      O83492   8.186   0.488   3.062  0.6490 -0.5576  0.1864
20422WAT     H183493   8.212   0.412   3.009  0.5356 -1.1015  0.8983
20422WAT     H283494   8.091   0.481   3.068  0.5995 -0.1384 -0.0620
20422WAT    EPW83495   8.177   0.477   3.056  0.6275 -0.5740  0.2476
20423WAT      O83496   3.304   7.935   6.397  0.1071 -0.0656 -0.3863
20423WAT     H183497   3.306   7.913   6.490 -0.4614  0.8798 -0.1427
20423WAT     H283498   3.218   7.906   6.367 -0.0437  0.4127 -0.4190
20423WAT    EPW83499   3.293   7.928   6.406  0.0122  0.1218 -0.3586
20424WAT      O83500   6.381   0.364   8.600 -0.0097 -0.0472 -0.5008
20424WAT     H183501   6.381   0.275   8.566  2.1993 -0.1665 -0.3096
20424WAT     H283502   6.301   0.403   8.564 -0.7703 -1.9242 -0.9841
20424WAT    EPW83503   6.370   0.357   8.591  0.1812 -0.3105 -0.5393
20425WAT      O83504   2.483   9.221   4.880  0.0970  0.6993  0.6408
20425WAT     H183505   2.516   9.218   4.790 -0.8312  0.0546  0.3053
20425WAT     H283506   2.551   9.181   4.933  0.0698 -0.1800  0.0279
20425WAT    EPW83507   2.496   9.216   4.875 -0.0290  0.4983  0.5157
20426WAT      O83508   4.516   8.960   6.134  0.0363 -0.5228  0.3086
20426WAT     H183509   4.526   8.878   6.085 -0.2689 -1.1255  1.2246
20426WAT     H283510   4.598   8.970   6.180  0.0987 -0.2697  0.1424
20426WAT    EPW83511   4.528   8.950   6.133  0.0043 -0.5684  0.4075
20427WAT      O83512   2.839   7.068   7.163  0.1039 -0.0215 -0.1047
20427WAT     H183513   2.846   7.053   7.258  1.1759 -1.3888 -0.3656
20427WAT     H283514   2.745   7.076   7.147 -0.2670 -1.8959  0.8104
20427WAT    EPW83515   2.828   7.067   7.174  0.1965 -0.4489 -0.0184
20428WAT      O83516   3.256   9.539   5.879 -0.0590  0.3888  0.2254
20428WAT     H183517   3.167   9.534   5.913  0.1715  0.0919  0.7962
20428WAT     H283518   3.279   9.449   5.859 -0.4821  0.6224 -1.5286
20428WAT    EPW83519   3.247   9.527   5.881 -0.0844  0.3805  0.0694
20429WAT      O83520   5.669   1.799   2.561 -0.4816 -0.0142 -0.4045
20429WAT     H183521   5.589   1.823   2.607 -2.2420 -3.6080 -1.2380
20429WAT     H283522   5.730   1.776   2.631 -0.8431  0.8361  0.2086
20429WAT    EPW83523   5.667   1.799   2.576 -0.7613 -0.3760 -0.4337
20430WAT      O83524   0.750   2.380   0.030  0.4710 -0.4021 -0.0622
20430WAT     H183525   0.698   2.352   0.105 -1.4288  0.2218 -1.0835
20430WAT     H283526   0.799   2.302   0.004  2.3596 -0.2817  2.6600
20430WAT    EPW83527   0.749   2.366   0.036  0.4695 -0.3040  0.1622
20431WAT      O83528   1.232   7.024   8.116 -0.3369  0.2213 -0.1346
20431WAT     H183529   1.197   6.997   8.201  1.8348  1.0769  1.1213
20431WAT     H283530   1.159   7.065   8.071 -2.1755 -2.3091  0.3150
20431WAT    EPW83531   1.218   7.026   8.122 -0.2930  0.0002  0.0906
20432WAT      O83532   0.530  10.164   3.332  0.8752 -0.0205 -0.8881
20432WAT     H183533   0.614  10.209   3.338  0.9035 -0.1631 -0.1987
20432WAT     H283534   0.471  10.215   3.387  1.4142 -1.9758  1.6861
20432WAT    EPW83535   0.533  10.177   3.340  0.9500 -0.2971 -0.4576
20433WAT      O83536   8.266   3.857   0.021 -0.0296 -0.5071 -0.6301
20433WAT     H183537   8.326   3.822   0.087 -1.1232  1.9064  1.8095
20433WAT     H283538   8.209   3.783   0.000  1.1202 -1.6679  0.1670
20433WAT    EPW83539   8.266   3.842   0.027 -0.0224 -0.3420 -0.2032
20434WAT      O83540   1.546   3.849   0.708 -0.1035 -0.2113 -0.2640
20434WAT     H183541   1.549   3.902   0.629  1.0476 -0.5381 -0.4554
20434WAT     H283542   1.517   3.763   0.678  0.5416 -0.3929 -0.3594
20434WAT    EPW83543   1.542   3.844   0.694  0.1333 -0.2784 -0.3018
20435WAT      O83544   4.132   1.289   2.833  0.1337 -0.8836  0.2213
20435WAT     H183545   4.087   1.305   2.916  1.3895 -1.6201  1.0819
20435WAT     H283546   4.224   1.283   2.857  0.3885 -2.5161 -1.0059
20435WAT    EPW83547   4.138   1.290   2.848  0.3328 -1.1961  0.1730
20436WAT      O83548   4.770   7.759   5.494  0.6067  0.0746  0.4280
20436WAT     H183549   4.718   7.784   5.571 -2.4016  3.1098 -2.2390
20436WAT     H283550   4.844   7.819   5.495  0.6136  0.0647  0.9674
20436WAT    EPW83551   4.773   7.771   5.504  0.2108  0.4733  0.1476
20437WAT      O83552   3.346   9.332   7.351 -0.4116  0.5833  0.4227
20437WAT     H183553   3.311   9.243   7.342  3.7221 -1.0953 -2.8600
20437WAT     H283554   3.313   9.378   7.273  0.9787  0.4243 -0.2785
20437WAT    EPW83555   3.337   9.326   7.339  0.3169  0.3409 -0.1028
20438WAT      O83556   1.707   7.205   8.832  0.1311 -0.4750 -0.1310
20438WAT     H183557   1.736   7.184   8.921  0.7489  0.5169 -0.0810
20438WAT     H283558   1.681   7.121   8.795  0.7245 -1.0361  0.6838
20438WAT    EPW83559   1.707   7.191   8.839  0.2908 -0.4184 -0.0167
20439WAT      O83560   7.841   2.348   6.742 -0.3700 -0.6469  0.1189
20439WAT     H183561   7.775   2.320   6.806 -0.4033 -0.5469  0.1287
20439WAT     H283562   7.913   2.383   6.795 -0.4633 -0.4210  0.0987
20439WAT    EPW83563   7.842   2.349   6.757 -0.3867 -0.6038  0.1175
20440WAT      O83564   8.827   0.915   7.255 -0.1705 -0.5872 -0.4669
20440WAT     H183565   8.755   0.977   7.269  0.1307 -0.0626 -1.2032
20440WAT     H283566   8.823   0.856   7.331 -0.7013  0.0931  0.0421
20440WAT    EPW83567   8.817   0.915   7.267 -0.2007 -0.4283 -0.4966
20441WAT      O83568   2.404   8.564   5.563 -0.4540 -0.2130 -0.4295
20441WAT     H183569   2.440   8.583   5.476 -0.2747  0.7822 -0.1534
20441WAT     H283570   2.478   8.524   5.610 -0.0202  0.7936 -0.2201
20441WAT    EPW83571   2.419   8.561   5.557 -0.3731  0.0510 -0.3657
20442WAT      O83572   3.048   9.973   4.340 -0.2122 -0.3604 -0.4529
20442WAT     H183573   3.065  10.033   4.413 -0.3495 -1.5762  0.6006
20442WAT     H283574   2.957   9.990   4.317 -0.4891 -0.6995  0.3574
20442WAT    EPW83575   3.038   9.983   4.347 -0.2669 -0.5651 -0.2069
20443WAT      O83576   2.622   8.366   5.574 -0.7440 -0.0438 -0.3118
20443WAT     H183577   2.594   8.278   5.600 -0.8834  0.2054  0.3765
20443WAT     H283578   2.582   8.378   5.488  0.9615 -1.4638 -1.3821
20443WAT    EPW83579   2.613   8.356   5.566 -0.5374 -0.1979 -0.3622
20444WAT      O83580   9.634   3.450   4.568  0.5743 -0.4324  0.8355
20444WAT     H183581   9.564   3.394   4.600  0.4847 -2.3115 -2.2506
20444WAT     H283582   9.619   3.455   4.474  2.5336  2.1415  0.5483
20444WAT    EPW83583   9.623   3.443   4.560  0.8211 -0.3407  0.3905
20445WAT      O83584   3.384   9.039   6.041 -0.0706 -0.5792 -0.8238
20445WAT     H183585   3.316   9.104   6.058  1.5545  0.8783  0.6018
20445WAT     H283586   3.406   9.004   6.128 -1.2231 -3.4895 -1.5952
20445WAT    EPW83587   3.378   9.043   6.055 -0.0083 -0.7710 -0.7374
20446WAT      O83588   6.282   0.834   3.325 -0.1315 -0.3629  0.5662
20446WAT     H183589   6.322   0.814   3.241  0.4443 -1.6835  1.1145
20446WAT     H283590   6.355   0.863   3.380 -0.6629  1.4694  0.3479
20446WAT    EPW83591   6.297   0.835   3.321 -0.1254 -0.2954  0.6098
20447WAT      O83592   0.455   3.936   0.603  0.4121 -0.3586  0.3712
20447WAT     H183593   0.484   3.980   0.523 -2.2831  0.7672 -0.0980
20447WAT     H283594   0.442   4.007   0.666 -1.3615 -0.7247  0.4741
20447WAT    EPW83595   0.457   3.951   0.601 -0.1773 -0.2583  0.3228
20448WAT      O83596   0.694   9.661   6.283  0.0743 -0.3526 -0.3552
20448WAT     H183597   0.703   9.611   6.364 -0.4584 -0.0225 -0.0845
20448WAT     H283598   0.620   9.720   6.300 -1.6170 -1.8878 -1.8933
20448WAT    EPW83599   0.685   9.662   6.296 -0.2190 -0.5121 -0.5226
20449WAT      O83600   6.198   0.166   3.651 -0.4193 -0.4546 -0.2466
20449WAT     H183601   6.235   0.232   3.710 -1.0419  0.6040 -0.9997
20449WAT     H283602   6.269   0.103   3.637 -0.2373 -0.6757  1.5331
20449WAT    EPW83603   6.213   0.166   3.657 -0.4773 -0.3441 -0.1111
20450WAT      O83604   3.708   9.631   6.205 -0.4059 -0.2966 -0.3475
20450WAT     H183605   3.631   9.687   6.195 -0.6421 -0.6098 -0.3003
20450WAT     H283606   3.696   9.561   6.140 -0.7953 -1.0477  0.5095
20450WAT    EPW83607   3.696   9.629   6.195 -0.4885 -0.4368 -0.2282
20451WAT      O83608   4.462   9.872   5.615  0.1833  0.1288  0.1155
20451WAT     H183609   4.421   9.786   5.623  3.4341 -1.3766  3.5813
20451WAT     H283610   4.425   9.908   5.535 -3.4537 -3.2554 -0.0488
20451WAT    EPW83611   4.452   9.865   5.605  0.1323 -0.5159  0.5512
20452WAT      O83612   3.832   9.922   4.770  1.2733 -0.4604 -0.4590
20452WAT     H183613   3.873  10.005   4.745 -0.0083  0.1317 -0.7000
20452WAT     H283614   3.902   9.871   4.810  2.1231  0.6796 -0.4579
20452WAT    EPW83615   3.847   9.926   4.772  1.2163 -0.2322 -0.4909
20453WAT      O83616   3.599   6.757   4.121 -0.4237 -0.1713 -0.2109
20453WAT     H183617   3.544   6.687   4.156  0.2074 -0.0970  0.9748
20453WAT     H283618   3.564   6.837   4.161 -1.6138  0.3252 -2.1258
20453WAT    EPW83619   3.587   6.759   4.131 -0.4975 -0.0963 -0.3071
20454WAT      O83620   7.709  10.178   6.489 -0.1780  0.5871  0.1991
20454WAT     H183621   7.749  10.248   6.540 -0.6162  1.1443 -0.2202
20454WAT     H283622   7.622  10.210   6.467 -0.6059 -0.3406  0.5136
20454WAT    EPW83623   7.703  10.191   6.493 -0.2923  0.5383  0.1853
20455WAT      O83624  10.331   0.986   2.033 -0.3856 -0.2189  0.2759
20455WAT     H183625  10.329   1.061   1.974 -0.6473  0.7065  1.4353
20455WAT     H283626  10.248   0.941   2.017 -0.2726 -0.2051 -0.3515
20455WAT    EPW83627  10.319   0.990   2.023 -0.4048 -0.0950  0.3462
20456WAT      O83628   7.951   1.169   6.568 -0.2372 -0.5302 -0.7973
20456WAT     H183629   7.879   1.227   6.594 -0.3922 -0.9651 -0.2262
20456WAT     H283630   7.912   1.082   6.568  0.9524 -1.1994  2.4462
20456WAT    EPW83631   7.936   1.165   6.572 -0.1006 -0.6759 -0.2942
20457WAT      O83632   5.089   0.757   7.098 -0.7040 -0.3346 -0.1523
20457WAT     H183633   5.128   0.725   7.180  2.0118 -0.2143 -1.3002
20457WAT     H283634   5.127   0.844   7.086 -2.5925  0.4786 -0.6036
20457WAT    EPW83635   5.099   0.764   7.107 -0.5953 -0.2115 -0.3633
20458WAT      O83636   3.092   8.165   4.645 -0.6953  0.3391  0.7135
20458WAT     H183637   3.042   8.125   4.574 -1.5190 -0.0686  1.5085
20458WAT     H283638   3.067   8.115   4.723  0.8149  0.2339  1.1641
20458WAT    EPW83639   3.082   8.153   4.646 -0.6049  0.2713  0.8779
20459WAT      O83640   7.506   0.937   5.094 -0.2025 -0.2952  0.8997
20459WAT     H183641   7.419   0.975   5.083  0.2743  0.5202 -0.1867
20459WAT     H283642   7.517   0.879   5.018  0.2628 -0.2611  0.9358
20459WAT    EPW83643   7.496   0.934   5.082 -0.0782 -0.1831  0.7613
20460WAT      O83644   4.224   8.200   5.180  0.3469 -0.0138 -0.1715
20460WAT     H183645   4.273   8.213   5.262 -1.5676  1.3567  0.8393
20460WAT     H283646   4.174   8.281   5.169 -0.1322 -0.5379 -2.2514
20460WAT    EPW83647   4.224   8.213   5.190  0.0315  0.0978 -0.3128
20461WAT      O83648   6.134   0.010   8.575 -0.5916  0.1792  0.7574
20461WAT     H183649   6.156  -0.081   8.560 -1.6647  0.0625 -0.3120
20461WAT     H283650   6.053   0.007   8.627  0.1322  0.5488  1.9345
20461WAT    EPW83651   6.126  -0.002   8.580 -0.6380  0.2127  0.7720
20462WAT      O83652   8.949   2.042   8.913  0.1678  0.2041  1.0544
20462WAT     H183653   8.983   2.043   8.823 -0.6316 -0.6451  0.7377
20462WAT     H283654   8.977   2.126   8.949  2.2342 -0.2648  0.6704
20462WAT    EPW83655   8.957   2.053   8.906  0.3352  0.0303  0.9623
20463WAT      O83656   1.628   3.707   0.366  0.4095 -0.3272 -0.3169
20463WAT     H183657   1.702   3.673   0.316 -0.0414 -1.2707 -0.3535
20463WAT     H283658   1.579   3.759   0.302 -0.4025 -1.8813 -1.0045
20463WAT    EPW83659   1.631   3.710   0.351  0.2429 -0.6567 -0.4124
20464WAT      O83660   7.510   1.347   4.181 -0.7492 -0.3216 -0.4632
20464WAT     H183661   7.550   1.434   4.185  0.5118 -0.7378 -2.5463
20464WAT     H283662   7.432   1.359   4.126 -0.2304 -0.6065 -1.2731
20464WAT    EPW83663   7.505   1.360   4.174 -0.5143 -0.4141 -0.8450
20465WAT      O83664   6.329   0.033   6.851  0.1306 -0.2143  0.1063
20465WAT     H183665   6.344   0.025   6.756  1.4024 -2.5905  0.4286
20465WAT     H283666   6.242  -0.003   6.864 -0.2497  0.5789 -0.2059
20465WAT    EPW83667   6.320   0.027   6.840  0.2482 -0.4234  0.1075
20466WAT      O83668   8.390   8.354   8.080 -0.0817  0.0763  0.8293
20466WAT     H183669   8.483   8.361   8.102  0.0330  0.9072  0.1765
20466WAT     H283670   8.357   8.281   8.132  1.4669 -1.7860 -0.6488
20466WAT    EPW83671   8.398   8.346   8.090  0.1373 -0.0601  0.5479
20467WAT      O83672   2.010   9.614   5.630  0.7052 -0.0711  0.1163
20467WAT     H183673   2.056   9.571   5.702  1.7429  1.2876  0.3145
20467WAT     H283674   1.936   9.658   5.672  0.2770 -0.7236  0.0690
20467WAT    EPW83675   2.007   9.614   5.645  0.7856  0.0224  0.1364
20468WAT      O83676   3.616   8.659   7.722  0.8786 -0.4548 -0.5274
20468WAT     H183677   3.642   8.687   7.635  0.8707 -3.2547 -1.5494
20468WAT     H283678   3.694   8.670   7.776  1.2631  0.1288 -1.1893
20468WAT    EPW83679   3.630   8.664   7.718  0.9283 -0.7472 -0.7493
20469WAT      O83680   9.843   3.131   1.647  0.5752  0.3647 -0.3453
20469WAT     H183681   9.908   3.199   1.664 -1.4537  2.2835  0.2356
20469WAT     H283682   9.852   3.111   1.554  3.2030 -0.8415  0.0785
20469WAT    EPW83683   9.853   3.137   1.637  0.6542  0.4588 -0.2128
20470WAT      O83684   2.378   7.143   8.560  0.0644  0.2715  0.7452
20470WAT     H183685   2.433   7.161   8.484 -0.6334  0.3022  0.2271
20470WAT     H283686   2.345   7.054   8.545 -1.3977  0.8714  0.1341
20470WAT    EPW83687   2.381   7.134   8.548 -0.2205  0.3548  0.5965
20471WAT      O83688   0.975   3.685   0.137  0.4392 -1.4143 -0.0110
20471WAT     H183689   0.961   3.755   0.200  3.8347  2.2603 -2.8550
20471WAT     H283690   0.929   3.609   0.175 -1.6554  1.6291  4.3925
20471WAT    EPW83691   0.967   3.684   0.150  0.6108 -0.5283  0.1947
20472WAT      O83692   6.874   0.229   6.480 -0.1623  0.5816 -0.2778
20472WAT     H183693   6.951   0.253   6.428  0.5498 -1.4393 -0.2829
20472WAT     H283694   6.868   0.296   6.547  2.1458  0.3817  0.2275
20472WAT    EPW83695   6.883   0.241   6.482  0.2360  0.2887 -0.2117
20473WAT      O83696   8.683   0.617   3.812  0.2518 -0.5742  0.6496
20473WAT     H183697   8.766   0.609   3.766  2.1028 -2.2832  3.9504
20473WAT     H283698   8.623   0.561   3.762  0.4292  1.9165 -2.7173
20473WAT    EPW83699   8.686   0.609   3.799  0.5198 -0.4711  0.6409
20474WAT      O83700   4.002   8.146   5.583  0.4234  0.3469  0.2331
20474WAT     H183701   3.917   8.179   5.609  0.0287 -1.8783  2.1269
20474WAT     H283702   3.987   8.102   5.499  0.7731  3.8159 -1.8178
20474WAT    EPW83703   3.989   8.144   5.575  0.4176  0.5107  0.2124
20475WAT      O83704   6.431   0.249   5.020  0.6260  0.4470  0.0558
20475WAT     H183705   6.462   0.328   5.065  4.1377  0.4996 -2.1381
20475WAT     H283706   6.486   0.242   4.942  0.2798 -4.0172 -0.0451
20475WAT    EPW83707   6.442   0.259   5.016  1.0436 -0.1349 -0.2468
20476WAT      O83708   0.337   7.470   8.293  0.5606  0.0665  1.1269
20476WAT     H183709   0.375   7.496   8.209 -1.1682  0.5406  0.4331
20476WAT     H283710   0.345   7.548   8.348 -0.6675  0.6860  0.4901
20476WAT    EPW83711   0.343   7.484   8.289  0.1706  0.2108  0.9513
20477WAT      O83712   4.946   7.859   7.251 -0.0109  0.4038 -0.2450
20477WAT     H183713   4.937   7.919   7.177 -0.3613 -0.2754 -0.7608
20477WAT     H283714   4.924   7.912   7.327 -0.7743  0.8161 -0.7363
20477WAT    EPW83715   4.942   7.874   7.251 -0.1581  0.3686 -0.3779
20478WAT      O83716   4.070   8.536   6.030 -0.7842 -0.3227 -0.3281
20478WAT     H183717   4.126   8.611   6.009  1.9444 -1.6727  1.5766
20478WAT     H283718   4.032   8.559   6.116 -1.1328 -0.5009 -0.4352
20478WAT    EPW83719   4.072   8.549   6.039 -0.4704 -0.5240 -0.0908
20479WAT      O83720   2.217   8.375   7.469  0.5388 -0.1059 -0.3752
20479WAT     H183721   2.244   8.353   7.558 -1.9332 -0.5604  0.3420
20479WAT     H283722   2.230   8.294   7.419 -0.5395 -0.6971  0.2506
20479WAT    EPW83723   2.222   8.361   7.474  0.0705 -0.2441 -0.1981
20480WAT      O83724   0.960   5.764   2.444 -0.3450  0.6498  0.6708
20480WAT     H183725   0.879   5.804   2.412 -1.2485 -1.4049  0.2077
20480WAT     H283726   0.962   5.783   2.537 -0.6993  1.7994  0.4495
20480WAT    EPW83727   0.950   5.772   2.452 -0.5109  0.5305  0.5807
20481WAT      O83728   1.939   9.568   7.560  0.7158 -0.7953  0.7988
20481WAT     H183729   1.987   9.531   7.486  3.1771  0.1393  1.8254
20481WAT     H283730   1.895   9.645   7.524 -0.0798 -1.6708 -0.1721
20481WAT    EPW83731   1.939   9.573   7.545  0.9356 -0.7882  0.8061
20482WAT      O83732   9.184   7.556   5.690  0.2330  0.4870 -0.1182
20482WAT     H183733   9.200   7.650   5.677 -0.5304  0.7310  0.5933
20482WAT     H283734   9.117   7.553   5.758  1.4297 -0.6033  1.0771
20482WAT    EPW83735   9.177   7.568   5.698  0.2904  0.3755  0.1335
20483WAT      O83736   7.266   7.554   4.680 -0.2941 -0.5379 -1.0123
20483WAT     H183737   7.249   7.535   4.587 -0.9171 -0.3352 -0.9476
20483WAT     H283738   7.275   7.649   4.684 -0.5997 -0.5151 -0.8177
20483WAT    EPW83739   7.265   7.564   4.668 -0.4168 -0.5083 -0.9782
20484WAT      O83740   4.838   1.644   6.259  0.0500  0.1901  0.0532
20484WAT     H183741   4.845   1.739   6.265 -1.0674  0.2890  0.1187
20484WAT     H283742   4.749   1.625   6.289  0.4456 -0.9294  0.5852
20484WAT    EPW83743   4.827   1.654   6.264 -0.0453  0.0556  0.1321
20485WAT      O83744   7.593   1.154   5.720  0.2592  0.0549 -0.4337
20485WAT     H183745   7.663   1.097   5.687  0.5182 -0.8399  1.4901
20485WAT     H283746   7.638   1.235   5.744  0.0219  0.8233 -2.4286
20485WAT    EPW83747   7.608   1.157   5.719  0.2620  0.0383 -0.4432
20486WAT      O83748  10.463   4.878   0.583 -0.8048 -0.0776  0.1896
20486WAT     H183749  10.491   4.786   0.579 -0.7424 -0.0992  0.9690
20486WAT     H283750  10.545   4.927   0.592 -0.8213  0.0774 -0.4678
20486WAT    EPW83751  10.478   4.872   0.583 -0.7982 -0.0598  0.2057
20487WAT      O83752   9.568   4.357   1.129  0.4240 -0.6067  0.0821
20487WAT     H183753   9.580   4.269   1.165 -3.7303 -0.9442  1.2256
20487WAT     H283754   9.565   4.414   1.206  0.0189  0.0390 -0.3972
20487WAT    EPW83755   9.569   4.353   1.144 -0.1769 -0.5660  0.1696
20488WAT      O83756   1.906   5.031   1.127  0.1960  0.1557 -0.5032
20488WAT     H183757   1.831   5.052   1.071 -0.1424  1.2562  0.3277
20488WAT     H283758   1.870   5.030   1.215  0.3838 -3.1393 -0.3338
20488WAT    EPW83759   1.891   5.034   1.131  0.1762 -0.1338 -0.3713
20489WAT      O83760   7.023   3.597   6.449 -0.3961  0.3871 -0.4530
20489WAT     H183761   6.957   3.666   6.461 -1.8672 -0.5756 -2.3986
20489WAT     H283762   7.013   3.541   6.526 -1.7299  0.4172 -0.5661
20489WAT    EPW83763   7.013   3.599   6.460 -0.7660  0.2642 -0.7243
20490WAT      O83764   5.111   7.368   8.155  0.3698 -0.3648 -0.1527
20490WAT     H183765   5.163   7.370   8.236  0.5302 -2.2070 -0.1660
20490WAT     H283766   5.169   7.404   8.088  0.0733  1.6219  0.5996
20490WAT    EPW83767   5.125   7.373   8.157  0.3519 -0.3459 -0.0548
20491WAT      O83768   6.273   0.843   8.726  0.4351  0.3823 -0.1413
20491WAT     H183769   6.272   0.884   8.812  1.6627  0.3551 -0.0886
20491WAT     H283770   6.227   0.905   8.669 -1.3961 -0.1251  0.7232
20491WAT    EPW83771   6.267   0.857   8.730  0.3555  0.3118 -0.0205
20492WAT      O83772   4.222   7.327   4.049  0.3737 -0.6854 -0.1885
20492WAT     H183773   4.276   7.395   4.009 -0.3005  0.7024  1.1636
20492WAT     H283774   4.153   7.311   3.984  2.3417 -2.5601 -1.9796
20492WAT    EPW83775   4.220   7.334   4.035  0.5443 -0.7496 -0.2463
20493WAT      O83776   5.078   7.339   5.960 -0.3392  0.2537  0.8620
20493WAT     H183777   5.111   7.272   5.900  0.3239  1.5184 -0.2669
20493WAT     H283778   4.997   7.369   5.919 -3.1418 -2.8175  3.6127
20493WAT    EPW83779   5.072   7.334   5.946 -0.6216  0.0153  1.0757
20494WAT      O83780   1.734   9.860   3.810 -0.5129  0.2859 -0.1052
20494WAT     H183781   1.822   9.896   3.818  0.1371 -1.2877  0.1474
20494WAT     H283782   1.692   9.881   3.894  0.7994 -1.8675  1.2043
20494WAT    EPW83783   1.740   9.867   3.822 -0.2540 -0.2060  0.1009
20495WAT      O83784   3.382   6.112   4.213 -0.9249 -0.1721 -0.3206
20495WAT     H183785   3.432   6.032   4.231  1.0966  0.5460 -2.3325
20495WAT     H283786   3.336   6.094   4.131 -1.8472  0.1490  0.1119
20495WAT    EPW83787   3.382   6.099   4.205 -0.7799 -0.0350 -0.5288
20496WAT      O83788   5.309   9.923   8.700 -0.5611  0.0670 -0.6402
20496WAT     H183789   5.270   9.882   8.778  1.4530 -2.2479 -0.7506
20496WAT     H283790   5.403   9.922   8.717  0.0558 -1.5375 -3.5125
20496WAT    EPW83791   5.316   9.918   8.713 -0.2139 -0.4497 -1.0338
20497WAT      O83792   6.442   7.010   6.036  0.5727  0.3794  0.3914
20497WAT     H183793   6.365   7.010   6.092  0.4121  1.6016  0.1921
20497WAT     H283794   6.412   7.047   5.953  1.2126  0.2027  0.0695
20497WAT    EPW83795   6.428   7.015   6.032  0.6359  0.5174  0.3228
20498WAT      O83796   4.279   9.146   8.543  0.6846 -0.3524  0.0101
20498WAT     H183797   4.291   9.052   8.556 -0.7759 -0.4374  0.9633
20498WAT     H283798   4.186   9.156   8.523  0.6533  0.9602  0.6765
20498WAT    EPW83799   4.268   9.135   8.542  0.4880 -0.1903  0.2236
20499WAT      O83800   6.997   4.298   4.623  0.0026  0.0318 -0.3848
20499WAT     H183801   6.905   4.292   4.648 -1.1655 -0.5793 -4.1557
20499WAT     H283802   7.014   4.392   4.619 -0.6406  0.1628 -0.2620
20499WAT    EPW83803   6.987   4.310   4.626 -0.2363 -0.0315 -0.8659
20500WAT      O83804  10.222   3.031   5.580  0.3687  0.0296 -1.0875
20500WAT     H183805  10.200   2.938   5.577  2.2829 -0.4839 -0.5137
20500WAT     H283806  10.318   3.033   5.573  0.5905  1.8139  1.4323
20500WAT    EPW83807  10.232   3.019   5.579  0.6499  0.1972 -0.6795
20501WAT      O83808   4.106   7.092   7.546 -0.0241 -0.4637  0.7361
20501WAT     H183809   4.135   7.009   7.585 -2.7239 -1.8445 -0.0126
20501WAT     H283810   4.062   7.137   7.617  1.2053  0.2804  1.0670
20501WAT    EPW83811   4.104   7.087   7.561 -0.2179 -0.5476  0.6809
20502WAT      O83812   1.072   1.529   2.196 -0.2153 -0.1167  0.0634
20502WAT     H183813   0.991   1.504   2.151 -0.0864  0.9473 -0.8000
20502WAT     H283814   1.043   1.589   2.265 -0.0962  0.9976 -0.8330
20502WAT    EPW83815   1.057   1.534   2.199 -0.1826  0.1706 -0.1688
20503WAT      O83816   3.752   7.000   8.181 -0.2267 -0.0739 -0.3129
20503WAT     H183817   3.805   7.076   8.206  0.5834 -0.7773  0.1554
20503WAT     H283818   3.681   6.998   8.245  0.7519 -0.7381  0.7885
20503WAT    EPW83819   3.750   7.010   8.193  0.0092 -0.2544 -0.1063
20504WAT      O83820   3.984   8.553   5.479 -0.0213 -0.6696 -0.8929
20504WAT     H183821   4.011   8.462   5.488  0.3902 -0.4771 -0.0908
20504WAT     H283822   4.047   8.602   5.532 -1.2401 -0.0878  0.0488
20504WAT    EPW83823   3.996   8.547   5.487 -0.1277 -0.5674 -0.6628
20505WAT      O83824   5.204  10.259   3.443 -0.3596  0.4990  0.5890
20505WAT     H183825   5.204  10.170   3.476 -3.6927  0.4050  0.6947
20505WAT     H283826   5.254  10.309   3.508  2.0333 -1.2703  0.2478
20505WAT    EPW83827   5.211  10.254   3.456 -0.4835  0.2537  0.5579
20506WAT      O83828   4.272   6.270   7.668 -0.5624  0.2927  0.1528
20506WAT     H183829   4.241   6.352   7.706 -1.5685  0.7624 -1.5869
20506WAT     H283830   4.227   6.201   7.717  0.1178  0.7599  1.4749
20506WAT    EPW83831   4.262   6.272   7.679 -0.6051  0.4160  0.0978
20507WAT      O83832   7.298   8.213   6.713  0.0601 -1.0706 -0.1811
20507WAT     H183833   7.246   8.292   6.726  4.4705  2.4769 -1.4732
20507WAT     H283834   7.272   8.180   6.627 -0.4109  0.2951 -0.5829
20507WAT    EPW83835   7.288   8.219   6.703  0.5796 -0.4225 -0.4046
20508WAT      O83836   4.057   9.003   7.420 -0.0203  0.1974 -0.2741
20508WAT     H183837   3.978   9.054   7.401  1.3046  2.7053  0.5683
20508WAT     H283838   4.063   8.941   7.348 -2.0382  0.7931 -1.0334
20508WAT    EPW83839   4.047   9.001   7.408 -0.1116  0.6070 -0.2632
20509WAT      O83840   7.014   1.330   2.161  0.2690  1.1442 -0.3376
20509WAT     H183841   6.984   1.378   2.084 -0.5155  2.8659  0.9748
20509WAT     H283842   7.047   1.398   2.220 -2.0767  0.2750  2.1610
20509WAT    EPW83843   7.014   1.345   2.158 -0.1440  1.2566  0.1651
20510WAT      O83844   4.285   9.801   6.894 -0.0487 -0.2485  0.1032
20510WAT     H183845   4.322   9.717   6.924  1.4861  0.4943  0.4055
20510WAT     H283846   4.267   9.786   6.801  0.1941 -0.9205  0.1531
20510WAT    EPW83847   4.288   9.788   6.886  0.1857 -0.2394  0.1495
20511WAT      O83848   6.522   0.091   8.046 -0.1671  0.6017 -0.4194
20511WAT     H183849   6.589   0.081   8.114  1.3824 -0.2236 -1.9771
20511WAT     H283850   6.557   0.042   7.971 -3.2164 -1.1816 -0.8425
20511WAT    EPW83851   6.536   0.083   8.045 -0.3648  0.2576 -0.6809
20512WAT      O83852   7.730   1.010   5.428  0.2957 -0.0374  0.3318
20512WAT     H183853   7.728   0.974   5.516  2.9547 -1.3970 -0.0499
20512WAT     H283854   7.707   0.936   5.371  1.2401  0.0883 -0.2297
20512WAT    EPW83855   7.727   0.996   5.432  0.7710 -0.2002  0.2074
20513WAT      O83856   7.991   1.842   4.043  0.3049 -0.2268 -0.6926
20513WAT     H183857   8.071   1.893   4.058  1.2611 -1.5149 -1.1941
20513WAT     H283858   7.933   1.867   4.114  0.2890  2.3554 -1.4840
20513WAT    EPW83859   7.994   1.852   4.054  0.4289 -0.0562 -0.8631
20514WAT      O83860   9.794   1.771   3.821  0.6217  0.4494  0.7570
20514WAT     H183861   9.787   1.848   3.877 -3.8123  1.0063 -0.1637
20514WAT     H283862   9.759   1.699   3.873 -2.2051  0.6884 -0.6404
20514WAT    EPW83863   9.789   1.772   3.835 -0.3362  0.5544  0.4513
20515WAT      O83864  10.391   0.588   5.244  0.0340 -0.2329  0.0532
20515WAT     H183865  10.394   0.586   5.340 -1.1243 -0.0940  0.0973
20515WAT     H283866  10.483   0.585   5.218  0.3341 -1.6846  1.1381
20515WAT    EPW83867  10.404   0.587   5.254 -0.0796 -0.4061  0.2019
20516WAT      O83868   2.144   7.904   5.607  0.4156 -0.2968  0.3661
20516WAT     H183869   2.200   7.908   5.685  1.1012  0.9658 -0.1695
20516WAT     H283870   2.203   7.876   5.537  0.5730  1.6900 -0.3467
20516WAT    EPW83871   2.159   7.901   5.608  0.5265  0.1318  0.2015
20517WAT      O83872   8.333   1.977   6.069 -0.2683 -0.0592  0.8935
20517WAT     H183873   8.345   2.064   6.107 -0.2946  0.4372 -0.2075
20517WAT     H283874   8.351   1.917   6.141 -1.9554  0.8714  2.1740
20517WAT    EPW83875   8.337   1.981   6.083 -0.4940  0.1290  0.9170
20518WAT      O83876   5.146   1.126   3.192 -0.1909 -0.6634  0.0035
20518WAT     H183877   5.199   1.200   3.220 -1.1919  0.3722 -0.7743
20518WAT     H283878   5.207   1.052   3.190  1.5302  0.7007 -1.9242
20518WAT    EPW83879   5.161   1.126   3.195 -0.0961 -0.3470 -0.3533
20519WAT      O83880   9.319   1.345   3.452  0.2232  0.0039  0.5458
20519WAT     H183881   9.329   1.377   3.362  1.7689 -0.6196  0.4706
20519WAT     H283882   9.385   1.393   3.502  1.0475 -1.4043  0.8629
20519WAT    EPW83883   9.329   1.356   3.447  0.5355 -0.2641  0.5777
20520WAT      O83884   3.939  10.002   7.753  0.2165 -0.4477  0.1481
20520WAT     H183885   4.017   9.971   7.706  1.6399 -0.2324  2.2248
20520WAT     H283886   3.954   9.976   7.843 -1.3032  1.1726  0.9198
20520WAT    EPW83887   3.951   9.994   7.758  0.2037 -0.2060  0.5236
20521WAT      O83888   4.738   8.121   5.994  0.2359 -0.3771 -0.0882
20521WAT     H183889   4.718   8.123   6.088 -0.1260 -0.2419 -0.1669
20521WAT     H283890   4.834   8.123   5.990  0.2734  2.5561  0.2412
20521WAT    EPW83891   4.748   8.121   6.006  0.1934  0.0272 -0.0553
20522WAT      O83892   1.444   8.820   4.757 -0.4173 -0.1508  0.3092
20522WAT     H183893   1.456   8.785   4.845 -0.1280  3.0178  1.6497
20522WAT     H283894   1.351   8.842   4.753 -0.6311 -1.1262 -0.5732
20522WAT    EPW83895   1.433   8.818   4.768 -0.4073  0.1388  0.3698
20523WAT      O83896   8.238   0.601   7.107  0.5073  0.7341  0.9536
20523WAT     H183897   8.195   0.680   7.075  2.0262  1.1083 -0.2762
20523WAT     H283898   8.331   0.616   7.094  0.7949 -2.2453 -2.0038
20523WAT    EPW83899   8.245   0.613   7.101  0.7453  0.3905  0.4015
20524WAT      O83900   0.158   0.016   7.852  0.2855  0.2606  0.5439
20524WAT     H183901   0.080   0.027   7.798 -0.3585  2.6563  1.8275
20524WAT     H283902   0.125  -0.010   7.937  0.8285  1.5843  1.1823
20524WAT    EPW83903   0.144   0.014   7.856  0.2723  0.7515  0.7973
20525WAT      O83904   9.368   1.897   4.794 -0.8204  0.5071 -0.1985
20525WAT     H183905   9.411   1.909   4.879 -2.2717 -0.3986  0.6891
20525WAT     H283906   9.280   1.931   4.806 -1.2464 -0.2071 -1.1657
20525WAT    EPW83907   9.362   1.903   4.807 -1.0681  0.2935 -0.2091
20526WAT      O83908   7.294   0.440   8.790  0.6315 -0.1820 -0.8050
20526WAT     H183909   7.278   0.364   8.734  0.8708  0.6512 -2.0524
20526WAT     H283910   7.229   0.432   8.860 -0.6136 -0.5446 -1.9443
20526WAT    EPW83911   7.283   0.429   8.792  0.4988 -0.1200 -1.1201
20527WAT      O83912   9.516   6.166   0.463  0.0438  0.0330 -0.1211
20527WAT     H183913   9.551   6.191   0.377 -0.6112  2.8523  0.3425
20527WAT     H283914   9.592   6.170   0.522  0.2458 -0.6889 -0.3152
20527WAT    EPW83915   9.531   6.170   0.459 -0.0153  0.3099 -0.0855
20528WAT      O83916   3.103   8.259   5.072  0.9543 -0.6902  0.3487
20528WAT     H183917   3.059   8.319   5.132 -2.3783 -3.1052  0.6472
20528WAT     H283918   3.120   8.311   4.993 -0.5145  1.0095  1.0861
20528WAT    EPW83919   3.099   8.274   5.069  0.3210 -0.7844  0.4854
20529WAT      O83920   7.404   2.803   5.751 -0.2625 -0.6197 -0.8071
20529WAT     H183921   7.311   2.784   5.762 -0.2329 -0.2957  0.1270
20529WAT     H283922   7.406   2.890   5.712 -0.3600 -0.2566 -0.0326
20529WAT    EPW83923   7.392   2.812   5.747 -0.2716 -0.5292 -0.5820
20530WAT      O83924   7.823   0.976   4.537  0.1286  0.4144  1.1554
20530WAT     H183925   7.783   1.030   4.606 -1.5950 -2.2497  2.4182
20530WAT     H283926   7.851   0.897   4.583  1.6200 -0.2302 -0.7706
20530WAT    EPW83927   7.821   0.973   4.552  0.0980 -0.0221  1.0676
20531WAT      O83928   3.744   9.164   4.215  0.5143  0.1747  0.4522
20531WAT     H183929   3.833   9.163   4.249 -0.2829  0.3684  2.7229
20531WAT     H283930   3.750   9.121   4.129  3.1079  2.0625 -0.4210
20531WAT    EPW83931   3.756   9.158   4.208  0.7513  0.4492  0.6366
20532WAT      O83932   9.246   2.656   5.926 -0.4172 -0.0753 -0.0698
20532WAT     H183933   9.233   2.738   5.973 -1.7699 -1.0370  1.3322
20532WAT     H283934   9.158   2.630   5.898  0.0739 -0.7330 -1.0712
20532WAT    EPW83935   9.233   2.663   5.928 -0.5307 -0.2890 -0.0172
20533WAT      O83936   0.734   3.715   7.732  0.6423  0.2326 -0.0984
20533WAT     H183937   0.768   3.793   7.777  0.6883 -0.6638  1.4775
20533WAT     H283938   0.812   3.665   7.708  0.5433 -0.6878  1.4281
20533WAT    EPW83939   0.749   3.719   7.734  0.6353 -0.0070  0.3109
20534WAT      O83940   7.921   0.991   5.073  0.3012  0.3239 -1.0750
20534WAT     H183941   7.879   1.073   5.099  2.1144  0.6392  1.1813
20534WAT     H283942   7.896   0.980   4.981 -1.5508  2.3892 -0.9136
20534WAT    EPW83943   7.912   1.000   5.064  0.2964  0.6379 -0.7563
20535WAT      O83944   1.900   5.255   2.743 -0.0420  0.0555 -0.5554
20535WAT     H183945   1.976   5.309   2.722  0.9677 -0.5268  1.3521
20535WAT     H283946   1.924   5.210   2.824 -2.7313  0.4263  0.5552
20535WAT    EPW83947   1.913   5.256   2.751 -0.2636  0.0277 -0.1575
20536WAT      O83948   7.588   3.319   7.074  0.1813  0.1574 -0.1704
20536WAT     H183949   7.655   3.334   7.008  0.2299 -0.9823 -0.4027
20536WAT     H283950   7.562   3.407   7.102  1.0134  0.6323 -0.8310
20536WAT    EPW83951   7.593   3.332   7.069  0.2975  0.0697 -0.2882
20537WAT      O83952   9.761   3.924   5.221 -0.0117 -0.0269  0.0020
20537WAT     H183953   9.677   3.954   5.257 -0.6489  0.6156 -1.8971
20537WAT     H283954   9.804   3.879   5.294 -2.1010 -0.5852  0.9536
20537WAT    EPW83955   9.756   3.922   5.236 -0.3710 -0.0159 -0.1230
20538WAT      O83956   9.615   1.089   7.323  0.1111  0.1985  0.1305
20538WAT     H183957   9.530   1.062   7.358 -0.6661  1.2105 -0.8808
20538WAT     H283958   9.662   1.123   7.399  0.4618 -2.2572  1.0982
20538WAT    EPW83959   9.610   1.090   7.338  0.0548  0.0080  0.1247
20539WAT      O83960   8.671   3.292   5.150  0.1690 -0.2224 -0.8219
20539WAT     H183961   8.728   3.267   5.078  1.2721  1.9427 -0.7970
20539WAT     H283962   8.727   3.342   5.210 -1.1310 -0.3586  0.6021
20539WAT    EPW83963   8.686   3.296   5.149  0.1431  0.0452 -0.6309
20540WAT      O83964   6.796   5.673   7.186 -0.2580  0.7004 -0.5246
20540WAT     H183965   6.845   5.709   7.112 -0.8924 -0.4155 -1.5281
20540WAT     H283966   6.864   5.648   7.250  0.2703  2.0924 -0.5115
20540WAT    EPW83967   6.812   5.675   7.185 -0.2720  0.7370 -0.6554
20541WAT      O83968   1.504   4.366   0.093 -0.0432  0.0105  0.0280
20541WAT     H183969   1.465   4.403   0.014  1.0959 -0.9684 -1.0366
20541WAT     H283970   1.596   4.353   0.071 -0.2323 -2.8413  0.5045
20541WAT    EPW83971   1.511   4.369   0.080  0.0821 -0.4947 -0.0496
20542WAT      O83972   7.534   2.780   4.799 -0.9168 -0.1205 -0.0923
20542WAT     H183973   7.543   2.762   4.892  0.0528 -0.9149 -0.3145
20542WAT     H283974   7.495   2.701   4.763  0.4023 -0.5606 -0.6138
20542WAT    EPW83975   7.530   2.767   4.806 -0.6146 -0.2834 -0.1905
20543WAT      O83976   4.143  10.214   5.471 -0.8317  0.1024  0.9888
20543WAT     H183977   4.123  10.291   5.418  0.9609 -0.2667 -0.3353
20543WAT     H283978   4.058  10.174   5.489 -1.6610  1.5048  0.3177
20543WAT    EPW83979   4.129  10.219   5.466 -0.7043  0.2389  0.7255
20544WAT      O83980   9.292   1.418   3.183  0.3328  0.6705  0.6556
20544WAT     H183981   9.298   1.343   3.123  1.6512  0.3973  1.0933
20544WAT     H283982   9.278   1.493   3.126 -0.0094  0.2283  0.1374
20544WAT    EPW83983   9.291   1.418   3.167  0.4621  0.5762  0.6449
20545WAT      O83984   5.049   9.430   8.477 -0.4560  0.4952 -0.1568
20545WAT     H183985   5.019   9.499   8.536  0.5704  1.0635 -0.2863
20545WAT     H283986   5.078   9.360   8.535 -1.1862  0.2985 -0.0204
20545WAT    EPW83987   5.049   9.430   8.492 -0.4168  0.5445 -0.1559
20546WAT      O83988   3.513   3.254   5.400 -0.3498  0.0199 -0.4111
20546WAT     H183989   3.516   3.283   5.309  0.5611  0.9228 -0.1081
20546WAT     H283990   3.579   3.307   5.445 -0.8880 -0.3049  0.8111
20546WAT    EPW83991   3.522   3.265   5.394 -0.3008  0.0962 -0.2100
20547WAT      O83992   4.332   9.426   6.642  0.0474  0.0193  0.4741
20547WAT     H183993   4.367   9.346   6.603 -0.4089 -0.0231  0.1394
20547WAT     H283994   4.253   9.445   6.592 -0.2765  0.2499  1.0520
20547WAT    EPW83995   4.326   9.418   6.631 -0.0553  0.0443  0.5062
20548WAT      O83996   5.852   9.527   8.295  0.1164 -0.2018  0.5057
20548WAT     H183997   5.935   9.571   8.309 -0.5934  0.7778  1.8458
20548WAT     H283998   5.861   9.485   8.210  1.2602  1.5659 -0.2998
20548WAT    EPW83999   5.864   9.527   8.286  0.1738  0.1607  0.5760
20549WAT      O84000   2.892   9.601   6.641  1.1186 -0.4148  0.4931
20549WAT     H184001   2.958   9.558   6.586  3.8112  1.9508  1.6556
20549WAT     H284002   2.817   9.541   6.638  2.3153 -2.0384 -2.9530
20549WAT    EPW84003   2.891   9.587   6.633  1.6315 -0.3171  0.1919
20550WAT      O84004   1.107   4.773   3.205  0.1393  0.4371 -0.2044
20550WAT     H184005   1.182   4.795   3.260  0.9955  1.4035 -1.6981
20550WAT     H284006   1.035   4.827   3.239  0.4792  0.5617  0.3300
20550WAT    EPW84007   1.107   4.783   3.217  0.2971  0.5810 -0.3308
20551WAT      O84008   5.393   9.767   7.795  0.4171  0.1311  0.3682
20551WAT     H184009   5.412   9.766   7.889  0.0483 -0.9348  0.4389
20551WAT     H284010   5.302   9.737   7.789  0.1148  1.1333 -0.2655
20551WAT    EPW84011   5.384   9.763   7.807  0.3288  0.1225  0.2937
20552WAT      O84012   4.344  10.340   6.368 -0.0816 -0.0231  0.1678
20552WAT     H184013   4.424  10.391   6.386 -0.0647  0.2543 -0.6649
20552WAT     H284014   4.285  10.362   6.441 -0.8627  2.8526 -1.1986
20552WAT    EPW84015   4.347  10.350   6.380 -0.1822  0.3928 -0.1221
20553WAT      O84016   3.102   6.971   7.079 -0.3149 -0.1211 -0.4139
20553WAT     H184017   3.071   6.962   6.989 -0.5698 -0.8713 -0.2545
20553WAT     H284018   3.026   7.003   7.128 -0.0040  0.9188 -0.5687
20553WAT    EPW84019   3.088   6.974   7.074 -0.3076 -0.0830 -0.4134
20554WAT      O84020   5.566   8.084   5.534  0.3323 -0.0474 -0.0322
20554WAT     H184021   5.498   8.135   5.577 -5.4702 -4.2846 -2.8006
20554WAT     H284022   5.571   8.120   5.446  1.7417  0.1578  0.1095
20554WAT    EPW84023   5.558   8.095   5.528 -0.2472 -0.5794 -0.3788
20555WAT      O84024   0.742   3.474   0.491 -0.0873 -0.2608 -0.3344
20555WAT     H184025   0.753   3.446   0.582  1.3264 -0.4400 -0.5328
20555WAT     H284026   0.660   3.433   0.463 -0.4211 -0.3932  0.7828
20555WAT    EPW84027   0.733   3.465   0.500  0.0551 -0.3018 -0.2132
20556WAT      O84028   0.337   9.449   6.083 -0.6066 -0.1727  0.4103
20556WAT     H184029   0.428   9.455   6.109 -0.9378  0.7107  1.4370
20556WAT     H284030   0.292   9.413   6.160 -1.2314  0.0722  0.1703
20556WAT    EPW84031   0.343   9.445   6.096 -0.7327 -0.0234  0.5140
20557WAT      O84032  10.210   0.177   6.361  0.4684  0.2101 -0.2916
20557WAT     H184033  10.205   0.248   6.424 -0.8735  1.1267 -1.3595
20557WAT     H284034  10.123   0.137   6.363 -0.4394  1.7554 -3.1431
20557WAT    EPW84035  10.197   0.181   6.370  0.1712  0.5348 -0.8085
20558WAT      O84036  10.744   3.220   0.359  0.2901  0.1402  0.4326
20558WAT     H184037  10.834   3.200   0.334  0.2547  1.2045 -0.6187
20558WAT     H284038  10.739   3.316   0.356 -0.2553  0.2585  2.7568
20558WAT    EPW84039  10.755   3.230   0.356  0.2136  0.2960  0.6005
20559WAT      O84040   6.023   7.899   5.201  0.7272  0.4120 -0.1395
20559WAT     H184041   6.045   7.806   5.203  2.1744  0.6978 -1.4989
20559WAT     H284042   6.041   7.930   5.291  0.3026 -0.5755  0.2954
20559WAT    EPW84043   6.028   7.891   5.213  0.8619  0.3195 -0.2618
20560WAT      O84044   2.484   9.961   6.116 -0.2321 -1.0512  0.0640
20560WAT     H184045   2.417   9.893   6.122 -1.6003  0.2584  0.2835
20560WAT     H284046   2.500   9.970   6.022  1.6040 -3.1575  0.1026
20560WAT    EPW84047   2.477   9.953   6.104 -0.1704 -1.1563  0.0980
20561WAT      O84048   6.715   3.650   4.937  0.4737  0.3465  0.5378
20561WAT     H184049   6.671   3.725   4.896  1.4347  0.9344  0.5518
20561WAT     H284050   6.746   3.597   4.863  0.2195  0.2164  0.5242
20561WAT    EPW84051   6.714   3.653   4.922  0.5670  0.4069  0.5379
20562WAT      O84052   5.430  10.311   3.281  0.3102  0.6652  0.1755
20562WAT     H184053   5.340  10.286   3.302  0.2310  1.2330  0.5274
20562WAT     H284054   5.465  10.346   3.362  1.2245 -0.5741  0.3408
20562WAT    EPW84055   5.423  10.312   3.294  0.4203  0.5765  0.2435
20563WAT      O84056   5.366   9.996   3.932  0.2722 -0.0951 -0.0170
20563WAT     H184057   5.277   9.983   3.964  0.4109 -1.0800 -0.0112
20563WAT     H284058   5.422   9.963   4.002  0.9337  5.1910  2.4384
20563WAT    EPW84059   5.362   9.990   3.945  0.3777  0.4721  0.3076
20564WAT      O84060   8.850   2.671   7.535 -0.3264 -0.2339  0.0351
20564WAT     H184061   8.840   2.743   7.597 -0.5199  1.2205 -1.6207
20564WAT     H284062   8.938   2.637   7.551  0.0320  0.8223  0.3793
20564WAT    EPW84063   8.860   2.676   7.546 -0.3047  0.0973 -0.1378
20565WAT      O84064  10.097   9.423   8.409  0.4732  0.9171 -0.0055
20565WAT     H184065  10.150   9.371   8.470 -0.3844  1.6028  1.3771
20565WAT     H284066  10.142   9.507   8.404  1.5821  0.2535 -1.8447
20565WAT    EPW84067  10.110   9.427   8.417  0.5059  0.9198 -0.0653
20566WAT      O84068   3.340   7.144   2.921 -0.3851  0.1145 -0.6315
20566WAT     H184069   3.255   7.100   2.916 -0.6335  0.2281  1.5147
20566WAT     H284070   3.404   7.073   2.917 -0.5259  0.0329 -2.3293
20566WAT    EPW84071   3.337   7.129   2.920 -0.4364  0.1187 -0.5724
20567WAT      O84072   7.954   0.139   2.161  0.2591 -0.0918  0.1753
20567WAT     H184073   8.005   0.211   2.199  1.2975 -0.6712 -0.0732
20567WAT     H284074   7.901   0.181   2.093  0.2144  0.5683  0.6093
20567WAT    EPW84075   7.954   0.154   2.157  0.3905 -0.0811  0.1997
20568WAT      O84076   6.216   0.069   5.317 -0.1071  0.0354 -0.2340
20568WAT     H184077   6.246   0.035   5.233 -1.8026  2.2167 -1.8440
20568WAT     H284078   6.149   0.006   5.345 -2.8798  1.4838 -2.9393
20568WAT    EPW84079   6.211   0.056   5.310 -0.6964  0.5141 -0.8032
20569WAT      O84080   5.182   8.098   8.109  0.3636 -0.1414  0.1606
20569WAT     H184081   5.196   8.098   8.204 -0.4325 -1.4230  0.2953
20569WAT     H284082   5.252   8.153   8.075 -1.2487  3.1974  1.7389
20569WAT    EPW84083   5.193   8.105   8.117  0.0460  0.1307  0.3867
20570WAT      O84084   9.358   2.635   5.568  0.2442  0.5149  0.3448
20570WAT     H184085   9.432   2.612   5.512 -0.7629 -0.2768 -0.7241
20570WAT     H284086   9.390   2.624   5.657  1.6894  1.1325 -0.0742
20570WAT    EPW84087   9.372   2.631   5.572  0.3014  0.4919  0.1488
20571WAT      O84088   0.111   8.896   4.997  0.7023  0.0056 -0.5030
20571WAT     H184089   0.185   8.876   4.941 -0.0610 -0.7064 -1.2849
20571WAT     H284090   0.149   8.936   5.075  1.7635  1.6128 -1.7707
20571WAT    EPW84091   0.125   8.899   5.000  0.7416  0.1240 -0.7734
20572WAT      O84092   4.718   7.373   6.320 -0.1706 -0.3668  0.2048
20572WAT     H184093   4.721   7.317   6.398  1.7079 -0.0017  0.4418
20572WAT     H284094   4.781   7.334   6.260 -0.7253  0.0473 -0.6667
20572WAT    EPW84095   4.726   7.361   6.322  0.0041 -0.2639  0.1211
20573WAT      O84096   6.115   7.497   3.471  0.3380 -0.4701 -0.6049
20573WAT     H184097   6.109   7.591   3.458 -0.3737 -0.4604 -0.2439
20573WAT     H284098   6.057   7.459   3.405 -1.0534 -0.5427  0.6122
20573WAT    EPW84099   6.107   7.504   3.461  0.0608 -0.4785 -0.3967
20574WAT      O84100   9.717   1.273   5.444  0.0577  0.0039 -0.3681
20574WAT     H184101   9.702   1.211   5.515  0.4993  0.1747 -0.1204
20574WAT     H284102   9.700   1.359   5.483  3.2341  0.3906  0.4653
20574WAT    EPW84103   9.713   1.276   5.459  0.5350  0.0775 -0.2255
20575WAT      O84104   8.960   0.739   4.623 -0.5831 -1.2529  0.8418
20575WAT     H184105   9.039   0.776   4.585  0.6031 -0.7874  3.4850
20575WAT     H284106   8.907   0.815   4.646 -0.9835 -1.4895  0.7093
20575WAT    EPW84107   8.963   0.754   4.621 -0.4792 -1.2227  1.1728
20576WAT      O84108  10.619   2.413   5.334  0.4768  0.0706 -0.5862
20576WAT     H184109  10.642   2.383   5.246 -0.7969 -0.4464 -0.7768
20576WAT     H284110  10.647   2.342   5.391 -1.7741 -1.2266 -0.9566
20576WAT    EPW84111  10.626   2.400   5.330  0.0119 -0.1687 -0.6604
20577WAT      O84112   5.778   3.012   6.857 -0.7115 -1.0421  0.0934
20577WAT     H184113   5.842   2.993   6.925 -1.0552 -1.7324  0.2389
20577WAT     H284114   5.769   3.107   6.857  1.2229 -0.8128 -0.7804
20577WAT    EPW84115   5.785   3.022   6.866 -0.5016 -1.1029 -0.0026
20578WAT      O84116   3.311   9.885   6.163 -0.3438 -0.0966 -0.2048
20578WAT     H184117   3.319   9.921   6.075  0.3343  0.3113  0.0155
20578WAT     H284118   3.311   9.962   6.220  1.3762 -0.4207  0.2941
20578WAT    EPW84119   3.312   9.900   6.159 -0.0274 -0.0854 -0.1101
20579WAT      O84120   8.602   3.027   4.616 -0.3813 -0.3123  0.1811
20579WAT     H184121   8.586   3.086   4.542  3.7383  0.1142 -0.5744
20579WAT     H284122   8.563   2.944   4.590 -2.7661  0.9295 -0.4788
20579WAT    EPW84123   8.595   3.024   4.603 -0.1521 -0.0923 -0.0052
20580WAT      O84124   7.837   1.012   7.032  0.8220  0.7169  0.7973
20580WAT     H184125   7.870   1.043   7.117  0.6450 -0.4492  1.3131
20580WAT     H284126   7.757   0.965   7.054 -0.9202  2.9736 -0.3705
20580WAT    EPW84127   7.831   1.010   7.046  0.5689  0.8607  0.7114
20581WAT      O84128   9.074   1.792   6.194 -0.0048  0.0028  0.4386
20581WAT     H184129   9.169   1.786   6.203  0.0948  0.0525 -0.5118
20581WAT     H284130   9.057   1.884   6.177 -0.0081 -0.3044 -1.4682
20581WAT    EPW84131   9.084   1.803   6.193  0.0081 -0.0311  0.0615
20582WAT      O84132   6.010   1.033   6.496 -0.3297 -0.6528  0.4919
20582WAT     H184133   6.091   0.982   6.505 -0.1698 -0.3604  0.7274
20582WAT     H284134   5.950   0.975   6.450  0.2128 -0.6572 -0.2218
20582WAT    EPW84135   6.013   1.019   6.491 -0.2372 -0.6148  0.4292
20583WAT      O84136   7.158   0.944   6.082 -0.6441 -0.2233 -0.3585
20583WAT     H184137   7.193   0.999   6.152 -0.0561 -1.3653  0.2665
20583WAT     H284138   7.129   0.864   6.126 -0.4670 -0.8708 -1.3865
20583WAT    EPW84139   7.159   0.941   6.097 -0.5429 -0.4593 -0.4117
20584WAT      O84140   4.437   7.799   4.505 -0.4028  0.1387  0.3046
20584WAT     H184141   4.512   7.758   4.548  0.4125  1.7255  0.4626
20584WAT     H284142   4.364   7.741   4.524  1.1220 -2.7575 -1.7672
20584WAT    EPW84143   4.437   7.786   4.513 -0.0939 -0.0339  0.0517
20585WAT      O84144   9.324   0.080   8.892  0.4051 -0.3217 -0.3582
20585WAT     H184145   9.236   0.066   8.927  0.6837 -3.0160 -0.5124
20585WAT     H284146   9.367   0.137   8.956 -1.2674  0.6115 -0.0252
20585WAT    EPW84147   9.318   0.085   8.905  0.2208 -0.5540 -0.3343
20586WAT      O84148   2.383  10.173   4.757 -0.0387  0.3558  1.0407
20586WAT     H184149   2.436  10.094   4.771 -0.4270  0.1016  1.0684
20586WAT     H284150   2.447  10.238   4.726 -0.0263 -0.5362 -0.9777
20586WAT    EPW84151   2.399  10.171   4.755 -0.0882  0.2046  0.7780
20587WAT      O84152   5.198   7.593   7.684  0.1937 -0.7820 -0.2869
20587WAT     H184153   5.156   7.568   7.766  0.3805 -0.5303 -0.1125
20587WAT     H284154   5.291   7.597   7.705  0.1712  0.0130 -0.3157
20587WAT    EPW84155   5.205   7.591   7.697  0.2153 -0.6437 -0.2675
20588WAT      O84156  10.141   4.656   0.015 -0.2237  0.3376  0.0253
20588WAT     H184157  10.136   4.742   0.056 -1.7010  1.1167 -1.6300
20588WAT     H284158  10.064   4.609   0.048  0.3072 -0.1845  0.5420
20588WAT    EPW84159  10.130   4.661   0.025 -0.3486  0.3715 -0.1249
20589WAT      O84160   8.193   0.595   8.795  0.3682  0.1675  0.4625
20589WAT     H184161   8.157   0.571   8.880 -0.2080  3.3384  1.2307
20589WAT     H284162   8.137   0.666   8.764  0.0182 -1.4411 -3.0405
20589WAT    EPW84163   8.181   0.601   8.802  0.2456  0.3735  0.1016
20590WAT      O84164   7.516   2.444   6.074 -0.5041  0.2038  0.4229
20590WAT     H184165   7.466   2.519   6.107 -0.9516  0.5060 -0.9079
20590WAT     H284166   7.503   2.445   5.979  1.8302  0.1509  0.0422
20590WAT    EPW84167   7.508   2.454   6.066 -0.2556  0.2367  0.1972
20591WAT      O84168   4.464   7.530   6.444  0.1710 -0.1891 -0.1745
20591WAT     H184169   4.535   7.504   6.503  1.9574  0.9614 -1.6964
20591WAT     H284170   4.436   7.448   6.403  1.3090 -0.5517 -0.2644
20591WAT    EPW84171   4.470   7.516   6.447  0.5565 -0.0854 -0.3867
20592WAT      O84172   7.121   2.911   5.751  0.9000  0.2859  0.6259
20592WAT     H184173   7.115   2.998   5.711 -0.8419 -1.5352 -3.6261
20592WAT     H284174   7.040   2.901   5.800 -1.0552 -0.3203 -2.4586
20592WAT    EPW84175   7.110   2.921   5.752  0.4120 -0.0343 -0.3417
20593WAT      O84176   4.942   8.304   5.678 -0.0018 -0.1239  0.5111
20593WAT     H184177   4.989   8.373   5.725 -1.5079 -0.2816  2.3833
20593WAT     H284178   4.988   8.295   5.595  2.6134  0.4194  1.8069
20593WAT    EPW84179   4.954   8.312   5.674  0.1447 -0.0730  0.9291
20594WAT      O84180   1.270   3.216   0.279 -0.0510 -0.2384 -0.0262
20594WAT     H184181   1.275   3.310   0.291 -0.2463 -0.2788  0.3907
20594WAT     H284182   1.316   3.199   0.196  1.5689  0.0234  0.7815
20594WAT    EPW84183   1.277   3.226   0.269  0.1369 -0.2093  0.1353
20595WAT      O84184   6.375   1.306   8.243 -0.6162  0.3364  0.1348
20595WAT     H184185   6.289   1.283   8.207 -1.1778  0.4275  1.3663
20595WAT     H284186   6.401   1.228   8.291 -0.6107  0.7637  0.8383
20595WAT    EPW84187   6.367   1.292   8.245 -0.6897  0.4048  0.3905
20596WAT      O84188   6.784   9.456   7.028  0.3512 -0.5490  0.0721
20596WAT     H184189   6.813   9.365   7.036  0.1232 -0.4985  1.6970
20596WAT     H284190   6.828   9.488   6.949  1.0776 -1.8206 -0.0623
20596WAT    EPW84191   6.794   9.448   7.018  0.4170 -0.7100  0.2689
20597WAT      O84192   6.210   1.496   5.428 -0.2050  0.3474  0.8878
20597WAT     H184193   6.230   1.575   5.478 -0.6349 -0.9041  3.1835
20597WAT     H284194   6.116   1.485   5.437 -0.1145 -0.5500  0.8280
20597WAT    EPW84195   6.201   1.505   5.436 -0.2496  0.0640  1.1828
20598WAT      O84196   5.348   1.403   8.234  0.4952 -0.3690  0.0274
20598WAT     H184197   5.440   1.376   8.239  0.7174  0.2298 -0.6014
20598WAT     H284198   5.302   1.344   8.294  1.4376 -0.0189  1.1375
20598WAT    EPW84199   5.354   1.392   8.243  0.6487 -0.2439  0.0911
20599WAT      O84200   5.912   9.157   8.418  0.5682 -0.6841 -0.2159
20599WAT     H184201   5.834   9.201   8.451  1.9702  2.5024 -0.8005
20599WAT     H284202   5.982   9.185   8.476  2.0426  0.3394 -2.3540
20599WAT    EPW84203   5.911   9.167   8.430  0.9472 -0.1292 -0.5755
20600WAT      O84204   8.501   1.969   3.106  0.6502 -0.3823 -0.2909
20600WAT     H184205   8.582   1.929   3.135  0.8750  0.2223 -0.0641
20600WAT     H284206   8.432   1.913   3.142  0.9573 -2.1982 -2.3558
20600WAT    EPW84207   8.502   1.957   3.115  0.7195 -0.5421 -0.5333
20601WAT      O84208   7.729   2.079   6.070 -0.5454 -0.4741 -0.2613
20601WAT     H184209   7.738   2.160   6.020  0.5321 -0.1498  0.4385
20601WAT     H284210   7.694   2.106   6.154 -2.5093 -1.0400 -0.8451
20601WAT    EPW84211   7.726   2.093   6.074 -0.6623 -0.5059 -0.2460
20602WAT      O84212   2.976   8.868   5.723  0.0103 -0.1657  0.1055
20602WAT     H184213   2.919   8.931   5.767  0.4014  0.4689 -0.2779
20602WAT     H284214   3.056   8.867   5.776 -0.1662 -0.6874  0.3677
20602WAT    EPW84215   2.979   8.876   5.736  0.0385 -0.1516  0.0899
20603WAT      O84216   2.843  10.067   7.192 -0.9156  0.5778 -0.2575
20603WAT     H184217   2.912  10.040   7.253  0.0235 -0.9919 -1.9311
20603WAT     H284218   2.765  10.022   7.224 -0.5265  0.0870  0.0293
20603WAT    EPW84219   2.842  10.057   7.204 -0.7404  0.3066 -0.4404
20604WAT      O84220   1.870   9.664   3.110  0.6258 -0.2685  0.1195
20604WAT     H184221   1.890   9.746   3.155  1.8125  0.7072 -2.0631
20604WAT     H284222   1.954   9.631   3.080 -0.0949 -0.7849 -1.4690
20604WAT    EPW84223   1.884   9.670   3.112  0.6872 -0.2079 -0.3778
20605WAT      O84224   3.610   8.821   4.030 -0.0177  0.0231 -0.8694
20605WAT     H184225   3.635   8.747   3.975  1.1844  0.0437 -0.3887
20605WAT     H284226   3.517   8.809   4.046  0.5401 -2.7306  1.0911
20605WAT    EPW84227   3.601   8.810   4.025  0.2143 -0.3376 -0.5476
20606WAT      O84228   7.260  10.070   8.826 -0.2865 -0.0220 -0.0642
20606WAT     H184229   7.341  10.018   8.824  0.0429  0.4910 -1.3158
20606WAT     H284230   7.213  10.040   8.903  1.2895 -0.0584  0.9127
20606WAT    EPW84231   7.265  10.059   8.836 -0.0353  0.0410 -0.1006
20607WAT      O84232   2.191   7.337   2.544 -0.0670 -0.6379  1.1629
20607WAT     H184233   2.108   7.379   2.520  1.0812  0.3006 -1.6240
20607WAT     H284234   2.192   7.338   2.639 -1.3151  3.3885  1.3205
20607WAT    EPW84235   2.180   7.342   2.553 -0.0801  0.0169  0.8160
20608WAT      O84236   7.205   9.532   5.885 -0.9176  0.4799 -0.1076
20608WAT     H184237   7.222   9.603   5.948 -2.0663  3.1663 -2.6059
20608WAT     H284238   7.292   9.504   5.858 -0.4094 -0.1774  1.9886
20608WAT    EPW84239   7.219   9.538   5.890 -1.0023  0.7482 -0.1607
20609WAT      O84240   5.567   0.722   5.775  0.4151 -0.3132 -0.5707
20609WAT     H184241   5.507   0.654   5.745  2.3144 -2.3292 -0.0895
20609WAT     H284242   5.611   0.752   5.695 -0.0975  0.0216 -0.7295
20609WAT    EPW84243   5.565   0.717   5.760  0.5982 -0.5349 -0.5283
20610WAT      O84244   0.213   2.934   4.956 -0.4447  0.5110 -0.1343
20610WAT     H184245   0.228   2.882   4.878  3.6466  1.7728 -0.3946
20610WAT     H284246   0.190   3.021   4.923 -0.9810  0.4899  0.1640
20610WAT    EPW84247   0.212   2.939   4.942  0.0242  0.6747 -0.1295
20611WAT      O84248   6.820   0.920   5.744 -1.0311  0.1743  0.0454
20611WAT     H184249   6.851   0.990   5.800  0.2736  2.5803 -3.3696
20611WAT     H284250   6.896   0.862   5.734 -0.9815  0.2331  0.0824
20611WAT    EPW84251   6.834   0.921   5.750 -0.8523  0.4994 -0.3998
20612WAT      O84252   7.912  10.294   1.736 -0.7643  1.0618  0.3748
20612WAT     H184253   7.871  10.247   1.664 -4.0734  2.0790  1.4242
20612WAT     H284254   7.990  10.334   1.697  0.4486 -2.5284 -1.2824
20612WAT    EPW84255   7.917  10.293   1.722 -1.0409  0.7224  0.2946
20613WAT      O84256   0.454   4.579   5.012 -0.2342  0.9379  0.9931
20613WAT     H184257   0.494   4.565   5.098  1.5515 -1.4598 -0.1369
20613WAT     H284258   0.456   4.494   4.969  2.1293  2.6094 -2.7421
20613WAT    EPW84259   0.459   4.566   5.018  0.3130  0.8423  0.3514
20614WAT      O84260  10.393   5.668   8.627 -0.0218  0.3359 -0.3498
20614WAT     H184261  10.408   5.743   8.685 -3.1821 -0.2150  1.3908
20614WAT     H284262  10.428   5.593   8.675  0.9581  0.3503 -1.0118
20614WAT    EPW84263  10.400   5.668   8.641 -0.3090  0.2654 -0.2074
20615WAT      O84264   6.735   8.392   4.168 -0.5969  0.3967  0.5789
20615WAT     H184265   6.717   8.373   4.076  0.4225  0.7558  0.2947
20615WAT     H284266   6.749   8.486   4.171 -0.0245  0.3040  0.9918
20615WAT    EPW84267   6.734   8.402   4.156 -0.3870  0.4311  0.5958
20616WAT      O84268   3.689   3.746   7.892  0.4189 -0.6330  0.0711
20616WAT     H184269   3.759   3.718   7.951  0.9029  2.2440  1.0332
20616WAT     H284270   3.711   3.706   7.808  3.1358 -0.0635  0.4100
20616WAT    EPW84271   3.702   3.737   7.889  0.8410 -0.1783  0.2427
20617WAT      O84272   1.856   0.403   8.334  0.4235 -0.2747  0.5973
20617WAT     H184273   1.845   0.407   8.429  1.9220  1.4722  0.7393
20617WAT     H284274   1.949   0.415   8.319  0.3025 -1.0968 -1.1006
20617WAT    EPW84275   1.867   0.405   8.344  0.6052 -0.1528  0.3924
20618WAT      O84276   0.168   3.657   4.994  0.4213  0.3548 -0.5899
20618WAT     H184277   0.136   3.637   5.082 -0.7310 -0.0505 -1.0828
20618WAT     H284278   0.238   3.721   5.008  1.0063 -0.5341  0.6887
20618WAT    EPW84279   0.173   3.663   5.007  0.3465  0.1841 -0.4866
20619WAT      O84280   7.842  10.177   8.192  0.1881 -0.1114  0.2397
20619WAT     H184281   7.808  10.094   8.226  1.0638 -0.2075  0.9068
20619WAT     H284282   7.851  10.162   8.098 -0.1447 -0.5973  0.2826
20619WAT    EPW84283   7.838  10.164   8.184  0.2596 -0.1888  0.3328
20620WAT      O84284   2.257   1.214   3.451  0.2633  0.6103 -0.9336
20620WAT     H184285   2.302   1.287   3.409 -1.2892  1.0856 -1.8531
20620WAT     H284286   2.186   1.191   3.391 -0.7149 -0.1184  0.4310
20620WAT    EPW84287   2.253   1.221   3.437 -0.0706  0.5769 -0.8749
20621WAT      O84288  10.330   0.259   7.586  0.4469 -0.1569 -0.1340
20621WAT     H184289  10.304   0.346   7.616 -2.8780 -1.1632  0.3384
20621WAT     H284290  10.353   0.212   7.666 -2.2967 -0.9857  0.2589
20621WAT    EPW84291  10.329   0.264   7.601 -0.3533 -0.3989 -0.0198
20622WAT      O84292   2.389   2.124   4.187  0.3187  0.1484 -0.1031
20622WAT     H184293   2.338   2.074   4.124  1.3327  1.9634 -2.5334
20622WAT     H284294   2.375   2.080   4.271 -0.8295 -2.5993 -1.6300
20622WAT    EPW84295   2.381   2.112   4.190  0.3009  0.0252 -0.6251
20623WAT      O84296   1.764   4.886   7.274  0.6109  0.3445  0.3622
20623WAT     H184297   1.710   4.848   7.205  1.5167  2.2098 -1.5375
20623WAT     H284298   1.849   4.842   7.265  0.2186 -0.7138  1.5743
20623WAT    EPW84299   1.768   4.875   7.263  0.6787  0.4511  0.2716
20624WAT      O84300  10.947   2.353   4.958 -0.3456 -0.3530 -0.1989
20624WAT     H184301  10.948   2.439   5.001  0.6036  0.3182 -1.4846
20624WAT     H284302  10.998   2.297   5.016  1.8588  0.8095 -0.8957
20624WAT    EPW84303  10.954   2.357   4.971  0.0701 -0.1111 -0.4606
20625WAT      O84304   2.720   2.455   6.164  0.3896 -0.3219 -0.0865
20625WAT     H184305   2.625   2.440   6.167 -0.0235  1.7947 -0.9790
20625WAT     H284306   2.743   2.481   6.253 -0.1185  0.4335 -0.1699
20625WAT    EPW84307   2.711   2.457   6.176  0.2681  0.0570 -0.2153
20626WAT      O84308   9.118   8.054   6.451  0.0789 -0.0646 -0.0766
20626WAT     H184309   9.105   7.961   6.465  0.2879  0.0520  0.9891
20626WAT     H284310   9.101   8.094   6.537  0.5892  0.8068 -0.3643
20626WAT    EPW84311   9.114   8.047   6.465  0.1736  0.0658  0.0262
20627WAT      O84312   0.264   0.291   8.118 -0.1359 -0.3023 -0.4982
20627WAT     H184313   0.349   0.281   8.076 -0.1370  1.7542 -1.1169
20627WAT     H284314   0.261   0.383   8.144 -2.6298  0.0042 -1.5362
20627WAT    EPW84315   0.275   0.302   8.116 -0.4649  0.0093 -0.7167
20628WAT      O84316   2.375   2.576   5.359  1.0346 -0.8533  0.0958
20628WAT     H184317   2.381   2.644   5.427 -0.8591 -0.8855  0.3444
20628WAT     H284318   2.281   2.556   5.353  1.1594 -1.0172 -2.3760
20628WAT    EPW84319   2.363   2.583   5.367  0.8013 -0.8792 -0.1974
20629WAT      O84320   7.407  10.121   6.888  0.3189  0.5885  0.6303
20629WAT     H184321   7.425  10.030   6.866  4.1995  1.5556 -1.0511
20629WAT     H284322   7.354  10.153   6.815  1.0632  0.2493 -0.0740
20629WAT    EPW84323   7.402  10.113   6.875  0.9291  0.6719  0.3159
20630WAT      O84324   9.471   2.714   3.886  0.2632 -0.1649 -0.8801
20630WAT     H184325   9.498   2.723   3.978 -0.3925  1.5974 -0.8137
20630WAT     H284326   9.512   2.789   3.842 -1.4305  0.4289 -1.5129
20630WAT    EPW84327   9.480   2.725   3.892 -0.0463  0.1458 -0.9549
20631WAT      O84328   2.379   5.051   5.483 -0.0749  0.1598 -0.1178
20631WAT     H184329   2.430   4.970   5.480  1.4180  1.0740 -2.0200
20631WAT     H284330   2.404   5.093   5.565 -3.1881 -2.5683  2.5316
20631WAT    EPW84331   2.389   5.045   5.493 -0.2887 -0.0794 -0.0193
20632WAT      O84332   9.676   0.290   3.957 -0.8235 -0.0401 -0.4801
20632WAT     H184333   9.737   0.227   3.920  0.9521  1.5052 -0.3186
20632WAT     H284334   9.700   0.373   3.916 -2.6984  0.6663 -0.2413
20632WAT    EPW84335   9.687   0.293   3.947 -0.8368  0.2569 -0.4272
20633WAT      O84336   4.148   3.695   7.154  0.4083  0.6387  0.1952
20633WAT     H184337   4.127   3.665   7.065  2.6541  2.5253 -1.1003
20633WAT     H284338   4.169   3.615   7.202  0.2940 -0.3503 -1.3251
20633WAT    EPW84339   4.148   3.681   7.148  0.6895  0.7572 -0.1762
20634WAT      O84340   0.726   0.289   7.890 -0.0736 -0.2663 -0.1298
20634WAT     H184341   0.689   0.377   7.895  0.9058  0.3010 -2.0575
20634WAT     H284342   0.820   0.303   7.879 -0.0042 -1.4966 -1.3902
20634WAT    EPW84343   0.733   0.302   7.889  0.0647 -0.3537 -0.5503
20635WAT      O84344   9.429   4.774   8.800 -0.1800  0.7429  0.6494
20635WAT     H184345   9.417   4.685   8.767  1.0391  0.2391  1.4680
20635WAT     H284346   9.351   4.821   8.772 -0.9977 -0.6644  0.4705
20635WAT    EPW84347   9.417   4.769   8.792 -0.1273  0.4907  0.7343
20636WAT      O84348   1.587   0.877   5.980  0.4651 -0.5800  0.2708
20636WAT     H184349   1.539   0.795   5.968 -0.9039  0.2932 -0.4394
20636WAT     H284350   1.676   0.849   6.005  0.2588 -2.2873 -0.7425
20636WAT    EPW84351   1.593   0.863   5.981  0.2573 -0.6900  0.0439
20637WAT      O84352   8.698   9.470   8.577 -0.1908  0.0137  0.5434
20637WAT     H184353   8.669   9.503   8.663 -1.3722  1.8201 -0.4932
20637WAT     H284354   8.793   9.462   8.586 -0.0906  1.6955  1.5579
20637WAT    EPW84355   8.707   9.473   8.590 -0.3333  0.4740  0.5403
20638WAT      O84356   8.263   0.489   7.390  0.2608  0.8606 -0.1387
20638WAT     H184357   8.196   0.514   7.326  1.7473 -3.7224 -4.0337
20638WAT     H284358   8.345   0.521   7.353  0.7963  3.7532  3.0567
20638WAT    EPW84359   8.265   0.497   7.377  0.5279  0.6376 -0.2308
20639WAT      O84360   2.939   7.270   5.024 -0.4898  0.2474 -0.3088
20639WAT     H184361   2.860   7.216   5.028  0.5367 -1.2429  1.2819
20639WAT     H284362   2.999   7.219   4.970  0.6230 -0.4804  1.5210
20639WAT    EPW84363   2.936   7.256   5.018 -0.2075 -0.0451  0.1423
20640WAT      O84364   0.930   1.749   4.520  0.2771  0.1544  0.8419
20640WAT     H184365   1.008   1.804   4.508  0.6306 -0.5270 -0.1745
20640WAT     H284366   0.965   1.663   4.545 -0.1229 -0.2285  0.1216
20640WAT    EPW84367   0.945   1.745   4.522  0.2710  0.0140  0.6127
20641WAT      O84368   9.018   3.620   7.086 -0.0933 -0.3799  0.6455
20641WAT     H184369   8.969   3.539   7.103 -0.5720 -0.4920 -1.0546
20641WAT     H284370   9.107   3.590   7.067 -0.7266 -0.7880 -2.0847
20641WAT    EPW84371   9.023   3.605   7.086 -0.2398 -0.4486  0.0613
20642WAT      O84372   4.129   3.519   6.087 -0.0537  0.2090 -0.3205
20642WAT     H184373   4.176   3.463   6.148  0.4076  0.9221 -0.0055
20642WAT     H284374   4.193   3.541   6.019 -0.4705 -0.3148 -0.8936
20642WAT    EPW84375   4.143   3.515   6.086 -0.0482  0.2339 -0.3548
20643WAT      O84376   2.059   1.522   4.638 -0.7369 -0.1054  0.1251
20643WAT     H184377   1.963   1.524   4.638 -0.7567 -0.3864 -0.9136
20643WAT     H284378   2.084   1.553   4.725 -1.7914 -1.1681  0.8327
20643WAT    EPW84379   2.050   1.527   4.649 -0.8786 -0.2826  0.0813
20644WAT      O84380  10.165   0.252   7.158 -0.5685 -0.9159  0.6138
20644WAT     H184381  10.230   0.184   7.179 -0.0932 -0.3430  1.0526
20644WAT     H284382  10.180   0.319   7.224  1.0371  1.0153 -1.5292
20644WAT    EPW84383  10.176   0.252   7.169 -0.2937 -0.5856  0.3889
20645WAT      O84384   0.211   1.010   5.663 -0.6401  0.2965  0.2534
20645WAT     H184385   0.251   0.965   5.737 -0.0055  0.1518 -0.1664
20645WAT     H284386   0.219   1.103   5.684 -1.4426  0.2421  0.8597
20645WAT    EPW84387   0.217   1.016   5.675 -0.6623  0.2702  0.2780
20646WAT      O84388   2.683   1.163   7.228  0.0526  0.2782  0.4400
20646WAT     H184389   2.615   1.209   7.277 -1.7583 -0.7497 -0.9839
20646WAT     H284390   2.659   1.071   7.234  0.9989 -0.0537 -0.5676
20646WAT    EPW84391   2.671   1.157   7.235 -0.0614  0.0988  0.1197
20647WAT      O84392   1.326   0.255   5.008  0.4759  0.3744  0.7281
20647WAT     H184393   1.386   0.242   5.082 -0.4957 -1.3023  1.2639
20647WAT     H284394   1.311   0.349   5.007  2.4652  0.7532  1.0762
20647WAT    EPW84395   1.332   0.266   5.018  0.6101  0.2032  0.8445
20648WAT      O84396   1.660   1.201   5.366 -0.2419 -0.5386  0.1460
20648WAT     H184397   1.670   1.105   5.367  0.0947 -0.5186 -0.5414
20648WAT     H284398   1.750   1.234   5.363 -0.1818 -0.1045  3.4309
20648WAT    EPW84399   1.673   1.193   5.366 -0.1896 -0.4788  0.4888
20649WAT      O84400   0.492   5.820   8.388  0.1276  0.5333  0.2601
20649WAT     H184401   0.503   5.896   8.444  0.5695 -0.1578  1.1332
20649WAT     H284402   0.581   5.799   8.358 -0.2886  2.1828 -2.5125
20649WAT    EPW84403   0.506   5.827   8.391  0.1310  0.6597  0.0095
20650WAT      O84404   9.496   3.498   5.208 -0.2175  0.0634  0.2489
20650WAT     H184405   9.536   3.422   5.251  0.2428 -0.3370 -0.8459
20650WAT     H284406   9.404   3.493   5.232 -0.6799 -2.2334 -1.6804
20650WAT    EPW84407   9.489   3.487   5.217 -0.2179 -0.2925 -0.1502
20651WAT      O84408   0.592   0.542   7.921  0.0738  0.0905 -0.1577
20651WAT     H184409   0.568   0.581   7.837 -0.8722 -1.1551 -0.5085
20651WAT     H284410   0.633   0.613   7.970 -1.2619  1.4156 -0.8809
20651WAT    EPW84411   0.594   0.556   7.916 -0.2271  0.1009 -0.2992
20652WAT      O84412  10.815   1.205   8.433 -0.5229  0.2610  0.3564
20652WAT     H184413  10.891   1.147   8.427 -1.1781 -0.6363  0.4357
20652WAT     H284414  10.777   1.204   8.345 -1.5304 -0.8586  0.7668
20652WAT    EPW84415  10.820   1.197   8.420 -0.7420 -0.0049  0.4215
20653WAT      O84416   8.772   1.200   5.971  0.5747 -0.2860 -0.1818
20653WAT     H184417   8.682   1.234   5.976  0.0115 -1.6766 -0.2369
20653WAT     H284418   8.796   1.185   6.062  0.5604 -0.3480 -0.1877
20653WAT    EPW84419   8.763   1.202   5.984  0.4988 -0.4776 -0.1898
20654WAT      O84420  10.286   1.277   3.593  0.4696  0.4145 -0.6657
20654WAT     H184421  10.323   1.366   3.597  2.4886 -0.2793 -2.2130
20654WAT     H284422  10.316   1.235   3.673 -1.8009  1.5131  0.8644
20654WAT    EPW84423  10.295   1.283   3.604  0.4368  0.4679 -0.6679
20655WAT      O84424   1.164   3.781   8.561  0.2169 -0.2107 -0.3070
20655WAT     H184425   1.095   3.724   8.593  0.5545 -1.1992 -1.2739
20655WAT     H284426   1.142   3.867   8.597 -0.3386 -0.9109  1.1093
20655WAT    EPW84427   1.152   3.785   8.570  0.1882 -0.4333 -0.2484
20656WAT      O84428   0.465   2.019   6.713 -0.0566  0.3916 -0.1251
20656WAT     H184429   0.529   1.984   6.651 -0.5078  0.4805 -0.6546
20656WAT     H284430   0.516   2.037   6.792  0.3181 -0.7516 -0.0875
20656WAT    EPW84431   0.480   2.017   6.715 -0.0667  0.2524 -0.1900
20657WAT      O84432   0.164   0.812   4.984  0.1606  0.6383  0.1637
20657WAT     H184433   0.254   0.820   4.954  0.6386  3.7085  1.9607
20657WAT     H284434   0.112   0.853   4.915  0.0464 -1.4376 -1.0302
20657WAT    EPW84435   0.169   0.819   4.971  0.2086  0.7694  0.2434
20658WAT      O84436   0.830   0.795   4.755  0.7444 -0.4626 -0.3278
20658WAT     H184437   0.911   0.778   4.706  1.2944 -0.7394  0.6622
20658WAT     H284438   0.768   0.730   4.721  2.3981 -3.7405  2.3673
20658WAT    EPW84439   0.833   0.784   4.744  1.0351 -0.9315  0.1581
20659WAT      O84440   1.394   6.779   8.266 -0.5419  0.0749 -0.4032
20659WAT     H184441   1.311   6.819   8.294 -0.8869  0.6990 -2.1916
20659WAT     H284442   1.434   6.845   8.210  1.6299  0.1521  1.1045
20659WAT    EPW84443   1.388   6.793   8.262 -0.3009  0.1671 -0.4406
20660WAT      O84444  10.398   3.403   6.970 -0.4179  0.1421  0.4056
20660WAT     H184445  10.319   3.361   6.936 -0.2379 -0.6332  0.9274
20660WAT     H284446  10.467   3.378   6.908 -0.3523 -0.1401  0.5954
20660WAT    EPW84447  10.397   3.394   6.957 -0.3858  0.0025  0.4995
20661WAT      O84448   6.307   8.626   7.267 -0.7576  0.3490  0.2993
20661WAT     H184449   6.390   8.665   7.244  0.4695 -1.1824  1.8030
20661WAT     H284450   6.244   8.664   7.206  0.8039  2.4487 -0.1070
20661WAT    EPW84451   6.309   8.636   7.256 -0.3898  0.4239  0.4444
20662WAT      O84452  10.872   0.613   4.479  0.6085 -0.0548 -0.1408
20662WAT     H184453  10.905   0.613   4.569  0.4549 -3.1537  0.0327
20662WAT     H284454  10.876   0.521   4.452 -3.3691  0.0839 -1.8262
20662WAT    EPW84455  10.877   0.601   4.487  0.0634 -0.4452 -0.3402
20663WAT      O84456   7.576   9.642   3.901  0.4071 -1.0004 -0.1710
20663WAT     H184457   7.524   9.655   3.822  0.6061  0.3820 -0.0983
20663WAT     H284458   7.633   9.718   3.905 -1.1529  0.1492  2.4945
20663WAT    EPW84459   7.577   9.653   3.891  0.2277 -0.6666  0.1903
20664WAT      O84460   9.332   1.132   4.921  0.2647 -0.3650 -0.5365
20664WAT     H184461   9.290   1.212   4.890  1.0423 -0.5929 -2.3135
20664WAT     H284462   9.260   1.070   4.932 -0.3089  0.4644  0.5942
20664WAT    EPW84463   9.317   1.134   4.918  0.2913 -0.2857 -0.6220
20665WAT      O84464   7.056   9.715   6.474  0.5832 -0.4000 -0.0500
20665WAT     H184465   7.003   9.699   6.395 -2.3376  0.0048  1.7002
20665WAT     H284466   7.102   9.632   6.488 -0.6007 -1.2489 -0.9455
20665WAT    EPW84467   7.055   9.702   6.465  0.0417 -0.4582  0.0629
20666WAT      O84468   7.957   0.626   6.543 -0.0353 -0.2743  0.1768
20666WAT     H184469   7.908   0.594   6.467  0.1620 -0.5468  0.1653
20666WAT     H284470   7.909   0.705   6.571 -1.4498 -1.4148  1.1459
20666WAT    EPW84471   7.944   0.632   6.537 -0.1960 -0.4607  0.3030
20667WAT      O84472   2.335   3.269   8.075  0.1082  0.5832  0.3508
20667WAT     H184473   2.302   3.312   7.996 -0.7984  1.9259  1.4060
20667WAT     H284474   2.430   3.275   8.068  0.0371  0.8372 -0.5452
20667WAT    EPW84475   2.343   3.275   8.063 -0.0207  0.7938  0.3719
20668WAT      O84476   1.744   3.971   7.085  0.2249  0.0224  0.1288
20668WAT     H184477   1.789   4.040   7.134  1.0327  0.6575 -1.4479
20668WAT     H284478   1.797   3.959   7.006 -1.9976  0.3365 -1.4984
20668WAT    EPW84479   1.757   3.978   7.081  0.0384  0.1476 -0.2937
20669WAT      O84480   3.031   3.674   8.519  0.0497  0.1281 -0.1852
20669WAT     H184481   3.006   3.765   8.503 -2.0221 -0.1812  0.8574
20669WAT     H284482   2.961   3.622   8.478 -0.5540 -0.8587  1.9217
20669WAT    EPW84483   3.018   3.679   8.511 -0.3033 -0.0428  0.2303
20670WAT      O84484   2.068   3.314   3.797 -0.2905 -0.2948 -0.3142
20670WAT     H184485   2.004   3.296   3.729 -1.0912  1.1560  0.0119
20670WAT     H284486   2.047   3.253   3.867 -1.1340 -0.0292 -0.3309
20670WAT    EPW84487   2.057   3.304   3.797 -0.5074 -0.0685 -0.2732
20671WAT      O84488   0.252   1.161   4.821 -0.3202 -0.1049  0.8411
20671WAT     H184489   0.270   1.250   4.791  3.0488 -0.8087  0.3309
20671WAT     H284490   0.272   1.162   4.915  2.0583 -0.7376  0.4080
20671WAT    EPW84491   0.257   1.173   4.829  0.4379 -0.2812  0.7169
20672WAT      O84492   9.767   1.628   5.927 -0.4078  0.1179  0.2497
20672WAT     H184493   9.704   1.646   5.858 -1.3666  2.8533  1.6775
20672WAT     H284494   9.729   1.667   6.005  2.0256 -0.1621  1.6866
20672WAT    EPW84495   9.754   1.635   5.928 -0.2131  0.4417  0.6275
20673WAT      O84496   2.411   3.293   3.999  0.2704 -0.0496  0.2800
20673WAT     H184497   2.354   3.249   3.936 -0.3440  0.4527  0.4720
20673WAT     H284498   2.380   3.262   4.084 -0.1391  0.7072  0.4146
20673WAT    EPW84499   2.400   3.283   4.002  0.1354  0.1166  0.3231
20674WAT      O84500   0.749   2.641   7.496  0.6715 -0.2618 -0.6866
20674WAT     H184501   0.737   2.698   7.419 -1.1200 -0.0675 -0.3112
20674WAT     H284502   0.843   2.631   7.503  0.9781  1.3985 -1.7086
20674WAT    EPW84503   0.760   2.647   7.486  0.4757 -0.0173 -0.7722
20675WAT      O84504   7.474   1.923   8.206  0.1409 -0.3845 -0.1227
20675WAT     H184505   7.442   1.973   8.280 -1.5262 -2.4860  0.6758
20675WAT     H284506   7.555   1.882   8.237 -1.1499 -2.1897  1.0302
20675WAT    EPW84507   7.481   1.924   8.220 -0.2491 -0.8997  0.1345
20676WAT      O84508   1.112   4.553   4.302  0.1964 -0.4364 -0.4475
20676WAT     H184509   1.067   4.480   4.259  1.1561 -1.8659  0.8752
20676WAT     H284510   1.155   4.599   4.230 -1.3534 -0.4667 -1.4406
20676WAT    EPW84511   1.112   4.549   4.287  0.1186 -0.6289 -0.4039
20677WAT      O84512   8.913   3.040   6.108  0.2235  0.2077  0.2748
20677WAT     H184513   8.942   3.131   6.097  2.4095 -0.3701  0.8254
20677WAT     H284514   8.930   2.999   6.023  0.2660  0.0604  0.3531
20677WAT    EPW84515   8.919   3.047   6.095  0.5178  0.1119  0.3576
20678WAT      O84516   3.141   5.146   7.228 -0.5620  0.2157  0.1049
20678WAT     H184517   3.048   5.157   7.211 -0.2854  0.4283 -1.4085
20678WAT     H284518   3.151   5.165   7.322 -1.6260  2.8151 -0.2290
20678WAT    EPW84519   3.130   5.150   7.238 -0.6659  0.5867 -0.1388
20679WAT      O84520   1.516   0.176   4.190 -0.6838 -0.7590 -0.3076
20679WAT     H184521   1.508   0.267   4.220  1.8067 -0.7017  0.3846
20679WAT     H284522   1.527   0.184   4.095 -0.8219 -0.3540 -0.2927
20679WAT    EPW84523   1.516   0.189   4.181 -0.3735 -0.6980 -0.2141
20680WAT      O84524  10.741   2.240   5.518 -1.0057  0.2878  0.6160
20680WAT     H184525  10.774   2.235   5.608 -1.7768 -1.1623  0.8342
20680WAT     H284526  10.818   2.223   5.464 -0.9914 -1.2986  1.0827
20680WAT    EPW84527  10.756   2.237   5.523 -1.1053 -0.1128  0.7064
20681WAT      O84528   0.332   3.309   5.778 -0.1995  0.2570  0.1916
20681WAT     H184529   0.281   3.314   5.697  1.0274 -0.1132 -0.6386
20681WAT     H284530   0.409   3.364   5.761  1.5425 -2.0978 -0.0297
20681WAT    EPW84531   0.336   3.317   5.765  0.1921 -0.1025  0.0529
20682WAT      O84532   6.465   8.782   6.471 -0.6560  0.2145 -0.5336
20682WAT     H184533   6.512   8.846   6.417  2.0131 -0.3130  0.9799
20682WAT     H284534   6.408   8.835   6.527  1.3147  1.3485  0.5230
20682WAT    EPW84535   6.464   8.798   6.471 -0.0439  0.2952 -0.1948
20683WAT      O84536   1.138   0.044   3.743  0.1190  0.2285  0.5570
20683WAT     H184537   1.166   0.107   3.677 -1.4035  0.4969  0.1233
20683WAT     H284538   1.100  -0.028   3.692  0.5612 -0.4060  1.0973
20683WAT    EPW84539   1.137   0.043   3.728 -0.0235  0.1801  0.5710
20684WAT      O84540   2.853   1.476   3.742 -0.1947 -0.4256  0.0482
20684WAT     H184541   2.948   1.489   3.752 -0.1341 -0.9954  0.3033
20684WAT     H284542   2.836   1.394   3.790 -0.6354 -0.9039 -0.9041
20684WAT    EPW84543   2.864   1.467   3.750 -0.2447 -0.5638 -0.0437
20685WAT      O84544   0.247   3.461   6.004 -1.0171  0.6807  0.0142
20685WAT     H184545   0.319   3.523   6.018  0.3249 -0.8841  0.4566
20685WAT     H284546   0.283   3.397   5.942 -1.9181 -0.3006  0.4719
20685WAT    EPW84547   0.261   3.461   5.998 -0.9590  0.3450  0.1328
20686WAT      O84548   0.020   1.932   5.124 -0.7568 -0.0369 -0.1927
20686WAT     H184549  -0.039   1.935   5.049  2.1099  0.6913 -2.6054
20686WAT     H284550   0.031   1.838   5.143 -2.2586 -0.1923  0.0431
20686WAT    EPW84551   0.013   1.920   5.117 -0.5768  0.0387 -0.4799
20687WAT      O84552   1.208   3.850   5.838  0.5608 -0.1989 -0.2661
20687WAT     H184553   1.161   3.813   5.763 -0.4633 -1.3574  0.8932
20687WAT     H284554   1.185   3.943   5.838 -1.8220 -0.7137  0.2656
20687WAT    EPW84555   1.199   3.857   5.828  0.1114 -0.4196 -0.0434
20688WAT      O84556   2.481   0.517   2.779  0.6433  0.1993 -0.2311
20688WAT     H184557   2.388   0.504   2.761  0.0015  1.3753  1.8892
20688WAT     H284558   2.491   0.496   2.872  2.5120  0.0937 -0.4164
20688WAT    EPW84559   2.470   0.513   2.789  0.8051  0.3405  0.0241
20689WAT      O84560   2.487   1.025   3.962  0.0301 -0.2852  0.5401
20689WAT     H184561   2.408   0.988   3.922  1.1350  0.1528 -2.2539
20689WAT     H284562   2.464   1.116   3.981 -0.5858 -0.5643  1.1969
20689WAT    EPW84563   2.473   1.032   3.959  0.0944 -0.2642  0.2582
20690WAT      O84564   8.851   4.787   6.373  0.3193 -0.5600  0.4406
20690WAT     H184565   8.778   4.820   6.425 -0.2474 -2.6432  1.0520
20690WAT     H284566   8.896   4.726   6.431  1.0160 -1.2581 -0.7925
20690WAT    EPW84567   8.847   4.783   6.388  0.3366 -0.9267  0.3586
20691WAT      O84568   2.662   1.490   6.017  0.2794  0.5571  0.3242
20691WAT     H184569   2.749   1.518   5.989  0.9034 -1.4549  0.1097
20691WAT     H284570   2.602   1.553   5.976  1.4746  0.5064 -1.6215
20691WAT    EPW84571   2.665   1.502   6.008  0.5195  0.2850  0.0391
20692WAT      O84572   3.989   2.287   4.331 -0.5949  0.3754  0.3064
20692WAT     H184573   3.968   2.199   4.299 -0.4353  0.2193  0.6250
20692WAT     H284574   3.984   2.279   4.426  4.7233 -0.7486  0.7990
20692WAT    EPW84575   3.985   2.274   4.339  0.1276  0.2066  0.4134
20693WAT      O84576   0.491   4.414   5.997  0.0903 -0.0639 -0.5228
20693WAT     H184577   0.466   4.337   6.049  0.3551  0.1838 -0.0249
20693WAT     H284578   0.500   4.381   5.908 -0.1588 -0.5372 -0.3749
20693WAT    EPW84579   0.489   4.399   5.992  0.0924 -0.0932 -0.4377
20694WAT      O84580  10.305   2.527   2.766 -0.1265  0.1486  0.4350
20694WAT     H184581  10.271   2.438   2.776 -0.3691  0.0913 -0.7325
20694WAT     H284582  10.272   2.556   2.680  1.4945  0.6659 -0.0477
20694WAT    EPW84583  10.296   2.519   2.756  0.0548  0.2093  0.2173
20695WAT      O84584   1.948   2.817   5.965 -0.3259 -0.1250  0.1285
20695WAT     H184585   1.866   2.829   6.012  0.7779 -0.7401  2.3482
20695WAT     H284586   2.012   2.867   6.017  1.1222 -1.6001 -0.1666
20695WAT    EPW84587   1.946   2.826   5.978  0.0107 -0.4007  0.3822
20696WAT      O84588   9.214   1.057   6.385 -0.7716  0.3612  0.6248
20696WAT     H184589   9.134   1.110   6.388 -1.0568 -0.0648  0.7676
20696WAT     H284590   9.282   1.118   6.357 -1.1782  0.6942  0.3352
20696WAT    EPW84591   9.212   1.072   6.382 -0.8631  0.3489  0.6056
20697WAT      O84592  10.461   4.223   6.131  0.2619 -0.1623 -0.0456
20697WAT     H184593  10.501   4.142   6.163 -0.3888  0.5968  3.0739
20697WAT     H284594  10.522   4.291   6.157 -0.7953  0.6014  0.5364
20697WAT    EPW84595  10.474   4.221   6.139  0.0367  0.0386  0.4425
20698WAT      O84596  10.775   0.859   2.552  0.0783  0.4505 -0.1318
20698WAT     H184597  10.831   0.899   2.487  1.2160 -1.4793 -0.3994
20698WAT     H284598  10.726   0.791   2.504 -0.9568  0.7047  0.5211
20698WAT    EPW84599  10.776   0.855   2.537  0.0911  0.2295 -0.0811
20699WAT      O84600  10.354   2.387   5.417 -0.5213  0.1891 -0.8697
20699WAT     H184601  10.351   2.419   5.507 -0.7030 -1.7457 -0.1366
20699WAT     H284602  10.441   2.412   5.386  0.7353 -1.6514  0.9102
20699WAT    EPW84603  10.365   2.395   5.424 -0.3800 -0.3088 -0.5383
20700WAT      O84604   2.407   2.809   6.091  0.3502  0.1001  0.1826
20700WAT     H184605   2.486   2.864   6.091  0.2920  0.2791 -1.7713
20700WAT     H284606   2.345   2.854   6.147  0.4736  1.8373 -1.0066
20700WAT    EPW84607   2.409   2.822   6.098  0.3588  0.3529 -0.2320
20701WAT      O84608   4.724   2.794   8.667 -0.5455 -0.2513  0.1121
20701WAT     H184609   4.688   2.711   8.699  0.0687 -0.7697 -0.5034
20701WAT     H284610   4.659   2.826   8.605 -0.4201 -0.6991 -0.2647
20701WAT    EPW84611   4.711   2.787   8.663 -0.4482 -0.3787 -0.0186
20702WAT      O84612   0.016   2.655   6.073  0.1563  0.0853  0.2906
20702WAT     H184613  -0.057   2.708   6.042  1.7238  1.1148 -2.0029
20702WAT     H284614   0.015   2.664   6.168 -2.3833  0.3916  0.2972
20702WAT    EPW84615   0.007   2.663   6.081  0.0281  0.2614 -0.0110
20703WAT      O84616   0.536   2.818   6.181  0.4388  0.0860 -0.4975
20703WAT     H184617   0.553   2.875   6.256  0.6076 -2.2734  1.3710
20703WAT     H284618   0.620   2.813   6.135  0.9841 -0.2593  0.5056
20703WAT    EPW84619   0.549   2.825   6.185  0.5330 -0.2707 -0.1190
20704WAT      O84620   3.459   2.099   3.646  0.1315  0.1468  0.3481
20704WAT     H184621   3.492   2.011   3.626 -0.4632 -0.8313  3.1578
20704WAT     H284622   3.538   2.151   3.662  0.4502 -0.4549  0.7571
20704WAT    EPW84623   3.474   2.094   3.645  0.0952 -0.0616  0.7727
20705WAT      O84624   6.006   9.080   5.446  1.0113 -0.1474  0.3831
20705WAT     H184625   6.069   9.007   5.444  0.1909 -0.9747  2.3042
20705WAT     H284626   5.944   9.060   5.376  1.7054 -0.3968 -0.1810
20705WAT    EPW84627   6.006   9.068   5.436  0.9947 -0.2894  0.5622
20706WAT      O84628   2.282   5.057   7.567 -0.1447  0.2603 -0.0945
20706WAT     H184629   2.297   5.039   7.474  1.4363  0.3795  0.1163
20706WAT     H284630   2.198   5.014   7.586 -1.4170  1.7182 -1.9829
20706WAT    EPW84631   2.273   5.049   7.557 -0.1040  0.4683 -0.3159
20707WAT      O84632   3.676   0.145   4.670 -0.1719  0.1541  0.4904
20707WAT     H184633   3.613   0.171   4.602 -1.2323 -1.1292  0.9267
20707WAT     H284634   3.749   0.106   4.621  1.2896  3.3854 -0.1473
20707WAT    EPW84635   3.677   0.143   4.655 -0.1190  0.4110  0.4640
20708WAT      O84636   1.264   1.981   6.334 -0.3347  0.1539 -0.0942
20708WAT     H184637   1.267   2.058   6.392  0.2732 -0.8463  1.2628
20708WAT     H284638   1.313   2.007   6.257  2.3737  0.2463  1.5323
20708WAT    EPW84639   1.271   1.995   6.332  0.1027  0.0342  0.2995
20709WAT      O84640   1.126   1.061   5.881  0.0770  0.2022 -0.3720
20709WAT     H184641   1.219   1.082   5.871 -0.2597  3.0387  1.3622
20709WAT     H284642   1.123   0.998   5.954  0.5723  1.0818  0.4184
20709WAT    EPW84643   1.138   1.055   5.889  0.0979  0.6922 -0.0389
20710WAT      O84644   5.068   8.809   4.915  0.7259 -0.0083 -0.4351
20710WAT     H184645   5.027   8.723   4.909  0.9752 -0.0919 -1.0149
20710WAT     H284646   5.153   8.799   4.873  1.0438  0.3528  0.0995
20710WAT    EPW84647   5.073   8.796   4.909  0.8008  0.0281 -0.4413
20711WAT      O84648   2.141   0.775   4.664  0.5210  0.3094  0.5727
20711WAT     H184649   2.236   0.789   4.673  0.8987 -1.5723 -0.0759
20711WAT     H284650   2.114   0.842   4.601  1.6558  0.0720 -0.2005
20711WAT    EPW84651   2.150   0.786   4.657  0.7204  0.0300  0.3850
20712WAT      O84652   0.855   2.195   5.234  0.4604  0.2333 -0.0178
20712WAT     H184653   0.816   2.251   5.167 -0.8851 -2.3441 -1.5602
20712WAT     H284654   0.949   2.202   5.219  0.3302  1.9496 -0.2152
20712WAT    EPW84655   0.862   2.203   5.223  0.2658  0.1197 -0.2472
20713WAT      O84656  10.423   8.011   6.407  0.6527 -0.0228  0.3954
20713WAT     H184657  10.395   7.923   6.381 -0.6589  0.1372  1.1855
20713WAT     H284658  10.342   8.061   6.416  1.0565  0.2759  3.5103
20713WAT    EPW84659  10.409   8.006   6.405  0.5331  0.0381  0.9105
20714WAT      O84660   2.145   2.569   4.959  0.3866  0.3744 -0.1755
20714WAT     H184661   2.171   2.529   5.042 -0.9348  1.8213  0.9804
20714WAT     H284662   2.214   2.633   4.941 -0.2489  1.3358  0.7632
20714WAT    EPW84663   2.158   2.572   4.968  0.1285  0.6921  0.1009
20715WAT      O84664   0.966   3.272   7.510  0.2752  0.2847  0.3632
20715WAT     H184665   1.045   3.295   7.461  1.5914  0.3836  2.4139
20715WAT     H284666   0.949   3.349   7.564  0.8448 -0.9722  2.4488
20715WAT    EPW84667   0.974   3.285   7.510  0.5240  0.1321  0.9089
20716WAT      O84668  10.230   9.981   6.142 -0.2022  0.0960  0.1505
20716WAT     H184669  10.188  10.024   6.216  1.2250 -2.8006  2.8716
20716WAT     H284670  10.182   9.899   6.132 -0.1252  0.2376 -2.0136
20716WAT    EPW84671  10.218   9.976   6.150 -0.0038 -0.2670  0.2241
20717WAT      O84672   1.112   3.989   8.170 -0.8979  0.0712  0.2066
20717WAT     H184673   1.114   4.071   8.218 -1.5859 -0.4533  1.1572
20717WAT     H284674   1.166   4.005   8.093  0.0079  1.0063  1.0206
20717WAT    EPW84675   1.119   4.002   8.166 -0.8692  0.1254  0.4392
20718WAT      O84676   9.503   9.623   6.036  0.4111 -0.3418  0.1592
20718WAT     H184677   9.548   9.583   5.962  4.7527 -1.0834  2.8071
20718WAT     H284678   9.523   9.716   6.030  0.8395 -0.4151  0.3503
20718WAT    EPW84679   9.512   9.630   6.026  1.0400 -0.4497  0.5336
20719WAT      O84680   0.050   0.555   6.377  0.3098  0.4665 -0.0231
20719WAT     H184681   0.098   0.632   6.346 -0.0848  0.7360  0.0300
20719WAT     H284682   0.071   0.487   6.313  0.2060  0.7773 -0.3949
20719WAT    EPW84683   0.059   0.556   6.364  0.2441  0.5430 -0.0648
20720WAT      O84684   0.946   6.385   5.636  0.1526  0.5550  0.3437
20720WAT     H184685   0.971   6.302   5.678  0.5883  1.7141  2.5534
20720WAT     H284686   1.027   6.419   5.599  0.0727  0.2370 -0.1287
20720WAT    EPW84687   0.960   6.378   5.637  0.1996  0.6657  0.5729
20721WAT      O84688   3.838   1.341   5.006  0.6733  0.0799  0.4587
20721WAT     H184689   3.929   1.363   5.023  0.5033  1.1918  0.0595
20721WAT     H284690   3.839   1.248   4.983  1.5270 -0.2318  1.6545
20721WAT    EPW84691   3.850   1.332   5.005  0.7634  0.1854  0.5639
20722WAT      O84692   2.852   2.971   2.668 -1.1229  0.0010 -0.0070
20722WAT     H184693   2.822   2.882   2.691  0.4898 -0.5952 -0.1030
20722WAT     H284694   2.771   3.019   2.650 -1.9929 -2.1439 -2.5555
20722WAT    EPW84695   2.837   2.965   2.669 -1.0252 -0.3606 -0.3557
20723WAT      O84696   1.284   2.674   6.358 -0.1744  0.0366  0.2863
20723WAT     H184697   1.285   2.627   6.442  1.5229 -0.6946 -0.0967
20723WAT     H284698   1.200   2.651   6.318  0.5346 -2.6512  0.1538
20723WAT    EPW84699   1.273   2.665   6.364  0.1431 -0.4144  0.2179
20724WAT      O84700   3.277   3.201   6.526  0.1140 -0.2864 -0.1453
20724WAT     H184701   3.183   3.187   6.534 -0.1877  1.7295  0.3183
20724WAT     H284702   3.314   3.163   6.606 -0.4453  0.0630  0.2802
20724WAT    EPW84703   3.270   3.194   6.538  0.0005  0.0255 -0.0277
20725WAT      O84704   2.562   4.284   4.783 -0.9679 -0.2843  0.7779
20725WAT     H184705   2.525   4.229   4.715  1.8456  0.0428 -1.1796
20725WAT     H284706   2.614   4.224   4.837  1.6731  0.1598 -1.0495
20725WAT    EPW84707   2.564   4.269   4.781 -0.2484 -0.1826  0.2789
20726WAT      O84708   8.517   6.040   5.278 -0.4356 -0.5157  1.0304
20726WAT     H184709   8.429   6.072   5.298 -0.1400  0.9930  0.0778
20726WAT     H284710   8.516   6.027   5.183  0.6537  0.4802  0.8691
20726WAT    EPW84711   8.505   6.042   5.268 -0.2527 -0.1853  0.8838
20727WAT      O84712   0.901   4.634   4.525 -0.1422 -0.0012  0.5177
20727WAT     H184713   0.943   4.701   4.579 -2.1333  2.6051 -0.9503
20727WAT     H284714   0.971   4.574   4.502  1.6306  1.2211  2.3705
20727WAT    EPW84715   0.915   4.635   4.529 -0.1710  0.5035  0.5684
20728WAT      O84716  10.801   3.322   5.342 -0.2767 -0.4533  0.4691
20728WAT     H184717  10.733   3.385   5.320 -0.3547 -0.5484  0.4340
20728WAT     H284718  10.868   3.373   5.388  0.8635  0.1814 -1.7742
20728WAT    EPW84719  10.801   3.337   5.345 -0.1364 -0.3821  0.1683
20729WAT      O84720   1.598   8.019   7.483  0.7474 -0.0496 -0.1766
20729WAT     H184721   1.674   8.057   7.526 -1.0525  0.5562  2.7686
20729WAT     H284722   1.553   8.094   7.443  1.0413 -0.2450 -0.9041
20729WAT    EPW84723   1.602   8.034   7.483  0.5487  0.0043  0.1156
20730WAT      O84724  10.976   5.027   6.864 -0.1152 -0.4310 -0.4101
20730WAT     H184725  10.990   4.947   6.915  0.4068  0.1480  0.3835
20730WAT     H284726  10.921   5.082   6.921  0.0162  0.0051 -0.7019
20730WAT    EPW84727  10.971   5.024   6.879 -0.0291 -0.2971 -0.3438
20731WAT      O84728   0.375   0.589   7.375 -0.6265 -0.6956 -0.3674
20731WAT     H184729   0.361   0.683   7.363  1.7637 -0.0316  1.1993
20731WAT     H284730   0.334   0.548   7.299 -0.5587  1.7186 -1.8018
20731WAT    EPW84731   0.368   0.596   7.363 -0.3023 -0.2896 -0.3498
20732WAT      O84732   3.510   3.743   5.588 -0.2447  0.3800  0.2436
20732WAT     H184733   3.532   3.782   5.504 -0.2395  0.4753  0.2887
20732WAT     H284734   3.566   3.788   5.651 -0.4272  0.4836  0.3321
20732WAT    EPW84735   3.520   3.754   5.586 -0.2680  0.4061  0.2611
20733WAT      O84736   2.240   2.974   4.973 -0.0504  0.7385 -0.1935
20733WAT     H184737   2.170   2.910   4.963 -0.3062  1.2481 -1.8368
20733WAT     H284738   2.281   2.951   5.057 -0.9128 -0.7840 -0.1544
20733WAT    EPW84739   2.236   2.963   4.983 -0.1979  0.6047 -0.4053
20734WAT      O84740   1.861   5.892   6.357 -0.3490  0.4568  0.3187
20734WAT     H184741   1.875   5.889   6.452  0.5945 -0.3859  0.1644
20734WAT     H284742   1.787   5.952   6.346 -0.2652  0.8155  1.5608
20734WAT    EPW84743   1.853   5.900   6.368 -0.2135  0.3929  0.4623
20735WAT      O84744   7.078  10.276   8.055 -0.0409  0.0205  0.0847
20735WAT     H184745   6.988  10.252   8.078 -0.1039  0.3829  0.2294
20735WAT     H284746   7.071  10.364   8.017  0.5607  1.4014  2.8766
20735WAT    EPW84747   7.065  10.284   8.053  0.0300  0.2508  0.4721
20736WAT      O84748   3.980   4.941   1.428  0.3872 -0.3398 -0.4300
20736WAT     H184749   4.001   4.860   1.473 -0.1266  1.3926  3.2391
20736WAT     H284750   3.885   4.940   1.418 -0.0586  1.0369  2.5762
20736WAT    EPW84751   3.971   4.930   1.432  0.2606  0.0701  0.4504
20737WAT      O84752   0.896   1.716   3.156  0.8214  0.5075  0.0338
20737WAT     H184753   0.985   1.684   3.172  0.0088 -1.3305  1.2351
20737WAT     H284754   0.839   1.647   3.190 -1.0925  1.2407 -1.4623
20737WAT    EPW84755   0.900   1.703   3.162  0.4618  0.3617 -0.0051
20738WAT      O84756  10.469   6.216   5.821  0.1100 -0.3551  0.2775
20738WAT     H184757  10.491   6.206   5.729 -0.3074 -0.2226  0.1667
20738WAT     H284758  10.498   6.304   5.844  1.2137 -0.7696  0.5521
20738WAT    EPW84759  10.476   6.226   5.812  0.2003 -0.3922  0.2992
20739WAT      O84760   2.502   3.544   6.450 -0.1993  0.4972 -0.5403
20739WAT     H184761   2.551   3.621   6.422 -0.0006  0.2731 -0.8142
20739WAT     H284762   2.539   3.522   6.536  0.6285 -0.0479 -1.0222
20739WAT    EPW84763   2.513   3.551   6.458 -0.0639  0.3958 -0.6402
20740WAT      O84764   3.363   7.709   5.955  0.4104  0.1907 -0.0415
20740WAT     H184765   3.406   7.631   5.920  0.2624 -0.4994  1.2792
20740WAT     H284766   3.434   7.758   5.997 -0.1056 -1.4143  2.9895
20740WAT    EPW84767   3.378   7.705   5.956  0.3228 -0.1121  0.5322
20741WAT      O84768   1.857   5.973   7.656  0.0539  0.1445  0.3484
20741WAT     H184769   1.882   5.907   7.720  1.0880  0.4655  0.2942
20741WAT     H284770   1.925   6.040   7.662  1.3878 -0.7926 -2.5160
20741WAT    EPW84771   1.869   5.973   7.665  0.3663  0.0632 -0.0365
20742WAT      O84772   0.262   3.868   7.419  0.0165  0.8858 -0.2922
20742WAT     H184773   0.177   3.870   7.462 -1.5383  1.2444 -3.1303
20742WAT     H284774   0.259   3.790   7.364  2.5435 -0.4618  1.2697
20742WAT    EPW84775   0.251   3.858   7.417  0.1448  0.7553 -0.4609
20743WAT      O84776   1.612   4.224   4.469  0.3395 -0.1118 -0.7322
20743WAT     H184777   1.617   4.188   4.557 -1.1166 -1.3574 -1.1225
20743WAT     H284778   1.597   4.318   4.482  0.6663 -0.2004  0.3242
20743WAT    EPW84779   1.611   4.232   4.482  0.1905 -0.2878 -0.6442
20744WAT      O84780   1.359   2.037   8.301 -0.0302 -0.0084 -0.2402
20744WAT     H184781   1.453   2.044   8.284  0.4077 -0.9394  1.5532
20744WAT     H284782   1.345   2.085   8.382 -1.1340  0.1938 -0.5337
20744WAT    EPW84783   1.369   2.044   8.309 -0.1180 -0.1045 -0.0424
20745WAT      O84784   2.368   5.587   5.544  0.7093 -0.2618  0.0832
20745WAT     H184785   2.307   5.517   5.521  0.3240 -0.3085  1.2041
20745WAT     H284786   2.323   5.667   5.518  1.7765 -0.4345 -2.6420
20745WAT    EPW84787   2.354   5.588   5.537  0.7992 -0.2906 -0.1283
20746WAT      O84788   0.204   1.803   6.104 -0.2972 -0.4690  0.0985
20746WAT     H184789   0.250   1.757   6.034  1.0975  0.6021  0.2450
20746WAT     H284790   0.235   1.761   6.184 -1.2051 -1.1113  0.1206
20746WAT    EPW84791   0.214   1.791   6.106 -0.2330 -0.4124  0.1209
20747WAT      O84792   1.011   1.126   6.697 -0.1354  0.4231 -0.0450
20747WAT     H184793   1.019   1.212   6.738 -1.1292  0.7117 -0.4208
20747WAT     H284794   0.951   1.077   6.755  0.7217 -0.1558  0.3730
20747WAT    EPW84795   1.004   1.131   6.710 -0.1534  0.3849 -0.0396
20748WAT      O84796   5.696   0.518   5.545 -0.3678  0.6271 -0.0023
20748WAT     H184797   5.697   0.429   5.580  1.3527  1.7352  3.1724
20748WAT     H284798   5.746   0.513   5.464 -1.0419 -1.4112 -0.3429
20748WAT    EPW84799   5.703   0.505   5.539 -0.2298  0.5044  0.3715
20749WAT      O84800   1.986   3.490   4.928  0.2465  0.1930  0.6258
20749WAT     H184801   2.081   3.501   4.934  1.2539 -4.0044 -2.6519
20749WAT     H284802   1.961   3.537   4.849 -0.5560  1.4924  1.6081
20749WAT    EPW84803   1.995   3.498   4.918  0.2735 -0.1892  0.3233
20750WAT      O84804   2.561   5.044   5.084 -0.5018  1.0147 -0.4197
20750WAT     H184805   2.538   5.123   5.035  0.3412  1.4032 -0.2195
20750WAT     H284806   2.576   4.977   5.016 -2.7348  0.5555 -0.5377
20750WAT    EPW84807   2.560   5.045   5.068 -0.6850  1.0054 -0.4086
20751WAT      O84808   2.884   4.704   6.104 -0.3960  0.8646  0.2551
20751WAT     H184809   2.850   4.657   6.180  2.1113  0.0637  0.9929
20751WAT     H284810   2.877   4.796   6.129 -0.2910  0.6450  1.1573
20751WAT    EPW84811   2.879   4.710   6.118 -0.0514  0.7303  0.4716
20752WAT      O84812   5.787   2.727   2.760  0.1747  0.5267  0.1214
20752WAT     H184813   5.851   2.791   2.729 -0.7649  1.8178  0.7517
20752WAT     H284814   5.791   2.734   2.855  0.1956 -0.5085  0.1999
20752WAT    EPW84815   5.796   2.737   2.769  0.0539  0.5605  0.2149
20753WAT      O84816  10.175   0.008   4.820  0.2205 -0.5646 -0.6059
20753WAT     H184817  10.200  -0.081   4.845 -0.6921 -1.1433 -1.6803
20753WAT     H284818  10.248   0.062   4.851  1.0189 -1.7348 -0.3545
20753WAT    EPW84819  10.188   0.004   4.827  0.2055 -0.7953 -0.7145
20754WAT      O84820   0.310   5.859   7.776 -0.1193  0.2009  0.4472
20754WAT     H184821   0.338   5.809   7.698 -0.2947 -0.3422  0.7255
20754WAT     H284822   0.223   5.892   7.753 -0.8341 -1.2383  0.9655
20754WAT    EPW84823   0.303   5.857   7.762 -0.2367 -0.0606  0.5522
20755WAT      O84824   1.535   6.084   6.921 -0.0094  0.3593  0.4641
20755WAT     H184825   1.548   5.992   6.942 -2.2386  0.2095  1.4411
20755WAT     H284826   1.540   6.129   7.006 -0.8159  0.8716  0.2544
20755WAT    EPW84827   1.538   6.078   6.935 -0.4098  0.4070  0.5653
20756WAT      O84828   2.983   8.092   7.101  0.1499  0.3134 -0.4802
20756WAT     H184829   2.963   8.016   7.045 -1.2524 -0.2457  0.7238
20756WAT     H284830   2.941   8.166   7.056  0.0740  0.0862 -0.7907
20756WAT    EPW84831   2.974   8.092   7.087 -0.0449  0.2093 -0.3622
20757WAT      O84832  10.881   6.459   5.933 -0.3698 -0.2603 -0.4056
20757WAT     H184833  10.972   6.431   5.946 -0.5878 -1.2182 -0.8636
20757WAT     H284834  10.888   6.549   5.902  0.4834 -0.7189 -1.6190
20757WAT    EPW84835  10.894   6.467   5.931 -0.2861 -0.4473 -0.6261
20758WAT      O84836   4.728   3.773   6.033 -0.3675 -0.5858 -0.1113
20758WAT     H184837   4.810   3.790   6.079 -1.2303 -4.7528  3.6398
20758WAT     H284838   4.748   3.699   5.975 -0.5160  1.4877 -3.0287
20758WAT    EPW84839   4.742   3.765   6.032 -0.5009 -0.8619 -0.0014
20759WAT      O84840   4.830   5.934   0.221 -0.7527  0.2735 -0.0184
20759WAT     H184841   4.802   5.856   0.174  0.9707  0.1946 -1.0038
20759WAT     H284842   4.781   6.005   0.180 -0.5094 -0.0074 -0.8246
20759WAT    EPW84843   4.820   5.933   0.209 -0.4930  0.2263 -0.2547
20760WAT      O84844   2.655   3.320   3.376  0.1103 -0.3931 -0.4688
20760WAT     H184845   2.596   3.275   3.314  0.4643 -0.4011 -0.8010
20760WAT     H284846   2.737   3.271   3.370 -0.0432 -0.7976  0.4915
20760WAT    EPW84847   2.658   3.307   3.367  0.1367 -0.4475 -0.3860
20761WAT      O84848   0.371   3.239   6.178  0.5705  0.5478  0.6598
20761WAT     H184849   0.328   3.303   6.121  1.7698  0.4774 -0.3719
20761WAT     H284850   0.327   3.156   6.159  2.2113  0.1102 -1.7123
20761WAT    EPW84851   0.359   3.237   6.168  0.9451  0.4808  0.2108
20762WAT      O84852   6.514   8.231   0.427  0.4163  0.3141 -0.3240
20762WAT     H184853   6.528   8.315   0.384 -3.5596  1.4758  0.1875
20762WAT     H284854   6.460   8.181   0.365  2.4217 -1.8715 -0.4828
20762WAT    EPW84855   6.508   8.235   0.413  0.1566  0.1783 -0.2775
20763WAT      O84856   2.928   5.719   6.145 -0.4758  0.1428 -0.0243
20763WAT     H184857   2.940   5.655   6.075 -0.9241 -0.0383  0.0620
20763WAT     H284858   2.974   5.682   6.220 -0.2341  0.2039 -0.1408
20763WAT    EPW84859   2.936   5.706   6.146 -0.5031  0.1268 -0.0286
20764WAT      O84860   0.404   2.258   4.040  0.4532  0.1409  0.3064
20764WAT     H184861   0.397   2.317   4.114  0.1234 -0.5748  0.8660
20764WAT     H284862   0.377   2.173   4.075 -0.6333 -0.0339 -0.8472
20764WAT    EPW84863   0.399   2.254   4.054  0.2663  0.0234  0.2279
20765WAT      O84864   8.089   8.166   0.817 -0.3005 -0.7240 -0.7823
20765WAT     H184865   8.097   8.070   0.815 -0.7426 -1.0696  3.8350
20765WAT     H284866   8.169   8.195   0.861 -0.5716  0.9538 -1.3419
20765WAT    EPW84867   8.101   8.157   0.823 -0.3943 -0.5484 -0.2471
20766WAT      O84868   3.494   4.331   5.252  0.2491 -0.2351 -0.0319
20766WAT     H184869   3.510   4.418   5.288 -1.8599  0.7670 -1.3450
20766WAT     H284870   3.499   4.343   5.157 -0.7975 -1.3934 -0.2596
20766WAT    EPW84871   3.497   4.344   5.244 -0.1670 -0.2558 -0.2351
20767WAT      O84872  10.499   6.461   2.575  0.4640  0.1588 -0.1604
20767WAT     H184873  10.487   6.511   2.494 -2.9754  0.5127  0.4199
20767WAT     H284874  10.569   6.507   2.621  0.9435  1.3099 -1.9236
20767WAT    EPW84875  10.507   6.474   2.570  0.0734  0.3572 -0.3165
20768WAT      O84876   5.427   9.214   6.576 -0.3099 -0.4560 -0.6618
20768WAT     H184877   5.382   9.191   6.657 -2.6285 -4.0703 -2.7351
20768WAT     H284878   5.375   9.286   6.539 -1.1156 -0.9075 -0.4188
20768WAT    EPW84879   5.414   9.221   6.582 -0.7219 -0.9918 -0.9034
20769WAT      O84880   3.722   3.135   8.607 -0.4210 -0.4184  0.1018
20769WAT     H184881   3.747   3.218   8.567  0.4501 -0.7733 -0.1266
20769WAT     H284882   3.755   3.069   8.545 -2.0702 -0.9239 -0.2755
20769WAT    EPW84883   3.730   3.137   8.593 -0.5237 -0.5319  0.0219
20770WAT      O84884   3.575   0.058   4.150  0.2427 -0.5413  0.2832
20770WAT     H184885   3.656   0.009   4.157  0.0077 -0.7109  2.4281
20770WAT     H284886   3.509   0.003   4.193 -1.3663 -1.0416 -2.5891
20770WAT    EPW84887   3.577   0.045   4.157 -0.0005 -0.6296  0.1872
20771WAT      O84888   1.075   5.909   7.290  0.1973  0.4532 -0.0582
20771WAT     H184889   0.995   5.917   7.342 -1.4219 -1.1165 -2.1538
20771WAT     H284890   1.097   5.998   7.265 -0.4222  0.9783  1.1635
20771WAT    EPW84891   1.067   5.921   7.294 -0.0980  0.3154 -0.1733
20772WAT      O84892   3.895   4.119   5.976 -0.1346 -0.3003 -0.0477
20772WAT     H184893   3.856   4.206   5.972 -0.7226 -0.5822 -2.5299
20772WAT     H284894   3.821   4.059   5.981  0.0989 -0.7167 -1.2170
20772WAT    EPW84895   3.880   4.122   5.976 -0.1813 -0.3927 -0.5293
20773WAT      O84896   9.566   5.780   7.645  0.3567  0.4636 -0.5215
20773WAT     H184897   9.582   5.787   7.739  0.1366  2.1814 -0.5709
20773WAT     H284898   9.586   5.868   7.611  0.1223 -0.0335 -2.0303
20773WAT    EPW84899   9.571   5.793   7.653  0.2966  0.6244 -0.7272
20774WAT      O84900   8.913   2.900   5.606  0.1354  0.7955  0.3279
20774WAT     H184901   8.822   2.892   5.580  0.2436 -2.1623  0.4838
20774WAT     H284902   8.910   2.906   5.702  0.1014  1.2784  0.2996
20774WAT    EPW84903   8.901   2.900   5.615  0.1454  0.4691  0.3448
20775WAT      O84904   2.913   7.816   8.906  0.6173 -0.2389  0.2387
20775WAT     H184905   2.862   7.865   8.842 -0.6842 -0.5381  0.9920
20775WAT     H284906   2.993   7.790   8.860 -0.3604 -0.6044 -1.3096
20775WAT    EPW84907   2.917   7.819   8.892  0.3167 -0.3266  0.1340
20776WAT      O84908   7.940   8.600   6.658 -0.0218  0.7941  0.2630
20776WAT     H184909   8.000   8.531   6.632  0.0329  0.7425  0.5228
20776WAT     H284910   7.992   8.680   6.657 -0.2373  0.9302 -0.6411
20776WAT    EPW84911   7.954   8.601   6.654 -0.0429  0.8049  0.1781
20777WAT      O84912   6.919   6.810   1.899 -0.7582 -0.7265  0.1656
20777WAT     H184913   6.905   6.745   1.967  3.6997 -0.6648  1.4419
20777WAT     H284914   6.912   6.761   1.817  0.5950 -2.4598  1.0231
20777WAT    EPW84915   6.917   6.795   1.897  0.0081 -0.9470  0.4470
20778WAT      O84916   1.479   2.752   3.226  0.1057  0.4739 -0.4646
20778WAT     H184917   1.563   2.765   3.270  1.2759  1.0045 -2.7065
20778WAT     H284918   1.424   2.712   3.292  2.6293 -1.4840  0.6525
20778WAT    EPW84919   1.483   2.748   3.240  0.5929  0.2856 -0.6129
20779WAT      O84920   1.065   5.263   7.165  0.7178 -0.0061 -0.2922
20779WAT     H184921   1.096   5.323   7.097  1.2397  0.1200  0.0542
20779WAT     H284922   1.145   5.235   7.210  0.2060  2.2749  2.2765
20779WAT    EPW84923   1.080   5.267   7.162  0.7191  0.3114  0.0923
20780WAT      O84924   3.283   0.566   6.109  0.3635  0.0129 -0.4242
20780WAT     H184925   3.217   0.621   6.067  0.0239  0.1644  0.2910
20780WAT     H284926   3.246   0.478   6.109 -0.1201  0.2038  0.5259
20780WAT    EPW84927   3.270   0.562   6.104  0.2549  0.0581 -0.2048
20781WAT      O84928   2.381   6.326   7.957 -0.1565 -0.0848  0.1768
20781WAT     H184929   2.449   6.392   7.967  0.4872 -0.8071  0.6012
20781WAT     H284930   2.302   6.368   7.992 -0.1074  1.0039 -0.9293
20781WAT    EPW84931   2.379   6.341   7.963 -0.0651 -0.0365  0.0868
20782WAT      O84932   1.713   5.343   3.479  0.4864  0.8267  0.3391
20782WAT     H184933   1.784   5.359   3.541  0.2863  1.8896  0.3235
20782WAT     H284934   1.748   5.371   3.394  1.0415 -1.3706 -0.2145
20782WAT    EPW84935   1.727   5.349   3.476  0.5333  0.6769  0.2642
20783WAT      O84936   3.730   6.070   4.350 -0.9931  0.3298 -0.7073
20783WAT     H184937   3.823   6.088   4.368 -0.9269  1.1820 -1.7503
20783WAT     H284938   3.693   6.156   4.330 -2.2276  0.1177  0.5368
20783WAT    EPW84939   3.738   6.084   4.350 -1.1473  0.4141 -0.6809
20784WAT      O84940   0.198   3.371   6.944  0.2973 -0.4218 -0.5508
20784WAT     H184941   0.250   3.429   6.889  0.7329  0.6726  0.9538
20784WAT     H284942   0.257   3.299   6.966  0.9610  0.4054  0.4867
20784WAT    EPW84943   0.213   3.369   6.940  0.4423 -0.1683 -0.2153
20785WAT      O84944   3.123   1.773   7.146  0.3459  0.0500  0.2066
20785WAT     H184945   3.065   1.825   7.091  1.3481  1.1708  0.1652
20785WAT     H284946   3.071   1.696   7.170 -0.7090  0.4104 -0.8356
20785WAT    EPW84947   3.109   1.770   7.142  0.3389  0.2453  0.0639
20786WAT      O84948   4.590   9.673   6.209  1.0304 -0.5644  0.3425
20786WAT     H184949   4.564   9.712   6.293  0.8486 -1.8044  0.8889
20786WAT     H284950   4.678   9.707   6.193  0.3987  1.0570  0.1402
20786WAT    EPW84951   4.598   9.683   6.218  0.9232 -0.5140  0.3877
20787WAT      O84952   1.179   8.927   4.799  0.2679  0.2662  0.2967
20787WAT     H184953   1.135   9.000   4.843 -2.9993 -0.2037 -1.7757
20787WAT     H284954   1.166   8.852   4.858 -0.5773  0.4355  0.3426
20787WAT    EPW84955   1.171   8.927   4.812 -0.2745  0.2265  0.0293
20788WAT      O84956   2.346   6.076   7.461  0.2483 -0.0247 -0.6701
20788WAT     H184957   2.402   6.142   7.419 -1.6348  2.7424  0.8731
20788WAT     H284958   2.391   6.057   7.544  0.7531 -0.7043 -1.0829
20788WAT    EPW84959   2.360   6.082   7.466  0.0666  0.2506 -0.5209
20789WAT      O84960   7.577  10.276   7.036  0.1026 -0.8325 -0.5887
20789WAT     H184961   7.511  10.215   7.003 -0.8886  0.5396 -1.2504
20789WAT     H284962   7.636  10.290   6.963  0.9525 -1.7749 -0.1095
20789WAT    EPW84963   7.576  10.270   7.022  0.0842 -0.7763 -0.6127
20790WAT      O84964   9.653   4.637   8.940 -0.4793 -1.0253  0.7110
20790WAT     H184965   9.630   4.678   8.857 -0.0636 -0.5453  0.8317
20790WAT     H284966   9.732   4.586   8.921  1.6015  1.6817  1.5146
20790WAT    EPW84967   9.660   4.636   8.927 -0.1497 -0.6049  0.8330
20791WAT      O84968   7.501   6.680   5.052  0.2200 -0.9836 -0.1140
20791WAT     H184969   7.441   6.697   5.124  2.5908 -0.0879  1.7709
20791WAT     H284970   7.563   6.753   5.054  0.1511 -0.6808 -3.3851
20791WAT    EPW84971   7.502   6.692   5.062  0.5236 -0.8254 -0.2971
20792WAT      O84972   1.450   4.986   7.508 -0.5806  0.5472  0.2648
20792WAT     H184973   1.536   4.952   7.533 -1.5194 -1.2608  1.2104
20792WAT     H284974   1.431   4.942   7.425 -0.5923  0.9717  0.0408
20792WAT    EPW84975   1.459   4.976   7.500 -0.7060  0.3645  0.3598
20793WAT      O84976   0.847   6.690   6.094  0.2208 -0.8299  0.2339
20793WAT     H184977   0.905   6.639   6.151 -0.9848 -0.7883  1.5521
20793WAT     H284978   0.815   6.626   6.029  0.2084 -1.3098  0.7070
20793WAT    EPW84979   0.850   6.674   6.093  0.0601 -0.8876  0.4702
20794WAT      O84980   1.017   6.750   5.706  0.1318 -0.9379 -0.4652
20794WAT     H184981   1.104   6.781   5.732  0.0198 -1.3723  0.4417
20794WAT     H284982   0.958   6.823   5.726  0.3811 -0.3351 -1.8257
20794WAT    EPW84983   1.021   6.764   5.712  0.1499 -0.9158 -0.5248
20795WAT      O84984   7.964  10.284   7.335  0.3658 -0.3209 -0.4342
20795WAT     H184985   8.012  10.263   7.255  0.1769 -0.5963 -0.4758
20795WAT     H284986   7.888  10.227   7.334  0.1012  0.0238 -0.3021
20795WAT    EPW84987   7.961  10.274   7.325  0.3061 -0.3114 -0.4222
20796WAT      O84988   0.455   6.255   6.114 -0.0717  0.0216 -0.5943
20796WAT     H184989   0.510   6.334   6.108 -2.2443  1.5595 -1.4582
20796WAT     H284990   0.508   6.193   6.164  1.8577  1.9031 -0.1465
20796WAT    EPW84991   0.469   6.257   6.120 -0.1038  0.4725 -0.6492
20797WAT      O84992   8.100   0.121   6.662 -0.4319 -0.3212  0.1048
20797WAT     H184993   8.113   0.216   6.665 -2.7304  0.0732 -0.7413
20797WAT     H284994   8.185   0.087   6.632  1.0586  1.2301  2.2381
20797WAT    EPW84995   8.113   0.129   6.658 -0.5383 -0.0646  0.2747
20798WAT      O84996   0.448   5.404   3.477  1.0552  0.4784 -0.7034
20798WAT     H184997   0.409   5.334   3.424  2.0721  0.3368 -1.2865
20798WAT     H284998   0.373   5.459   3.501  0.1357 -1.1247  0.3144
20798WAT    EPW84999   0.433   5.402   3.473  1.0681  0.2480 -0.6460
20799WAT      O85000   2.900   4.563   6.355  0.4163 -0.6003 -0.5406
20799WAT     H185001   2.892   4.571   6.450  0.0007  1.4734 -0.7071
20799WAT     H285002   2.983   4.606   6.334  0.3088 -0.6824 -1.1561
20799WAT    EPW85003   2.910   4.569   6.365  0.3474 -0.3378 -0.6435
20800WAT      O85004   4.413   9.312   0.792 -0.4968  0.2947  0.3548
20800WAT     H185005   4.342   9.341   0.849 -0.9388  0.4643 -0.2754
20800WAT     H285006   4.440   9.228   0.829  0.1806  1.0411  1.6512
20800WAT    EPW85007   4.408   9.305   0.804 -0.4656  0.4158  0.4427
20801WAT      O85008   9.943   3.434   6.913 -0.1089  0.2982 -0.5277
20801WAT     H185009   9.998   3.381   6.854 -0.3813  1.5119 -1.9397
20801WAT     H285010   9.855   3.399   6.902  0.0391 -0.2946  0.1386
20801WAT    EPW85011   9.939   3.423   6.904 -0.1249  0.3802 -0.6261
20802WAT      O85012  10.357   6.766   4.185 -0.0638  0.1638  0.1385
20802WAT     H185013  10.387   6.758   4.276  1.5097  1.4856 -0.2096
20802WAT     H285014  10.394   6.690   4.140 -0.2165 -0.0942  0.4456
20802WAT    EPW85015  10.366   6.755   4.191  0.1235  0.3042  0.1328
20803WAT      O85016   0.042   7.177   5.793 -0.3616 -0.0566 -0.1143
20803WAT     H185017   0.076   7.151   5.879  1.6678  1.2628 -0.4642
20803WAT     H285018  -0.031   7.236   5.813  0.4917  0.7361  0.7338
20803WAT    EPW85019   0.037   7.181   5.807  0.0186  0.2220 -0.0486
20804WAT      O85020   4.866   4.788   5.332  0.0859 -0.7236  0.1696
20804WAT     H185021   4.849   4.882   5.324  0.5574 -0.6314  0.1998
20804WAT     H285022   4.852   4.753   5.244 -1.4749 -0.8675  0.4557
20804WAT    EPW85023   4.862   4.796   5.319 -0.0575 -0.7303  0.2117
20805WAT      O85024   2.381   2.326   6.046 -0.3630 -0.1551  0.2575
20805WAT     H185025   2.368   2.417   6.017 -2.1595 -0.6223 -0.5231
20805WAT     H285026   2.450   2.293   5.988 -0.5442  0.3661 -0.2714
20805WAT    EPW85027   2.389   2.334   6.034 -0.6239 -0.1479  0.0849
20806WAT      O85028   1.431   6.676   3.679 -0.1082 -0.2292  0.4200
20806WAT     H185029   1.503   6.619   3.706 -0.6689 -0.4761  1.4499
20806WAT     H285030   1.465   6.722   3.602  0.3315 -1.9879 -0.4836
20806WAT    EPW85031   1.445   6.674   3.672 -0.1242 -0.4938  0.4368
20807WAT      O85032   1.791   4.407   4.182  0.1925  0.8557 -0.3030
20807WAT     H185033   1.732   4.332   4.184  0.9088  0.2572 -1.0743
20807WAT     H285034   1.878   4.370   4.200  0.4924  1.5675 -0.2389
20807WAT    EPW85035   1.795   4.392   4.185  0.3266  0.8709 -0.3965
20808WAT      O85036   2.256   3.555   4.974  0.6251  0.0321 -0.1414
20808WAT     H185037   2.327   3.541   4.912 -0.2052 -1.5269 -0.8113
20808WAT     H285038   2.298   3.548   5.060  1.3585 -0.4195 -0.5273
20808WAT    EPW85039   2.271   3.552   4.977  0.6126 -0.2331 -0.2806
20809WAT      O85040   4.227   7.953   2.643  0.1746  0.4088 -1.0074
20809WAT     H185041   4.201   8.019   2.707 -0.1397 -3.1443  2.9950
20809WAT     H285042   4.316   7.978   2.618  1.6495  0.5412  3.3975
20809WAT    EPW85043   4.235   7.965   2.648  0.3276 -0.0424  0.1016
20810WAT      O85044   3.566   3.092   3.738 -0.6899 -0.0238  0.4698
20810WAT     H185045   3.492   3.144   3.770 -1.1707  0.2047 -0.9169
20810WAT     H285046   3.550   3.004   3.772 -0.3500  0.5154  2.0854
20810WAT    EPW85047   3.554   3.087   3.746 -0.7085  0.0775  0.5002
20811WAT      O85048   3.863   6.296   0.738 -0.6853 -0.1071 -0.4649
20811WAT     H185049   3.947   6.263   0.768 -0.8228 -1.3686 -1.4010
20811WAT     H285050   3.807   6.219   0.732 -1.8013  0.6540 -0.2566
20811WAT    EPW85051   3.867   6.282   0.741 -0.8506 -0.1731 -0.5609
20812WAT      O85052   2.546   6.756   4.752  0.2589 -0.1304 -0.1704
20812WAT     H185053   2.488   6.680   4.759  1.1253 -0.6608  2.2729
20812WAT     H285054   2.502   6.824   4.804  1.6143 -0.4495  1.4773
20812WAT    EPW85055   2.532   6.755   4.760  0.5518 -0.2425  0.3691
20813WAT      O85056   2.983   4.305   7.713 -0.4046  0.0207  0.4105
20813WAT     H185057   3.025   4.308   7.627 -0.8984 -1.0308  0.1159
20813WAT     H285058   3.033   4.241   7.762 -1.4127 -0.9665  0.1803
20813WAT    EPW85059   2.995   4.297   7.708 -0.6027 -0.2482  0.3412
20814WAT      O85060   3.607   3.880   5.348 -0.5523  0.4034  0.4145
20814WAT     H185061   3.691   3.855   5.308 -0.8319 -0.6200  0.4482
20814WAT     H285062   3.614   3.975   5.360  0.3179  0.4359 -0.2427
20814WAT    EPW85063   3.619   3.889   5.344 -0.4745  0.2728  0.3319
20815WAT      O85064   8.864   4.939   7.650 -0.2437 -0.3187  0.1709
20815WAT     H185065   8.933   4.976   7.705 -0.8794  0.1774  0.6490
20815WAT     H285066   8.901   4.939   7.562  0.7767 -1.0925  0.5737
20815WAT    EPW85067   8.878   4.944   7.646 -0.1931 -0.3552  0.2871
20816WAT      O85068   4.140   9.790   1.101  0.2853  0.0759 -0.1906
20816WAT     H185069   4.083   9.771   1.027 -0.8637  0.9354  0.4478
20816WAT     H285070   4.100   9.865   1.144  1.9726  0.8030  0.2146
20816WAT    EPW85071   4.128   9.797   1.097  0.3562  0.2851 -0.0529
20817WAT      O85072   8.514   5.382   0.638  0.3776 -0.6497 -0.0830
20817WAT     H185073   8.440   5.396   0.579 -0.1634 -0.5426  0.6032
20817WAT     H285074   8.560   5.306   0.602 -0.3139 -0.9806 -0.2790
20817WAT    EPW85075   8.511   5.374   0.626  0.2146 -0.6793 -0.0183
20818WAT      O85076   4.141   3.645   6.506  0.4177 -0.8125 -0.1850
20818WAT     H185077   4.211   3.703   6.537  0.5705 -0.7170 -0.6954
20818WAT     H285078   4.106   3.689   6.429 -0.4415 -0.6946  0.2676
20818WAT    EPW85079   4.146   3.658   6.500  0.3245 -0.7844 -0.1929
20819WAT      O85080   1.765   2.093   5.653 -0.8485  0.1809  0.4789
20819WAT     H185081   1.859   2.095   5.637 -0.8912  1.6235  0.2355
20819WAT     H285082   1.754   2.032   5.726  0.2021 -0.4236  0.1530
20819WAT    EPW85083   1.776   2.085   5.660 -0.7155  0.2916  0.4039
20820WAT      O85084  10.593   4.938   8.917  0.0787  0.5341  1.1357
20820WAT     H185085  10.528   4.885   8.871  0.2470 -0.3451  1.8896
20820WAT     H285086  10.542   5.006   8.960 -0.1031  1.2489 -0.1552
20820WAT    EPW85087  10.578   4.940   8.917  0.0768  0.5126  1.0648
20821WAT      O85088   1.672   5.103   3.724  0.0525  0.4180 -0.1918
20821WAT     H185089   1.723   5.183   3.739 -0.6221  1.1031 -1.4772
20821WAT     H285090   1.737   5.033   3.730  0.8644  1.1451 -0.2031
20821WAT    EPW85091   1.688   5.104   3.727  0.0706  0.6044 -0.3628
20822WAT      O85092   4.205   4.467   5.470 -0.3341  0.0713  0.5475
20822WAT     H185093   4.219   4.547   5.420 -2.9382  0.7423  0.7220
20822WAT     H285094   4.168   4.496   5.553 -0.0900 -1.2506  1.1548
20822WAT    EPW85095   4.202   4.481   5.475 -0.6454 -0.0145  0.6506
20823WAT      O85096   1.795   7.502   1.749  0.9104  0.4186 -0.5384
20823WAT     H185097   1.706   7.537   1.755  0.4059 -1.0693  3.8376
20823WAT     H285098   1.785   7.423   1.696 -0.5019  0.0147  0.2709
20823WAT    EPW85099   1.782   7.496   1.743  0.6576  0.1693  0.1456
20824WAT      O85100   2.575   4.682   6.272  0.1167  0.0286  0.1356
20824WAT     H185101   2.542   4.684   6.182 -4.6871  1.6512  1.6098
20824WAT     H285102   2.617   4.596   6.280  0.4618 -0.3196 -3.4508
20824WAT    EPW85103   2.576   4.671   6.261 -0.4715  0.1965 -0.1428
20825WAT      O85104   2.471   1.630   7.077  0.4842  0.0924  0.2533
20825WAT     H185105   2.496   1.576   7.001  0.6623 -1.7152  1.5265
20825WAT     H285106   2.391   1.590   7.109  1.2147 -0.1432  1.8980
20825WAT    EPW85107   2.464   1.618   7.071  0.6042 -0.1771  0.6385
20826WAT      O85108  10.704   4.818   5.496  0.0757  0.1788  0.4829
20826WAT     H185109  10.692   4.806   5.591  0.3565  0.8861  0.6095
20826WAT     H285110  10.776   4.880   5.489 -0.4626  0.7415 -0.1913
20826WAT    EPW85111  10.712   4.824   5.508  0.0415  0.3464  0.4106
20827WAT      O85112   1.448   2.646   7.330 -0.9279  0.0152  0.1071
20827WAT     H185113   1.437   2.738   7.355 -4.0079 -0.1895 -0.0784
20827WAT     H285114   1.425   2.597   7.409 -0.0140 -0.6351 -0.0122
20827WAT    EPW85115   1.443   2.651   7.343 -1.2135 -0.0978  0.0668
20828WAT      O85116   9.604   1.629   8.307 -0.1702  0.0238  0.7548
20828WAT     H185117   9.588   1.567   8.236 -2.2695  0.5742  0.6779
20828WAT     H285118   9.516   1.653   8.339  0.5683  2.4093  1.2322
20828WAT    EPW85119   9.590   1.624   8.302 -0.3500  0.4110  0.8073
20829WAT      O85120   5.754   5.748   0.198  0.0842  0.8143 -0.2092
20829WAT     H185121   5.762   5.716   0.109 -0.5599 -1.2922  0.4380
20829WAT     H285122   5.674   5.707   0.232 -0.0951  2.1537  1.1082
20829WAT    EPW85123   5.744   5.739   0.191 -0.0246  0.7131  0.0500
20830WAT      O85124   0.769   1.849   4.721  0.1062 -0.6013 -0.1509
20830WAT     H185125   0.831   1.892   4.780 -0.2586 -0.7747  0.3756
20830WAT     H285126   0.822   1.821   4.647  1.1986 -2.9486  1.3878
20830WAT    EPW85127   0.784   1.851   4.719  0.2022 -0.9338  0.1216
20831WAT      O85128   2.602   3.883   6.681 -0.6409  0.7090  0.1795
20831WAT     H185129   2.618   3.862   6.773  0.1541 -0.0831 -0.1295
20831WAT     H285130   2.688   3.900   6.645 -0.8732  0.2900 -0.5937
20831WAT    EPW85131   2.615   3.883   6.689 -0.5666  0.5493  0.0367
20832WAT      O85132   3.679   1.651   4.411 -0.3986 -0.1429  0.1242
20832WAT     H185133   3.720   1.683   4.331  0.4887  0.9893  0.9990
20832WAT     H285134   3.706   1.559   4.416 -0.5201 -0.2447 -0.8983
20832WAT    EPW85135   3.688   1.643   4.401 -0.2975 -0.0070  0.1051
20833WAT      O85136   9.990   1.326   3.664  0.4989 -0.0777  0.1833
20833WAT     H185137  10.022   1.265   3.730  1.0297 -0.0157 -0.0059
20833WAT     H285138  10.070   1.357   3.620  0.1078 -0.6745 -0.9756
20833WAT    EPW85139  10.005   1.322   3.667  0.5174 -0.1484  0.0056
20834WAT      O85140   2.538   2.739   3.957  0.3287  0.2700 -0.2794
20834WAT     H185141   2.552   2.714   3.865  0.7652  0.7980 -0.3622
20834WAT     H285142   2.444   2.728   3.971  0.1150  1.0309 -1.0451
20834WAT    EPW85143   2.528   2.734   3.947  0.3580  0.4400 -0.3912
20835WAT      O85144   1.434   1.556   1.496 -0.2732  0.7436  0.4541
20835WAT     H185145   1.485   1.480   1.524 -1.2582 -0.8594 -1.7180
20835WAT     H285146   1.346   1.520   1.482 -1.1894  2.6941  0.9715
20835WAT    EPW85147   1.429   1.541   1.498 -0.5240  0.7895  0.2358
20836WAT      O85148   0.929   4.221   7.081  0.6587  0.2248  0.2121
20836WAT     H185149   0.909   4.234   6.988  1.1025  0.1762  0.1078
20836WAT     H285150   0.876   4.287   7.126 -0.9501 -0.9013  0.0811
20836WAT    EPW85151   0.919   4.232   7.074  0.5051  0.0696  0.1810
20837WAT      O85152   1.552   3.295   3.145  0.5273 -0.1265 -0.6411
20837WAT     H185153   1.473   3.340   3.175 -1.6011 -2.7365 -1.8557
20837WAT     H285154   1.561   3.320   3.053  2.1537  1.4055 -0.1173
20837WAT    EPW85155   1.543   3.304   3.137  0.4610 -0.2687 -0.7321
20838WAT      O85156   2.280   8.422   5.383 -0.9530  0.2280 -0.1231
20838WAT     H185157   2.322   8.454   5.463 -1.8307  2.4881 -0.4892
20838WAT     H285158   2.213   8.360   5.414  1.2623 -1.9984  0.5624
20838WAT    EPW85159   2.276   8.418   5.398 -0.7765  0.2327 -0.0811
20839WAT      O85160  10.070   9.998   3.078  0.4646  0.1873 -0.3656
20839WAT     H185161  10.075   9.902   3.077  1.9533  0.1306  2.5481
20839WAT     H285162  10.159  10.027   3.063  0.2743  1.0635  0.1398
20839WAT    EPW85163  10.082   9.989   3.076  0.6356  0.2961  0.0854
20840WAT      O85164   0.074   3.185   7.343  0.1719  0.6282  0.0458
20840WAT     H185165   0.135   3.113   7.328 -1.3068 -0.5391 -0.5923
20840WAT     H285166   0.121   3.263   7.313  2.0199  0.0431  1.2903
20840WAT    EPW85167   0.088   3.186   7.337  0.2206  0.3970  0.1259
20841WAT      O85168   0.110   7.211   8.802 -0.1305 -0.2292  1.2960
20841WAT     H185169   0.163   7.135   8.780  1.3738  1.5938 -2.1542
20841WAT     H285170   0.165   7.262   8.863 -0.2151 -0.8362  1.8875
20841WAT    EPW85171   0.125   7.208   8.807  0.0567 -0.0687  0.9184
20842WAT      O85172   2.845   3.832   0.923  0.0888 -0.8877  0.3719
20842WAT     H185173   2.820   3.870   0.839 -0.3878 -3.2722 -0.6452
20842WAT     H285174   2.784   3.869   0.986  0.0681  0.4763 -0.4120
20842WAT    EPW85175   2.834   3.842   0.920  0.0234 -1.0223  0.1343
20843WAT      O85176   1.025   7.165   7.728  0.7412 -0.1251  0.5583
20843WAT     H185177   1.117   7.139   7.720  2.0643  4.1076 -0.4539
20843WAT     H285178   0.999   7.187   7.638 -0.3922  1.1592  1.1769
20843WAT    EPW85179   1.034   7.165   7.715  0.7662  0.6025  0.5064
20844WAT      O85180   7.903   7.939   2.474 -1.0852  0.0638  0.2478
20844WAT     H185181   7.818   7.928   2.432 -0.7354  0.8342 -0.7096
20844WAT     H285182   7.960   7.971   2.404  0.2098 -1.2293  0.6711
20844WAT    EPW85183   7.899   7.942   2.459 -0.8681 -0.0050  0.1774
20845WAT      O85184   1.911   3.016   4.617 -0.5184  0.2762  0.4098
20845WAT     H185185   1.927   3.081   4.686 -0.9590 -0.0238  0.7975
20845WAT     H285186   1.887   2.936   4.664  1.7840 -0.7190  0.0178
20845WAT    EPW85187   1.910   3.014   4.633 -0.2728  0.1053  0.4094
20846WAT      O85188   3.126   8.911   2.717  0.2753  0.0911 -0.5053
20846WAT     H185189   3.159   8.838   2.664 -2.3400 -3.1551  1.8790
20846WAT     H285190   3.037   8.924   2.687 -0.0988  0.5541  0.7690
20846WAT    EPW85191   3.119   8.903   2.706 -0.1191 -0.2761 -0.0228
20847WAT      O85192  10.097   1.352   4.318  0.0551 -0.2121 -0.3958
20847WAT     H185193  10.075   1.273   4.268 -0.6389 -0.4137  0.1994
20847WAT     H285194  10.045   1.343   4.399 -2.3241  2.2305 -1.5081
20847WAT    EPW85195  10.087   1.340   4.322 -0.3505  0.0835 -0.4637
20848WAT      O85196   1.008   5.531   8.483 -0.0754  0.5077  0.2945
20848WAT     H185197   0.921   5.569   8.466 -0.0093 -0.5148 -2.9976
20848WAT     H285198   1.037   5.498   8.398  2.9948 -0.4232  1.5615
20848WAT    EPW85199   1.000   5.531   8.470  0.3383  0.2501  0.0272
20849WAT      O85200   1.121   2.748   8.557  0.0237  0.4164  0.6109
20849WAT     H185201   1.142   2.824   8.612  2.2611  0.1688  0.2219
20849WAT     H285202   1.064   2.783   8.489 -1.5317  1.0497  2.1702
20849WAT    EPW85203   1.117   2.763   8.555  0.1136  0.4673  0.7653
20850WAT      O85204   0.305   5.509   8.083  0.4152  0.1371  0.1362
20850WAT     H185205   0.252   5.527   8.006  1.6900 -2.6124 -1.5315
20850WAT     H285206   0.265   5.562   8.153 -2.1875  0.9759 -1.8392
20850WAT    EPW85207   0.293   5.518   8.082  0.2400 -0.1149 -0.3443
20851WAT      O85208  10.080   1.904   4.486  0.3879 -0.3026 -0.9565
20851WAT     H185209  10.118   1.920   4.399  0.7184  0.7678 -0.6238
20851WAT     H285210  10.140   1.948   4.546 -0.5770  0.1165 -0.2925
20851WAT    EPW85211  10.093   1.912   4.482  0.3037 -0.1062 -0.8249
20852WAT      O85212   0.133   4.782   5.739 -0.6726  0.8186 -0.0459
20852WAT     H185213   0.176   4.707   5.699 -2.3966  0.1970 -0.8137
20852WAT     H285214   0.203   4.828   5.785  0.7347 -0.2972 -0.9978
20852WAT    EPW85215   0.148   4.778   5.740 -0.7144  0.5894 -0.2730
20853WAT      O85216   0.655   2.164   4.995  0.0813  0.1388 -0.0021
20853WAT     H185217   0.620   2.227   5.057 -0.1210  0.8443 -0.8054
20853WAT     H285218   0.677   2.087   5.048 -0.2918  0.6331  0.8920
20853WAT    EPW85219   0.653   2.162   5.010  0.0055  0.2972  0.0098
20854WAT      O85220   1.152   5.972   6.654  0.0135  0.1532 -0.0486
20854WAT     H185221   1.243   5.952   6.631 -0.4443 -1.5768 -0.5253
20854WAT     H285222   1.122   6.029   6.582  0.7756  0.9884  0.2678
20854WAT    EPW85223   1.160   5.977   6.641  0.0536  0.0350 -0.0694
20855WAT      O85224   0.986   2.143   6.231  0.3189  0.1378  0.0516
20855WAT     H185225   1.039   2.222   6.220  1.7015 -0.8350 -0.6040
20855WAT     H285226   0.968   2.115   6.141 -1.3420  0.4443  0.2693
20855WAT    EPW85227   0.991   2.150   6.218  0.2822  0.0499 -0.0062
20856WAT      O85228   0.551   8.382   5.345 -0.3272 -0.4641  0.5386
20856WAT     H185229   0.531   8.433   5.424  1.3250 -0.3764  0.9238
20856WAT     H285230   0.643   8.398   5.328 -0.8423  0.2197 -1.9686
20856WAT    EPW85231   0.560   8.391   5.353 -0.1772 -0.3624  0.2589
20857WAT      O85232   9.590   4.388   4.865  0.0976  0.0054  0.0996
20857WAT     H185233   9.550   4.324   4.924  2.4127  0.7393  2.7248
20857WAT     H285234   9.667   4.343   4.830  0.9049  0.7995  0.7896
20857WAT    EPW85235   9.595   4.374   4.868  0.5097  0.2072  0.5369
20858WAT      O85236   2.334   4.837   6.732  0.3267  0.2937  0.0172
20858WAT     H185237   2.255   4.787   6.709 -0.0067  0.0092  1.6420
20858WAT     H285238   2.406   4.786   6.696 -0.1993  0.4865 -1.3762
20858WAT    EPW85239   2.333   4.824   6.725  0.2134  0.2816  0.0479
20859WAT      O85240   9.759   4.049   3.947 -0.3047 -0.6240  0.3621
20859WAT     H185241   9.804   3.983   3.999 -0.4379 -0.4602  0.6828
20859WAT     H285242   9.773   4.131   3.993  3.0479  0.2930 -1.8966
20859WAT    EPW85243   9.766   4.051   3.960  0.1202 -0.4814  0.1066
20860WAT      O85244   3.057   2.877   6.315  0.0421  0.2795  0.0511
20860WAT     H185245   3.033   2.794   6.355 -2.4815  0.4134 -1.0202
20860WAT     H285246   3.026   2.871   6.225  2.3102  1.3744 -0.8952
20860WAT    EPW85247   3.050   2.865   6.308  0.0083  0.4417 -0.2146
20861WAT      O85248   9.582   4.765   5.258  0.6348 -0.2779  0.0403
20861WAT     H185249   9.603   4.807   5.342  1.0243  0.6245 -0.5015
20861WAT     H285250   9.519   4.696   5.282  1.1037 -0.3519  1.1334
20861WAT    EPW85251   9.576   4.762   5.272  0.7482 -0.1686  0.1132
20862WAT      O85252   1.429   2.066   2.424 -0.5278 -0.2430  0.2732
20862WAT     H185253   1.369   2.132   2.460 -0.7808 -1.3517  2.0602
20862WAT     H285254   1.371   1.995   2.394 -0.2023 -0.2947 -0.2441
20862WAT    EPW85255   1.414   2.065   2.425 -0.5182 -0.3961  0.4406
20863WAT      O85256   1.329   4.609   7.271  0.0060  0.3771  0.5735
20863WAT     H185257   1.320   4.597   7.366  0.3038 -0.5484  0.4884
20863WAT     H285258   1.411   4.657   7.261 -0.2905  0.9523  0.8043
20863WAT    EPW85259   1.339   4.614   7.282  0.0061  0.3309  0.5927
20864WAT      O85260   2.846   0.573   5.636 -0.4224 -0.1311  0.3367
20864WAT     H185261   2.770   0.622   5.605 -2.8933 -3.8116 -0.0720
20864WAT     H285262   2.832   0.563   5.730 -0.6513 -1.1109  0.2066
20864WAT    EPW85263   2.834   0.578   5.645 -0.7784 -0.7458  0.2656
20865WAT      O85264   2.423   1.578   3.676 -0.6029  0.2363 -0.4293
20865WAT     H185265   2.399   1.581   3.583 -0.6373  1.7337 -0.3998
20865WAT     H285266   2.433   1.485   3.695 -0.7844 -0.1088 -1.8842
20865WAT    EPW85267   2.421   1.566   3.666 -0.6315  0.3883 -0.6173
20866WAT      O85268   2.750   5.540   6.367 -0.3479 -0.9354 -0.5045
20866WAT     H185269   2.713   5.523   6.454 -0.3123 -1.5634 -0.6068
20866WAT     H285270   2.816   5.471   6.355  2.5500  1.4282  0.6112
20866WAT    EPW85271   2.754   5.528   6.377  0.0391 -0.7067 -0.3710
20867WAT      O85272   2.072   4.344   6.988  0.4073  0.0727 -0.2688
20867WAT     H185273   1.990   4.333   7.036  0.9996 -0.0983  0.7463
20867WAT     H285274   2.140   4.332   7.055  1.2949 -1.0994 -1.3246
20867WAT    EPW85275   2.070   4.341   7.003  0.6025 -0.1044 -0.2742
20868WAT      O85276   1.651   4.336   6.079 -0.3045  0.3863 -0.6861
20868WAT     H185277   1.728   4.392   6.092 -0.7346  0.8386  0.0191
20868WAT     H285278   1.577   4.397   6.082 -0.6146  0.2987 -3.5433
20868WAT    EPW85279   1.651   4.352   6.081 -0.4021  0.4346 -0.9699
20869WAT      O85280   1.921   8.499   5.341  0.1825 -0.1813 -0.3716
20869WAT     H185281   1.947   8.419   5.388  3.2872 -0.6710 -2.5957
20869WAT     H285282   1.875   8.551   5.406  0.8801 -2.4125  2.0773
20869WAT    EPW85283   1.918   8.495   5.356  0.6840 -0.5398 -0.3417
20870WAT      O85284   1.432   4.926   6.605 -0.1236  0.8228 -0.3887
20870WAT     H185285   1.430   4.986   6.530 -0.6791  0.4961 -0.6498
20870WAT     H285286   1.347   4.882   6.602  0.4662 -0.3511 -0.5126
20870WAT    EPW85287   1.420   4.928   6.595 -0.1190  0.6251 -0.4396
20871WAT      O85288   2.307   1.437   8.400  0.7853 -0.3505  0.2516
20871WAT     H185289   2.402   1.426   8.403  0.9050  0.7442  1.1604
20871WAT     H285290   2.289   1.507   8.462 -0.4612  0.5232 -1.0208
20871WAT    EPW85291   2.317   1.445   8.408  0.6366 -0.0909  0.2036
20872WAT      O85292   4.045   2.987   5.386  0.2001 -0.0273  0.2350
20872WAT     H185293   3.973   2.925   5.380  0.5861 -0.4224 -0.4957
20872WAT     H285294   4.104   2.963   5.314  1.0667  0.2755  0.8238
20872WAT    EPW85295   4.043   2.976   5.375  0.3655 -0.0395  0.2165
20873WAT      O85296   9.755   1.383   3.244  0.1386  0.7624 -0.2453
20873WAT     H185297   9.694   1.452   3.217  3.2606  3.4780 -1.0081
20873WAT     H285298   9.735   1.309   3.187 -1.6860  1.9451 -1.2152
20873WAT    EPW85299   9.744   1.383   3.233  0.3095  1.2766 -0.4737
20874WAT      O85300   0.464   4.228   5.489  0.4413  0.1020  0.5342
20874WAT     H185301   0.529   4.218   5.419 -1.3137 -0.9427 -1.0517
20874WAT     H285302   0.413   4.305   5.465  0.6135  0.4938  1.3773
20874WAT    EPW85303   0.466   4.237   5.477  0.2326  0.0160  0.4361
20875WAT      O85304   2.526   5.395   8.817 -0.4531  0.3314 -0.6622
20875WAT     H185305   2.589   5.462   8.845 -0.3244  0.3569 -1.0045
20875WAT     H285306   2.522   5.405   8.722 -2.8879  2.0588 -0.4905
20875WAT    EPW85307   2.534   5.405   8.808 -0.7573  0.5627 -0.6847
20876WAT      O85308   3.927   5.322   4.395  0.7102  0.9435 -0.4014
20876WAT     H185309   3.968   5.237   4.411 -1.7770 -0.2316  0.2466
20876WAT     H285310   3.936   5.369   4.478  0.2365  0.4520 -0.0665
20876WAT    EPW85311   3.934   5.317   4.408  0.3196  0.7236 -0.2716
20877WAT      O85312   3.663   6.631   5.192 -0.1146 -0.5049 -0.1279
20877WAT     H185313   3.658   6.726   5.207 -1.4941 -0.6197  0.2358
20877WAT     H285314   3.620   6.593   5.268 -0.6389 -1.3827 -0.8527
20877WAT    EPW85315   3.657   6.639   5.204 -0.3657 -0.6354 -0.1752
20878WAT      O85316   2.492   4.682   5.980 -0.5090 -0.1932  0.1635
20878WAT     H185317   2.405   4.719   5.964 -1.1485 -1.1803  1.2310
20878WAT     H285318   2.492   4.600   5.930  0.3793  0.5183 -1.0481
20878WAT    EPW85319   2.481   4.676   5.971 -0.4762 -0.2298  0.1442
20879WAT      O85320   0.584   4.413   2.911  0.8018  0.0726 -0.2585
20879WAT     H185321   0.519   4.350   2.879  0.8685  0.4372 -1.1251
20879WAT     H285322   0.658   4.358   2.939  0.2482 -0.3225  0.4479
20879WAT    EPW85323   0.585   4.397   2.910  0.7375  0.0684 -0.2795
20880WAT      O85324  10.858   3.369   8.770  0.0843  0.4226  0.1843
20880WAT     H185325  10.821   3.303   8.829 -0.0943  1.5969  1.4335
20880WAT     H285326  10.868   3.323   8.687  0.3360 -1.2991  1.1066
20880WAT    EPW85327  10.855   3.354   8.767  0.0939  0.3504  0.4711
20881WAT      O85328   2.314   1.720   7.880 -0.4226  0.0601  0.4164
20881WAT     H185329   2.337   1.627   7.885 -0.4982  0.1181  2.6708
20881WAT     H285330   2.396   1.764   7.860 -0.7330 -0.5706 -2.8391
20881WAT    EPW85331   2.328   1.713   7.878 -0.4735 -0.0154  0.2842
20882WAT      O85332   1.123   4.640   7.069  0.1600 -0.0240 -0.0240
20882WAT     H185333   1.202   4.630   7.122  1.1044 -1.3131 -1.5777
20882WAT     H285334   1.101   4.733   7.077 -0.7255 -0.4053  3.8383
20882WAT    EPW85335   1.131   4.651   7.077  0.1677 -0.2441  0.2801
20883WAT      O85336   9.541   2.643   4.716  0.2791 -0.7749 -0.0769
20883WAT     H185337   9.490   2.723   4.732 -1.3082 -1.8759  0.6688
20883WAT     H285338   9.628   2.663   4.750 -0.0869  0.6485  0.0837
20883WAT    EPW85339   9.545   2.656   4.723  0.0215 -0.7324  0.0422
20884WAT      O85340   1.158   2.930   7.413 -0.0507 -0.5749 -0.0412
20884WAT     H185341   1.207   2.892   7.340  1.3137  2.4549 -0.8110
20884WAT     H285342   1.218   2.927   7.487  0.3373  0.7052 -0.2949
20884WAT    EPW85343   1.172   2.924   7.414  0.1804 -0.0063 -0.1762
20885WAT      O85344   3.673   5.355   5.131 -0.1999  0.6703  0.4539
20885WAT     H185345   3.604   5.305   5.089  1.6883 -0.7473 -1.1587
20885WAT     H285346   3.690   5.309   5.213 -0.5502  0.5009  0.4302
20885WAT    EPW85347   3.666   5.342   5.136  0.0029  0.4609  0.2382
20886WAT      O85348   2.753   8.602   4.195  0.2979  0.6729 -0.6306
20886WAT     H185349   2.699   8.568   4.123  1.5341 -0.1567 -1.1898
20886WAT     H285350   2.806   8.527   4.223  2.0892  1.7589 -0.9630
20886WAT    EPW85351   2.753   8.588   4.189  0.6970  0.7062 -0.7484
20887WAT      O85352   2.902   2.614   7.870  0.3218 -0.0750 -0.3536
20887WAT     H185353   2.883   2.589   7.961 -0.9737 -0.4311 -0.7052
20887WAT     H285354   2.935   2.703   7.876  0.4882 -0.1804  0.4861
20887WAT    EPW85355   2.904   2.622   7.883  0.1729 -0.1359 -0.2894
20888WAT      O85356   1.156   7.220   5.118 -0.9519 -0.0640 -0.6784
20888WAT     H185357   1.221   7.260   5.175  1.8997 -2.0159 -2.3126
20888WAT     H285358   1.142   7.285   5.049 -1.2076  0.5890 -0.0291
20888WAT    EPW85359   1.163   7.234   5.116 -0.6095 -0.2353 -0.8082
20889WAT      O85360   0.645   7.784   6.637 -0.2099  0.7473  0.7087
20889WAT     H185361   0.565   7.833   6.624  0.2939  1.4557  0.2051
20889WAT     H285362   0.655   7.731   6.558 -0.5534  0.1092  1.0853
20889WAT    EPW85363   0.636   7.784   6.625 -0.1888  0.7567  0.6921
20890WAT      O85364   7.242  10.110   5.960 -0.1259 -0.2437  0.2765
20890WAT     H185365   7.327  10.103   5.917 -0.8510 -2.1892 -0.9960
20890WAT     H285366   7.189  10.161   5.900 -0.1027  0.2261  0.6538
20890WAT    EPW85367   7.246  10.116   5.946 -0.2186 -0.4387  0.1583
20891WAT      O85368   3.082   1.194   3.694 -0.8206  0.1308  0.6316
20891WAT     H185369   3.166   1.148   3.696 -1.0110 -0.2940 -0.4970
20891WAT     H285370   3.099   1.277   3.738  0.0923 -0.0948  0.7309
20891WAT    EPW85371   3.095   1.199   3.700 -0.7253  0.0451  0.4958
20892WAT      O85372   8.478   8.201   7.216  0.2862 -0.2575  0.8268
20892WAT     H185373   8.383   8.191   7.211  0.0984  1.1803  1.0140
20892WAT     H285374   8.505   8.140   7.285 -0.8485  1.0956  2.5499
20892WAT    EPW85375   8.469   8.192   7.224  0.1121  0.1101  1.0786
20893WAT      O85376   2.499   2.726   6.688 -0.3218 -0.3372  0.2475
20893WAT     H185377   2.484   2.789   6.618 -2.4873 -0.9090  0.1514
20893WAT     H285378   2.583   2.686   6.666 -1.5245 -1.4747 -2.8302
20893WAT    EPW85379   2.508   2.729   6.676 -0.7660 -0.5627 -0.1707
20894WAT      O85380   4.133   2.224   6.276 -0.2417  0.2905  0.3038
20894WAT     H185381   4.160   2.309   6.239  0.3329 -0.4259 -0.9784
20894WAT     H285382   4.120   2.168   6.199 -2.5897 -0.2422  1.0097
20894WAT    EPW85383   4.135   2.228   6.261 -0.4759  0.1258  0.2279
20895WAT      O85384   2.041   2.405   5.982  0.5702  0.4199  0.4242
20895WAT     H185385   2.063   2.432   5.893  0.3145  0.4983  0.3864
20895WAT     H285386   2.072   2.477   6.037  0.6632  0.4040  0.3924
20895WAT    EPW85387   2.048   2.418   5.978  0.5487  0.4282  0.4151
20896WAT      O85388   2.080   5.610   5.135  0.0639  0.0825 -1.1952
20896WAT     H185389   2.165   5.593   5.175 -0.1374 -0.1893 -0.8783
20896WAT     H285390   2.096   5.597   5.041  1.1354  3.1247 -1.5468
20896WAT    EPW85391   2.094   5.606   5.128  0.1787  0.4478 -1.2000
20897WAT      O85392  10.209   5.884   5.375 -0.3585 -0.5512  0.2074
20897WAT     H185393  10.176   5.973   5.389  0.6746 -0.4542  2.4493
20897WAT     H285394  10.235   5.882   5.283 -0.6534  1.3794  0.0422
20897WAT    EPW85395  10.208   5.896   5.365 -0.2608 -0.2840  0.4816
20898WAT      O85396   0.505   0.141   5.517  0.5752 -0.2080 -0.8988
20898WAT     H185397   0.575   0.086   5.553 -1.7560 -1.5681  1.9687
20898WAT     H285398   0.447   0.079   5.472 -1.0477  0.1284  0.6425
20898WAT    EPW85399   0.507   0.125   5.516  0.0537 -0.3430 -0.3173
20899WAT      O85400   3.361   5.274   5.290  0.2199 -0.1725 -0.4692
20899WAT     H185401   3.309   5.304   5.215 -0.0406 -0.6280 -0.4782
20899WAT     H285402   3.438   5.232   5.250  0.5907  0.4858 -0.4562
20899WAT    EPW85403   3.365   5.272   5.274  0.2344 -0.1457 -0.4690
20900WAT      O85404   0.713   5.090   6.319  0.1968 -0.0782 -0.4605
20900WAT     H185405   0.693   5.003   6.353 -0.2374 -0.2879 -1.2354
20900WAT     H285406   0.676   5.150   6.384  0.2725 -0.4690 -0.0534
20900WAT    EPW85407   0.705   5.086   6.332  0.1495 -0.1571 -0.5085
20901WAT      O85408   0.636   3.856   6.127  0.5309 -0.0445  0.1402
20901WAT     H185409   0.588   3.867   6.209  2.5507  3.3829  1.0864
20901WAT     H285410   0.623   3.939   6.081  0.1429 -1.5554 -2.7264
20901WAT    EPW85411   0.628   3.869   6.132  0.7461  0.2084 -0.1132
20902WAT      O85412   5.433   8.685   0.116 -0.2369  0.3398  0.2371
20902WAT     H185413   5.459   8.651   0.201  0.3788 -0.5682 -0.2868
20902WAT     H285414   5.512   8.728   0.082  0.6191 -2.1561 -1.2298
20902WAT    EPW85415   5.447   8.686   0.123 -0.0427 -0.1092 -0.0255
20903WAT      O85416   2.251   4.674   5.409 -0.3108 -0.1746  0.0944
20903WAT     H185417   2.289   4.668   5.497  0.7438  1.0221 -0.2594
20903WAT     H285418   2.221   4.585   5.390  2.8197 -1.3661  0.1890
20903WAT    EPW85419   2.252   4.662   5.418  0.2410 -0.1738  0.0601
20904WAT      O85420   0.684   0.924   6.166 -0.0198 -0.5468 -0.7415
20904WAT     H185421   0.775   0.895   6.166  0.5304  1.0313  0.4669
20904WAT     H285422   0.689   1.019   6.157 -1.4672 -0.3024  0.5767
20904WAT    EPW85423   0.696   0.933   6.165 -0.1381 -0.3064 -0.4082
20905WAT      O85424   2.067   1.571   5.691 -0.7341 -0.3894  0.3930
20905WAT     H185425   2.146   1.550   5.640  1.6666  0.9862  3.2126
20905WAT     H285426   2.014   1.491   5.687  0.9772 -1.5388 -1.2918
20905WAT    EPW85427   2.071   1.558   5.684 -0.1917 -0.3597  0.5429
20906WAT      O85428   9.848   3.292   5.285  0.2348  0.1432  0.4097
20906WAT     H185429   9.766   3.243   5.288  1.7021 -2.7591 -1.7959
20906WAT     H285430   9.867   3.312   5.377 -0.9023 -2.8186  1.4193
20906WAT    EPW85431   9.840   3.288   5.298  0.2785 -0.6303  0.2522
20907WAT      O85432  10.085   6.390   4.443  0.3441  0.4124  0.7079
20907WAT     H185433  10.077   6.472   4.394  1.2548  1.4568  2.2310
20907WAT     H285434   9.996   6.355   4.445  0.0028  1.1935 -0.2474
20907WAT    EPW85435  10.072   6.396   4.437  0.4196  0.6533  0.7827
20908WAT      O85436   2.328   4.248   4.950  1.0091  0.6994  0.1364
20908WAT     H185437   2.262   4.265   4.883  0.2474  3.2817  1.4009
20908WAT     H285438   2.370   4.167   4.922 -0.6393  0.5792 -2.3328
20908WAT    EPW85439   2.325   4.239   4.937  0.6912  1.0240 -0.0224
20909WAT      O85440   2.496   2.577   7.206 -0.3809 -0.2735 -1.0123
20909WAT     H185441   2.501   2.670   7.228 -3.1173 -0.7576  2.5568
20909WAT     H285442   2.403   2.561   7.192 -0.6188 -3.0695  2.4833
20909WAT    EPW85443   2.485   2.587   7.207 -0.7733 -0.7062 -0.0806
20910WAT      O85444   2.344   7.474   6.377 -0.2146 -0.2080 -0.0917
20910WAT     H185445   2.285   7.400   6.395 -0.6594  0.3227  0.6840
20910WAT     H285446   2.389   7.449   6.296  0.2391 -1.6897  0.5817
20910WAT    EPW85447   2.342   7.461   6.369 -0.2135 -0.3333  0.0994
20911WAT      O85448   0.765   4.412   4.652  0.3995  0.4238 -0.0836
20911WAT     H185449   0.776   4.407   4.747  3.2703  1.7998 -0.2216
20911WAT     H285450   0.811   4.492   4.627 -0.5316  0.2546 -2.6291
20911WAT    EPW85451   0.773   4.422   4.661  0.6553  0.5834 -0.4375
20912WAT      O85452  10.144   4.085   1.437 -0.3901  0.3223  0.5772
20912WAT     H185453  10.095   4.003   1.435 -0.9101  0.6435 -0.1507
20912WAT     H285454  10.109   4.132   1.513  0.2931 -0.3517  1.3238
20912WAT    EPW85455  10.133   4.080   1.447 -0.3681  0.2759  0.5797
20913WAT      O85456  10.230   4.642   5.368 -0.0503  0.5151 -0.3428
20913WAT     H185457  10.311   4.671   5.327  0.3047 -0.5543 -0.4457
20913WAT     H285458  10.257   4.603   5.451 -0.8336  3.4079  1.4180
20913WAT    EPW85459  10.244   4.641   5.374 -0.1063  0.7555 -0.1242
20914WAT      O85460  10.874   5.831   3.926 -0.0808 -0.1132 -0.2404
20914WAT     H185461  10.923   5.910   3.902  0.3377  0.0956  1.1826
20914WAT     H285462  10.942   5.763   3.934 -0.6363 -1.2340 -3.5394
20914WAT    EPW85463  10.890   5.832   3.924 -0.0987 -0.2337 -0.4877
20915WAT      O85464  10.876   7.893   3.382  0.3187  0.3731  0.1081
20915WAT     H185465  10.824   7.951   3.438  0.6023  1.3193 -0.5961
20915WAT     H285466  10.930   7.952   3.330  0.7251 -0.5323 -0.5161
20915WAT    EPW85467  10.876   7.908   3.383  0.4096  0.3786 -0.0671
20916WAT      O85468   8.423   9.865   5.613 -0.4587  0.4178 -0.3332
20916WAT     H185469   8.460   9.840   5.698  0.5895 -1.4118 -1.2779
20916WAT     H285470   8.407   9.959   5.622  1.8582  0.7754  1.1133
20916WAT    EPW85471   8.426   9.874   5.626 -0.0148  0.2236 -0.2670
20917WAT      O85472   0.331   6.639   6.707  0.8142 -0.2843  0.5706
20917WAT     H185473   0.308   6.591   6.786 -2.2687 -0.8566 -0.5588
20917WAT     H285474   0.310   6.730   6.727  0.4734 -0.3589  0.5455
20917WAT    EPW85475   0.325   6.645   6.720  0.3626 -0.3695  0.4184
20918WAT      O85476   2.168   2.458   2.986  0.0170  0.4643  0.2584
20918WAT     H185477   2.150   2.522   2.918 -2.9309 -1.0454 -0.5484
20918WAT     H285478   2.216   2.388   2.942  0.3945  0.6402  0.3818
20918WAT    EPW85479   2.172   2.457   2.971 -0.3220  0.2882  0.1683
20919WAT      O85480   2.576   1.699   5.270  0.6850  0.2580  0.1319
20919WAT     H185481   2.494   1.713   5.316  0.6738  1.5787 -0.2760
20919WAT     H285482   2.634   1.768   5.302  1.1903  0.1970 -0.6213
20919WAT    EPW85483   2.573   1.710   5.280  0.7501  0.4241 -0.0210
20920WAT      O85484   1.831   6.521   8.944  0.2771  0.1367  0.1861
20920WAT     H185485   1.755   6.556   8.897  1.3031  2.1915 -0.0505
20920WAT     H285486   1.799   6.504   9.032 -0.6694  0.1759 -0.1412
20920WAT    EPW85487   1.817   6.523   8.949  0.2877  0.4132  0.1125
20921WAT      O85488   2.056   7.300   7.377 -0.4800 -0.1300  0.4567
20921WAT     H185489   2.136   7.248   7.373  0.9688  1.9053  1.2795
20921WAT     H285490   2.043   7.330   7.287  0.2438  0.2947  0.4840
20921WAT    EPW85491   2.065   7.297   7.365 -0.1935  0.1945  0.5686
20922WAT      O85492   1.284   0.990   4.919 -0.2518  0.9401 -0.4381
20922WAT     H185493   1.299   1.069   4.971  0.6821  0.3469  0.2319
20922WAT     H285494   1.213   0.945   4.963  0.6808  0.3329  0.4794
20922WAT    EPW85495   1.276   0.995   4.931 -0.0056  0.7818 -0.2286
20923WAT      O85496   8.316   5.384   5.360 -0.0589  0.2596 -0.0637
20923WAT     H185497   8.237   5.370   5.308  1.5335  1.2931 -3.0242
20923WAT     H285498   8.290   5.446   5.428 -1.4577  2.0575 -2.1125
20923WAT    EPW85499   8.302   5.391   5.362 -0.0334  0.6330 -0.7246
20924WAT      O85500   9.622   3.135   5.780  0.3245 -0.7743  0.4114
20924WAT     H185501   9.662   3.110   5.863 -0.1711 -0.1381  0.8587
20924WAT     H285502   9.530   3.109   5.789  0.1910 -0.3846  0.2112
20924WAT    EPW85503   9.615   3.129   5.792  0.2413 -0.6391  0.4442
20925WAT      O85504   5.081   9.385   0.739  0.0636  0.1607 -0.2841
20925WAT     H185505   5.081   9.292   0.718 -2.5074 -0.0174  0.1555
20925WAT     H285506   5.017   9.423   0.679 -0.0316  1.3769  0.5438
20925WAT    EPW85507   5.073   9.378   0.728 -0.2880  0.2975 -0.1169
20926WAT      O85508   1.029   2.460   5.412 -0.2567  0.3073 -0.0837
20926WAT     H185509   0.959   2.510   5.454  1.3254  3.1259 -0.5506
20926WAT     H285510   1.084   2.431   5.485 -1.2233 -0.8892  0.1959
20926WAT    EPW85511   1.027   2.463   5.428 -0.1755  0.5213 -0.1085
20927WAT      O85512   3.328   4.139   5.446  0.0743  0.1764  0.2049
20927WAT     H185513   3.374   4.206   5.395 -0.9697  1.0706  0.4069
20927WAT     H285514   3.394   4.109   5.509  1.2334 -0.5947 -1.3118
20927WAT    EPW85515   3.343   4.144   5.448  0.0895  0.1929  0.0315
20928WAT      O85516   0.161   1.783   7.977 -0.3459 -0.3330  0.1691
20928WAT     H185517   0.168   1.723   7.902  2.4609 -0.9559  0.8334
20928WAT     H285518   0.226   1.851   7.960  0.3199 -0.4636  1.9904
20928WAT    EPW85519   0.170   1.784   7.965  0.1121 -0.4323  0.4969
20929WAT      O85520  10.002   3.207   4.290 -0.2210  0.1823 -0.2715
20929WAT     H185521   9.991   3.131   4.233  2.0419 -0.9167  0.6535
20929WAT     H285522  10.001   3.171   4.378 -1.9084  1.6409  0.3716
20929WAT    EPW85523  10.000   3.192   4.294 -0.1445  0.2298 -0.0648
20930WAT      O85524   3.174   2.588   2.855  0.6975  0.2390 -0.0484
20930WAT     H185525   3.247   2.539   2.892  0.1845 -1.5645 -1.2789
20930WAT     H285526   3.104   2.524   2.847 -0.6225  1.6342 -0.0586
20930WAT    EPW85527   3.175   2.573   2.858  0.4557  0.1850 -0.2121
20931WAT      O85528   0.837   3.935   5.288  0.3372 -0.0897 -0.6584
20931WAT     H185529   0.765   3.995   5.306  1.4578  0.8341  0.9785
20931WAT     H285530   0.875   3.916   5.374  2.1963 -0.3488 -1.4920
20931WAT    EPW85531   0.833   3.940   5.302  0.7302 -0.0020 -0.5524
20932WAT      O85532   0.767   4.760   5.867 -0.5269  0.1876  0.3503
20932WAT     H185533   0.795   4.682   5.914  2.0963  0.6712 -0.2313
20932WAT     H285534   0.703   4.802   5.924 -1.1852 -1.7931  1.1451
20932WAT    EPW85535   0.762   4.755   5.880 -0.2677 -0.0100  0.3781
20933WAT      O85536  10.378   0.919   7.751  0.0352  0.0263 -0.2203
20933WAT     H185537  10.463   0.964   7.753  0.0196  0.3502 -3.0084
20933WAT     H285538  10.317   0.985   7.721 -1.2123 -0.2910  1.4860
20933WAT    EPW85539  10.381   0.934   7.747 -0.1316  0.0271 -0.3629
20934WAT      O85540   2.769   3.696   5.562  0.5845 -0.5687 -0.6496
20934WAT     H185541   2.845   3.713   5.507 -0.1801  2.3951 -0.9340
20934WAT     H285542   2.694   3.711   5.505 -0.2089  0.6324  0.6352
20934WAT    EPW85543   2.769   3.700   5.548  0.3792 -0.0196 -0.5176
20935WAT      O85544   1.784   5.704   3.613  0.0793  0.6152 -0.6856
20935WAT     H185545   1.804   5.615   3.586  0.6088  0.8234 -1.0015
20935WAT     H285546   1.720   5.694   3.683  0.8652 -0.0534 -0.0494
20935WAT    EPW85547   1.778   5.691   3.618  0.2528  0.5546 -0.6434
20936WAT      O85548   1.944   5.334   6.868  0.2301 -0.2349  0.5900
20936WAT     H185549   1.882   5.263   6.854  0.8392 -1.1384  2.2973
20936WAT     H285550   2.024   5.291   6.898  0.3429  1.2062  2.4951
20936WAT    EPW85551   1.947   5.319   6.870  0.3253 -0.1640  1.0664
20937WAT      O85552   3.133   6.495   4.242 -0.0436  0.0193  0.4449
20937WAT     H185553   3.071   6.432   4.279 -3.1091  2.2499 -0.5325
20937WAT     H285554   3.078   6.559   4.197  3.1280  0.0617 -3.9980
20937WAT    EPW85555   3.117   6.495   4.241 -0.0296  0.3190 -0.2701
20938WAT      O85556   3.144   5.101   5.365 -0.0290 -0.6707  0.5989
20938WAT     H185557   3.191   5.183   5.352 -0.3846 -0.4390  0.7696
20938WAT     H285558   3.187   5.039   5.305  1.2366 -0.7696  1.5567
20938WAT    EPW85559   3.156   5.103   5.355  0.0910 -0.6533  0.7474
20939WAT      O85560   0.039   7.207   7.964  0.0282 -0.3635 -0.2877
20939WAT     H185561  -0.033   7.144   7.971 -0.0456 -0.3743 -1.1160
20939WAT     H285562   0.063   7.225   8.055  0.5944 -2.1990 -0.0294
20939WAT    EPW85563   0.033   7.201   7.977  0.0932 -0.6070 -0.3626
20940WAT      O85564   3.320   7.205   2.434 -0.4616 -0.0875  0.0101
20940WAT     H185565   3.339   7.114   2.457  0.6443  0.3727  1.0243
20940WAT     H285566   3.375   7.222   2.358 -0.7425 -0.2887 -0.2405
20940WAT    EPW85567   3.330   7.195   2.427 -0.3529 -0.0536  0.1109
20941WAT      O85568   1.987   1.907   3.916 -0.4581 -0.9321 -0.1555
20941WAT     H185569   2.003   1.999   3.896  2.5622 -0.4702  3.2967
20941WAT     H285570   1.911   1.907   3.974  1.2053 -0.0923  2.1856
20941WAT    EPW85571   1.979   1.919   3.921  0.1596 -0.7604  0.6087
20942WAT      O85572   2.144   7.809   5.205 -0.4622  0.3059  0.6196
20942WAT     H185573   2.141   7.813   5.110 -1.6709 -0.4298  0.6050
20942WAT     H285574   2.054   7.824   5.234 -0.3618 -0.7393  1.5733
20942WAT    EPW85575   2.132   7.811   5.197 -0.6084  0.0710  0.7434
20943WAT      O85576   4.235   6.324   4.099  0.6039  0.5421 -0.3359
20943WAT     H185577   4.146   6.345   4.127  0.5266  0.6724 -0.6679
20943WAT     H285578   4.242   6.229   4.108  0.4127  0.5258 -0.3658
20943WAT    EPW85579   4.225   6.315   4.104  0.5686  0.5572 -0.3834
20944WAT      O85580  10.922   6.508   5.135 -0.5611 -0.0237 -0.0082
20944WAT     H185581  10.944   6.597   5.107  2.1321 -1.0175 -1.4612
20944WAT     H285582  10.908   6.460   5.054 -0.1650 -1.3112  0.6562
20944WAT    EPW85583  10.923   6.514   5.121 -0.1540 -0.3245 -0.1121
20945WAT      O85584   2.742   6.628   6.524  0.5566 -0.5354  0.2857
20945WAT     H185585   2.766   6.699   6.584  1.0731 -0.8660  0.4782
20945WAT     H285586   2.693   6.671   6.454  3.1673  0.4759 -1.0724
20945WAT    EPW85587   2.739   6.643   6.523  0.9692 -0.4456  0.1318
20946WAT      O85588   3.018   3.772   5.424  0.3786 -0.3047  0.3121
20946WAT     H185589   3.009   3.867   5.434  1.5780 -0.2970  1.6147
20946WAT     H285590   3.061   3.761   5.340 -0.5787  0.2426 -0.2651
20946WAT    EPW85591   3.023   3.783   5.414  0.4106 -0.2316  0.4082
20947WAT      O85592   2.943   5.328   6.577  0.3697  0.3550 -0.0649
20947WAT     H185593   2.849   5.321   6.586  0.1292  0.9617 -1.6723
20947WAT     H285594   2.958   5.332   6.482  2.2439 -2.5523 -0.0282
20947WAT    EPW85595   2.933   5.328   6.565  0.5852  0.0515 -0.2723
20948WAT      O85596   3.516   6.255   5.158  0.3635  0.3321 -0.0391
20948WAT     H185597   3.582   6.320   5.132 -0.8145  1.2210 -0.9103
20948WAT     H285598   3.543   6.228   5.246  1.4129  1.3022 -0.0369
20948WAT    EPW85599   3.529   6.260   5.166  0.3465  0.5774 -0.1538
20949WAT      O85600   5.499   0.492   3.819 -0.4042  0.5882  0.0190
20949WAT     H185601   5.425   0.439   3.789  0.1503 -0.8212  1.0563
20949WAT     H285602   5.568   0.429   3.838  0.4700  1.7329  0.7877
20949WAT    EPW85603   5.498   0.477   3.817 -0.2155  0.5533  0.2571
20950WAT      O85604   3.094   6.305   7.087 -0.3366  1.3180  0.3312
20950WAT     H185605   3.177   6.275   7.050 -0.2612  4.1364 -2.0934
20950WAT     H285606   3.116   6.386   7.133 -1.4559  1.0146  1.4636
20950WAT    EPW85607   3.108   6.312   7.088 -0.4743  1.6496  0.1605
20951WAT      O85608   2.400   4.945   6.248  0.1410 -0.5612  0.2695
20951WAT     H185609   2.476   4.899   6.283 -0.6977 -1.9623  0.3041
20951WAT     H285610   2.428   5.036   6.242  1.9706 -1.1153 -0.1545
20951WAT    EPW85611   2.414   4.951   6.252  0.2717 -0.8187  0.2179
20952WAT      O85612  10.419   3.452   5.050 -0.6866 -0.1953  0.5525
20952WAT     H185613  10.328   3.449   5.079 -0.7012  0.5893  0.5921
20952WAT     H285614  10.429   3.539   5.011 -0.1949 -0.5955 -0.2417
20952WAT    EPW85615  10.408   3.463   5.048 -0.6237 -0.1445  0.4530
20953WAT      O85616   1.179   3.925   4.247  0.1508 -0.0593 -0.5509
20953WAT     H185617   1.161   3.836   4.218 -0.3379  0.0129 -0.4749
20953WAT     H285618   1.138   3.982   4.182  1.8219  0.1469 -1.4876
20953WAT    EPW85619   1.171   3.921   4.235  0.3067 -0.0226 -0.6645
20954WAT      O85620   0.470   2.148   1.909  0.5822  0.0492  0.5502
20954WAT     H185621   0.377   2.159   1.886 -0.3379 -1.9478  2.8292
20954WAT     H285622   0.506   2.094   1.839 -0.5822 -0.9530  0.6854
20954WAT    EPW85623   0.462   2.143   1.897  0.3072 -0.3465  0.8686
20955WAT      O85624   5.107   5.083   6.517 -1.5515 -0.0111  0.4771
20955WAT     H185625   5.163   5.049   6.586 -0.2469  0.0187 -0.5371
20955WAT     H285626   5.104   5.013   6.452 -1.4883  0.5553 -0.1409
20955WAT    EPW85627   5.114   5.070   6.518 -1.3714  0.0675  0.2618
20956WAT      O85628   0.973   5.104   5.946 -0.0005 -0.3462 -0.0681
20956WAT     H185629   0.992   5.118   5.853 -0.3823  0.2906 -0.0588
20956WAT     H285630   0.880   5.083   5.948 -0.8675  2.9733  0.4316
20956WAT    EPW85631   0.963   5.103   5.934 -0.1652  0.1757 -0.0010
20957WAT      O85632   1.469   6.170   7.722  0.1942  0.1495  0.6705
20957WAT     H185633   1.556   6.166   7.681 -1.0900 -3.0717 -2.3008
20957WAT     H285634   1.455   6.082   7.757 -1.1255  1.2130  3.0191
20957WAT    EPW85635   1.478   6.158   7.721 -0.1493 -0.1352  0.5882
20958WAT      O85636   3.708   8.839   1.474  0.1183 -0.0842  0.0933
20958WAT     H185637   3.714   8.777   1.401  1.4517 -1.1095  1.0141
20958WAT     H285638   3.614   8.850   1.488 -0.1746 -2.0459 -0.0131
20958WAT    EPW85639   3.697   8.832   1.466  0.2557 -0.4773  0.2006
20959WAT      O85640   3.048   5.017   4.426 -0.3684 -0.3434 -0.4300
20959WAT     H185641   3.141   4.994   4.434 -0.0514  0.0392 -2.5651
20959WAT     H285642   3.033   5.078   4.499  0.9147 -0.7661  0.2246
20959WAT    EPW85643   3.058   5.022   4.437 -0.1572 -0.3488 -0.6254
20960WAT      O85644   3.566   8.330   4.158  0.0267  0.4871 -0.4518
20960WAT     H185645   3.597   8.245   4.126  2.0346  0.6038  0.9857
20960WAT     H285646   3.485   8.310   4.205  1.3100 -0.9639  1.2779
20960WAT    EPW85647   3.560   8.316   4.160  0.4606  0.3109 -0.0341
20961WAT      O85648   4.385   3.556   5.897  0.2141  0.2415 -0.0511
20961WAT     H185649   4.317   3.563   5.829 -1.0153  0.2293  1.1270
20961WAT     H285650   4.387   3.463   5.919  0.3274  0.3023  0.1972
20961WAT    EPW85651   4.376   3.544   5.891  0.0670  0.2478  0.1371
20962WAT      O85652   4.500   7.026   7.472 -0.2595 -0.5207 -0.4939
20962WAT     H185653   4.511   7.005   7.380  0.2810  0.4145 -0.6536
20962WAT     H285654   4.440   7.101   7.472  0.3429 -0.0298 -0.1398
20962WAT    EPW85655   4.493   7.033   7.460 -0.1087 -0.3328 -0.4683
20963WAT      O85656   0.568   4.137   6.793  0.1863  0.3761 -0.3764
20963WAT     H185657   0.553   4.045   6.816  2.5097 -0.1838 -0.8974
20963WAT     H285658   0.533   4.145   6.704  0.7821 -0.2622 -0.6790
20963WAT    EPW85659   0.561   4.126   6.784  0.5713  0.2182 -0.4852
20964WAT      O85660   5.219   4.464   5.255  0.3525 -0.2925  0.1559
20964WAT     H185661   5.213   4.531   5.322 -0.0566 -1.5004  1.3819
20964WAT     H285662   5.295   4.488   5.202  0.5657  0.7879  0.9328
20964WAT    EPW85663   5.228   4.476   5.257  0.3269 -0.3095  0.4199
20965WAT      O85664   2.709   6.901   4.571  0.0921  0.3536  0.0516
20965WAT     H185665   2.665   6.835   4.625  0.1173 -0.8950 -1.4075
20965WAT     H285666   2.665   6.983   4.593 -0.9767 -0.3878  0.7727
20965WAT    EPW85667   2.698   6.903   4.581 -0.0455  0.0911 -0.0458
20966WAT      O85668   1.904   5.369   5.722  0.1651 -0.3839  0.3081
20966WAT     H185669   1.932   5.353   5.812  2.3069 -2.2642 -0.6226
20966WAT     H285670   1.953   5.307   5.670 -1.0397  0.6456 -2.2075
20966WAT    EPW85671   1.914   5.359   5.727  0.2887 -0.4959 -0.1466
20967WAT      O85672   4.968   7.194   6.647  0.3019  0.1076  0.1457
20967WAT     H185673   4.876   7.188   6.675 -0.2171 -0.0815 -1.5073
20967WAT     H285674   4.991   7.106   6.619  0.4918  0.4722 -0.8889
20967WAT    EPW85675   4.959   7.182   6.647  0.2584  0.1304 -0.2091
20968WAT      O85676   2.120   4.924   5.673  0.0548 -0.5618  0.0777
20968WAT     H185677   2.136   4.916   5.579 -1.7257 -0.9312 -0.2375
20968WAT     H285678   2.040   4.873   5.688 -0.8461  1.1348  1.4199
20968WAT    EPW85679   2.112   4.916   5.663 -0.2989 -0.3865  0.2131
20969WAT      O85680   2.281   2.223   2.903 -0.5475 -0.1721 -0.0055
20969WAT     H185681   2.304   2.174   2.982  0.9847 -2.1387 -1.5788
20969WAT     H285682   2.352   2.286   2.892 -0.9174  0.3094  0.3326
20969WAT    EPW85683   2.293   2.225   2.912 -0.3941 -0.3680 -0.1684
20970WAT      O85684   1.788   8.937   3.764 -0.3240  1.0325 -0.2791
20970WAT     H185685   1.736   8.995   3.709 -1.5650  0.5388  0.3464
20970WAT     H285686   1.851   8.995   3.807 -1.5169  1.9310  0.3096
20970WAT    EPW85687   1.790   8.952   3.763 -0.6450  1.0862 -0.1190
20971WAT      O85688   3.472   5.542   7.296 -0.2058 -0.4104  0.3930
20971WAT     H185689   3.555   5.590   7.291  0.3997 -1.4125  0.6255
20971WAT     H285690   3.489   5.460   7.251 -0.9918 -0.7477  0.6987
20971WAT    EPW85691   3.485   5.538   7.289 -0.2296 -0.5867  0.4637
20972WAT      O85692   2.638   6.412   6.694 -0.0188 -0.9611 -0.2495
20972WAT     H185693   2.717   6.359   6.709  1.7295  1.6434  0.3869
20972WAT     H285694   2.669   6.489   6.648 -2.2293  0.1185 -0.0563
20972WAT    EPW85695   2.652   6.415   6.690 -0.0798 -0.4749 -0.1402
20973WAT      O85696   2.759   7.300   6.572  0.6384  0.3375  0.3253
20973WAT     H185697   2.756   7.206   6.560 -1.0665  0.1706  1.6780
20973WAT     H285698   2.852   7.320   6.583  1.4332 -0.6567 -3.2207
20973WAT    EPW85699   2.770   7.291   6.572  0.5183  0.1843  0.0362
20974WAT      O85700   1.535   7.325   7.446  0.0538 -0.6405  0.0652
20974WAT     H185701   1.527   7.268   7.369  0.2406 -0.3529 -0.1675
20974WAT     H285702   1.605   7.386   7.424 -1.1999  0.7073 -0.3392
20974WAT    EPW85703   1.543   7.325   7.433 -0.0868 -0.4249 -0.0191
20975WAT      O85704   3.287   3.538   5.237  0.4133  0.3382 -0.6276
20975WAT     H185705   3.227   3.580   5.176 -4.1688 -2.5406  1.3061
20975WAT     H285706   3.320   3.462   5.189  0.3629  0.5005 -0.9193
20975WAT    EPW85707   3.283   3.533   5.223 -0.1976 -0.0201 -0.4113
20976WAT      O85708   6.887   9.839   8.686  0.4684  0.2321 -0.8234
20976WAT     H185709   6.873   9.805   8.775 -1.5429  0.6586 -0.9368
20976WAT     H285710   6.982   9.839   8.676  0.7574  0.2474  1.3612
20976WAT    EPW85711   6.898   9.834   8.697  0.2413  0.2904 -0.5503
20977WAT      O85712   1.998   3.916   4.374  0.5278 -0.5617  0.4089
20977WAT     H185713   2.023   3.929   4.282  2.8747 -1.5151  0.8639
20977WAT     H285714   2.077   3.885   4.417  0.1225  1.8530  3.2466
20977WAT    EPW85715   2.012   3.914   4.367  0.7838 -0.3690  0.8433
20978WAT      O85716   1.610   5.093   5.400 -0.0733 -0.1308 -0.4158
20978WAT     H185717   1.541   5.035   5.367 -0.1301  0.7830 -2.0018
20978WAT     H285718   1.675   5.095   5.329  1.0060 -0.0188  0.5543
20978WAT    EPW85719   1.610   5.086   5.386  0.0616  0.0043 -0.4973
20979WAT      O85720   3.430   4.181   2.444 -0.5823  0.3986  0.2865
20979WAT     H185721   3.433   4.103   2.388  1.9056  2.3814 -2.7233
20979WAT     H285722   3.341   4.183   2.478 -1.0714 -3.0991 -0.3753
20979WAT    EPW85723   3.419   4.171   2.441 -0.3188  0.1988 -0.1978
20980WAT      O85724   3.441   6.554   4.249 -0.3816  0.2660  0.0636
20980WAT     H185725   3.348   6.578   4.244 -0.6199 -0.7017 -0.6054
20980WAT     H285726   3.443   6.462   4.220  0.8137  0.3498 -0.1595
20980WAT    EPW85727   3.429   6.545   4.244 -0.2555  0.1493 -0.0544
20981WAT      O85728   3.216   4.320   4.162 -0.2648 -0.4634  0.1639
20981WAT     H185729   3.153   4.279   4.102  1.1893 -0.7671 -1.2032
20981WAT     H285730   3.284   4.254   4.173  0.3667  0.2740  0.7661
20981WAT    EPW85731   3.216   4.306   4.156  0.0104 -0.4063  0.0632
20982WAT      O85732   0.230   2.954   6.278 -0.0517 -0.3062 -0.3901
20982WAT     H185733   0.304   2.957   6.218  0.4529  1.0715  0.2739
20982WAT     H285734   0.187   2.871   6.258  3.1116 -2.4473  0.9411
20982WAT    EPW85735   0.234   2.943   6.268  0.4321 -0.4070 -0.1268
20983WAT      O85736   2.677   2.231   2.291 -0.5544  0.0264 -0.0332
20983WAT     H185737   2.767   2.242   2.260 -0.7984 -1.8208 -1.6064
20983WAT     H285738   2.674   2.140   2.323 -1.7928  0.1487  0.2268
20983WAT    EPW85739   2.689   2.220   2.291 -0.7498 -0.2012 -0.2065
20984WAT      O85740  10.304   4.694   0.892  0.1767  0.6958  1.3607
20984WAT     H185741  10.365   4.630   0.855 -2.4040 -1.3176  0.1822
20984WAT     H285742  10.359   4.767   0.921  3.0696 -0.9779  0.4888
20984WAT    EPW85743  10.319   4.695   0.891  0.2184  0.2093  1.0903
20985WAT      O85744   4.099   5.936   3.321 -0.6234  0.5405 -0.7931
20985WAT     H185745   4.160   5.945   3.395 -1.5526  0.2203  0.0415
20985WAT     H285746   4.133   5.862   3.271 -0.3402  0.3448 -0.3192
20985WAT    EPW85747   4.111   5.928   3.324 -0.7088  0.4725 -0.6205
20986WAT      O85748   4.990   9.932   0.394  0.2756 -0.1608 -0.4450
20986WAT     H185749   5.040  10.014   0.391 -2.3073  2.0699  4.8999
20986WAT     H285750   5.043   9.874   0.449 -0.4173  0.1716  0.6094
20986WAT    EPW85751   5.004   9.935   0.401 -0.1566  0.1774  0.3990
20987WAT      O85752   1.597   6.696   4.244 -0.1285 -1.2867 -0.0654
20987WAT     H185753   1.549   6.663   4.168  1.9948 -1.0189 -1.6045
20987WAT     H285754   1.535   6.754   4.288 -0.4737  1.2730 -3.5248
20987WAT    EPW85755   1.583   6.699   4.240  0.1060 -0.9139 -0.7246
20988WAT      O85756   8.663   3.463   8.751 -0.0914  0.3508  0.3303
20988WAT     H185757   8.748   3.448   8.711 -0.0235 -0.9682  0.9285
20988WAT     H285758   8.683   3.505   8.835 -0.0671  0.5013  0.2502
20988WAT    EPW85759   8.677   3.467   8.757 -0.0792  0.1967  0.3986
20989WAT      O85760   4.573   5.534   5.708  0.6790 -0.0922 -0.2108
20989WAT     H185761   4.596   5.482   5.785  0.6036 -0.3716 -0.3726
20989WAT     H285762   4.477   5.534   5.707  0.6678  0.6839  0.2054
20989WAT    EPW85763   4.563   5.527   5.718  0.6676 -0.0265 -0.1774
20990WAT      O85764   3.615   7.871   5.957 -0.6746  0.1301  0.5387
20990WAT     H185765   3.682   7.940   5.955 -1.6056  1.0377 -0.2627
20990WAT     H285766   3.664   7.791   5.940  0.4547  0.5542  1.6394
20990WAT    EPW85767   3.630   7.870   5.954 -0.6486  0.3059  0.5782
20991WAT      O85768   3.970   3.730   4.611  0.0631  0.5290 -0.1474
20991WAT     H185769   4.007   3.781   4.538 -1.6565  0.7013 -0.9590
20991WAT     H285770   4.030   3.745   4.684  0.4029  2.5571 -0.7834
20991WAT    EPW85771   3.983   3.739   4.611 -0.1190  0.8193 -0.3383
20992WAT      O85772   6.423   0.565   4.893 -0.5051 -0.4203 -0.4459
20992WAT     H185773   6.342   0.540   4.937 -0.7373  1.6730  0.4429
20992WAT     H285774   6.492   0.540   4.954 -0.7840  1.7191  0.8590
20992WAT    EPW85775   6.421   0.558   4.907 -0.5724  0.1380 -0.1566
20993WAT      O85776   0.515   4.422   7.372  0.8020  0.0001 -0.3828
20993WAT     H185777   0.437   4.477   7.381  2.3630  2.3936 -0.6600
20993WAT     H285778   0.485   4.334   7.397 -2.7421  0.0906 -3.3728
20993WAT    EPW85779   0.500   4.417   7.376  0.5405  0.3276 -0.8137
20994WAT      O85780   1.683   8.161   5.555  0.4092 -0.6459 -0.3831
20994WAT     H185781   1.662   8.233   5.615 -1.4583 -1.4832  0.0200
20994WAT     H285782   1.613   8.097   5.568  2.0206 -2.5849 -0.7061
20994WAT    EPW85783   1.671   8.162   5.565  0.3754 -1.0118 -0.3726
20995WAT      O85784   2.651   6.001   6.227 -0.1104  0.8655  0.0676
20995WAT     H185785   2.565   6.002   6.185 -0.3464 -0.5461  0.4633
20995WAT     H285786   2.707   6.051   6.168 -0.5080 -0.7644 -1.8129
20995WAT    EPW85787   2.647   6.008   6.214 -0.1940  0.4642 -0.1283
20996WAT      O85788   1.483   0.748   1.925  0.9267  0.4870 -0.6987
20996WAT     H185789   1.495   0.659   1.958 -0.3724 -0.3042 -2.2408
20996WAT     H285790   1.563   0.794   1.952  1.2811 -0.9070  0.8016
20996WAT    EPW85791   1.495   0.742   1.933  0.8020  0.1988 -0.7043
20997WAT      O85792   1.106   3.683   5.137  0.2511  0.2796 -0.0513
20997WAT     H185793   1.034   3.718   5.189  0.4997 -1.2761  1.3930
20997WAT     H285794   1.180   3.680   5.197  0.6408 -1.2205 -0.5751
20997WAT    EPW85795   1.106   3.687   5.152  0.3353 -0.1235  0.0701
20998WAT      O85796   0.164  10.334   6.405 -0.5008  0.4900  0.1800
20998WAT     H185797   0.100  10.379   6.351 -2.1327 -1.3603  0.4583
20998WAT     H285798   0.235  10.310   6.345 -1.5555 -0.1543 -0.8395
20998WAT    EPW85799   0.165  10.337   6.390 -0.8551  0.1612  0.0823
20999WAT      O85800   2.174   8.331   5.684 -0.8004  0.4491 -0.2191
20999WAT     H185801   2.242   8.265   5.669 -0.1783  1.5487 -2.7116
20999WAT     H285802   2.213   8.392   5.747  0.0022  0.3411 -0.5992
20999WAT    EPW85803   2.188   8.330   5.690 -0.6126  0.5798 -0.5980
21000WAT      O85804   5.254   6.604   5.385 -0.1849  0.0580  0.3816
21000WAT     H185805   5.233   6.678   5.442  0.9307  0.9753 -0.3661
21000WAT     H285806   5.348   6.613   5.368  0.4477 -2.6205  1.8202
21000WAT    EPW85807   5.264   6.615   5.390  0.0458 -0.1740  0.4730
21001WAT      O85808   1.688   7.881   2.209  0.0433 -0.1286  0.2579
21001WAT     H185809   1.603   7.913   2.179  0.1568  0.1521  0.2373
21001WAT     H285810   1.731   7.849   2.130 -0.0639 -0.3257  0.2767
21001WAT    EPW85811   1.683   7.881   2.195  0.0442 -0.1175  0.2576
21002WAT      O85812   4.079   5.879   5.293  0.5813  0.6415  0.1504
21002WAT     H185813   3.989   5.883   5.326  0.3244  3.2822 -0.6577
21002WAT     H285814   4.128   5.937   5.350  1.3819  0.6478 -0.5301
21002WAT    EPW85815   4.073   5.887   5.305  0.6530  0.9909 -0.0458
21003WAT      O85816   3.610   6.972   5.987 -0.0504 -0.1129  0.1204
21003WAT     H185817   3.645   7.057   5.960 -0.3427 -0.0920 -0.2080
21003WAT     H285818   3.680   6.910   5.964  0.0631  0.0106  0.1296
21003WAT    EPW85819   3.624   6.975   5.980 -0.0740 -0.0939  0.0782
21004WAT      O85820   3.099   5.091   6.570  0.2885 -0.1242  0.0855
21004WAT     H185821   3.131   5.175   6.537 -1.3797 -0.0077 -1.3237
21004WAT     H285822   3.019   5.112   6.617 -4.1135 -1.2923 -5.7567
21004WAT    EPW85823   3.093   5.105   6.572 -0.5121 -0.2630 -0.8707
21005WAT      O85824   4.550   3.595   6.331  0.3240  0.1822  0.4642
21005WAT     H185825   4.609   3.553   6.269  0.9280  2.7836 -0.8894
21005WAT     H285826   4.593   3.585   6.416  1.9546  0.6659 -0.2673
21005WAT    EPW85827   4.564   3.588   6.334  0.6187  0.5893  0.1891
21006WAT      O85828   3.196   5.334   6.125  0.4822 -0.0030 -0.0977
21006WAT     H185829   3.229   5.311   6.038 -1.2271 -1.1633 -0.4933
21006WAT     H285830   3.274   5.360   6.174  1.8054 -1.4186 -1.3316
21006WAT    EPW85831   3.210   5.334   6.120  0.4313 -0.3428 -0.3128
21007WAT      O85832   1.831   2.949   3.859 -1.1618  0.3037 -0.3368
21007WAT     H185833   1.765   3.013   3.833 -2.7350 -0.6845  1.0327
21007WAT     H285834   1.806   2.868   3.813 -0.0961  0.2532 -0.8598
21007WAT    EPW85835   1.819   2.946   3.849 -1.2287  0.1667 -0.2253
21008WAT      O85836   4.868   6.797   3.451  0.1983  0.2339 -0.3482
21008WAT     H185837   4.861   6.763   3.540  3.9425  2.3847  1.0010
21008WAT     H285838   4.794   6.857   3.442 -2.9852 -3.3557 -0.6111
21008WAT    EPW85839   4.857   6.800   3.462  0.2723  0.0441 -0.2049
21009WAT      O85840   2.232   6.336   5.590 -0.0427 -1.1823  0.3865
21009WAT     H185841   2.283   6.336   5.508  1.5267 -0.8253  1.3144
21009WAT     H285842   2.277   6.399   5.646 -2.4992  0.3929  0.7291
21009WAT    EPW85843   2.245   6.344   5.586 -0.1596 -0.9277  0.5538
21010WAT      O85844   9.227   7.873   7.720  0.2925  0.4571 -0.0082
21010WAT     H185845   9.206   7.959   7.758  0.1430  1.5200 -2.3241
21010WAT     H285846   9.307   7.846   7.764  2.0113  3.1867 -1.1648
21010WAT    EPW85847   9.235   7.881   7.731  0.4997  0.9575 -0.4663
21011WAT      O85848   1.653   1.680   3.999 -0.1793 -0.5834 -0.1848
21011WAT     H185849   1.592   1.648   4.065 -2.1025  0.8600 -1.1508
21011WAT     H285850   1.711   1.740   4.047  0.6961 -2.1553  0.7893
21011WAT    EPW85851   1.653   1.684   4.014 -0.3175 -0.6003 -0.1838
21012WAT      O85852   1.136   6.228   3.887  1.2547 -0.4148 -0.1048
21012WAT     H185853   1.175   6.187   3.964  0.8092  1.8050  1.4007
21012WAT     H285854   1.067   6.168   3.860  0.5881 -0.6922  2.0330
21012WAT    EPW85855   1.132   6.215   3.894  1.1081 -0.1588  0.3757
21013WAT      O85856   3.138   7.588   4.297  0.2369 -0.6775  0.5026
21013WAT     H185857   3.159   7.645   4.223 -0.8216  1.4733  1.7551
21013WAT     H285858   3.118   7.648   4.369  2.8279 -2.6401  3.0984
21013WAT    EPW85859   3.138   7.603   4.297  0.4390 -0.6526  1.0102
21014WAT      O85860   6.528   7.381   0.816 -0.6389  0.2581  0.3863
21014WAT     H185861   6.477   7.346   0.743 -0.5789 -0.5247  0.7004
21014WAT     H285862   6.464   7.391   0.887 -0.3625 -0.8486  0.8213
21014WAT    EPW85863   6.513   7.378   0.816 -0.5944  0.0088  0.4851
21015WAT      O85864   3.867   5.680   6.045  0.1513  0.9159 -0.2153
21015WAT     H185865   3.860   5.589   6.016  0.5039  0.5584  0.7653
21015WAT     H285866   3.846   5.677   6.138  0.8135  1.7309 -0.0269
21015WAT    EPW85867   3.864   5.667   6.054  0.2851  0.9761 -0.0608
21016WAT      O85868   2.329   7.532   5.505  0.1149 -0.2250  0.1329
21016WAT     H185869   2.286   7.511   5.589 -2.3831  0.6270 -0.8153
21016WAT     H285870   2.335   7.448   5.460 -2.1124 -0.2387 -0.2981
21016WAT    EPW85871   2.324   7.519   5.510 -0.5083 -0.1147 -0.0491
21017WAT      O85872   4.066   8.509   6.652  0.2417 -0.2682 -0.7143
21017WAT     H185873   4.140   8.546   6.701 -0.7378  0.2259  0.4533
21017WAT     H285874   4.051   8.571   6.580 -0.8278  1.2245  0.7223
21017WAT    EPW85875   4.074   8.522   6.649 -0.0286 -0.0062 -0.3710
21018WAT      O85876   0.117   6.116   4.956  0.4454 -0.9483 -0.0661
21018WAT     H185877   0.150   6.194   5.001 -0.6023 -0.7568  0.3961
21018WAT     H285878   0.024   6.134   4.940  0.3567 -1.8037 -0.6108
21018WAT    EPW85879   0.109   6.129   4.960  0.2955 -1.0359 -0.0770
21019WAT      O85880   2.876   5.532   5.739  0.3970 -0.3422  0.3689
21019WAT     H185881   2.898   5.625   5.739  2.7902 -0.6785 -3.5495
21019WAT     H285882   2.794   5.527   5.691 -0.0296 -0.2537  1.0743
21019WAT    EPW85883   2.868   5.544   5.733  0.6565 -0.3750 -0.0548
21020WAT      O85884   3.139   8.556   7.262  0.0562  0.9841 -0.4557
21020WAT     H185885   3.081   8.492   7.303 -0.9662 -0.2203 -3.5040
21020WAT     H285886   3.227   8.530   7.291 -0.4902 -0.7016 -0.1823
21020WAT    EPW85887   3.143   8.544   7.271 -0.1508  0.6027 -0.8216
21021WAT      O85888   1.564   6.625   8.398  0.1432  0.3606  0.1883
21021WAT     H185889   1.515   6.687   8.344  0.4250  0.5501  0.1490
21021WAT     H285890   1.653   6.627   8.363 -0.3693 -1.9684 -1.5170
21021WAT    EPW85891   1.569   6.633   8.386  0.1128  0.0782 -0.0424
21022WAT      O85892   1.624   7.910   6.241  0.3471 -0.2575  0.0499
21022WAT     H185893   1.710   7.906   6.198  0.3153 -0.9133  0.0415
21022WAT     H285894   1.636   7.865   6.324  0.6261  1.7223  1.1607
21022WAT    EPW85895   1.637   7.904   6.246  0.3798 -0.0827  0.1955
21023WAT      O85896   2.507   7.162   3.510  0.3583  0.1993 -0.0146
21023WAT     H185897   2.438   7.105   3.544 -1.2121  2.5836  0.9896
21023WAT     H285898   2.578   7.153   3.573  0.4042 -1.0651 -0.2104
21023WAT    EPW85899   2.507   7.153   3.522  0.1572  0.3469  0.0921
21024WAT      O85900   4.298   7.319   5.886  0.1862  0.1354  0.2980
21024WAT     H185901   4.332   7.230   5.883  1.8461  0.7066  0.7627
21024WAT     H285902   4.355   7.364   5.949  0.4123  1.9229 -1.1124
21024WAT    EPW85903   4.310   7.313   5.894  0.4349  0.4463  0.1733
21025WAT      O85904   0.567   8.307   3.595 -0.0557  0.0983  0.3052
21025WAT     H185905   0.526   8.367   3.534 -2.8150  0.3245  2.2108
21025WAT     H285906   0.658   8.300   3.564 -1.1200  0.5417 -3.4551
21025WAT    EPW85907   0.574   8.314   3.583 -0.5600  0.1864  0.0607
21026WAT      O85908   1.435   7.020   2.116  0.3094 -0.4680 -0.2824
21026WAT     H185909   1.342   7.038   2.099  0.3966 -0.2888 -0.5915
21026WAT     H285910   1.473   7.106   2.133 -0.0180 -0.7571  2.1883
21026WAT    EPW85911   1.428   7.034   2.116  0.2776 -0.4826  0.0027
21027WAT      O85912   4.466   5.111   5.962 -0.1014 -0.1943 -0.2338
21027WAT     H185913   4.529   5.085   5.895 -0.3563 -0.6588 -0.3024
21027WAT     H285914   4.469   5.207   5.962  2.7591 -0.1514  1.8095
21027WAT    EPW85915   4.475   5.120   5.953  0.2422 -0.2499  0.0267
21028WAT      O85916   2.834   6.157   5.096 -0.3999 -0.0654  0.4193
21028WAT     H185917   2.788   6.234   5.130 -1.2782 -1.1470  1.7654
21028WAT     H285918   2.769   6.087   5.100  0.1148 -0.7291 -1.5909
21028WAT    EPW85919   2.819   6.158   5.101 -0.4479 -0.2956  0.3319
21029WAT      O85920   3.046   4.088   5.491  0.3133  0.0649 -0.7599
21029WAT     H185921   3.078   4.159   5.546  0.6414  0.8588 -1.9284
21029WAT     H285922   3.119   4.068   5.432  0.3865 -1.5650 -0.1664
21029WAT    EPW85923   3.060   4.094   5.490  0.3663 -0.0455 -0.8359
21030WAT      O85924   0.558   7.309   4.289  0.3733  0.1024  0.1598
21030WAT     H185925   0.628   7.330   4.227 -0.8803 -0.9761 -1.7278
21030WAT     H285926   0.585   7.226   4.328 -0.0128 -0.5297 -0.8761
21030WAT    EPW85927   0.571   7.301   4.286  0.1570 -0.1235 -0.2255
21031WAT      O85928   4.168   2.524   3.886  0.2307  0.1694 -0.4288
21031WAT     H185929   4.197   2.591   3.823 -1.2925 -0.0688 -1.4475
21031WAT     H285930   4.103   2.473   3.838 -1.3260  0.2421  1.4732
21031WAT    EPW85931   4.164   2.526   3.871 -0.1757  0.1476 -0.3122
21032WAT      O85932   0.046   4.266   5.455  0.6341  0.3209  0.2062
21032WAT     H185933  -0.021   4.210   5.495  0.4612  1.2218  1.2354
21032WAT     H285934   0.015   4.355   5.472  0.9219  0.7405 -1.3742
21032WAT    EPW85935   0.033   4.270   5.463  0.6490  0.4950  0.1335
21033WAT      O85936   4.585   5.582   6.194 -0.0598 -0.1679 -0.7854
21033WAT     H185937   4.652   5.650   6.207 -0.5557  0.1411  0.2716
21033WAT     H285938   4.505   5.631   6.174  0.1322 -0.5583 -2.7049
21033WAT    EPW85939   4.584   5.598   6.193 -0.0999 -0.1788 -0.8991
21034WAT      O85940   2.919   8.365   6.935 -0.3249  0.4990  0.4323
21034WAT     H185941   2.872   8.397   6.858 -1.6452 -1.4269  0.3577
21034WAT     H285942   2.862   8.389   7.008 -1.1656 -1.2649  0.4020
21034WAT    EPW85943   2.905   8.373   6.935 -0.6100  0.0124  0.4184
21035WAT      O85944   2.972   6.673   4.128 -0.3205  0.4584  0.8596
21035WAT     H185945   2.891   6.672   4.180 -0.5094  0.9398  0.5720
21035WAT     H285946   3.025   6.741   4.168 -0.9346  1.6436 -0.2849
21035WAT    EPW85947   2.968   6.682   4.140 -0.4264  0.6783  0.6709
21036WAT      O85948   1.794   5.900   6.685 -0.2847  0.5208 -0.4303
21036WAT     H185949   1.764   5.991   6.684 -2.5618 -0.0945  1.3009
21036WAT     H285950   1.713   5.849   6.693  0.9818 -1.6123 -0.5085
21036WAT    EPW85951   1.779   5.906   6.686 -0.4179  0.1585 -0.2120
21037WAT      O85952   2.103   5.737   7.376 -0.3990 -0.2390 -0.5876
21037WAT     H185953   2.117   5.826   7.343 -0.6074  0.4638  1.1520
21037WAT     H285954   2.008   5.730   7.385 -0.6875 -1.7260 -3.4829
21037WAT    EPW85955   2.092   5.748   7.373 -0.4646 -0.3424 -0.7401
21038WAT      O85956   2.703  10.002   4.040  0.0455 -0.2762  0.6837
21038WAT     H185957   2.626  10.004   3.983  0.3963 -0.8345  0.1731
21038WAT     H285958   2.763  10.064   4.000 -0.0904  0.0677  1.0122
21038WAT    EPW85959   2.701  10.010   4.027  0.0738 -0.3042  0.6597
21039WAT      O85960   3.407   3.866   5.930 -0.5367 -0.5887  0.7631
21039WAT     H185961   3.399   3.828   6.017 -2.6625 -0.6566  0.5740
21039WAT     H285962   3.377   3.957   5.940  0.8803 -0.0524  0.4304
21039WAT    EPW85963   3.402   3.873   5.943 -0.6303 -0.5269  0.6943
21040WAT      O85964   3.563   5.686   5.982  0.6142  0.3876  0.2017
21040WAT     H185965   3.630   5.697   6.050  2.5122  0.3751 -1.5895
21040WAT     H285966   3.501   5.758   5.998  1.3258  0.7407  1.5594
21040WAT    EPW85967   3.564   5.697   5.993  0.9583  0.4325  0.1445
21041WAT      O85968   1.276   3.870   7.486  0.5141 -0.0508  0.2698
21041WAT     H185969   1.283   3.952   7.438  0.8151  0.1576  0.6657
21041WAT     H285970   1.275   3.803   7.418  2.0870  0.1720 -0.0144
21041WAT    EPW85971   1.277   3.872   7.471  0.7613  0.0062  0.2847
21042WAT      O85972   0.488   3.765   4.161  0.4850 -0.6063  0.2233
21042WAT     H185973   0.539   3.688   4.186  0.2274 -0.9365 -0.2518
21042WAT     H285974   0.399   3.746   4.189  0.7742  0.3688  1.8976
21042WAT    EPW85975   0.483   3.753   4.168  0.4891 -0.5214  0.3815
21043WAT      O85976  10.998   6.222   8.603  0.2134  0.2141  0.0141
21043WAT     H185977  11.036   6.166   8.536 -1.6820  0.1881 -1.1112
21043WAT     H285978  11.052   6.302   8.601  1.0803 -0.3685 -0.4707
21043WAT    EPW85979  11.010   6.225   8.594  0.0777  0.1338 -0.1979
21044WAT      O85980   3.008   3.267   5.343  0.2696  0.2978 -0.2419
21044WAT     H185981   3.083   3.301   5.392 -1.5853 -1.0639  3.9135
21044WAT     H285982   2.932   3.305   5.385 -1.6716 -4.3255  1.1390
21044WAT    EPW85983   3.008   3.276   5.355 -0.2310 -0.4916  0.4883
21045WAT      O85984   0.415   7.699   3.321  0.1086  0.5327 -0.4362
21045WAT     H185985   0.486   7.763   3.322  0.5480  0.0577  1.3913
21045WAT     H285986   0.349   7.734   3.380  0.8565 -1.1799  1.5223
21045WAT    EPW85987   0.416   7.712   3.329  0.2652  0.2441  0.0633
21046WAT      O85988   1.922   3.489   5.359 -0.6101 -0.8168 -0.3068
21046WAT     H185989   1.915   3.394   5.352  0.2950 -0.7553 -5.1937
21046WAT     H285990   1.853   3.522   5.302  0.7919  1.3334 -0.8695
21046WAT    EPW85991   1.912   3.481   5.351 -0.3058 -0.5251 -1.0257
21047WAT      O85992   4.239   6.997   0.843 -0.5530  0.1654  0.4774
21047WAT     H185993   4.153   6.985   0.802 -0.9743 -5.0149  2.0831
21047WAT     H285994   4.233   7.081   0.888 -4.1899  0.7318 -0.7323
21047WAT    EPW85995   4.227   7.006   0.844 -1.0881 -0.4430  0.5296
21048WAT      O85996   1.814   4.964   5.230  0.3032 -0.1285 -0.4186
21048WAT     H185997   1.836   4.876   5.260  0.4000 -0.1173 -0.4575
21048WAT     H285998   1.895   5.013   5.235  0.2610 -0.0551 -0.4464
21048WAT    EPW85999   1.827   4.959   5.234  0.3104 -0.1173 -0.4272
21049WAT      O86000   1.357   6.709   3.989 -1.4603 -0.5957 -0.8701
21049WAT     H186001   1.444   6.726   3.952  0.4623 -0.5404  3.1050
21049WAT     H286002   1.335   6.622   3.957  1.3973 -1.7818  0.0048
21049WAT    EPW86003   1.366   6.700   3.980 -0.8297 -0.7448 -0.2304
21050WAT      O86004   3.766   7.882   3.159  0.0143  0.1434 -0.4746
21050WAT     H186005   3.711   7.932   3.099 -1.7575 -1.5498 -0.3528
21050WAT     H286006   3.709   7.814   3.194  2.0824 -1.4865 -0.0311
21050WAT    EPW86007   3.752   7.880   3.156  0.0535 -0.2952 -0.4001
21051WAT      O86008   2.698   4.699   4.451 -0.3617  0.0085  0.1923
21051WAT     H186009   2.703   4.793   4.436  0.6130 -0.2926 -1.5885
21051WAT     H286010   2.738   4.685   4.537 -0.7940  1.2189  0.6073
21051WAT    EPW86011   2.704   4.709   4.461 -0.2902  0.1280  0.0119
21052WAT      O86012   2.110   6.892   6.538 -0.1920  0.7010 -0.2839
21052WAT     H186013   2.133   6.928   6.623 -0.6672 -0.7512  0.4964
21052WAT     H286014   2.193   6.876   6.494  0.1272  0.0294  0.5446
21052WAT    EPW86015   2.124   6.894   6.543 -0.2126  0.4208 -0.0720
21053WAT      O86016   1.963   5.118   6.415 -0.0658 -0.3667  0.0051
21053WAT     H186017   1.996   5.203   6.443 -0.1593 -0.8852  1.8405
21053WAT     H286018   2.031   5.084   6.356 -0.1686  1.0601 -0.9875
21053WAT    EPW86019   1.976   5.124   6.411 -0.0917 -0.2468  0.1161
21054WAT      O86020   0.210   1.566   7.699  0.1023 -0.2581 -0.5333
21054WAT     H186021   0.195   1.604   7.613  0.9547 -1.0655 -1.0504
21054WAT     H286022   0.302   1.583   7.717  0.2902 -1.3336 -0.4140
21054WAT    EPW86023   0.220   1.574   7.690  0.2395 -0.5064 -0.5858
21055WAT      O86024   3.954   5.401   2.827 -0.1716  0.1668  0.3114
21055WAT     H186025   3.878   5.370   2.777  1.1754 -0.4904 -1.4176
21055WAT     H286026   3.954   5.346   2.906 -1.3732  0.0727  0.2675
21055WAT    EPW86027   3.944   5.389   2.831 -0.1523  0.0677  0.0776
21056WAT      O86028   9.906   5.500   6.090 -0.4608  0.2314  0.0808
21056WAT     H186029   9.858   5.434   6.140  1.1581 -0.4676  0.7590
21056WAT     H286030   9.972   5.533   6.151  1.3785 -0.4237 -1.4664
21056WAT    EPW86031   9.908   5.496   6.105 -0.0043  0.0529 -0.0339
21057WAT      O86032   2.324   8.120   6.410  0.1333  0.0484 -0.2520
21057WAT     H186033   2.316   8.090   6.319 -2.4211 -3.1241  0.8344
21057WAT     H286034   2.290   8.210   6.408 -0.4304 -0.1477 -2.3337
21057WAT    EPW86035   2.318   8.128   6.398 -0.2780 -0.3963 -0.3834
21058WAT      O86036   4.435   8.454   5.373  0.6859  0.3341  0.4580
21058WAT     H186037   4.528   8.440   5.352  0.4427  0.6011 -0.9102
21058WAT     H286038   4.433   8.538   5.419  1.0502  0.6774 -0.1369
21058WAT    EPW86039   4.447   8.463   5.376  0.7019  0.4144  0.1991
21059WAT      O86040   2.549   6.345   3.554 -0.2022 -0.7260 -0.6751
21059WAT     H186041   2.526   6.269   3.608 -1.2250 -0.0227 -0.1073
21059WAT     H286042   2.633   6.374   3.589 -0.9078 -0.2107  0.6383
21059WAT    EPW86043   2.557   6.339   3.566 -0.4301 -0.5655 -0.4270
21060WAT      O86044   3.037   6.254   6.299  0.0580  0.0920 -0.0170
21060WAT     H186045   3.061   6.258   6.207  0.4006  0.3515  0.0840
21060WAT     H286046   2.958   6.199   6.301  0.0771  0.0500 -0.4561
21060WAT    EPW86047   3.030   6.247   6.287  0.1059  0.1206 -0.0620
21061WAT      O86048   1.981   8.296   5.926 -0.4536 -0.2348 -0.5022
21061WAT     H186049   1.975   8.208   5.889 -0.0643 -0.7681  0.6483
21061WAT     H286050   2.044   8.341   5.871  2.3375 -1.9037  1.0894
21061WAT    EPW86051   1.988   8.290   5.914 -0.0342 -0.5255 -0.1404
21062WAT      O86052   1.440   6.314   1.629 -0.2339 -0.0381 -0.2931
21062WAT     H186053   1.463   6.224   1.650 -1.5317  0.2273  2.8823
21062WAT     H286054   1.522   6.362   1.636  0.2980 -0.7976 -1.0757
21062WAT    EPW86055   1.454   6.308   1.632 -0.3350 -0.1032  0.0225
21063WAT      O86056   2.026   6.128   8.098 -0.0322  0.0896  0.2426
21063WAT     H186057   1.978   6.165   8.023 -2.7981  0.6793  2.1222
21063WAT     H286058   2.058   6.044   8.067 -1.7437 -0.0249 -1.4363
21063WAT    EPW86059   2.024   6.122   8.084 -0.6226  0.1526  0.2694
21064WAT      O86060   3.576   5.336   6.441 -0.6465 -0.2052  0.5816
21064WAT     H186061   3.652   5.314   6.495 -0.2486  1.7198  0.8911
21064WAT     H286062   3.501   5.328   6.500 -0.5831 -1.1774  0.5382
21064WAT    EPW86063   3.576   5.332   6.456 -0.5857 -0.0794  0.6166
21065WAT      O86064   4.179   4.334   3.298 -0.3376  0.0935 -0.2976
21065WAT     H186065   4.234   4.318   3.221 -1.5197 -0.8761 -0.9686
21065WAT     H286066   4.237   4.380   3.359  1.0441 -0.3559 -1.2145
21065WAT    EPW86067   4.194   4.338   3.296 -0.3114 -0.0937 -0.5069
21066WAT      O86068   0.122   4.698   4.783 -0.7550  0.0874 -0.0787
21066WAT     H186069   0.054   4.647   4.739  0.5199 -3.8177  1.9851
21066WAT     H286070   0.187   4.715   4.715 -1.3495 -0.8432 -0.9061
21066WAT    EPW86071   0.121   4.693   4.768 -0.6653 -0.5503  0.0842
21067WAT      O86072   0.782   3.288   6.526  0.0914  0.9298  0.6060
21067WAT     H186073   0.808   3.370   6.483  0.8265  0.0915 -0.6125
21067WAT     H286074   0.839   3.221   6.487 -1.2909 -0.3506  0.6802
21067WAT    EPW86075   0.793   3.290   6.515  0.0060  0.6503  0.4551
21068WAT      O86076   2.342   5.346   3.695 -0.4379 -0.4091 -0.0615
21068WAT     H186077   2.376   5.428   3.730  1.1196 -0.7771 -0.6003
21068WAT     H286078   2.379   5.279   3.752 -0.5137 -0.8060 -0.4732
21068WAT    EPW86079   2.352   5.348   3.707 -0.2425 -0.5100 -0.1870
21069WAT      O86080   1.558   4.934   5.924 -0.3483  0.0803  0.5139
21069WAT     H186081   1.639   4.957   5.970 -1.0546 -2.2830  3.2345
21069WAT     H286082   1.587   4.908   5.836  1.7324  0.1518  1.1145
21069WAT    EPW86083   1.573   4.933   5.918 -0.1670 -0.2217  0.9520
21070WAT      O86084   4.280   6.418   1.930 -0.9312  0.4571 -0.0894
21070WAT     H186085   4.195   6.377   1.915  0.2359 -1.6931 -1.4234
21070WAT     H286086   4.313   6.376   2.010  0.1676 -1.1649 -1.3264
21070WAT    EPW86087   4.273   6.407   1.939 -0.6323 -0.0403 -0.4285
21071WAT      O86088   2.058   4.042   3.611  0.6795 -0.7305 -0.7635
21071WAT     H186089   2.015   4.073   3.531  2.6941  0.8628 -1.3169
21071WAT     H286090   2.011   4.087   3.682 -0.6990 -1.6549 -1.0512
21071WAT    EPW86091   2.046   4.052   3.610  0.7633 -0.6423 -0.8744
21072WAT      O86092   3.110   8.234   5.777 -0.4017  0.6415  0.3815
21072WAT     H186093   3.051   8.307   5.760  0.4747  0.9487 -1.7092
21072WAT     H286094   3.197   8.274   5.778 -0.0054 -0.1984  0.3888
21072WAT    EPW86095   3.114   8.249   5.775 -0.2339  0.5708  0.1066
21073WAT      O86096   1.674   5.226   6.499 -0.2070 -0.3967  0.6730
21073WAT     H186097   1.681   5.131   6.487  0.8676 -0.3899  1.1839
21073WAT     H286098   1.716   5.263   6.421 -0.6529 -0.3259  0.4592
21073WAT    EPW86099   1.681   5.219   6.487 -0.1241 -0.3865  0.7124
21074WAT      O86100   2.578   5.789   3.943 -0.0567  1.1997  0.3501
21074WAT     H186101   2.589   5.716   3.883  0.2908  0.9112  0.7556
21074WAT     H286102   2.588   5.867   3.889 -1.6910  0.9736 -0.3297
21074WAT    EPW86103   2.581   5.790   3.928 -0.2263  1.1320  0.3140
21075WAT      O86104   0.399   2.303   8.940 -0.5584 -0.2663  0.2910
21075WAT     H186105   0.422   2.233   9.002  0.1304 -1.7594 -1.5449
21075WAT     H286106   0.459   2.291   8.867  2.5662  4.8790  1.4876
21075WAT    EPW86107   0.410   2.292   8.939 -0.0554  0.2154  0.2069
21076WAT      O86108   2.336   4.523   4.078 -0.3655 -0.5415  0.8105
21076WAT     H186109   2.286   4.464   4.135 -0.0636 -3.1260 -1.4160
21076WAT     H286110   2.427   4.506   4.100 -0.2737 -0.9785  0.1189
21076WAT    EPW86111   2.341   4.513   4.089 -0.3136 -0.9401  0.4256
21077WAT      O86112   1.956   8.290   5.525  0.3064 -0.0784 -0.5160
21077WAT     H186113   1.897   8.218   5.547 -1.0703  0.3731 -2.4518
21077WAT     H286114   2.026   8.284   5.589 -1.7459 -0.7523  1.8223
21077WAT    EPW86115   1.957   8.280   5.536 -0.1458 -0.1082 -0.4630
21078WAT      O86116   0.062   7.140   3.545  0.5906 -1.1070 -0.2699
21078WAT     H186117   0.098   7.174   3.462  2.9010 -1.6754  0.4162
21078WAT     H286118   0.140   7.122   3.598 -0.7613 -2.9427  1.1783
21078WAT    EPW86119   0.077   7.142   3.541  0.7176 -1.4241  0.0116
21079WAT      O86120   2.306   6.130   4.490 -0.6467  0.5377 -0.2311
21079WAT     H186121   2.233   6.125   4.551 -1.2310  0.0347 -0.9449
21079WAT     H286122   2.333   6.039   4.477 -0.3256  0.6652 -0.4863
21079WAT    EPW86123   2.300   6.117   4.496 -0.6813  0.4883 -0.3588
21080WAT      O86124   1.617   9.501   7.376 -0.4861 -0.2272  0.1749
21080WAT     H186125   1.659   9.587   7.376 -1.2691  0.1764 -0.4266
21080WAT     H286126   1.530   9.518   7.413  0.5944 -1.4489  3.6070
21080WAT    EPW86127   1.611   9.515   7.381 -0.4469 -0.3352  0.5484
21081WAT      O86128   0.663   4.527   6.637 -0.3703  0.2117  0.1689
21081WAT     H186129   0.593   4.515   6.701 -1.3994  1.1234 -0.7263
21081WAT     H286130   0.700   4.613   6.659 -0.6273  0.4593 -0.3399
21081WAT    EPW86131   0.659   4.537   6.648 -0.5399  0.3643 -0.0162
21082WAT      O86132   3.816   5.867   8.663 -0.3977 -0.3636  0.2424
21082WAT     H186133   3.746   5.833   8.608 -1.6582 -1.0366  2.1672
21082WAT     H286134   3.854   5.790   8.705 -1.4324  0.2640  2.5176
21082WAT    EPW86135   3.812   5.853   8.662 -0.7006 -0.3695  0.7963
21083WAT      O86136   0.569   5.629   3.389  0.4792  0.2935 -0.4650
21083WAT     H186137   0.584   5.683   3.468 -0.4960  0.7470 -0.5795
21083WAT     H286138   0.527   5.550   3.422  1.0090  0.0261 -0.4170
21083WAT    EPW86139   0.566   5.626   3.404  0.4204  0.3181 -0.4737
21084WAT      O86140   2.384   4.335   6.363 -1.0074  0.5507  0.1357
21084WAT     H186141   2.416   4.286   6.439  0.4118  2.0695  0.5580
21084WAT     H286142   2.459   4.386   6.333 -2.1932  1.8154 -0.8153
21084WAT    EPW86143   2.398   4.335   6.369 -0.9767  0.9179  0.0658
21085WAT      O86144   4.921   6.822   5.105 -0.8249  0.4995  0.5503
21085WAT     H186145   5.000   6.771   5.124 -1.0276 -0.1408 -0.2616
21085WAT     H286146   4.875   6.827   5.189 -1.4259 -1.7643  0.4210
21085WAT    EPW86147   4.925   6.815   5.118 -0.9308  0.1163  0.4261
21086WAT      O86148   1.592   7.622   5.453 -0.0933 -0.4330 -0.4454
21086WAT     H186149   1.650   7.554   5.486 -0.0495 -0.2952 -0.2352
21086WAT     H286150   1.642   7.703   5.465 -1.1907 -0.0120  1.8837
21086WAT    EPW86151   1.606   7.624   5.459 -0.2323 -0.3593 -0.1106
21087WAT      O86152   3.451   7.218   5.940  1.1368 -0.0522  0.4256
21087WAT     H186153   3.469   7.157   6.011  2.2399  0.0485  0.2458
21087WAT     H286154   3.501   7.184   5.866 -1.4295 -1.2048 -0.8816
21087WAT    EPW86155   3.460   7.206   5.940  0.9439 -0.1907  0.2294
21088WAT      O86156   1.195   6.001   4.284 -0.1237  0.3853  0.4563
21088WAT     H186157   1.226   5.912   4.268  0.1831  0.5377  0.1928
21088WAT     H286158   1.099   5.994   4.275 -0.0184  0.3464 -0.9624
21088WAT    EPW86159   1.186   5.988   4.281 -0.0694  0.4005  0.2344
21089WAT      O86160   4.172   4.510   5.971 -0.5533  0.4212 -0.8147
21089WAT     H186161   4.127   4.490   6.054 -0.5480  0.4566 -0.8029
21089WAT     H286162   4.239   4.575   5.995 -4.1418  4.9926 -1.6764
21089WAT    EPW86163   4.175   4.516   5.985 -1.0259  1.0290 -0.9267
21090WAT      O86164   9.994   7.843   3.183  0.5849  0.6356  0.5800
21090WAT     H186165   9.921   7.902   3.201 -0.0675  0.1026 -0.2606
21090WAT     H286166   9.969   7.759   3.221  0.5327  0.3232 -0.1142
21090WAT    EPW86167   9.981   7.840   3.190  0.4926  0.5243  0.3777
21091WAT      O86168   2.441   7.609   3.242  0.0077 -0.5529 -0.0903
21091WAT     H186169   2.389   7.542   3.287  0.5959 -0.6553  0.4455
21091WAT     H286170   2.405   7.692   3.273 -0.6756 -0.6062 -0.7001
21091WAT    EPW86171   2.429   7.611   3.252 -0.0048 -0.5734 -0.1000
21092WAT      O86172   3.367   6.485   2.495  0.4599 -0.0774  0.3372
21092WAT     H186173   3.456   6.500   2.463  0.3534 -0.3698 -0.1197
21092WAT     H286174   3.317   6.464   2.416 -0.5846  2.4962  0.2255
21092WAT    EPW86175   3.372   6.484   2.480  0.3082  0.2236  0.2621
21093WAT      O86176   6.333   9.238   0.435 -0.3899  0.0391  0.1666
21093WAT     H186177   6.250   9.279   0.411 -0.3067  0.9542  1.3641
21093WAT     H286178   6.314   9.189   0.515 -0.0405 -0.7558 -0.2191
21093WAT    EPW86179   6.320   9.237   0.442 -0.3328  0.0548  0.2737
21094WAT      O86180   1.799   4.774   6.792 -0.1357  0.1117 -0.0097
21094WAT     H186181   1.809   4.718   6.869  0.1395 -1.6721 -1.2731
21094WAT     H286182   1.887   4.806   6.774  0.1934 -1.1273 -0.7309
21094WAT    EPW86183   1.812   4.771   6.800 -0.0560 -0.2871 -0.2718
21095WAT      O86184   3.945   7.361   3.886 -0.3564 -0.4529 -0.2516
21095WAT     H186185   3.968   7.312   3.807  1.8515 -0.8439  0.5727
21095WAT     H286186   3.904   7.295   3.944 -1.4217 -0.2980 -0.8056
21095WAT    EPW86187   3.942   7.345   3.884 -0.2056 -0.4842 -0.2160
21096WAT      O86188   2.981   5.145   6.838 -0.1320  0.0344  0.1017
21096WAT     H186189   2.940   5.226   6.810 -2.1772 -1.3792 -1.3003
21096WAT     H286190   3.075   5.160   6.827 -0.5774  1.2473 -3.0396
21096WAT    EPW86191   2.988   5.158   6.833 -0.4605  0.0081 -0.4976
21097WAT      O86192   2.570   5.276   7.175  0.0605 -0.2361  0.8597
21097WAT     H186193   2.475   5.287   7.173 -0.0455 -1.0091 -1.4061
21097WAT     H286194   2.603   5.352   7.224 -1.6151  0.9537  0.2186
21097WAT    EPW86195   2.562   5.287   7.181 -0.1744 -0.1810  0.4761
21098WAT      O86196   3.522   1.685   4.927  0.2087  0.5609  0.4492
21098WAT     H186197   3.426   1.683   4.917  0.0836  0.2389  1.5861
21098WAT     H286198   3.555   1.691   4.838 -0.8259 -1.1430 -0.0795
21098WAT    EPW86199   3.513   1.686   4.914  0.0558  0.2937  0.5293
21099WAT      O86200   2.737   5.023   5.350 -0.0883 -0.0381 -0.1474
21099WAT     H186201   2.696   5.040   5.265 -1.6655  1.8700  0.9248
21099WAT     H286202   2.783   5.104   5.371  2.7679 -1.4663 -0.4088
21099WAT    EPW86203   2.737   5.036   5.342  0.0802  0.0253 -0.0403
21100WAT      O86204   2.907   4.806   7.713  0.8842 -0.4133 -0.1058
21100WAT     H186205   2.968   4.780   7.782  1.8054  0.6005 -0.5040
21100WAT     H286206   2.842   4.736   7.711  0.0614  0.1419  2.6695
21100WAT    EPW86207   2.906   4.793   7.722  0.8973 -0.2065  0.2081
21101WAT      O86208   4.289   6.005   3.906  0.0467 -0.1178 -0.1188
21101WAT     H186209   4.291   6.047   3.992 -1.3925  0.3916 -0.3064
21101WAT     H286210   4.370   5.954   3.903 -0.6449 -1.5497  2.2509
21101WAT    EPW86211   4.300   6.004   3.917 -0.2344 -0.2398  0.1689
21102WAT      O86212   0.700   1.600   3.628  0.0143 -0.5163  0.8220
21102WAT     H186213   0.618   1.594   3.676 -1.8572  1.1870 -1.9055
21102WAT     H286214   0.682   1.558   3.544  1.4451  1.1093 -0.3663
21102WAT    EPW86215   0.687   1.594   3.623 -0.0438 -0.0772  0.3057
21103WAT      O86216   4.699   7.281   5.859 -0.7412 -0.0371  0.0678
21103WAT     H186217   4.754   7.268   5.781 -2.1466  1.9036 -1.3373
21103WAT     H286218   4.648   7.360   5.840 -3.3132 -1.1566  1.7021
21103WAT    EPW86219   4.700   7.290   5.846 -1.2660  0.0713  0.0978
21104WAT      O86220   2.158   5.838   5.411  0.1569 -0.2324  0.9609
21104WAT     H186221   2.228   5.820   5.348 -0.0963  0.1374  0.5722
21104WAT     H286222   2.188   5.915   5.459 -0.9510  1.3217 -0.7099
21104WAT    EPW86223   2.171   5.846   5.409 -0.0226  0.0212  0.6893
21105WAT      O86224   3.641   3.521   5.367  0.3847  0.3404 -0.7766
21105WAT     H186225   3.719   3.563   5.402  1.7896 -2.7101  0.0607
21105WAT     H286226   3.584   3.509   5.443  0.6944 -0.6239 -0.6796
21105WAT    EPW86227   3.644   3.525   5.382  0.6108 -0.1891 -0.6535
21106WAT      O86228   8.036   8.783   0.127 -0.1544 -0.1318  0.6565
21106WAT     H186229   7.944   8.759   0.113 -0.4219  0.8479  0.7148
21106WAT     H286230   8.056   8.845   0.057  0.2036  0.3503  1.1827
21106WAT    EPW86231   8.026   8.788   0.116 -0.1426  0.0610  0.7336
21107WAT      O86232   0.993   4.141   3.052 -0.0812 -0.3159 -0.4185
21107WAT     H186233   1.073   4.095   3.077  0.4820  0.0825 -1.4511
21107WAT     H286234   0.952   4.084   2.986  0.3945  0.4239 -1.3794
21107WAT    EPW86235   0.998   4.127   3.046  0.0558 -0.1659 -0.6814
21108WAT      O86236   2.571   8.359   7.450 -0.2967 -0.9944 -0.1398
21108WAT     H186237   2.554   8.407   7.369 -0.1723 -1.1693 -0.2716
21108WAT     H286238   2.629   8.287   7.423 -1.2935 -1.8213 -0.1371
21108WAT    EPW86239   2.577   8.356   7.436 -0.4117 -1.1263 -0.1566
21109WAT      O86240   1.869   4.379   4.894  0.3260  0.0627  0.1998
21109WAT     H186241   1.883   4.366   4.988  1.6113 -1.1445 -0.1254
21109WAT     H286242   1.956   4.393   4.858  0.1847 -2.0176 -1.1360
21109WAT    EPW86243   1.882   4.379   4.902  0.4768 -0.3707 -0.0191
21110WAT      O86244   4.795   2.851   6.383 -0.0665  0.0763  0.4164
21110WAT     H186245   4.736   2.924   6.364  0.0458  0.4427  1.4233
21110WAT     H286246   4.881   2.881   6.354  0.0721  0.5615  1.3034
21110WAT    EPW86247   4.798   2.864   6.376 -0.0334  0.1886  0.6661
21111WAT      O86248   2.408   7.234   7.571  0.2753  0.2041 -0.1531
21111WAT     H186249   2.415   7.328   7.590 -0.6323 -0.0113  1.4427
21111WAT     H286250   2.323   7.209   7.607  0.3187 -1.1632 -0.9350
21111WAT    EPW86251   2.398   7.243   7.578  0.1614 -0.0048 -0.0460
21112WAT      O86252   2.621   8.695   3.531  0.1368 -0.8405  0.5915
21112WAT     H186253   2.538   8.648   3.532 -0.8689  0.8484  1.1729
21112WAT     H286254   2.656   8.684   3.620  0.9730 -2.2210  0.1215
21112WAT    EPW86255   2.615   8.688   3.543  0.1144 -0.7992  0.6061
21113WAT      O86256   4.530   8.513   3.471  0.2556  0.4437  0.6036
21113WAT     H186257   4.612   8.468   3.491  0.5535  1.3014  1.3682
21113WAT     H286258   4.546   8.554   3.386 -0.1197 -1.0837 -0.2492
21113WAT    EPW86259   4.543   8.512   3.463  0.2456  0.3557  0.5919
21114WAT      O86260   1.186   4.561   1.466  0.1365 -0.4867 -0.8960
21114WAT     H186261   1.259   4.566   1.404 -1.4262 -0.3795 -2.8633
21114WAT     H286262   1.133   4.487   1.435  1.7854 -3.8957  3.3884
21114WAT    EPW86263   1.189   4.552   1.453  0.1479 -0.9222 -0.5903
21115WAT      O86264   2.418   7.125   6.395 -0.1410  0.7505 -0.0487
21115WAT     H186265   2.424   7.112   6.489  1.2557  1.2640 -0.0442
21115WAT     H286266   2.487   7.189   6.375 -0.3222  0.5523 -1.4300
21115WAT    EPW86267   2.428   7.132   6.405  0.0193  0.7920 -0.2303
21116WAT      O86268   0.563   8.077   8.465 -0.6443 -0.3625  0.2324
21116WAT     H186269   0.644   8.123   8.486  0.0230 -0.4429 -1.8724
21116WAT     H286270   0.583   7.985   8.481  0.6994 -0.7142 -2.7730
21116WAT    EPW86271   0.576   8.071   8.470 -0.3791 -0.4196 -0.4416
21117WAT      O86272   0.890   3.897   5.566  0.1543  0.1428  0.4197
21117WAT     H186273   0.892   3.958   5.639 -0.3181  0.3222  0.2886
21117WAT     H286274   0.801   3.862   5.566 -0.4192  1.4785 -1.1414
21117WAT    EPW86275   0.879   3.900   5.575  0.0164  0.3426  0.1965
21118WAT      O86276   2.253   3.909   4.480  0.3222 -0.1232 -0.1540
21118WAT     H186277   2.294   3.891   4.396  1.8670  1.3904  0.2016
21118WAT     H286278   2.226   3.824   4.513  3.7494 -1.3602 -0.2079
21118WAT    EPW86279   2.255   3.896   4.474  0.9779 -0.0868 -0.1144
21119WAT      O86280   2.857   2.555   2.127 -0.2958  0.1882  0.0786
21119WAT     H186281   2.911   2.485   2.091  1.5768  2.1073 -1.1396
21119WAT     H286282   2.898   2.575   2.212  0.4249  1.0405 -0.4439
21119WAT    EPW86283   2.870   2.548   2.134  0.0463  0.5537 -0.1509
21120WAT      O86284   3.176   6.922   4.283 -0.6085  0.3688  0.2280
21120WAT     H186285   3.234   6.913   4.358 -0.3147 -1.0401 -0.1318
21120WAT     H286286   3.088   6.932   4.321 -0.4202  0.0101  0.7675
21120WAT    EPW86287   3.172   6.922   4.298 -0.5450  0.1357  0.2518
21121WAT      O86288   2.102   5.878   4.327  0.8003  0.5458 -0.6755
21121WAT     H186289   2.195   5.874   4.303  1.0383 -1.6026  0.3472
21121WAT     H286290   2.058   5.902   4.246  2.0353 -1.1741 -1.9332
21121WAT    EPW86291   2.108   5.881   4.313  0.9946  0.0358 -0.7067
21122WAT      O86292   1.445   2.374   6.466  1.2044  0.4987  0.3341
21122WAT     H186293   1.391   2.441   6.509  2.3864  1.5786  0.2178
21122WAT     H286294   1.384   2.304   6.444 -0.4170  2.2283 -0.9724
21122WAT    EPW86295   1.430   2.374   6.469  1.1464  0.8693  0.1466
21123WAT      O86296   3.403   9.211   3.895  0.2363  0.3090 -0.2814
21123WAT     H186297   3.384   9.278   3.830  0.3808 -0.6618 -1.3567
21123WAT     H286298   3.349   9.136   3.868  1.4367 -0.6208 -0.1713
21123WAT    EPW86299   3.393   9.210   3.883  0.4137  0.0582 -0.4088
21124WAT      O86300   2.819   8.020   4.131 -0.6559 -0.7720  0.8754
21124WAT     H186301   2.754   7.970   4.082  1.2974 -2.5759 -0.0124
21124WAT     H286302   2.787   8.019   4.221 -2.2333 -0.9086  0.3491
21124WAT    EPW86303   2.806   8.013   4.136 -0.6064 -1.0276  0.6886
21125WAT      O86304   3.562   9.321   7.047  0.4983 -0.0482  0.1767
21125WAT     H186305   3.479   9.280   7.025  0.9023 -1.0996  0.5726
21125WAT     H286306   3.567   9.398   6.989  0.1224 -1.0271 -1.2002
21125WAT    EPW86307   3.552   9.326   7.036  0.5021 -0.3161  0.0472
21126WAT      O86308  10.431   4.983   8.327 -0.3954  0.3232  0.5154
21126WAT     H186309  10.342   4.946   8.330 -1.0063  1.6464 -0.5252
21126WAT     H286310  10.472   4.951   8.408 -1.3311 -1.4828  0.3332
21126WAT    EPW86311  10.425   4.974   8.338 -0.5994  0.2594  0.3538
21127WAT      O86312   3.096   5.670   7.541  0.2509  0.7630 -0.2603
21127WAT     H186313   3.178   5.622   7.528  0.7265  1.3170  0.5929
21127WAT     H286314   3.071   5.650   7.631 -1.5727 -0.9099 -1.0631
21127WAT    EPW86315   3.104   5.661   7.551  0.0732  0.6154 -0.2539
21128WAT      O86316   1.603   4.201   4.134  0.0883 -0.4858  1.0805
21128WAT     H186317   1.628   4.155   4.214 -1.8891  0.4304  2.3009
21128WAT     H286318   1.558   4.134   4.082 -1.2547 -0.4253  2.0928
21128WAT    EPW86319   1.600   4.186   4.138 -0.3496 -0.3572  1.3750
21129WAT      O86320   3.183   3.931   4.722  0.0408  0.2565 -0.0932
21129WAT     H186321   3.097   3.919   4.681  0.7024 -0.2112 -1.3652
21129WAT     H286322   3.174   4.014   4.770 -1.7288 -0.7358  1.4251
21129WAT    EPW86323   3.170   3.941   4.723 -0.1053  0.0640 -0.0608
21130WAT      O86324   3.534   4.203   7.081  0.3349  0.0600  0.5345
21130WAT     H186325   3.628   4.197   7.099  0.9400  1.5459 -1.6387
21130WAT     H286326   3.511   4.117   7.047  1.1080 -0.0714  0.3162
21130WAT    EPW86327   3.544   4.191   7.079  0.5165  0.2384  0.2186
21131WAT      O86328   2.094   6.669   6.847 -0.1794  0.4305 -0.3519
21131WAT     H186329   2.178   6.687   6.805 -0.7546 -0.9527 -2.2592
21131WAT     H286330   2.115   6.658   6.939  1.0107  4.6459  0.0926
21131WAT    EPW86331   2.108   6.670   6.853 -0.0983  0.8042 -0.5450
21132WAT      O86332   2.968   6.904   4.698 -0.5863  0.2405  0.7382
21132WAT     H186333   2.999   6.825   4.654  0.0999  0.6807  0.4129
21132WAT     H286334   2.873   6.903   4.687 -0.4183  0.4465 -0.9488
21132WAT    EPW86335   2.960   6.894   4.691 -0.4735  0.3254  0.4728
21133WAT      O86336   0.491   2.706   7.267  0.0102  0.0365 -0.3569
21133WAT     H186337   0.448   2.777   7.220 -0.4230  0.2743  0.3720
21133WAT     H286338   0.440   2.696   7.347 -0.6439 -1.8875 -0.9589
21133WAT    EPW86339   0.479   2.714   7.272 -0.1332 -0.1858 -0.3402
21134WAT      O86340   3.604   5.999   4.828 -0.0524  0.0674  0.2962
21134WAT     H186341   3.653   6.080   4.843  3.1866 -1.5899 -0.4235
21134WAT     H286342   3.608   5.985   4.734  0.9339 -1.7225  0.5644
21134WAT    EPW86343   3.611   6.008   4.818  0.5049 -0.3872  0.2367
21135WAT      O86344  10.659   5.860   6.822  0.1368  0.3121 -0.3074
21135WAT     H186345  10.726   5.795   6.843 -0.3469 -0.3382 -0.7487
21135WAT     H286346  10.586   5.840   6.880 -0.0722  0.3701 -0.5485
21135WAT    EPW86347  10.658   5.849   6.832  0.0458  0.2339 -0.3974
21136WAT      O86348   3.972   8.504   3.512 -0.7055 -0.0956 -0.7080
21136WAT     H186349   3.885   8.525   3.477 -1.1104 -0.0356  0.3081
21136WAT     H286350   4.032   8.559   3.461 -1.4351  1.1175 -0.3052
21136WAT    EPW86351   3.968   8.514   3.500 -0.8552  0.0725 -0.5207
21137WAT      O86352   3.222   8.967   6.986 -0.1126  0.6292  0.3050
21137WAT     H186353   3.271   8.914   7.049 -0.8371 -1.9557 -1.1850
21137WAT     H286354   3.131   8.940   6.997 -0.5621  1.7718 -0.3801
21137WAT    EPW86355   3.216   8.957   6.996 -0.2674  0.4387  0.0179
21138WAT      O86356   2.951   5.465   4.637 -0.0280  0.5686 -0.7824
21138WAT     H186357   3.014   5.483   4.706 -0.9366  0.5648  0.0683
21138WAT     H286358   2.911   5.550   4.618 -1.8600  0.1337  0.8003
21138WAT    EPW86359   2.954   5.478   4.644 -0.3895  0.5107 -0.4611
21139WAT      O86360   2.211   5.657   7.620 -0.3123 -0.8777  0.2742
21139WAT     H186361   2.188   5.708   7.542  1.8008 -0.7597 -0.3191
21139WAT     H286362   2.174   5.707   7.693 -0.1382  0.3618 -0.4581
21139WAT    EPW86363   2.203   5.670   7.619 -0.0106 -0.6986  0.0989
21140WAT      O86364   2.471   1.501   2.724  0.0209  0.2368 -0.0957
21140WAT     H186365   2.428   1.498   2.638 -0.1126 -1.3670 -0.0054
21140WAT     H286366   2.539   1.434   2.719  1.5269  1.6722  0.3103
21140WAT    EPW86367   2.474   1.491   2.712  0.2019  0.2145 -0.0303
21141WAT      O86368   3.259   5.079   8.814 -0.0059  0.5982 -0.0410
21141WAT     H186369   3.226   5.054   8.728  0.3669  1.3377 -0.4073
21141WAT     H286370   3.181   5.102   8.864 -0.2597 -0.2452 -0.0357
21141WAT    EPW86371   3.244   5.079   8.809  0.0098  0.5848 -0.0882
21142WAT      O86372   2.810   7.354   5.324  0.1502 -0.0095 -1.1979
21142WAT     H186373   2.745   7.385   5.261  0.4915  1.8114 -0.7387
21142WAT     H286374   2.855   7.282   5.281 -0.7569  0.0956 -2.3500
21142WAT    EPW86375   2.808   7.349   5.310  0.0755  0.2446 -1.2891
21143WAT      O86376   3.250   7.047   3.734  0.2765  0.2781  0.3541
21143WAT     H186377   3.199   7.028   3.813 -0.9200 -0.7975 -0.6227
21143WAT     H286378   3.328   7.090   3.766 -0.4997  0.5040  2.0690
21143WAT    EPW86379   3.253   7.050   3.749  0.0162  0.1662  0.4514
21144WAT      O86380   1.370   5.117   6.387  0.5612  0.5218  0.1235
21144WAT     H186381   1.322   5.113   6.305  1.3613  0.2969 -0.3535
21144WAT     H286382   1.456   5.151   6.362  2.4502 -3.6966 -0.0019
21144WAT    EPW86383   1.375   5.121   6.373  0.9159 -0.0646  0.0441
21145WAT      O86384   3.239   4.817   2.341 -0.1334 -0.1485  0.4725
21145WAT     H186385   3.303   4.791   2.407  1.2261  1.6517 -0.0589
21145WAT     H286386   3.285   4.808   2.258 -0.7932  0.5489  0.0193
21145WAT    EPW86387   3.253   4.812   2.339 -0.0411  0.1810  0.3427
21146WAT      O86388   3.151   8.484   6.994  0.0345  0.1298 -0.3020
21146WAT     H186389   3.062   8.456   6.974 -0.2195 -0.5493  1.5664
21146WAT     H286390   3.146   8.520   7.082  1.5395  0.4475 -0.3167
21146WAT    EPW86391   3.139   8.485   7.003  0.1996  0.0820 -0.0579
21147WAT      O86392  10.998   9.286   2.440  0.4025  0.1676  0.5088
21147WAT     H186393  10.950   9.255   2.364 -0.5361 -0.6191  1.3952
21147WAT     H286394  11.089   9.292   2.410  0.3401 -1.7553 -0.2018
21147WAT    EPW86395  11.003   9.283   2.426  0.2699 -0.1893  0.5320
21148WAT      O86396   2.396   8.741   3.051  0.1607  0.0545  0.1328
21148WAT     H186397   2.459   8.808   3.023 -0.9596  0.1325 -2.4437
21148WAT     H286398   2.387   8.683   2.976 -1.0829 -1.3301  1.2856
21148WAT    EPW86399   2.403   8.742   3.038 -0.1512 -0.1173 -0.0551
21149WAT      O86400   5.353   8.214   5.626 -0.4689 -0.4858  0.3262
21149WAT     H186401   5.285   8.242   5.565 -0.4625 -2.4818 -0.6622
21149WAT     H286402   5.311   8.149   5.682  0.2851 -0.8070  0.5420
21149WAT    EPW86403   5.339   8.209   5.625 -0.3686 -0.7911  0.2244
21150WAT      O86404   3.641   5.564   8.723 -0.6673 -0.2160  0.1023
21150WAT     H186405   3.566   5.594   8.672 -0.6578  0.6345  0.5656
21150WAT     H286406   3.626   5.471   8.736 -0.8948 -0.3624 -1.0718
21150WAT    EPW86407   3.629   5.556   8.718 -0.6961 -0.1233  0.0081
21151WAT      O86408   3.033   4.349   7.020 -0.6864  1.0070 -0.2383
21151WAT     H186409   3.084   4.268   7.019 -2.4002 -0.3754  3.5424
21151WAT     H286410   3.096   4.417   6.995  1.5783 -1.1394 -0.8142
21151WAT    EPW86411   3.048   4.347   7.017 -0.6139  0.5414  0.1841
21152WAT      O86412   4.629   8.808   6.691  0.5433  0.3433 -0.0940
21152WAT     H186413   4.623   8.745   6.763  0.7386 -0.7575 -1.0111
21152WAT     H286414   4.679   8.880   6.727  1.1021 -0.4310  0.7308
21152WAT    EPW86415   4.635   8.809   6.705  0.6430  0.0963 -0.1063
21153WAT      O86416   3.931   8.778   5.121 -0.0743 -0.0105  0.0841
21153WAT     H186417   4.020   8.764   5.153  1.0378  1.0688 -2.2500
21153WAT     H286418   3.914   8.703   5.063  0.1875  0.8132 -1.1033
21153WAT    EPW86419   3.940   8.766   5.117  0.1070  0.2403 -0.3805
21154WAT      O86420   4.092   8.702   7.559 -0.1215 -0.3664 -0.2198
21154WAT     H186421   4.126   8.620   7.595  0.0888  0.5055  1.7101
21154WAT     H286422   4.146   8.720   7.483  0.4095 -1.5724 -0.1375
21154WAT    EPW86423   4.103   8.694   7.554 -0.0236 -0.4110  0.0455
21155WAT      O86424   5.307   6.810   3.596  1.0299 -0.2067 -0.0229
21155WAT     H186425   5.253   6.839   3.669 -0.4714  3.2279 -2.2206
21155WAT     H286426   5.391   6.786   3.636  0.5069  2.1447  2.7887
21155WAT    EPW86427   5.311   6.811   3.611  0.7627  0.5567  0.0582
21156WAT      O86428   6.620   0.718   4.228 -0.8403 -0.0393  0.2371
21156WAT     H186429   6.649   0.702   4.318  0.9467 -0.2718 -0.3380
21156WAT     H286430   6.624   0.813   4.217 -1.1888 -0.0019  0.4509
21156WAT    EPW86431   6.625   0.728   4.238 -0.6506 -0.0650  0.1895
21157WAT      O86432   5.026   6.245   7.793  0.1548 -0.1533 -0.2314
21157WAT     H186433   5.053   6.323   7.840 -1.4344  0.0485  0.4053
21157WAT     H286434   4.989   6.188   7.860 -1.6913 -0.0628 -1.1261
21157WAT    EPW86435   5.025   6.248   7.808 -0.2983 -0.1149 -0.2656
21158WAT      O86436   3.859   6.231   7.908 -0.1564  0.6329  0.1432
21158WAT     H186437   3.784   6.288   7.925 -2.3878 -2.3689  1.2386
21158WAT     H286438   3.840   6.193   7.822 -0.7187 -1.1541  0.9962
21158WAT    EPW86439   3.846   6.233   7.899 -0.5249  0.0012  0.4001
21159WAT      O86440   2.764   7.672   6.994  0.1763  0.4405  0.3559
21159WAT     H186441   2.791   7.588   6.959 -1.0737  0.7253 -1.4269
21159WAT     H286442   2.717   7.651   7.075  0.8019 -0.4637  0.4899
21159WAT    EPW86443   2.761   7.658   7.000  0.0938  0.3591  0.1385
21160WAT      O86444   1.766   6.285   6.344  0.8105 -0.2907  0.0321
21160WAT     H186445   1.790   6.366   6.389  3.8340 -1.7650  1.4176
21160WAT     H286446   1.711   6.238   6.407 -2.8436  1.4116 -1.6074
21160WAT    EPW86447   1.762   6.289   6.359  0.7274 -0.2606 -0.0014
21161WAT      O86448   2.760   8.661   6.169  0.1133  0.3446 -0.1690
21161WAT     H186449   2.689   8.610   6.209  1.5700 -0.7016  1.2140
21161WAT     H286450   2.746   8.750   6.202 -0.5010  0.1344  0.1623
21161WAT    EPW86451   2.749   8.666   6.179  0.2244  0.1788  0.0572
21162WAT      O86452   3.810   7.665   7.001  0.0659  0.2999 -0.2890
21162WAT     H186453   3.839   7.575   7.017 -0.4892 -0.1956 -1.8680
21162WAT     H286454   3.733   7.656   6.945 -0.6184  1.7404  0.3514
21162WAT    EPW86455   3.803   7.652   6.996 -0.0978  0.4246 -0.4129
21163WAT      O86456   3.851   8.418   3.857  0.4288  0.8105  0.4266
21163WAT     H186457   3.925   8.470   3.888 -0.4585  1.8305  0.9183
21163WAT     H286458   3.800   8.400   3.935  1.9732 -3.0702  0.7518
21163WAT    EPW86459   3.854   8.422   3.871  0.5156  0.4325  0.5343
21164WAT      O86460   4.462   8.579   8.430 -0.0764  0.1966 -0.1044
21164WAT     H186461   4.477   8.673   8.431  0.7763  0.0844 -0.8742
21164WAT     H286462   4.490   8.551   8.343  1.5603 -1.0390  0.7591
21164WAT    EPW86463   4.468   8.587   8.419  0.2520  0.0191 -0.0916
21165WAT      O86464   4.064   7.815   5.446 -0.2239 -0.0704  0.5400
21165WAT     H186465   3.969   7.814   5.448 -0.2920  1.6324 -0.4017
21165WAT     H286466   4.086   7.850   5.360  1.2465  0.1321  0.9703
21165WAT    EPW86467   4.054   7.820   5.435 -0.0389  0.1810  0.4723
21166WAT      O86468   1.013   5.651   6.230 -0.0920  0.3909  0.0137
21166WAT     H186469   0.921   5.650   6.257  0.3464  0.8357  1.6598
21166WAT     H286470   1.046   5.565   6.257  0.5040  1.0656  1.5534
21166WAT    EPW86471   1.005   5.640   6.237  0.0445  0.5386  0.4337
21167WAT      O86472   1.858   5.678   5.455 -0.4864  0.0609  0.4518
21167WAT     H186473   1.818   5.757   5.493 -2.1702  0.0936 -1.2191
21167WAT     H286474   1.940   5.709   5.418 -1.5508  1.2966 -1.0077
21167WAT    EPW86475   1.863   5.692   5.455 -0.8489  0.2279  0.0391
21168WAT      O86476   4.551   9.450   5.442 -0.0113  0.1151 -0.1175
21168WAT     H186477   4.587   9.528   5.401 -1.5721  1.8512  1.6004
21168WAT     H286478   4.531   9.391   5.369  1.6140  1.0889 -1.4272
21168WAT    EPW86479   4.553   9.452   5.427 -0.0029  0.4721 -0.0637
21169WAT      O86480   4.478   7.814   6.358 -0.3047 -0.2443 -0.0917
21169WAT     H186481   4.543   7.790   6.292  1.2876 -0.1337  1.3465
21169WAT     H286482   4.454   7.731   6.399 -0.4763 -0.2000 -0.1031
21169WAT    EPW86483   4.484   7.800   6.355 -0.1173 -0.2239  0.0966
21170WAT      O86484   1.681   9.017   4.175  0.1614  0.4722 -0.5121
21170WAT     H186485   1.654   9.068   4.251 -0.8351 -1.1885  0.2957
21170WAT     H286486   1.683   9.081   4.103  1.5541  2.1741  0.9451
21170WAT    EPW86487   1.678   9.032   4.175  0.2136  0.4778 -0.2131
21171WAT      O86488   2.402   8.778   8.145 -0.3738 -1.0198  0.2860
21171WAT     H186489   2.451   8.725   8.082 -0.4036 -0.6924 -0.0247
21171WAT     H286490   2.365   8.849   8.091  1.9647  0.9564  1.0798
21171WAT    EPW86491   2.403   8.780   8.129 -0.0693 -0.7162  0.3500
21172WAT      O86492  10.863   4.469   5.076 -0.1922  0.7022 -0.3568
21172WAT     H186493  10.957   4.479   5.061 -0.4766  0.5171 -2.7060
21172WAT     H286494  10.824   4.484   4.990 -2.2535 -0.1703  0.3713
21172WAT    EPW86495  10.870   4.473   5.063 -0.5016  0.5627 -0.5705
21173WAT      O86496   4.199   7.322   4.521  0.4378  0.3746 -0.3080
21173WAT     H186497   4.152   7.405   4.533  1.1789  0.8279 -0.4751
21173WAT     H286498   4.184   7.300   4.429 -0.5832 -0.1998 -0.0174
21173WAT    EPW86499   4.190   7.330   4.510  0.4008  0.3586 -0.2921
21174WAT      O86500   9.068   0.307   1.842  0.9609 -0.8820  0.1086
21174WAT     H186501   9.072   0.233   1.902 -2.1170 -0.2310  1.3194
21174WAT     H286502   9.013   0.371   1.887  2.1001  1.4488 -1.6207
21174WAT    EPW86503   9.061   0.306   1.856  0.7057 -0.4887  0.0401
21175WAT      O86504   3.952   5.763   4.471  0.1777  0.3642  0.1877
21175WAT     H186505   3.863   5.756   4.435 -0.6990  0.3526  2.2027
21175WAT     H286506   3.943   5.735   4.563  2.4626 -0.5651  0.1991
21175WAT    EPW86507   3.939   5.758   4.479  0.3633  0.2398  0.4549
21176WAT      O86508  10.959   4.354   5.976 -0.2370 -0.3953  0.4359
21176WAT     H186509  11.043   4.388   5.944 -0.1154 -0.5017  0.6418
21176WAT     H286510  10.961   4.370   6.070 -1.7167  2.4097  0.1138
21176WAT    EPW86511  10.971   4.361   5.984 -0.4163 -0.0393  0.4206
21177WAT      O86512  10.532   7.477   6.056 -0.1706 -0.5123  0.0567
21177WAT     H186513  10.591   7.454   5.984 -0.7979 -0.5248 -0.4687
21177WAT     H286514  10.460   7.413   6.049 -0.2530 -0.4988  0.6824
21177WAT    EPW86515  10.530   7.465   6.046 -0.2642 -0.5121  0.0699
21178WAT      O86516  10.896   5.523   4.579  0.6732 -0.2176 -1.1225
21178WAT     H186517  10.883   5.616   4.558 -0.4695  0.1511  0.8974
21178WAT     H286518  10.979   5.521   4.627  0.1308 -0.0208 -0.1467
21178WAT    EPW86519  10.906   5.535   4.583  0.4506 -0.1431 -0.7274
21179WAT      O86520   7.847   0.218   5.325 -0.2806 -0.0057 -0.5558
21179WAT     H186521   7.849   0.284   5.255  1.6925 -0.5354 -1.0671
21179WAT     H286522   7.852   0.269   5.406 -1.1241  0.5582 -0.8467
21179WAT    EPW86523   7.848   0.233   5.326 -0.1318 -0.0012 -0.6616
21180WAT      O86524   2.296   7.106   5.561  0.7053  0.3260 -0.2182
21180WAT     H186525   2.221   7.067   5.516  0.4253  1.2367 -0.5638
21180WAT     H286526   2.292   7.069   5.649  0.9415 -1.0465 -0.7628
21180WAT    EPW86527   2.285   7.096   5.567  0.6995  0.2649 -0.3357
21181WAT      O86528   3.261   7.179   7.715  0.5132  0.3049 -0.9186
21181WAT     H186529   3.237   7.228   7.794  2.5441  0.5660 -0.3858
21181WAT     H286530   3.216   7.095   7.724 -0.5553  0.9288 -0.2927
21181WAT    EPW86531   3.252   7.175   7.727  0.6400  0.4218 -0.7658
21182WAT      O86532   6.421   6.128   7.949 -0.0771 -0.3319 -0.2868
21182WAT     H186533   6.326   6.143   7.950  0.1689  1.5300  1.2509
21182WAT     H286534   6.455   6.194   7.889  0.2616 -0.9487 -0.7778
21182WAT    EPW86535   6.413   6.138   7.941  0.0002 -0.1678 -0.1488
21183WAT      O86536   3.185   5.713   6.872 -0.0287 -0.6783 -0.4562
21183WAT     H186537   3.245   5.752   6.808 -0.5147 -1.9391 -1.7056
21183WAT     H286538   3.218   5.624   6.883 -1.6620 -1.3939 -1.1671
21183WAT    EPW86539   3.197   5.706   6.865 -0.3083 -0.9389 -0.7145
21184WAT      O86540   1.938   6.459   5.632 -0.8731 -0.7160 -0.0234
21184WAT     H186541   1.987   6.430   5.555 -0.3670 -0.1799  0.0932
21184WAT     H286542   1.953   6.391   5.697 -0.6355 -0.7691 -0.1309
21184WAT    EPW86543   1.946   6.446   5.630 -0.7750 -0.6521 -0.0222
21185WAT      O86544   7.003   7.743   6.016 -0.0947  0.3212  0.3282
21185WAT     H186545   7.091   7.711   6.038  0.2041  0.4475 -0.6565
21185WAT     H286546   7.006   7.836   6.038  0.4446  0.6133 -0.9099
21185WAT    EPW86547   7.015   7.751   6.022  0.0157  0.3765  0.0350
21186WAT      O86548   2.995   5.784   5.764 -0.1484  0.0499 -0.4326
21186WAT     H186549   3.024   5.809   5.852 -0.0045  0.6042 -0.6359
21186WAT     H286550   2.991   5.866   5.715 -0.7979 -0.1854 -0.7825
21186WAT    EPW86551   2.999   5.798   5.769 -0.2149  0.0923 -0.5054
21187WAT      O86552   3.531   7.902   5.241 -0.0321 -0.5951  0.2865
21187WAT     H186553   3.620   7.889   5.207 -0.7228 -2.9305 -0.8164
21187WAT     H286554   3.499   7.980   5.195  1.4368  0.3114  0.7469
21187WAT    EPW86555   3.539   7.910   5.230  0.0707 -0.7834  0.2019
21188WAT      O86556   4.233   7.615   6.287 -0.7076 -0.2035 -0.1612
21188WAT     H186557   4.311   7.670   6.281  0.1533 -1.0256  2.2433
21188WAT     H286558   4.263   7.536   6.333 -2.6937 -1.0987 -0.3001
21188WAT    EPW86559   4.247   7.612   6.293 -0.8559 -0.4301  0.1378
21189WAT      O86560   1.521   2.479   3.588 -0.3403 -0.2883  0.0626
21189WAT     H186561   1.527   2.574   3.586 -0.2855 -0.2873 -2.1533
21189WAT     H286562   1.477   2.456   3.506 -2.2998 -2.0759  1.4949
21189WAT    EPW86563   1.516   2.488   3.577 -0.5915 -0.5238 -0.0407
21190WAT      O86564   0.481   6.111   6.927  0.0177  0.3988  0.2721
21190WAT     H186565   0.480   6.016   6.912  0.3691  0.4457 -0.0694
21190WAT     H286566   0.492   6.149   6.839 -2.6352  0.8525  0.0720
21190WAT    EPW86567   0.482   6.103   6.913 -0.2858  0.4649  0.2007
21191WAT      O86568   3.227   8.505   3.747 -0.0772  1.1071  0.7917
21191WAT     H186569   3.145   8.538   3.784 -0.1954  0.6850  0.9209
21191WAT     H286570   3.222   8.526   3.654  0.2660  2.2712  1.0196
21191WAT    EPW86571   3.215   8.512   3.740 -0.0476  1.2050  0.8388
21192WAT      O86572   2.526   9.834   6.647 -0.1134  0.7205  0.3785
21192WAT     H186573   2.477   9.770   6.698  0.8187 -1.3564 -1.2127
21192WAT     H286574   2.572   9.887   6.713 -1.4580  0.2612  1.7469
21192WAT    EPW86575   2.526   9.833   6.663 -0.1677  0.3862  0.3493
21193WAT      O86576   3.798   6.969   5.503 -0.1905  0.0346  0.5866
21193WAT     H186577   3.742   6.927   5.569  1.7042 -3.2117  0.3206
21193WAT     H286578   3.753   6.954   5.420  0.4214 -1.5102  0.5065
21193WAT    EPW86579   3.784   6.962   5.501  0.1402 -0.5972  0.5407
21194WAT      O86580   2.402   9.208   2.661 -0.4266  0.0903  0.0827
21194WAT     H186581   2.431   9.118   2.651  1.0673  0.4371  0.8779
21194WAT     H286582   2.362   9.211   2.748 -0.1099  0.2705  0.2255
21194WAT    EPW86583   2.401   9.197   2.671 -0.1878  0.1597  0.2064
21195WAT      O86584   4.817   6.106   4.771 -0.4075 -0.4861 -0.4299
21195WAT     H186585   4.875   6.030   4.774  0.9262  0.4694 -1.2343
21195WAT     H286586   4.870   6.177   4.807 -1.9176 -0.0834  1.0980
21195WAT    EPW86587   4.832   6.105   4.776 -0.4308 -0.3068 -0.3345
21196WAT      O86588   3.457   8.406   1.638 -0.6646 -0.1918 -0.0165
21196WAT     H186589   3.525   8.451   1.689 -1.3952  1.5866 -0.5246
21196WAT     H286590   3.458   8.451   1.554 -3.1639  0.6266  0.3129
21196WAT    EPW86591   3.466   8.418   1.634 -1.0908  0.1507 -0.0401
21197WAT      O86592   5.007   5.400   6.972  0.1314 -0.1067 -0.5833
21197WAT     H186593   5.017   5.477   6.915 -2.6072 -0.2921 -1.4917
21197WAT     H286594   4.972   5.434   7.054  0.3509 -0.2438 -0.4302
21197WAT    EPW86595   5.003   5.414   6.975 -0.2005 -0.1493 -0.6828
21198WAT      O86596   2.162   3.786   6.704 -0.0401 -0.2784 -0.2367
21198WAT     H186597   2.166   3.809   6.797  2.3885  0.9601 -0.5662
21198WAT     H286598   2.236   3.831   6.665 -0.4749 -1.4868 -2.6561
21198WAT    EPW86599   2.172   3.795   6.711  0.2228 -0.2744 -0.5991
21199WAT      O86600   7.741   6.635   6.653 -0.1097  0.0652  0.3130
21199WAT     H186601   7.695   6.716   6.676  0.0032 -0.2015  1.5494
21199WAT     H286602   7.677   6.586   6.600 -1.3405 -0.3356  2.0618
21199WAT    EPW86603   7.726   6.640   6.649 -0.2573 -0.0229  0.7067
21200WAT      O86604   3.812   6.331   5.212 -0.2609 -0.2370 -0.2402
21200WAT     H186605   3.849   6.415   5.240  0.6946 -0.6018 -0.3572
21200WAT     H286606   3.888   6.274   5.204 -0.8745 -1.0317 -0.4546
21200WAT    EPW86607   3.827   6.335   5.215 -0.2159 -0.3901 -0.2840
21201WAT      O86608   3.264   4.728   6.830  0.2051 -0.3852  0.3863
21201WAT     H186609   3.172   4.747   6.812 -0.7413 -3.1818  1.6492
21201WAT     H286610   3.311   4.807   6.803 -2.4853  0.9514 -0.7626
21201WAT    EPW86611   3.258   4.741   6.824 -0.2747 -0.5777  0.4015
21202WAT      O86612   2.393   6.949   4.925 -0.3852 -0.2811 -0.0029
21202WAT     H186613   2.397   6.933   5.019 -0.7357  2.5720  0.5714
21202WAT     H286614   2.299   6.951   4.905 -0.3099 -1.2291 -0.5173
21202WAT    EPW86615   2.381   6.947   4.935 -0.4216 -0.0300  0.0050
21203WAT      O86616   2.359   9.420   3.385 -0.2717 -0.4792 -0.2725
21203WAT     H186617   2.430   9.450   3.442 -0.5188 -0.4124  0.0022
21203WAT     H286618   2.355   9.326   3.398  0.2573 -0.5878 -0.8519
21203WAT    EPW86619   2.368   9.412   3.394 -0.2345 -0.4849 -0.3127
21204WAT      O86620   3.975   7.520   7.897  0.4011 -0.3327 -0.5507
21204WAT     H186621   3.996   7.565   7.979 -1.7142 -0.5414  0.1579
21204WAT     H286622   4.039   7.448   7.893  0.2264 -0.6369  1.2028
21204WAT    EPW86623   3.986   7.516   7.907  0.0988 -0.4005 -0.2258
21205WAT      O86624   3.337   8.758   4.930  0.3309 -0.6620 -0.7989
21205WAT     H186625   3.355   8.786   4.841 -1.9112  3.3990 -0.2251
21205WAT     H286626   3.243   8.741   4.932 -0.1724  1.7823  1.2189
21205WAT    EPW86627   3.327   8.759   4.919 -0.0312  0.1960 -0.4570
21206WAT      O86628   5.744   7.046   3.350 -0.2208 -0.4716  0.2227
21206WAT     H186629   5.754   7.078   3.261 -0.4445 -0.0320  0.3517
21206WAT     H286630   5.791   6.962   3.351  0.9231  0.1437  0.0438
21206WAT    EPW86631   5.752   7.039   3.339 -0.0994 -0.3326  0.2161
21207WAT      O86632   2.999   7.768   6.690 -0.4619  0.4820 -1.2785
21207WAT     H186633   2.922   7.717   6.667 -1.4550  0.3078  1.8909
21207WAT     H286634   2.991   7.782   6.785  3.9716 -0.4972 -0.5255
21207WAT    EPW86635   2.988   7.763   6.700 -0.0082  0.3297 -0.7615
21208WAT      O86636   1.262   5.581   4.504 -1.2907 -0.7702  0.2965
21208WAT     H186637   1.209   5.573   4.584  2.1005 -1.2447  2.7292
21208WAT     H286638   1.251   5.497   4.459 -1.3925 -1.4783  1.5889
21208WAT    EPW86639   1.253   5.569   4.509 -0.8568 -0.9260  0.7877
21209WAT      O86640   2.824   9.064   5.876 -0.0692 -0.1417 -0.0212
21209WAT     H186641   2.806   9.143   5.927  1.0432 -0.3129  0.6626
21209WAT     H286642   2.754   9.003   5.901 -0.1971  0.1833  0.4204
21209WAT    EPW86643   2.812   9.066   5.886  0.0608 -0.1211  0.1273
21210WAT      O86644   1.587   6.615   1.384  0.0841  0.2626  0.1917
21210WAT     H186645   1.547   6.635   1.468  1.8411 -1.3469  1.5076
21210WAT     H286646   1.514   6.587   1.329 -1.3481  2.8967  0.5606
21210WAT    EPW86647   1.572   6.614   1.388  0.1270  0.3977  0.4138
21211WAT      O86648   5.952   9.472   4.097  0.0121 -0.3469 -1.1327
21211WAT     H186649   5.947   9.377   4.086  0.4172 -0.3896 -0.9881
21211WAT     H286650   5.946   9.484   4.192  2.1259 -0.3972 -0.9377
21211WAT    EPW86651   5.951   9.461   4.108  0.3445 -0.3591 -1.0879
21212WAT      O86652   4.543   5.557   5.442  0.3948  0.1024  0.7900
21212WAT     H186653   4.582   5.473   5.420 -0.3078 -0.1432  0.4552
21212WAT     H286654   4.569   5.573   5.533 -0.3919 -1.0101  1.2264
21212WAT    EPW86655   4.552   5.548   5.451  0.1984 -0.0768  0.8035
21213WAT      O86656   4.907   9.212   2.796 -0.2541  0.4330  0.1855
21213WAT     H186657   4.981   9.214   2.736  0.0372 -1.2944  0.4330
21213WAT     H286658   4.830   9.206   2.740  0.0442 -1.7095 -0.0616
21213WAT    EPW86659   4.907   9.211   2.781 -0.1764 -0.0777  0.1856
21214WAT      O86660   4.314   8.417   6.483  0.4598 -0.5985  0.4905
21214WAT     H186661   4.364   8.498   6.487  0.1191 -0.3625 -0.0286
21214WAT     H286662   4.252   8.424   6.556  0.0109 -0.1108  0.0668
21214WAT    EPW86663   4.313   8.428   6.493  0.3552 -0.5031  0.3660
21215WAT      O86664   6.671   1.995   3.995 -0.0874  0.3378 -0.3948
21215WAT     H186665   6.723   1.956   4.066  0.9244  0.7132 -0.9021
21215WAT     H286666   6.733   2.051   3.949 -1.0645  1.1164 -0.7897
21215WAT    EPW86667   6.686   1.997   3.998 -0.0827  0.4900 -0.5138
21216WAT      O86668   2.370   3.503   3.697 -0.3630 -0.7262 -0.5292
21216WAT     H186669   2.300   3.443   3.670 -0.5528  0.5410 -3.1671
21216WAT     H286670   2.449   3.447   3.700 -0.6503 -1.2918 -2.2939
21216WAT    EPW86671   2.372   3.487   3.693 -0.4259 -0.6337 -1.1100
21217WAT      O86672   3.676   7.268   4.055 -0.6477 -0.0863 -0.2989
21217WAT     H186673   3.721   7.198   4.101 -1.6615 -0.3469  0.3201
21217WAT     H286674   3.712   7.349   4.093  0.2718 -0.2598 -0.7754
21217WAT    EPW86675   3.687   7.270   4.066 -0.6601 -0.1435 -0.2799
21218WAT      O86676   0.576   4.759   0.425  0.0175  0.0282 -0.0334
21218WAT     H186677   0.491   4.731   0.392 -0.0801  1.3606 -0.9631
21218WAT     H286678   0.640   4.707   0.376 -0.2018  0.3551 -0.6653
21218WAT    EPW86679   0.573   4.748   0.414 -0.0243  0.2470 -0.2393
21219WAT      O86680   3.563   8.185   7.889 -1.1714  0.8431  0.1020
21219WAT     H186681   3.490   8.204   7.949  1.0701  2.7561  2.4466
21219WAT     H286682   3.622   8.131   7.941  0.6729  2.2237 -0.4722
21219WAT    EPW86683   3.561   8.180   7.904 -0.6326  1.2774  0.3355
21220WAT      O86684   1.626   7.638   2.415 -0.1613  0.1429  0.6071
21220WAT     H186685   1.621   7.606   2.324  2.5835 -0.7775  0.7082
21220WAT     H286686   1.596   7.729   2.409  0.8149  0.3958 -1.4103
21220WAT    EPW86687   1.621   7.646   2.402  0.3295  0.0551  0.3544
21221WAT      O86688   4.489   6.468   4.502 -0.0937 -0.6689 -0.2457
21221WAT     H186689   4.454   6.464   4.413  0.3002 -2.1064 -0.3658
21221WAT     H286690   4.413   6.481   4.558 -0.5732 -1.6492 -0.6584
21221WAT    EPW86691   4.475   6.469   4.498 -0.1049 -0.9880 -0.3161
21222WAT      O86692   1.317   9.028   2.571 -0.0315 -0.1172 -0.1496
21222WAT     H186693   1.280   9.008   2.657 -0.1952 -0.3506 -0.2737
21222WAT     H286694   1.283   8.960   2.514  0.1410 -0.0078 -0.3844
21222WAT    EPW86695   1.308   9.017   2.575 -0.0303 -0.1330 -0.1969
21223WAT      O86696   1.147   8.237   6.927 -0.2614 -0.3572  0.3046
21223WAT     H186697   1.055   8.233   6.901 -0.2402 -0.3461  0.2281
21223WAT     H286698   1.172   8.146   6.942  0.5093 -0.6891 -2.4127
21223WAT    EPW86699   1.138   8.225   6.926 -0.1570 -0.3996 -0.0639
21224WAT      O86700   3.938   8.784   6.170 -0.3127  0.3151 -0.0607
21224WAT     H186701   3.988   8.758   6.248  1.0062 -0.9723 -1.2555
21224WAT     H286702   3.963   8.875   6.155 -1.0451  0.7743  1.3290
21224WAT    EPW86703   3.948   8.793   6.178 -0.2353  0.2060 -0.0350
21225WAT      O86704   5.155   6.173   5.417 -0.2137 -0.1522  0.1348
21225WAT     H186705   5.145   6.151   5.510  1.3503 -1.4702  0.0487
21225WAT     H286706   5.090   6.118   5.373  0.5074 -1.1966  0.3165
21225WAT    EPW86707   5.146   6.163   5.423  0.0877 -0.4640  0.1471
21226WAT      O86708   1.940   8.720   3.317  0.0594  0.8083 -0.0318
21226WAT     H186709   1.869   8.698   3.378  0.4976 -1.7373 -0.3233
21226WAT     H286710   1.996   8.642   3.317  0.9217  1.3523 -2.4808
21226WAT    EPW86711   1.938   8.707   3.325  0.2309  0.5445 -0.3932
21227WAT      O86712   4.108   5.984   5.833 -0.1647 -0.0792 -0.2847
21227WAT     H186713   4.109   6.050   5.763 -0.3837 -2.2280 -2.4268
21227WAT     H286714   4.015   5.970   5.850 -0.1426 -0.4649 -0.4778
21227WAT    EPW86715   4.096   5.991   5.826 -0.1905 -0.4137 -0.5927
21228WAT      O86716   4.204   2.620   4.156  0.5436  0.7185  0.2097
21228WAT     H186717   4.119   2.606   4.197  0.5451  1.0510  0.3226
21228WAT     H286718   4.190   2.593   4.065  1.3314 -2.9929  1.0252
21228WAT    EPW86719   4.191   2.614   4.149  0.6478  0.2729  0.3324
21229WAT      O86720   3.968   7.215   3.639  0.0680  0.0753  0.1542
21229WAT     H186721   3.943   7.153   3.570  0.7947  0.3842 -0.3922
21229WAT     H286722   4.064   7.214   3.639  0.1091  1.6881 -0.3156
21229WAT    EPW86723   3.977   7.206   3.630  0.1693  0.3288  0.0200
21230WAT      O86724   4.539   7.535   2.097  0.2799 -0.2139 -0.4339
21230WAT     H186725   4.449   7.568   2.101 -0.1051 -1.2226 -0.6424
21230WAT     H286726   4.576   7.556   2.183 -0.2381 -0.0530 -0.2481
21230WAT    EPW86727   4.532   7.542   2.109  0.1609 -0.3257 -0.4369
21231WAT      O86728   4.293   7.627   5.250  0.9161 -1.0792  0.5534
21231WAT     H186729   4.220   7.580   5.291  1.5374 -2.5454  0.0409
21231WAT     H286730   4.350   7.558   5.218  1.7911  0.0562 -0.3838
21231WAT    EPW86731   4.291   7.611   5.251  1.1134 -1.1230  0.3622
21232WAT      O86732   3.596   7.553   4.158  0.0659  0.0764 -0.1003
21232WAT     H186733   3.540   7.534   4.233  3.3992  0.5953  2.8147
21232WAT     H286734   3.570   7.490   4.092 -1.4996 -2.0821  2.3740
21232WAT    EPW86735   3.585   7.542   4.159  0.2991 -0.1400  0.6106
21233WAT      O86736   3.802   5.778   1.739  0.0052  0.5426  0.6417
21233WAT     H186737   3.767   5.810   1.823  0.2006  1.4372  0.3927
21233WAT     H286738   3.897   5.777   1.752  0.1305  1.8750  0.0518
21233WAT    EPW86739   3.810   5.782   1.752  0.0476  0.8364  0.5310
21234WAT      O86740   3.168   7.267   6.936  0.5354  0.4794 -0.4278
21234WAT     H186741   3.240   7.247   6.877  1.3549  0.0361  0.6735
21234WAT     H286742   3.145   7.182   6.975  1.4926  1.0442  1.4812
21234WAT    EPW86743   3.174   7.253   6.934  0.7697  0.4954 -0.0308
21235WAT      O86744   3.811   7.433   7.558 -0.6472 -0.5353 -0.2018
21235WAT     H186745   3.721   7.466   7.565 -0.6320 -0.7057  0.9886
21235WAT     H286746   3.863   7.498   7.605 -0.2118 -0.6768 -0.4901
21235WAT    EPW86747   3.806   7.446   7.565 -0.5876 -0.5765 -0.0827
21236WAT      O86748   2.059   9.277   6.949  0.0988  0.2179  0.1359
21236WAT     H186749   2.043   9.247   7.039  1.1818 -2.9565 -0.5802
21236WAT     H286750   2.017   9.363   6.944  0.1323  0.5697  3.6872
21236WAT    EPW86751   2.051   9.284   6.960  0.2460 -0.1545  0.5100
21237WAT      O86752   1.946   2.966   7.165 -0.0128  0.1974 -0.5754
21237WAT     H186753   1.966   2.878   7.197 -0.8903  0.0427 -0.4199
21237WAT     H286754   1.851   2.973   7.174  0.2058  1.8208  1.1713
21237WAT    EPW86755   1.936   2.955   7.171 -0.0996  0.3912 -0.3242
21238WAT      O86756   2.498   8.925   4.938 -1.1434  0.7193  0.0771
21238WAT     H186757   2.416   8.963   4.909 -0.7605  1.0737 -0.5552
21238WAT     H286758   2.502   8.839   4.896 -1.7559  0.1860  1.0778
21238WAT    EPW86759   2.488   8.919   4.929 -1.1739  0.6952  0.1254
21239WAT      O86760   4.215   7.275   4.796 -0.3109  0.2409 -0.0842
21239WAT     H186761   4.298   7.318   4.821 -1.9558  3.3538  0.5787
21239WAT     H286762   4.218   7.272   4.700 -0.1854  2.2119 -0.1939
21239WAT    EPW86763   4.227   7.280   4.787 -0.5112  0.9112 -0.0114
21240WAT      O86764   1.868   7.150   6.590 -0.2954  0.0556 -0.1306
21240WAT     H186765   1.923   7.200   6.529 -0.2856 -0.6725 -0.7332
21240WAT     H286766   1.919   7.071   6.607 -0.2376  0.3211  0.9477
21240WAT    EPW86767   1.882   7.146   6.584 -0.2865 -0.0055 -0.0677
21241WAT      O86768   5.171   6.541   5.827 -0.9648  0.0365 -0.2770
21241WAT     H186769   5.164   6.499   5.913  0.3793 -0.2669 -0.2925
21241WAT     H286770   5.186   6.634   5.847  1.5890 -0.3562 -0.0871
21241WAT    EPW86771   5.172   6.548   5.841 -0.4508 -0.0553 -0.2539
21242WAT      O86772   1.050   5.925   1.792 -0.8975 -0.1965  0.7550
21242WAT     H186773   1.097   5.994   1.839 -0.4358 -0.3122  0.4697
21242WAT     H286774   1.118   5.880   1.741 -1.6308  1.1897 -1.5952
21242WAT    EPW86775   1.065   5.928   1.791 -0.9333 -0.0293  0.4073
21243WAT      O86776   2.967   4.388   5.436 -1.0692 -0.5075 -0.3239
21243WAT     H186777   2.961   4.480   5.462 -0.2317  0.0848 -2.0883
21243WAT     H286778   3.042   4.384   5.377 -0.6316 -2.4877  0.2848
21243WAT    EPW86779   2.976   4.400   5.432 -0.9011 -0.6905 -0.4764
21244WAT      O86780   4.429   7.775   5.458 -0.1115 -0.5249  0.1692
21244WAT     H186781   4.461   7.850   5.408  1.8376 -1.4600 -0.0415
21244WAT     H286782   4.390   7.718   5.392  2.0613 -1.5516 -0.2921
21244WAT    EPW86783   4.428   7.778   5.443  0.4320 -0.7837  0.0806
21245WAT      O86784   4.047   7.387   4.991  0.6471 -0.2243 -0.3399
21245WAT     H186785   4.036   7.328   5.066 -2.4253 -0.2870 -0.7320
21245WAT     H286786   4.074   7.329   4.919 -2.0835 -1.2458 -0.6537
21245WAT    EPW86787   4.049   7.371   4.991 -0.1185 -0.3672 -0.4327
21246WAT      O86788   4.278   9.090   6.034 -0.2182 -0.2652 -0.2565
21246WAT     H186789   4.316   9.145   5.965 -2.2900 -1.4664 -2.5338
21246WAT     H286790   4.352   9.037   6.065  1.1971  1.7315 -0.0645
21246WAT    EPW86791   4.293   9.090   6.029 -0.3047 -0.1602 -0.5317
21247WAT      O86792   1.278   7.665   5.092 -0.9272 -0.0700 -0.1674
21247WAT     H186793   1.201   7.671   5.036  0.2369  0.9611 -1.7871
21247WAT     H286794   1.299   7.756   5.113 -0.0292 -0.3170  0.0497
21247WAT    EPW86795   1.271   7.678   5.087 -0.6552  0.0331 -0.3524
21248WAT      O86796   2.690   7.672   7.563 -0.5291  0.5395  0.5529
21248WAT     H186797   2.619   7.613   7.590  0.1474  0.5886  2.5985
21248WAT     H286798   2.696   7.736   7.633  2.6356 -0.4410  1.3185
21248WAT    EPW86799   2.681   7.672   7.575 -0.0224  0.4168  0.9239
21249WAT      O86800   5.042   5.309   6.386 -0.4033  0.3675  0.0365
21249WAT     H186801   5.104   5.369   6.428 -1.6220  0.4162  1.8861
21249WAT     H286802   5.073   5.222   6.411 -0.0525  0.3081 -0.5816
21249WAT    EPW86803   5.054   5.306   6.395 -0.5178  0.3662  0.1991
21250WAT      O86804   3.080   7.289   4.628 -0.9864 -0.5407  0.1261
21250WAT     H186805   3.143   7.299   4.556  0.7803 -1.3676  1.4923
21250WAT     H286806   3.089   7.369   4.680  0.2809 -1.3937  1.2890
21250WAT    EPW86807   3.090   7.301   4.625 -0.5862 -0.7620  0.4597
21251WAT      O86808   3.185   7.308   7.959 -0.4576  0.1460  0.5326
21251WAT     H186809   3.269   7.303   8.003 -0.8969 -2.0685  1.2097
21251WAT     H286810   3.134   7.371   8.010 -0.4888 -1.3580  2.4548
21251WAT    EPW86811   3.189   7.316   7.971 -0.5198 -0.3443  0.8755
21252WAT      O86812   3.900  10.047   7.307 -0.4058  0.3743  0.1306
21252WAT     H186813   3.866  10.061   7.218  1.1434 -1.7998 -0.9040
21252WAT     H286814   3.909  10.134   7.344 -1.3632  1.3260 -1.7469
21252WAT    EPW86815   3.896  10.060   7.300 -0.3277  0.2127 -0.2534
21253WAT      O86816   4.826   7.531   3.040  0.4898  0.0060  0.0841
21253WAT     H186817   4.906   7.570   3.076  0.0145  1.4796 -0.3750
21253WAT     H286818   4.856   7.452   2.995  1.5510  0.0114  0.7457
21253WAT    EPW86819   4.841   7.525   3.039  0.5672  0.2012  0.1107
21254WAT      O86820   5.884   6.505   4.707  0.8021 -0.5193 -0.1558
21254WAT     H186821   5.949   6.575   4.703  2.7921 -2.2708 -0.1947
21254WAT     H286822   5.801   6.549   4.689  1.9733  1.7834 -0.3547
21254WAT    EPW86823   5.881   6.520   4.704  1.2190 -0.4466 -0.1869
21255WAT      O86824   7.079   1.457   7.341  0.0919 -0.3517  0.1504
21255WAT     H186825   7.105   1.366   7.329  1.0761  0.1171 -1.5639
21255WAT     H286826   6.986   1.453   7.361  0.5210 -1.8334  2.1574
21255WAT    EPW86827   7.071   1.444   7.342  0.2785 -0.4852  0.1891
21256WAT      O86828   1.809   8.880   2.725  0.1022 -0.3142 -0.0671
21256WAT     H186829   1.822   8.828   2.646 -1.3803  0.7486 -1.0625
21256WAT     H286830   1.715   8.875   2.743  0.4197 -0.6791  1.7745
21256WAT    EPW86831   1.798   8.873   2.717 -0.0515 -0.2222  0.0446
21257WAT      O86832   4.711   8.300   7.472 -0.1924 -0.1678 -0.4793
21257WAT     H186833   4.667   8.381   7.444 -1.6127 -0.5445  0.5031
21257WAT     H286834   4.647   8.231   7.454  1.2299 -1.1910 -1.8610
21257WAT    EPW86835   4.697   8.301   7.466 -0.1924 -0.3524 -0.5319
21258WAT      O86836   6.530   7.259   4.224  0.0750 -0.0517  0.3087
21258WAT     H186837   6.491   7.299   4.146 -3.1964  0.6150  2.0762
21258WAT     H286838   6.477   7.180   4.239  0.6413 -0.1742  1.8405
21258WAT    EPW86839   6.518   7.254   4.216 -0.2820  0.0203  0.7439
21259WAT      O86840   5.053   5.253   4.572 -0.1414 -0.1164 -0.2359
21259WAT     H186841   5.077   5.179   4.517 -0.7511 -0.1350 -0.4864
21259WAT     H286842   5.047   5.327   4.511  1.6134  0.4273  0.1681
21259WAT    EPW86843   5.056   5.253   4.557  0.0095 -0.0470 -0.2153
21260WAT      O86844   7.504   0.225   7.245  0.2819  0.3325 -0.0533
21260WAT     H186845   7.410   0.212   7.258  0.0757  1.7719 -0.0323
21260WAT     H286846   7.526   0.300   7.299  0.9472  1.5517 -1.9014
21260WAT    EPW86847   7.495   0.233   7.254  0.3426  0.6831 -0.2942
21261WAT      O86848   1.800   7.006   5.944 -0.3823  0.4512 -0.2641
21261WAT     H186849   1.810   7.066   5.870  0.1062  0.1392 -0.4547
21261WAT     H286850   1.812   7.061   6.021  0.9697  0.4425 -0.4539
21261WAT    EPW86851   1.803   7.021   5.944 -0.1397  0.4089 -0.3142
21262WAT      O86852   3.226   7.773   7.103  0.2513 -0.4194  0.0919
21262WAT     H186853   3.321   7.765   7.099  0.1833 -1.2898 -3.3449
21262WAT     H286854   3.196   7.683   7.117 -0.0096 -0.9221 -2.9832
21262WAT    EPW86855   3.235   7.760   7.104  0.2080 -0.6006 -0.7668
21263WAT      O86856   5.634   0.027   4.904  0.2393  0.1645  0.1705
21263WAT     H186857   5.674  -0.018   4.979  2.2607  0.4274 -0.6897
21263WAT     H286858   5.702   0.086   4.872 -1.4662  1.9596 -0.3318
21263WAT    EPW86859   5.649   0.029   4.910  0.2809  0.4360 -0.0091
21264WAT      O86860   5.487   9.372   3.877 -0.4673 -0.0773 -0.2186
21264WAT     H186861   5.485   9.443   3.941 -0.8144  1.5172 -1.9022
21264WAT     H286862   5.566   9.388   3.826 -0.9337 -0.4671 -1.0907
21264WAT    EPW86863   5.497   9.383   3.879 -0.5746  0.0820 -0.5558
21265WAT      O86864   4.488   6.225   4.816  0.1545  0.0202  0.6070
21265WAT     H186865   4.428   6.168   4.769 -1.6722  1.2680  1.3151
21265WAT     H286866   4.432   6.286   4.863  1.9849  1.1136  1.5083
21265WAT    EPW86867   4.473   6.226   4.816  0.1552  0.3290  0.8192
21266WAT      O86868   1.067   6.010   2.414 -0.1828 -0.7462 -0.0274
21266WAT     H186869   1.013   5.932   2.430 -1.3691 -0.1528 -1.0194
21266WAT     H286870   1.098   6.000   2.324 -0.7055  0.1327 -0.3174
21266WAT    EPW86871   1.064   5.998   2.405 -0.4081 -0.5519 -0.1963
21267WAT      O86872   3.201   7.641   7.401  0.3533 -0.2908  0.2916
21267WAT     H186873   3.219   7.732   7.380  0.4037 -0.3379  0.1332
21267WAT     H286874   3.199   7.596   7.316 -1.4393 -0.1181  0.2040
21267WAT    EPW86875   3.203   7.647   7.387  0.1236 -0.2744  0.2589
21268WAT      O86876   7.305   0.186   5.068 -0.3306 -0.0770  0.4767
21268WAT     H186877   7.229   0.196   5.010 -0.3688  1.6355  0.7817
21268WAT     H286878   7.268   0.161   5.152 -0.4248 -0.6023  0.2871
21268WAT    EPW86879   7.290   0.184   5.071 -0.3481  0.0796  0.4919
21269WAT      O86880   4.950   6.586   2.798 -0.8181 -0.0967 -0.2311
21269WAT     H186881   5.003   6.527   2.744 -0.2785 -0.1856  0.3852
21269WAT     H286882   4.961   6.554   2.887  0.5866  1.7041  0.3129
21269WAT    EPW86883   4.959   6.574   2.803 -0.5620  0.1290 -0.0780
21270WAT      O86884   4.253   3.583   4.343  0.1331 -0.2019 -0.0115
21270WAT     H186885   4.323   3.618   4.289  0.5585 -0.8446  0.1170
21270WAT     H286886   4.213   3.514   4.290  0.4078 -0.6853  0.3982
21270WAT    EPW86887   4.257   3.578   4.329  0.2255 -0.3505  0.0596
21271WAT      O86888   4.410   6.774   7.606  0.7715 -0.0898  0.4397
21271WAT     H186889   4.454   6.819   7.533  0.9994 -0.1263  0.5526
21271WAT     H286890   4.477   6.715   7.641  1.5254  1.7435  2.3160
21271WAT    EPW86891   4.425   6.772   7.601  0.9010  0.1471  0.7021
21272WAT      O86892   2.534   8.747   4.399 -0.1364  0.1606 -0.1280
21272WAT     H186893   2.479   8.704   4.334  0.3121  1.4163 -1.4028
21272WAT     H286894   2.531   8.840   4.375  1.6289  0.4106  0.4376
21272WAT    EPW86895   2.527   8.754   4.388  0.1556  0.3591 -0.2217
21273WAT      O86896   4.189   6.639   4.486  0.1560 -0.1519 -0.2928
21273WAT     H186897   4.149   6.617   4.401 -0.7672  2.3707 -0.6004
21273WAT     H286898   4.230   6.724   4.472  1.2620 -0.3549  1.4360
21273WAT    EPW86899   4.189   6.647   4.473  0.1802  0.1540 -0.1054
21274WAT      O86900   4.784   7.934   2.829 -0.5194  0.1859  0.0826
21274WAT     H186901   4.870   7.976   2.835 -1.0210  1.7142 -2.2835
21274WAT     H286902   4.798   7.858   2.772 -0.8655  0.8657 -0.9211
21274WAT    EPW86903   4.797   7.929   2.822 -0.6311  0.4771 -0.3619
21275WAT      O86904   2.722   8.136   3.001  0.2614 -0.2845  0.4512
21275WAT     H186905   2.755   8.125   3.090  0.3595 -0.5629  0.3803
21275WAT     H286906   2.701   8.230   2.995  2.8715  0.3307 -0.1407
21275WAT    EPW86907   2.723   8.147   3.012  0.6186 -0.2398  0.3637
21276WAT      O86908   4.230   9.190   6.293 -0.5709 -0.0777 -0.3112
21276WAT     H186909   4.261   9.142   6.216  1.9131 -0.3704  0.7877
21276WAT     H286910   4.273   9.276   6.286  0.7214 -0.5524  1.3632
21276WAT    EPW86911   4.240   9.195   6.282 -0.0730 -0.1788  0.0546
21277WAT      O86912   3.072   7.189   6.349 -0.0485  0.8180 -0.4173
21277WAT     H186913   3.116   7.274   6.356  0.4916  0.4305  2.0070
21277WAT     H286914   3.055   7.164   6.440 -2.3256 -0.6072 -1.1445
21277WAT    EPW86915   3.075   7.197   6.362 -0.2774  0.5791 -0.1936
21278WAT      O86916   2.850   9.529   4.697  0.1524 -0.3802  0.2485
21278WAT     H186917   2.932   9.578   4.698 -0.1802  0.1772  0.6374
21278WAT     H286918   2.870   9.448   4.743  0.6754 -0.5686 -0.2969
21278WAT    EPW86919   2.863   9.525   4.703  0.1774 -0.3314  0.2277
21279WAT      O86920   4.866   7.490   6.727  0.4624 -0.5000  0.3032
21279WAT     H186921   4.788   7.454   6.684  1.9050 -1.7953 -1.3809
21279WAT     H286922   4.864   7.452   6.815 -2.5965  2.2872  1.6350
21279WAT    EPW86923   4.855   7.480   6.733  0.2491 -0.3033  0.2565
21280WAT      O86924   3.731   1.365   5.267 -0.0616  0.4489 -0.4604
21280WAT     H186925   3.699   1.286   5.312  0.1157  0.7507  0.2066
21280WAT     H286926   3.764   1.333   5.183 -0.5754 -0.0988 -0.4613
21280WAT    EPW86927   3.731   1.350   5.262 -0.1059  0.4165 -0.3724
21281WAT      O86928   2.828   5.143   4.954 -0.1262 -1.1091 -0.5191
21281WAT     H186929   2.779   5.129   5.035  0.4244  1.7628  0.4398
21281WAT     H286930   2.912   5.099   4.968 -0.6524 -2.0423 -0.2392
21281WAT    EPW86931   2.833   5.135   4.966 -0.1229 -0.8535 -0.3555
21282WAT      O86932   5.580   7.164   4.803 -0.1265  0.5625 -1.0192
21282WAT     H186933   5.530   7.090   4.837  0.0408  1.5138  1.5415
21282WAT     H286934   5.527   7.241   4.827  1.3498  1.4476 -0.4791
21282WAT    EPW86935   5.566   7.164   4.811  0.0901  0.8049 -0.6106
21283WAT      O86936   1.828   2.755   4.693  0.1410 -0.9138  0.2390
21283WAT     H186937   1.855   2.720   4.779 -0.1180 -0.9554  0.3037
21283WAT     H286938   1.902   2.736   4.636  0.3531 -0.8042  0.4755
21283WAT    EPW86939   1.841   2.748   4.697  0.1348 -0.9047  0.2787
21284WAT      O86940   6.091   1.046   2.648 -0.2700 -0.4258  0.1198
21284WAT     H186941   6.104   0.952   2.660 -1.3811 -0.3133  3.0398
21284WAT     H286942   6.172   1.085   2.683  0.0010 -0.2641 -0.6732
21284WAT    EPW86943   6.104   1.039   2.654 -0.3808 -0.3897  0.4003
21285WAT      O86944   4.715   7.843   3.077  0.2818 -0.4393 -0.1234
21285WAT     H186945   4.654   7.772   3.057 -0.2371  0.1315 -0.5755
21285WAT     H286946   4.713   7.899   2.999 -0.2571  0.7482  0.7185
21285WAT    EPW86947   4.707   7.841   3.064  0.1423 -0.2077 -0.0720
21286WAT      O86948   3.561   5.098   4.425 -0.4307  0.0932 -0.5038
21286WAT     H186949   3.560   5.006   4.399 -2.0719 -0.0320 -0.1441
21286WAT     H286950   3.550   5.146   4.343  2.4228  0.1255 -0.9672
21286WAT    EPW86951   3.559   5.092   4.411 -0.2707  0.0811 -0.5174
21287WAT      O86952   4.036   5.875   8.396 -0.0571 -0.1925 -0.1578
21287WAT     H186953   3.946   5.846   8.386  0.3243 -1.5446  0.1349
21287WAT     H286954   4.029   5.970   8.409 -1.5596 -0.4827  1.5343
21287WAT    EPW86955   4.023   5.884   8.396 -0.2048 -0.4089  0.1040
21288WAT      O86956   3.652   9.916   5.304 -0.5091 -0.9165  1.1924
21288WAT     H186957   3.637   9.822   5.303  1.4753 -1.2756 -0.1117
21288WAT     H286958   3.625   9.946   5.217 -0.3050 -0.4218  1.2929
21288WAT    EPW86959   3.646   9.908   5.293 -0.2204 -0.8984  1.0335
21289WAT      O86960   1.956   8.430   4.934 -0.6146 -0.6395 -0.1250
21289WAT     H186961   1.992   8.495   4.873 -2.0470 -0.4270 -0.7758
21289WAT     H286962   2.008   8.351   4.918  0.4483  0.0279 -0.0695
21289WAT    EPW86963   1.968   8.428   4.924 -0.6633 -0.5231 -0.2034
21290WAT      O86964   3.154   4.234   5.736 -0.6587 -0.5362 -0.6359
21290WAT     H186965   3.236   4.241   5.688  0.6847  1.2574  1.7382
21290WAT     H286966   3.149   4.314   5.788 -2.5632 -1.8248  1.3582
21290WAT    EPW86967   3.164   4.245   5.736 -0.7325 -0.4697 -0.0598
21291WAT      O86968   7.705   1.908   6.910  0.5808 -0.4403  0.2197
21291WAT     H186969   7.800   1.903   6.896  0.6456 -2.8360  1.1396
21291WAT     H286970   7.696   1.929   7.003  0.2168 -0.9865  0.3089
21291WAT    EPW86971   7.717   1.910   6.920  0.5414 -0.8284  0.3526
21292WAT      O86972   4.098   9.100   0.220 -0.2412 -0.2791  0.3714
21292WAT     H186973   4.042   9.068   0.291 -0.5732  2.5883  1.5665
21292WAT     H286974   4.186   9.101   0.258 -0.5148  1.9169  1.1282
21292WAT    EPW86975   4.102   9.096   0.234 -0.3207  0.3886  0.6289
21293WAT      O86976   2.849   6.884   5.153  0.2194  0.7940 -0.0126
21293WAT     H186977   2.874   6.973   5.178  2.0003  0.7016 -1.2533
21293WAT     H286978   2.898   6.827   5.212  1.7853  0.6390 -1.3717
21293WAT    EPW86979   2.859   6.888   5.164  0.6609  0.7615 -0.3555
21294WAT      O86980  10.842   6.129   3.391 -0.1437 -0.2577 -0.3798
21294WAT     H186981  10.805   6.190   3.455  0.0101 -0.5272 -0.0305
21294WAT     H286982  10.844   6.178   3.309 -0.9704 -0.1221 -0.3299
21294WAT    EPW86983  10.837   6.143   3.388 -0.2322 -0.2751 -0.3272
21295WAT      O86984   1.328   8.046   2.144  0.5609  0.1997 -0.6129
21295WAT     H186985   1.310   8.076   2.054 -1.4863  0.3849 -0.2037
21295WAT     H286986   1.294   7.956   2.146  0.4922  0.2370 -0.0004
21295WAT    EPW86987   1.321   8.038   2.132  0.2818  0.2289 -0.4781
21296WAT      O86988   3.186   6.520   6.406 -0.0290  0.0183 -0.2070
21296WAT     H186989   3.209   6.432   6.378 -0.3685 -0.6750  1.5875
21296WAT     H286990   3.090   6.521   6.406 -0.0274  0.5166 -0.5937
21296WAT    EPW86991   3.176   6.509   6.402 -0.0734 -0.0076 -0.0210
21297WAT      O86992   4.183   3.656   8.133 -0.0572 -0.5090  0.6627
21297WAT     H186993   4.261   3.680   8.083  0.6130  0.6807  2.1931
21297WAT     H286994   4.214   3.592   8.196  0.1337  1.1868  2.3937
21297WAT    EPW86995   4.197   3.651   8.135  0.0563 -0.1285  1.0929
21298WAT      O86996   5.952   7.172   5.805 -0.5695 -0.1279  0.7858
21298WAT     H186997   5.882   7.141   5.748 -1.2857 -3.0749  3.0546
21298WAT     H286998   5.908   7.199   5.886  0.7225 -0.2742  1.5794
21298WAT    EPW86999   5.937   7.172   5.808 -0.4935 -0.5360  1.1897
21299WAT      O87000   7.260   0.070   3.699  0.1033  0.4326  0.0416
21299WAT     H187001   7.351   0.040   3.688  0.2430  1.2840 -1.2935
21299WAT     H287002   7.209  -0.011   3.695  0.7134  0.0494 -0.3920
21299WAT    EPW87003   7.266   0.055   3.697  0.2022  0.4945 -0.1918
21300WAT      O87004   3.068   3.176   5.064 -0.2663 -1.0250  0.2039
21300WAT     H187005   3.037   3.234   5.134  1.4304 -1.1177  1.0838
21300WAT     H287006   3.085   3.235   4.990 -1.9572 -0.9111 -0.1425
21300WAT    EPW87007   3.066   3.192   5.063 -0.2655 -1.0221  0.2744
21301WAT      O87008   2.436   7.455   4.541 -0.1240 -0.0407 -0.4987
21301WAT     H187009   2.519   7.444   4.494 -0.7030  0.2875 -1.6266
21301WAT     H287010   2.376   7.393   4.500 -0.0702 -1.3652  1.3035
21301WAT    EPW87011   2.439   7.445   4.529 -0.1931 -0.1721 -0.4096
21302WAT      O87012   4.664   7.810   8.227 -0.2475  0.6347 -0.4276
21302WAT     H187013   4.594   7.745   8.239 -0.0357  0.8186  2.7578
21302WAT     H287014   4.664   7.859   8.309  2.3026  1.9763 -1.1423
21302WAT    EPW87015   4.655   7.808   8.240  0.1168  0.8361 -0.1016
21303WAT      O87016   2.351   7.530   7.328  0.0426  0.1024 -1.5955
21303WAT     H187017   2.392   7.526   7.415  1.0878 -1.0101 -2.1170
21303WAT     H287018   2.321   7.441   7.311 -2.2679  0.7886 -1.4287
21303WAT    EPW87019   2.353   7.518   7.338 -0.1242  0.0463 -1.6422
21304WAT      O87020   2.920   6.445   6.608  0.6724 -0.2718 -0.4151
21304WAT     H187021   2.862   6.508   6.565 -2.7762 -0.6516  3.1041
21304WAT     H287022   2.954   6.492   6.685 -2.2609 -2.4872  2.4941
21304WAT    EPW87023   2.917   6.460   6.613 -0.1693 -0.6142  0.4327
21305WAT      O87024   3.222   9.803   5.726 -0.0518  0.0754  0.2082
21305WAT     H187025   3.310   9.780   5.695 -0.2231 -1.6557  0.9173
21305WAT     H287026   3.238   9.865   5.797  0.4019  2.7187 -2.0158
21305WAT    EPW87027   3.236   9.809   5.731 -0.0144  0.1955  0.0086
21306WAT      O87028   3.733   6.493   3.781  0.5115 -0.0546 -0.3916
21306WAT     H187029   3.645   6.525   3.759  0.2555 -1.3786 -1.3993
21306WAT     H287030   3.754   6.432   3.711  2.3317  0.3813 -0.2588
21306WAT    EPW87031   3.724   6.489   3.769  0.7178 -0.1717 -0.5070
21307WAT      O87032   6.213   6.843   4.161 -0.3864  0.2066  0.1472
21307WAT     H187033   6.221   6.802   4.075  0.4104 -0.3602  0.4691
21307WAT     H287034   6.130   6.890   4.159 -0.1396  0.6282 -1.1080
21307WAT    EPW87035   6.203   6.844   4.149 -0.2487  0.1874  0.0241
21308WAT      O87036   2.409   5.513   2.957 -0.2241  0.8955 -0.3991
21308WAT     H187037   2.375   5.564   2.884  2.4903  0.4318 -2.1309
21308WAT     H287038   2.504   5.529   2.955  0.0942 -0.1257  2.2689
21308WAT    EPW87039   2.417   5.522   2.947  0.1758  0.6998 -0.2756
21309WAT      O87040   4.653   8.843   5.108 -0.2400 -0.6102  0.1956
21309WAT     H187041   4.672   8.805   5.022  0.3583 -1.3971  0.6695
21309WAT     H287042   4.594   8.781   5.150  0.6519 -0.9835  0.9280
21309WAT    EPW87043   4.648   8.830   5.102 -0.0436 -0.7629  0.3548
21310WAT      O87044   1.736   5.899   5.565 -0.2083  0.0169  0.1278
21310WAT     H187045   1.711   5.956   5.493 -0.1374  3.3767  2.5359
21310WAT     H287046   1.656   5.851   5.587 -0.5914 -0.0035 -1.2521
21310WAT    EPW87047   1.723   5.900   5.559 -0.2495  0.4573  0.2635
21311WAT      O87048   3.677   7.224   6.328  0.3136 -0.5169 -0.0257
21311WAT     H187049   3.687   7.253   6.238  2.1435 -0.1994  0.2516
21311WAT     H287050   3.588   7.189   6.332 -0.5257  1.2859 -1.4168
21311WAT    EPW87051   3.667   7.223   6.317  0.4442 -0.2372 -0.1726
21312WAT      O87052   4.008   7.257   7.221 -0.3180 -0.0514 -0.5901
21312WAT     H187053   4.081   7.311   7.252  0.7758 -1.2579 -0.9584
21312WAT     H287054   3.980   7.298   7.140 -1.4157  1.5772  0.5617
21312WAT    EPW87055   4.014   7.269   7.215 -0.3188  0.0043 -0.4871
21313WAT      O87056   2.098   5.832   7.801 -0.6041 -0.3453  0.0536
21313WAT     H187057   2.129   5.917   7.770 -2.2773 -0.2835 -1.6082
21313WAT     H287058   2.082   5.844   7.894  1.1026  0.5417  0.2632
21313WAT    EPW87059   2.100   5.844   7.809 -0.5999 -0.2203 -0.1380
21314WAT      O87060   1.419   5.436   8.861 -0.0968  0.1627 -0.5321
21314WAT     H187061   1.481   5.482   8.805  0.3583 -1.2749 -1.2773
21314WAT     H287062   1.347   5.411   8.803 -0.4351  0.1228 -0.1063
21314WAT    EPW87063   1.417   5.438   8.846 -0.0814 -0.0322 -0.5741
21315WAT      O87064   3.187   7.062   7.403  0.2784  0.5865  0.1482
21315WAT     H187065   3.128   7.135   7.424  0.0221  0.6241 -0.6925
21315WAT     H287066   3.132   6.984   7.411  0.0082  0.6475 -0.9840
21315WAT    EPW87067   3.172   7.061   7.407  0.2091  0.5996 -0.1121
21316WAT      O87068   2.429   9.045   4.477 -0.0599  0.0283 -0.7559
21316WAT     H187069   2.446   9.139   4.469 -0.5499  0.0672 -1.5076
21316WAT     H287070   2.502   9.011   4.529  1.4563  0.4357 -2.5197
21316WAT    EPW87071   2.441   9.053   4.483  0.0756  0.0868 -1.0874
21317WAT      O87072   7.084   8.338   0.102  0.4726 -0.4915 -0.0025
21317WAT     H187073   7.117   8.412   0.153 -0.3239 -1.4985  2.0779
21317WAT     H287074   6.993   8.361   0.083  1.1509  0.5276 -2.3343
21317WAT    EPW87075   7.076   8.351   0.106  0.4570 -0.4897 -0.0357
21318WAT      O87076   2.098   4.276   6.556  0.0668  1.0430  0.7139
21318WAT     H187077   2.140   4.358   6.529  0.3811  0.4122 -0.8267
21318WAT     H287078   2.004   4.295   6.550  0.1280  0.9752 -0.7551
21318WAT    EPW87079   2.091   4.290   6.551  0.1162  0.9508  0.3171
21319WAT      O87080   5.123   6.928   3.418  0.0026  0.1484  0.5228
21319WAT     H187081   5.031   6.912   3.438  0.0507 -0.2231  0.4455
21319WAT     H287082   5.171   6.893   3.493  0.2542 -2.2691 -0.6875
21319WAT    EPW87083   5.118   6.921   3.431  0.0420 -0.2191  0.3529
21320WAT      O87084   2.146   7.219   5.055 -0.2924  0.0658 -0.0781
21320WAT     H187085   2.195   7.257   4.982  0.3922 -0.7880 -0.0841
21320WAT     H287086   2.054   7.231   5.032 -0.1600  2.6343  0.4028
21320WAT    EPW87087   2.140   7.226   5.042 -0.1848  0.2918 -0.0155
21321WAT      O87088   1.255   5.786   5.667  0.2036  0.2140 -0.3491
21321WAT     H187089   1.339   5.767   5.627 -0.3014 -0.8767 -0.9458
21321WAT     H287090   1.275   5.801   5.759  0.8925 -1.4554 -0.2025
21321WAT    EPW87091   1.268   5.785   5.674  0.2278 -0.1500 -0.4084
21322WAT      O87092   4.414   5.695   5.990 -0.1747  0.5253  0.5807
21322WAT     H187093   4.471   5.762   5.954 -1.0041  1.9221  1.7577
21322WAT     H287094   4.343   5.744   6.032 -1.5306 -1.1201  0.3117
21322WAT    EPW87095   4.412   5.710   5.991 -0.4630  0.4926  0.7005
21323WAT      O87096   8.172   0.382   6.618 -0.4709 -0.4369 -0.2263
21323WAT     H187097   8.210   0.461   6.657 -0.3081 -0.5940 -0.0646
21323WAT     H287098   8.134   0.412   6.536 -0.0127 -0.2737 -0.3803
21323WAT    EPW87099   8.172   0.396   6.612 -0.3891 -0.4361 -0.2251
21324WAT      O87100   2.949   9.021   2.287  0.8170 -0.6750 -0.0602
21324WAT     H187101   3.023   9.052   2.340  0.3360  0.6558 -0.1268
21324WAT     H287102   2.912   8.950   2.338  0.9823 -0.0842  0.9145
21324WAT    EPW87103   2.954   9.016   2.301  0.7753 -0.4215  0.0597
21325WAT      O87104   2.763   9.116   7.704 -0.5346  0.1655  0.6895
21325WAT     H187105   2.706   9.191   7.691 -0.1634  0.4741  0.8289
21325WAT     H287106   2.737   9.081   7.789 -1.8740 -0.9015 -0.1042
21325WAT    EPW87107   2.752   9.121   7.713 -0.6623  0.0658  0.6034
21326WAT      O87108   4.509   9.676   4.430 -0.6902 -0.4601  0.3907
21326WAT     H187109   4.493   9.626   4.510 -0.5634  0.5383  1.0590
21326WAT     H287110   4.463   9.759   4.444  0.2847  0.1796 -0.0893
21326WAT    EPW87111   4.501   9.680   4.442 -0.5450 -0.2437  0.4156
21327WAT      O87112   4.550   7.474   5.148  0.0596  0.0398  0.1718
21327WAT     H187113   4.565   7.409   5.216 -0.1876 -1.9538 -1.6016
21327WAT     H287114   4.591   7.554   5.182  2.2120 -1.5369  1.5520
21327WAT    EPW87115   4.557   7.476   5.161  0.3111 -0.4313  0.1202
21328WAT      O87116   7.002   0.411   4.438  0.1872  0.4732 -0.6326
21328WAT     H187117   7.075   0.350   4.454 -0.3289 -0.3545 -1.3426
21328WAT     H287118   7.044   0.496   4.426  0.9803  0.1448 -0.2828
21328WAT    EPW87119   7.018   0.414   4.439  0.2236  0.3207 -0.6800
21329WAT      O87120   2.473   8.515   1.103 -0.7946  0.0157 -0.5737
21329WAT     H187121   2.564   8.543   1.094 -0.4319 -0.9285  0.0174
21329WAT     H287122   2.439   8.564   1.178 -0.0160 -1.4400  0.7693
21329WAT    EPW87123   2.480   8.525   1.112 -0.6442 -0.3009 -0.3186
21330WAT      O87124   4.947   9.269   5.848 -0.4095 -0.2369 -0.0835
21330WAT     H187125   5.006   9.343   5.834 -1.5448  0.9385  1.1242
21330WAT     H287126   5.005   9.196   5.871  0.7195  0.2320 -1.3201
21330WAT    EPW87127   4.962   9.269   5.849 -0.4103 -0.0200 -0.0875
21331WAT      O87128   7.318   8.491   5.145 -0.0357  0.8531  0.0303
21331WAT     H187129   7.289   8.400   5.136 -1.6847  1.3099  0.3821
21331WAT     H287130   7.389   8.487   5.208 -0.2264 -0.1794  0.1991
21331WAT    EPW87131   7.323   8.479   5.152 -0.2785  0.7768  0.0989
21332WAT      O87132   6.610   7.798   4.441  0.4546  0.2513 -0.0212
21332WAT     H187133   6.528   7.767   4.403  0.2722  0.5931  0.0930
21332WAT     H287134   6.590   7.814   4.533  1.1327 -1.4842  0.4740
21332WAT    EPW87135   6.597   7.796   4.448  0.5198  0.0672  0.0591
21333WAT      O87136   6.380   9.454   3.314  0.2942 -0.6234  0.3401
21333WAT     H187137   6.378   9.473   3.408  1.2279  0.3780  0.1738
21333WAT     H287138   6.314   9.512   3.276 -0.3677 -1.3135  0.4070
21333WAT    EPW87139   6.371   9.464   3.321  0.3297 -0.5822  0.3270
21334WAT      O87140   1.228   5.496   1.496  0.1850  0.1637  1.0408
21334WAT     H187141   1.175   5.523   1.421 -1.3189 -1.6409  1.3764
21334WAT     H287142   1.315   5.480   1.459 -1.0338 -2.8041 -0.8829
21334WAT    EPW87143   1.233   5.497   1.481 -0.1741 -0.4656  0.8314
21335WAT      O87144   4.883   9.210   4.102 -0.6894 -0.1537 -0.1512
21335WAT     H187145   4.920   9.185   4.018  0.0057 -1.7372  0.5962
21335WAT     H287146   4.935   9.286   4.129 -0.7900  0.2449 -1.0336
21335WAT    EPW87147   4.895   9.217   4.095 -0.6113 -0.3104 -0.1690
21336WAT      O87148   2.994   3.289   0.549  0.2589  0.2077 -0.2118
21336WAT     H187149   3.059   3.325   0.490 -1.0337  0.4130 -1.5743
21336WAT     H287150   2.913   3.287   0.498  0.0500 -4.0536 -0.0340
21336WAT    EPW87151   2.992   3.294   0.535  0.0608 -0.3273 -0.3681
21337WAT      O87152   5.771   7.991   7.191  0.2246  0.8635  0.1868
21337WAT     H187153   5.801   7.931   7.123  0.0687 -1.6712  2.2038
21337WAT     H287154   5.845   8.049   7.207  0.2307  1.5905 -2.1264
21337WAT    EPW87155   5.784   7.991   7.185  0.2046  0.6251  0.1476
21338WAT      O87156   5.213   8.024   5.786  0.2751 -0.2245  0.5197
21338WAT     H187157   5.241   7.961   5.852  0.1521  0.9469  1.7225
21338WAT     H287158   5.165   8.091   5.835 -0.0499  0.5386 -0.7925
21338WAT    EPW87159   5.210   8.025   5.801  0.2162  0.0305  0.5052
21339WAT      O87160   4.325   8.120   4.538 -0.1536  0.8346 -0.1288
21339WAT     H187161   4.264   8.066   4.487  0.4550 -0.0957  0.0876
21339WAT     H287162   4.314   8.091   4.628  0.5287  0.7159 -0.0757
21339WAT    EPW87163   4.316   8.109   4.543  0.0167  0.6967 -0.0932
21340WAT      O87164   7.068   6.882   6.835  0.6150  0.7820  0.1388
21340WAT     H187165   6.976   6.872   6.811  0.7026  0.0444  0.0874
21340WAT     H287166   7.072   6.967   6.879 -0.3713  0.1960  1.4310
21340WAT    EPW87167   7.056   6.892   6.838  0.4966  0.6075  0.3026
21341WAT      O87168   4.809   8.528   3.918 -0.5057  0.4612 -0.4625
21341WAT     H187169   4.740   8.587   3.885 -0.0989  2.1969  1.5819
21341WAT     H287170   4.774   8.495   4.000 -0.7607 -2.3597 -1.6177
21341WAT    EPW87171   4.795   8.532   3.924 -0.4857  0.3181 -0.3452
21342WAT      O87172   7.272   9.275   7.122  0.2491  0.8200 -0.3970
21342WAT     H187173   7.188   9.267   7.168  0.7394  0.3620  0.4486
21342WAT     H287174   7.300   9.365   7.139 -0.7610  1.4820 -1.9516
21342WAT    EPW87175   7.264   9.286   7.130  0.1805  0.8469 -0.4904
21343WAT      O87176   4.445   1.073   3.541  1.0095 -0.1325  0.7637
21343WAT     H187177   4.475   1.160   3.513  2.1290 -0.5637  0.5616
21343WAT     H287178   4.351   1.074   3.525  0.9105  1.2400  1.2792
21343WAT    EPW87179   4.437   1.085   3.535  1.1439 -0.0083  0.8051
21344WAT      O87180   3.052   8.147   6.780 -0.3285 -0.0107  0.0840
21344WAT     H187181   3.089   8.075   6.830 -0.8091 -0.4708 -0.2221
21344WAT     H287182   3.055   8.222   6.840 -1.2653 -0.6472  0.9336
21344WAT    EPW87183   3.058   8.148   6.794 -0.5155 -0.1554  0.1557
21345WAT      O87184   3.215   0.035   7.365  0.3439  0.0453  0.3127
21345WAT     H187185   3.197   0.129   7.373  2.0607  0.3339  1.1285
21345WAT     H287186   3.147  -0.006   7.418 -0.5206  0.8074 -0.1667
21345WAT    EPW87187   3.203   0.042   7.373  0.4563  0.1839  0.3572
21346WAT      O87188   5.333   6.986   5.347  0.6946  0.0891  0.0337
21346WAT     H187189   5.372   6.920   5.291  0.3185 -3.8708  3.9531
21346WAT     H287190   5.267   7.028   5.291 -1.1626 -4.9456 -2.1579
21346WAT    EPW87191   5.329   6.983   5.332  0.4001 -1.0974  0.2615
21347WAT      O87192   8.185   4.540   4.026 -0.3598  0.0930 -0.5007
21347WAT     H187193   8.262   4.487   4.003  1.4319  2.1581  0.4095
21347WAT     H287194   8.168   4.593   3.948  1.2412  1.9409  0.3178
21347WAT    EPW87195   8.193   4.540   4.012  0.0882  0.6092 -0.2725
21348WAT      O87196   2.537   5.594   0.167  0.6709 -0.1807 -0.5065
21348WAT     H187197   2.463   5.538   0.142 -0.5201  0.3863  1.5026
21348WAT     H287198   2.589   5.539   0.226 -0.5191  0.7763  1.4953
21348WAT    EPW87199   2.534   5.579   0.171  0.3568  0.0205  0.0225
21349WAT      O87200   6.294  10.057   3.231 -0.5641  0.0656 -0.6108
21349WAT     H187201   6.249   9.976   3.256  0.5745 -1.0833 -2.0918
21349WAT     H287202   6.269  10.071   3.139 -1.2722  1.7830 -0.1843
21349WAT    EPW87203   6.285  10.048   3.222 -0.5074  0.1407 -0.7498
21350WAT      O87204   3.323   8.779   4.661 -0.2950 -0.4349 -0.9633
21350WAT     H187205   3.394   8.839   4.639  0.3584 -0.7675  0.1790
21350WAT     H287206   3.300   8.738   4.577  2.1485 -1.7181 -1.1054
21350WAT    EPW87207   3.329   8.782   4.647  0.1135 -0.6480 -0.8311
21351WAT      O87208   5.505   7.485   5.194  0.0546 -0.2160 -1.2141
21351WAT     H187209   5.541   7.397   5.183 -2.0256 -1.0851 -1.5233
21351WAT     H287210   5.495   7.495   5.289  1.6389  0.3015 -1.0733
21351WAT    EPW87211   5.508   7.475   5.205 -0.0110 -0.2623 -1.2364
21352WAT      O87212   3.023   8.625   6.274 -0.2063 -0.3679 -0.5542
21352WAT     H187213   2.929   8.626   6.257  0.0624 -1.4577 -2.3755
21352WAT     H287214   3.043   8.534   6.291  0.9388 -0.7283 -3.2592
21352WAT    EPW87215   3.013   8.613   6.274 -0.0198 -0.5598 -1.1513
21353WAT      O87216   3.186   9.112   7.298 -0.2852 -0.0532 -0.4293
21353WAT     H187217   3.201   9.038   7.239  0.5104  1.2434 -1.9376
21353WAT     H287218   3.127   9.078   7.365  0.7145 -2.2766 -0.5921
21353WAT    EPW87219   3.181   9.098   7.299 -0.0484 -0.1755 -0.6497
21354WAT      O87220   5.526   9.737   8.069  0.1313 -0.1254 -0.2922
21354WAT     H187221   5.620   9.739   8.053  0.0661  2.5960 -0.8624
21354WAT     H287222   5.516   9.780   8.154 -0.6433  1.1254 -0.9795
21354WAT    EPW87223   5.537   9.743   8.078  0.0203  0.3986 -0.4582
21355WAT      O87224   5.165   8.114   7.316  0.2857  0.7724 -0.0866
21355WAT     H187225   5.097   8.054   7.286  0.2610  0.4244  0.6544
21355WAT     H287226   5.150   8.194   7.264  1.5409 -0.4741 -2.5187
21355WAT    EPW87227   5.154   8.117   7.305  0.4478  0.5622 -0.3097
21356WAT      O87228   3.677   9.712   3.075 -0.3657 -0.5162 -0.2752
21356WAT     H187229   3.724   9.637   3.039  1.1389  0.5859 -0.7000
21356WAT     H287230   3.710   9.719   3.165 -0.3896 -0.2733 -0.2874
21356WAT    EPW87231   3.688   9.703   3.083 -0.1705 -0.3386 -0.3330
21357WAT      O87232   7.440   1.200   7.074  0.5804  0.2024 -0.3325
21357WAT     H187233   7.440   1.216   7.169  1.3438 -1.5520  0.0164
21357WAT     H287234   7.354   1.231   7.044  0.3720  0.8952  0.8993
21357WAT    EPW87235   7.429   1.206   7.083  0.6535  0.0624 -0.1240
21358WAT      O87236   5.897   8.617   4.933 -0.0664 -0.1794  0.3440
21358WAT     H187237   5.862   8.552   4.873  1.3103 -0.3167 -0.3590
21358WAT     H287238   5.931   8.566   5.007 -1.7165 -0.0145  1.2746
21358WAT    EPW87239   5.897   8.602   4.935 -0.1020 -0.1764  0.3741
21359WAT      O87240   6.297   8.967   5.707  0.5708  0.5185  0.5677
21359WAT     H187241   6.308   8.964   5.802  1.4205 -0.3960  0.4494
21359WAT     H287242   6.314   8.878   5.678 -0.5462  0.5804 -0.3659
21359WAT    EPW87243   6.300   8.955   5.715  0.5352  0.4063  0.4289
21360WAT      O87244   6.895   9.466   4.730  0.5825 -0.3074 -0.1396
21360WAT     H187245   6.953   9.517   4.787  0.6843 -0.0269 -0.4886
21360WAT     H287246   6.954   9.415   4.675  0.5738  1.0688 -1.5047
21360WAT    EPW87247   6.910   9.466   4.730  0.5949 -0.0892 -0.3657
21361WAT      O87248   3.271   9.433   6.631  0.0139 -0.3617 -0.0566
21361WAT     H187249   3.220   9.490   6.573  0.4106  2.8471  2.4464
21361WAT     H287250   3.205   9.380   6.676 -0.8175  0.9154  0.3020
21361WAT    EPW87251   3.255   9.434   6.629 -0.0435  0.2294  0.3207
21362WAT      O87252   0.877   9.890   5.219 -0.0826  0.5088  0.3162
21362WAT     H187253   0.886   9.795   5.209 -0.6671  0.3727  1.0354
21362WAT     H287254   0.825   9.917   5.144 -0.5484  0.1517  0.5074
21362WAT    EPW87255   0.872   9.881   5.208 -0.2211  0.4439  0.4365
21363WAT      O87256   3.418   7.127   6.301 -0.2751 -0.0622  0.2991
21363WAT     H187257   3.376   7.134   6.386 -2.8341  0.0541 -0.8985
21363WAT     H287258   3.460   7.040   6.302 -1.9306 -0.8965  1.0093
21363WAT    EPW87259   3.418   7.116   6.312 -0.8310 -0.1569  0.2348
21364WAT      O87260   7.405   0.529   7.127 -0.2851  0.2336  0.8450
21364WAT     H187261   7.491   0.509   7.091 -0.9313 -1.3345  0.0682
21364WAT     H287262   7.415   0.615   7.168  1.4241  0.4366  0.0728
21364WAT    EPW87263   7.418   0.538   7.127 -0.1447  0.0536  0.6406
21365WAT      O87264   7.261   9.014   7.469  0.0238 -0.3730 -0.3691
21365WAT     H187265   7.269   9.082   7.536  1.6679 -0.2644 -0.6337
21365WAT     H287266   7.221   8.940   7.515 -0.0035  0.1089  0.4083
21365WAT    EPW87267   7.257   9.013   7.484  0.2372 -0.2956 -0.3011
21366WAT      O87268   6.963   9.345   2.676 -0.8664 -0.4052  0.4231
21366WAT     H187269   7.057   9.350   2.696 -0.5824  0.4895 -0.9474
21366WAT     H287270   6.934   9.263   2.715  0.6535 -1.0621  0.2378
21366WAT    EPW87271   6.972   9.335   2.684 -0.6285 -0.3738  0.2178
21367WAT      O87272   5.666   6.906   7.761  0.0830  0.4942  0.9122
21367WAT     H187273   5.574   6.908   7.786 -0.6971 -0.5249 -1.5525
21367WAT     H287274   5.667   6.935   7.669  1.9991 -0.9482  0.4025
21367WAT    EPW87275   5.654   6.910   7.752  0.2327  0.1695  0.5198
21368WAT      O87276   4.733   6.647   7.192 -0.6776  0.6663 -0.2033
21368WAT     H187277   4.777   6.703   7.256  0.2869 -0.9369  0.5862
21368WAT     H287278   4.644   6.636   7.227 -0.1849 -0.1198  0.8335
21368WAT    EPW87279   4.727   6.653   7.205 -0.4852  0.3512  0.0372
21369WAT      O87280   9.396   0.284   5.766 -0.0539 -0.3164 -0.1765
21369WAT     H187281   9.306   0.314   5.750 -0.4847 -1.4887 -0.0370
21369WAT     H287282   9.449   0.334   5.703 -0.9101 -0.1899 -0.8193
21369WAT    EPW87283   9.391   0.295   5.755 -0.2241 -0.4544 -0.2429
21370WAT      O87284   6.661   6.541   6.952  0.1117 -0.1849  0.0191
21370WAT     H187285   6.574   6.510   6.929  0.1155  0.1200 -0.4146
21370WAT     H287286   6.650   6.580   7.039  0.4257 -2.8000  1.3492
21370WAT    EPW87287   6.648   6.542   6.960  0.1538 -0.4897  0.1371
21371WAT      O87288   3.845   7.317   5.356  0.1257 -0.2817 -0.0296
21371WAT     H187289   3.805   7.260   5.290 -0.2955  1.0606 -0.9827
21371WAT     H287290   3.900   7.259   5.408 -0.5684 -1.6112 -0.7299
21371WAT    EPW87291   3.847   7.302   5.354 -0.0215 -0.2801 -0.2477
21372WAT      O87292   5.913   0.713   4.350  0.0134  0.2738 -0.6195
21372WAT     H187293   5.901   0.649   4.280 -1.2297  0.0155 -0.2037
21372WAT     H287294   5.879   0.669   4.428  2.1084  0.2488  0.3296
21372WAT    EPW87295   5.907   0.699   4.351  0.1256  0.2365 -0.4394
21373WAT      O87296   6.888   6.656   1.464  0.2522 -0.1443 -0.3594
21373WAT     H187297   6.918   6.640   1.553  2.8269  0.0378 -1.1192
21373WAT     H287298   6.954   6.616   1.408 -0.7593  0.6166 -2.1989
21373WAT    EPW87299   6.901   6.649   1.469  0.4582 -0.0198 -0.7022
21374WAT      O87300   5.295   7.191   6.760 -0.3212 -0.6561 -0.8014
21374WAT     H187301   5.390   7.196   6.768 -0.4002 -0.8823  0.7622
21374WAT     H287302   5.279   7.109   6.714  0.2583  0.2582 -2.7264
21374WAT    EPW87303   5.305   7.181   6.755 -0.2549 -0.5653 -0.8490
21375WAT      O87304   6.789   5.521   8.495  0.0691  0.2788 -0.7197
21375WAT     H187305   6.796   5.499   8.588  0.4518  2.4464 -0.1820
21375WAT     H287306   6.872   5.565   8.474  0.1707 -0.5769 -2.2124
21375WAT    EPW87307   6.801   5.524   8.505  0.1330  0.4516 -0.8459
21376WAT      O87308   9.705   1.849   7.581  0.4176  0.6153 -0.0195
21376WAT     H187309   9.622   1.806   7.601  1.6840 -1.4764  1.1804
21376WAT     H287310   9.756   1.841   7.662  1.8504  1.6539 -0.7809
21376WAT    EPW87311   9.701   1.842   7.594  0.7734  0.4764  0.0384
21377WAT      O87312   5.865   9.712   5.310  0.2455  0.1116 -1.0759
21377WAT     H187313   5.949   9.666   5.313 -0.9021 -2.1071 -0.5510
21377WAT     H287314   5.817   9.668   5.240 -1.5773 -0.8112  0.6599
21377WAT    EPW87315   5.870   9.700   5.301 -0.1462 -0.3033 -0.7775
21378WAT      O87316   7.395   3.792   6.357  0.4625  0.3316  0.5729
21378WAT     H187317   7.449   3.857   6.403 -0.5319  1.0649  0.7594
21378WAT     H287318   7.318   3.842   6.328  0.0202 -0.6160  0.0742
21378WAT    EPW87319   7.392   3.807   6.359  0.2730  0.3034  0.5317
21379WAT      O87320  10.448   3.890   0.069  0.5216  0.0650  0.6478
21379WAT     H187321  10.380   3.937   0.117  0.1709 -0.6323  0.8512
21379WAT     H287322  10.400   3.841   0.002  0.6045 -1.7100  1.7966
21379WAT    EPW87323  10.433   3.890   0.067  0.4859 -0.2611  0.8261
21380WAT      O87324   9.143   0.172   6.434  0.0596  0.0556 -0.4401
21380WAT     H187325   9.217   0.189   6.376 -0.8917 -1.3450 -2.1544
21380WAT     H287326   9.066   0.203   6.386 -0.5021  2.4028  1.7032
21380WAT    EPW87327   9.143   0.178   6.420 -0.1397  0.1805 -0.3834
21381WAT      O87328   5.057   9.819   4.416 -0.7158 -0.4020 -0.6155
21381WAT     H187329   4.970   9.842   4.383 -0.8966 -0.4761 -0.1997
21381WAT     H287330   5.071   9.729   4.386 -0.7528 -0.3676 -0.7372
21381WAT    EPW87331   5.047   9.810   4.408 -0.7446 -0.4072 -0.5765
21382WAT      O87332   2.763   8.837   6.651 -0.3221 -0.0805  0.5323
21382WAT     H187333   2.699   8.842   6.581 -1.1751  2.2436  1.3863
21382WAT     H287334   2.837   8.790   6.612 -1.8318 -1.3350 -0.9922
21382WAT    EPW87335   2.765   8.831   6.637 -0.6337  0.0606  0.4439
21383WAT      O87336   5.470   7.057   3.179  0.9414 -0.0035  0.3737
21383WAT     H187337   5.465   7.127   3.244  0.2292 -0.5746  0.9499
21383WAT     H287338   5.550   7.010   3.201  1.3234  0.4985  0.1013
21383WAT    EPW87339   5.480   7.060   3.190  0.8976 -0.0126  0.4139
21384WAT      O87340   2.242   9.686   5.420 -0.6754  0.2062 -0.2657
21384WAT     H187341   2.327   9.707   5.459  0.9383 -2.7326 -1.8273
21384WAT     H287342   2.217   9.603   5.461 -1.9540  0.1669 -1.0777
21384WAT    EPW87343   2.250   9.678   5.431 -0.6312 -0.1869 -0.5786
21385WAT      O87344   4.768   7.230   3.612  0.4596 -0.3575  0.4962
21385WAT     H187345   4.739   7.308   3.659 -1.1220  0.8244 -2.2073
21385WAT     H287346   4.790   7.261   3.525  1.5515 -2.6970 -0.1442
21385WAT    EPW87347   4.767   7.244   3.607  0.3951 -0.5102  0.0551
21386WAT      O87348   1.822   7.082   4.123  0.1050  0.2651 -0.3388
21386WAT     H187349   1.858   7.163   4.088 -0.2567  0.2526 -0.7417
21386WAT     H287350   1.728   7.090   4.111 -0.2457  1.0094  2.2026
21386WAT    EPW87351   1.815   7.094   4.117  0.0110  0.3614 -0.0567
21387WAT      O87352   0.311   0.494   5.954  0.0021 -0.0424 -0.5026
21387WAT     H187353   0.321   0.585   5.981  3.0922 -0.6147  0.7356
21387WAT     H287354   0.221   0.472   5.978  0.0804  1.8379  1.9874
21387WAT    EPW87355   0.300   0.503   5.961  0.4200  0.1301 -0.0112
21388WAT      O87356   8.216   0.452   3.846  0.4234 -0.2452 -0.1434
21388WAT     H187357   8.149   0.507   3.887  0.4841 -0.7574  0.6668
21388WAT     H287358   8.261   0.410   3.920  1.2899 -0.3129 -0.7012
21388WAT    EPW87359   8.213   0.454   3.861  0.5455 -0.3217 -0.1100
21389WAT      O87360   3.844   7.992   6.263  0.5817 -0.1820  0.5257
21389WAT     H187361   3.907   7.935   6.218  1.0678  0.4238  0.4199
21389WAT     H287362   3.897   8.040   6.327  0.2551  0.4146  0.3625
21389WAT    EPW87363   3.859   7.991   6.265  0.6027 -0.0229  0.4902
21390WAT      O87364   4.304   8.079   5.982 -0.8083 -0.0006  0.1764
21390WAT     H187365   4.296   8.160   6.034 -2.1474 -0.4597  0.7260
21390WAT     H287366   4.242   8.091   5.910 -1.2093 -0.6366  0.4104
21390WAT    EPW87367   4.295   8.091   5.979 -1.0378 -0.1450  0.2797
21391WAT      O87368   2.820   8.171   4.980 -0.0788  0.1097 -0.5879
21391WAT     H187369   2.727   8.153   4.997 -0.0427 -0.9490 -1.4377
21391WAT     H287370   2.853   8.202   5.064 -1.0532 -0.1439 -0.0867
21391WAT    EPW87371   2.812   8.173   4.994 -0.2025 -0.0634 -0.6337
21392WAT      O87372   3.773   7.319   6.065  0.5199  0.0829 -0.2822
21392WAT     H187373   3.863   7.330   6.034  0.0635  2.9670 -0.8581
21392WAT     H287374   3.733   7.405   6.054 -1.5619 -0.3869  2.4503
21392WAT    EPW87375   3.779   7.332   6.059  0.1853  0.4013  0.0024
21393WAT      O87376   3.951   6.762   8.089 -0.5604  0.3092  0.6869
21393WAT     H187377   3.961   6.684   8.143 -1.6759 -0.1505  0.2684
21393WAT     H287378   4.018   6.822   8.120 -0.0328 -0.6194  1.3719
21393WAT    EPW87379   3.961   6.760   8.100 -0.6379  0.1264  0.7219
21394WAT      O87380   9.384   5.800   5.435  0.7650  0.4272 -0.4652
21394WAT     H187381   9.397   5.895   5.437 -0.2132  0.5777  1.2936
21394WAT     H287382   9.427   5.769   5.515  0.0272 -0.4420 -0.3860
21394WAT    EPW87383   9.391   5.808   5.446  0.5388  0.3321 -0.2227
21395WAT      O87384   4.612   8.263   5.142 -0.6101  0.5976  0.2383
21395WAT     H187385   4.619   8.183   5.194 -2.3545 -0.7620 -1.4711
21395WAT     H287386   4.690   8.313   5.164  3.6870 -3.9325 -2.5842
21395WAT    EPW87387   4.623   8.259   5.152 -0.2735 -0.1793 -0.3593
21396WAT      O87388   2.747   9.393   4.472  0.6135  0.7402 -0.2380
21396WAT     H187389   2.822   9.334   4.466  0.6586  0.4489  2.3138
21396WAT     H287390   2.773   9.459   4.536 -1.0333  1.0694  0.1450
21396WAT    EPW87391   2.760   9.394   4.480  0.4022  0.7448  0.1493
21397WAT      O87392   2.540   7.992   6.261  0.0377 -0.1906  0.2669
21397WAT     H187393   2.521   8.025   6.349 -0.6205  0.7900 -0.2245
21397WAT     H287394   2.613   7.931   6.273  0.3213  0.3612  1.4116
21397WAT    EPW87395   2.547   7.988   6.274 -0.0117  0.0119  0.3531
21398WAT      O87396   3.804   7.946   5.131 -0.7221 -0.3200 -0.0401
21398WAT     H187397   3.869   7.917   5.068  0.9322  1.3348  0.7872
21398WAT     H287398   3.779   8.034   5.101 -1.6098 -0.4156  0.3741
21398WAT    EPW87399   3.809   7.954   5.119 -0.6211 -0.1142  0.1237
21399WAT      O87400   9.207   1.796   1.814  0.7814  0.4272 -0.0493
21399WAT     H187401   9.158   1.849   1.877 -0.3180  0.8462 -1.2201
21399WAT     H287402   9.205   1.707   1.851  3.4294  1.2415  2.4033
21399WAT    EPW87403   9.200   1.791   1.828  0.9856  0.5899  0.1197
21400WAT      O87404   3.277   7.688   2.175  0.1473 -0.2717 -0.3059
21400WAT     H187405   3.336   7.756   2.208 -0.8662  0.4553  0.0209
21400WAT     H287406   3.308   7.672   2.086  0.5479  0.4455 -0.3041
21400WAT    EPW87407   3.289   7.695   2.167  0.0665 -0.0811 -0.2625
21401WAT      O87408   3.299   7.771   6.670  0.3179  0.1687 -0.2241
21401WAT     H187409   3.208   7.746   6.688  0.2489  0.4203 -0.2248
21401WAT     H287410   3.314   7.849   6.723  0.1110  0.9209 -1.2396
21401WAT    EPW87411   3.289   7.778   6.679  0.2815  0.3011 -0.3579
21402WAT      O87412   0.246   7.420   1.179 -0.2041 -0.0012 -0.6009
21402WAT     H187413   0.308   7.349   1.193  1.3029  1.1795 -1.0824
21402WAT     H287414   0.263   7.449   1.089 -0.3195  1.4146 -0.1867
21402WAT    EPW87415   0.256   7.415   1.169 -0.0205  0.3412 -0.6099
21403WAT      O87416   4.673   8.860   7.039  0.2965  0.3064 -0.1507
21403WAT     H187417   4.597   8.803   7.054  1.1376 -1.3742 -1.8293
21403WAT     H287418   4.700   8.887   7.127 -0.6078 -1.2782  0.6615
21403WAT    EPW87419   4.666   8.856   7.053  0.2882 -0.1235 -0.2654
21404WAT      O87420   3.863   7.839   4.348  0.0866  0.3813  0.6248
21404WAT     H187421   3.864   7.849   4.253  1.3053 -1.6915  0.3663
21404WAT     H287422   3.790   7.780   4.365  0.8365 -0.5313  0.7799
21404WAT    EPW87423   3.854   7.832   4.338  0.3462 -0.0124  0.6111
21405WAT      O87424  10.680   2.709   1.960 -0.3277  0.3560  0.3013
21405WAT     H187425  10.673   2.724   1.866 -1.4057  2.7623  0.7078
21405WAT     H287426  10.622   2.635   1.977  0.4775 -0.6231 -0.9832
21405WAT    EPW87427  10.672   2.701   1.950 -0.3638  0.5443  0.1855
21406WAT      O87428   9.015   0.069   5.443 -0.2549 -0.3485  0.1325
21406WAT     H187429   9.054  -0.017   5.433 -0.6362 -0.8418  2.3933
21406WAT     H287430   8.932   0.052   5.489 -1.5996  0.9891 -1.6340
21406WAT    EPW87431   9.009   0.055   5.447 -0.4826 -0.2371  0.1976
21407WAT      O87432   3.944  10.230   5.014  0.2123  0.2760 -0.2139
21407WAT     H187433   3.931  10.218   4.920  0.0312  0.3733 -0.2027
21407WAT     H287434   4.038  10.242   5.025  0.1802  0.7709 -0.4410
21407WAT    EPW87435   3.955  10.230   5.003  0.1843  0.3533 -0.2425
21408WAT      O87436   5.393   7.126   7.771 -0.1056  0.5137  0.2580
21408WAT     H187437   5.326   7.093   7.831 -1.5183  0.7288 -1.1308
21408WAT     H287438   5.344   7.174   7.704  1.3575  0.0897 -1.1953
21408WAT    EPW87439   5.378   7.128   7.770 -0.0989  0.4861 -0.1168
21409WAT      O87440   7.949   0.812   6.856 -0.8930 -0.2354  0.2067
21409WAT     H187441   7.931   0.865   6.934  1.1050  0.9610 -0.0853
21409WAT     H287442   7.920   0.868   6.784 -0.1189 -0.1357 -0.0315
21409WAT    EPW87443   7.943   0.826   6.857 -0.5274 -0.0645  0.1369
21410WAT      O87444   2.546   8.376   5.311  0.4156 -0.7234 -0.1469
21410WAT     H187445   2.580   8.323   5.238 -0.8359 -1.8827  0.0719
21410WAT     H287446   2.451   8.373   5.300  0.2693  0.2862  0.7341
21410WAT    EPW87447   2.538   8.368   5.300  0.2313 -0.7434 -0.0019
21411WAT      O87448   5.652   8.431   5.486 -0.7267  0.5635  0.6446
21411WAT     H187449   5.637   8.392   5.400 -2.4529 -1.3706  1.7137
21411WAT     H287450   5.565   8.455   5.517 -0.1805  0.9611  1.9489
21411WAT    EPW87451   5.639   8.429   5.479 -0.8824  0.3610  0.9573
21412WAT      O87452   5.457   9.208   8.692 -0.1873 -0.0992 -0.2569
21412WAT     H187453   5.369   9.232   8.663 -0.1594  0.5509  0.1747
21412WAT     H287454   5.454   9.113   8.700 -0.2980 -0.2795 -2.0136
21412WAT    EPW87455   5.445   9.199   8.689 -0.1981 -0.0372 -0.4315
21413WAT      O87456   7.353   9.082   5.075  0.6349 -0.1653 -0.2721
21413WAT     H187457   7.280   9.076   5.136  0.6685  3.8865  0.4344
21413WAT     H287458   7.423   9.124   5.126  2.3544 -0.9786 -1.8360
21413WAT    EPW87459   7.353   9.086   5.090  0.8659  0.2618 -0.3850
21414WAT      O87460   7.743   0.524   1.703  0.2829 -0.2376  0.6074
21414WAT     H187461   7.765   0.431   1.710  0.2386 -0.1536  2.4937
21414WAT     H287462   7.654   0.526   1.668  0.7357 -0.8348 -0.6279
21414WAT    EPW87463   7.734   0.512   1.699  0.3369 -0.3053  0.6932
21415WAT      O87464   4.324   5.980   7.699  0.0175 -0.1382  0.2647
21415WAT     H187465   4.402   5.926   7.684 -0.0925 -0.0314 -0.7536
21415WAT     H287466   4.264   5.957   7.627 -0.8366 -0.1176  0.9528
21415WAT    EPW87467   4.326   5.970   7.687 -0.1097 -0.1214  0.2213
21416WAT      O87468   5.577   6.937   7.223  0.5944 -0.2518 -0.6130
21416WAT     H187469   5.668   6.960   7.241  0.2744  1.5021 -1.0145
21416WAT     H287470   5.526   6.994   7.281 -0.2811  0.6562 -2.2020
21416WAT    EPW87471   5.582   6.947   7.233  0.4368  0.0994 -0.8757
21417WAT      O87472   5.527   7.469   6.824 -0.1482 -0.4507 -0.4872
21417WAT     H187473   5.497   7.497   6.737 -0.2822  2.2996  0.3589
21417WAT     H287474   5.619   7.446   6.811 -0.7192 -2.3190 -1.7493
21417WAT    EPW87475   5.535   7.470   6.811 -0.2410 -0.3343 -0.5422
21418WAT      O87476   1.319  10.114   5.162  0.3091  0.5257 -0.4950
21418WAT     H187477   1.235  10.121   5.208  1.1942 -0.2936  1.3345
21418WAT     H287478   1.296  10.077   5.076 -1.0484 -1.4303  0.6187
21418WAT    EPW87479   1.305  10.110   5.157  0.2468  0.1602 -0.1068
21419WAT      O87480   6.434   1.460   6.191 -0.7161  0.1496  0.4202
21419WAT     H187481   6.518   1.482   6.150 -1.9835 -0.0916 -2.5512
21419WAT     H287482   6.383   1.541   6.185 -1.2091 -0.1263  0.8647
21419WAT    EPW87483   6.439   1.474   6.185 -0.9484  0.0814  0.0870
21420WAT      O87484   9.492   1.058   3.171 -0.1591  0.4960  0.1597
21420WAT     H187485   9.406   1.097   3.185 -1.3147 -2.2811  1.7094
21420WAT     H287486   9.535   1.064   3.256  0.3443  0.0524 -0.0564
21420WAT    EPW87487   9.486   1.064   3.184 -0.2456  0.0713  0.3357
21421WAT      O87488   4.313   8.220   5.460  0.2316 -0.7547  0.3616
21421WAT     H187489   4.221   8.218   5.485  0.6887 -1.4851  2.1088
21421WAT     H287490   4.337   8.312   5.464 -0.9424 -0.2224 -2.3662
21421WAT    EPW87491   4.304   8.232   5.464  0.1366 -0.7811  0.2322
21422WAT      O87492   2.492  10.279   1.620 -0.3036 -0.3231  0.4088
21422WAT     H187493   2.581  10.312   1.616 -1.0933  2.1908  1.5797
21422WAT     H287494   2.452  10.308   1.538 -0.3899 -0.2995  0.4587
21422WAT    EPW87495   2.498  10.287   1.609 -0.4193  0.0114  0.5699
21423WAT      O87496   7.462   0.194   7.806  0.1040  0.1972  0.4238
21423WAT     H187497   7.400   0.139   7.758  0.1893 -0.5228  1.1144
21423WAT     H287498   7.415   0.276   7.820  0.6870  1.1251 -2.3939
21423WAT    EPW87499   7.447   0.197   7.801  0.1924  0.2246  0.1433
21424WAT      O87500   5.429  10.089   8.292  0.1517 -0.8780  0.7550
21424WAT     H187501   5.420  10.144   8.370  1.7854 -0.0362  0.3947
21424WAT     H287502   5.349  10.105   8.242  0.9099  1.8973  0.2520
21424WAT    EPW87503   5.418  10.099   8.296  0.4673 -0.4005  0.6409
21425WAT      O87504   7.070   0.020   3.951  0.5433  0.2995  0.6855
21425WAT     H187505   7.049   0.042   3.860 -4.8841  2.2740  2.0438
21425WAT     H287506   7.080   0.105   3.994 -1.0029 -0.4233  2.5794
21425WAT    EPW87507   7.069   0.034   3.944 -0.3765  0.4644  1.1145
21426WAT      O87508   7.955   1.458   7.905  1.2307 -0.2811 -0.0655
21426WAT     H187509   7.966   1.417   7.991  0.4902  0.9009  0.6197
21426WAT     H287510   8.044   1.480   7.878  1.4840 -0.7946  0.3197
21426WAT    EPW87511   7.968   1.456   7.913  1.1666 -0.1929  0.0758
21427WAT      O87512   3.573   7.514   8.221  0.1508 -0.0283 -0.8511
21427WAT     H187513   3.545   7.445   8.282  0.8672 -0.5954 -1.1424
21427WAT     H287514   3.612   7.581   8.276  0.1573 -0.2206 -0.6192
21427WAT    EPW87515   3.575   7.514   8.236  0.2460 -0.1283 -0.8588
21428WAT      O87516   2.462   5.172   0.626  0.7380  0.5141 -0.0775
21428WAT     H187517   2.553   5.194   0.607  1.7353 -0.5751  2.9177
21428WAT     H287518   2.450   5.196   0.717 -2.0081  0.5556 -0.3743
21428WAT    EPW87519   2.473   5.178   0.635  0.5072  0.3762  0.2784
21429WAT      O87520   4.907   6.985   5.362  0.0265  0.4070 -0.1908
21429WAT     H187521   4.896   7.054   5.297  0.6343  0.2501 -0.4618
21429WAT     H287522   4.998   6.994   5.392 -0.1319  0.2352  0.3624
21429WAT    EPW87523   4.917   6.995   5.358  0.0856  0.3638 -0.1535
21430WAT      O87524   5.204  10.257   6.052  0.0854  0.0299 -0.5668
21430WAT     H187525   5.196  10.257   6.147 -1.9276  1.4014 -0.6801
21430WAT     H287526   5.255  10.178   6.032  0.6464 -0.2207  1.6215
21430WAT    EPW87527   5.210  10.247   6.062 -0.1061  0.1779 -0.2930
21431WAT      O87528   4.905   8.912   8.635 -0.4294 -0.6307 -0.3362
21431WAT     H187529   4.892   8.853   8.710  1.0977 -1.6777 -0.8532
21431WAT     H287530   5.000   8.917   8.625 -0.5656  0.8411 -1.1869
21431WAT    EPW87531   4.916   8.905   8.644 -0.2458 -0.5746 -0.5169
21432WAT      O87532   5.510  10.006   3.179 -0.6969  0.2191  0.4943
21432WAT     H187533   5.425   9.993   3.221 -0.3068 -1.5445  0.8142
21432WAT     H287534   5.542  10.088   3.215 -1.5337  0.0664  1.6385
21432WAT    EPW87535   5.503  10.015   3.189 -0.7555 -0.0339  0.6874
21433WAT      O87536   0.310   2.861   5.349 -0.7421 -0.2470  0.0157
21433WAT     H187537   0.223   2.901   5.356 -0.8460 -0.7411  2.3973
21433WAT     H287538   0.357   2.894   5.425  0.8988 -0.6932 -0.7660
21433WAT    EPW87539   0.305   2.871   5.360 -0.5394 -0.3711  0.2265
21434WAT      O87540   5.501   7.424   7.186  0.0500 -0.2334  0.2079
21434WAT     H187541   5.444   7.486   7.142 -1.6319 -2.0942 -0.3773
21434WAT     H287542   5.449   7.343   7.192  1.2614 -0.9406  3.0062
21434WAT    EPW87543   5.487   7.421   7.181 -0.0117 -0.5720  0.5000
21435WAT      O87544   3.656   7.149   5.194  0.1424 -0.5046 -0.2455
21435WAT     H187545   3.684   7.228   5.147 -1.0528  0.5239  0.6992
21435WAT     H287546   3.659   7.079   5.128 -0.9267  0.7712 -1.7322
21435WAT    EPW87547   3.660   7.150   5.179 -0.1562 -0.2007 -0.3169
21436WAT      O87548   6.868   8.034   6.236 -0.0170  0.5066 -0.7866
21436WAT     H187549   6.850   8.039   6.330 -2.4223 -0.7374 -1.0859
21436WAT     H287550   6.952   7.988   6.230  0.1262  0.4942  0.7438
21436WAT    EPW87551   6.876   8.029   6.248 -0.3152  0.3405 -0.6244
21437WAT      O87552   5.430   7.313   3.912 -0.4856  0.5573 -0.0285
21437WAT     H187553   5.365   7.331   3.980  1.4418 -0.8041  2.3326
21437WAT     H287554   5.394   7.238   3.864 -0.4671 -0.5712  1.6297
21437WAT    EPW87555   5.417   7.305   3.915 -0.2289  0.2291  0.5015
21438WAT      O87556   4.508   9.246   3.303  0.7600  0.5551 -0.6228
21438WAT     H187557   4.451   9.179   3.265 -0.8959  0.6229  1.5534
21438WAT     H287558   4.576   9.196   3.349  1.2665  0.4593 -1.4391
21438WAT    EPW87559   4.510   9.231   3.304  0.6084  0.5522 -0.4435
21439WAT      O87560   4.711   9.015   5.467 -0.6708 -0.3539 -0.1466
21439WAT     H187561   4.691   8.921   5.464  1.0569 -0.7525 -0.2178
21439WAT     H287562   4.800   9.022   5.432  0.3617  0.9449  2.4196
21439WAT    EPW87563   4.720   9.003   5.462 -0.3066 -0.2356  0.1826
21440WAT      O87564   1.741   9.438   4.541  0.2567 -0.1722 -0.2525
21440WAT     H187565   1.672   9.425   4.607  1.5491  1.8480  1.6253
21440WAT     H287566   1.731   9.529   4.513  1.2047 -0.3252 -1.1503
21440WAT    EPW87567   1.730   9.448   4.546  0.5522  0.0744 -0.1233
21441WAT      O87568   6.444   1.719   4.221 -0.0424  0.2483  0.0573
21441WAT     H187569   6.459   1.679   4.135  1.2694  0.2689  0.2472
21441WAT     H287570   6.454   1.813   4.205  0.7981  0.2159  0.3191
21441WAT    EPW87571   6.448   1.726   4.207  0.2415  0.2467  0.1171
21442WAT      O87572   6.142   6.559   4.026 -0.2365 -0.4914  0.8079
21442WAT     H187573   6.198   6.506   3.970  0.4293  0.4702  0.5421
21442WAT     H287574   6.194   6.575   4.105 -0.9407 -1.3378  1.4636
21442WAT    EPW87575   6.156   6.554   4.029 -0.2413 -0.4761  0.8593
21443WAT      O87576   4.430   2.751   0.110  0.0933 -0.1240 -0.3372
21443WAT     H187577   4.437   2.768   0.016  2.2950 -0.8729 -0.3672
21443WAT     H287578   4.447   2.657   0.119 -1.9016 -0.4522  0.6934
21443WAT    EPW87579   4.433   2.741   0.099  0.1206 -0.2661 -0.2052
21444WAT      O87580   4.276   9.656   5.714  0.7460  0.2176 -0.6882
21444WAT     H187581   4.336   9.694   5.778  0.7644 -1.5999  0.4645
21444WAT     H287582   4.198   9.712   5.718  0.2541 -0.5118  1.8857
21444WAT    EPW87583   4.274   9.668   5.723  0.6835 -0.1183 -0.1969
21445WAT      O87584   4.320   7.914   7.518 -0.9317 -0.1731 -0.1806
21445WAT     H187585   4.373   7.975   7.467 -0.2631 -0.3846  0.2555
21445WAT     H287586   4.230   7.947   7.508 -0.4897  1.4797  0.8344
21445WAT    EPW87587   4.315   7.926   7.510 -0.7851  0.0169  0.0107
21446WAT      O87588   8.040   1.385   4.276  0.7442  0.2700  0.1158
21446WAT     H187589   7.963   1.329   4.269 -0.0620  1.1763  1.3258
21446WAT     H287590   8.012   1.469   4.238  0.9678  0.7531  1.0057
21446WAT    EPW87591   8.026   1.389   4.270  0.6671  0.4532  0.3927
21447WAT      O87592   3.890   7.237   2.907 -0.4801 -0.0087  0.0317
21447WAT     H187593   3.949   7.198   2.971 -1.0112  0.8139  1.0501
21447WAT     H287594   3.930   7.216   2.822  2.2698  1.9715  0.6724
21447WAT    EPW87595   3.903   7.229   2.904 -0.1875  0.3610  0.2505
21448WAT      O87596   9.021   0.472   4.928 -0.6023 -0.0053  0.2043
21448WAT     H187597   8.941   0.522   4.912 -0.6146 -0.0610  0.0874
21448WAT     H287598   8.996   0.407   4.993 -0.8887 -0.6124 -0.5054
21448WAT    EPW87599   9.008   0.470   4.934 -0.6413 -0.0927  0.0949
21449WAT      O87600   3.521   7.790   5.485  0.1673  0.3536  0.1275
21449WAT     H187601   3.513   7.859   5.421  0.9111  1.0204  0.7373
21449WAT     H287602   3.500   7.832   5.569  0.5755 -0.1594  0.4976
21449WAT    EPW87603   3.517   7.804   5.488  0.3191  0.3736  0.2565
21450WAT      O87604   8.031   0.587   4.770 -0.2588 -0.1967  0.7246
21450WAT     H187605   8.113   0.602   4.817  0.1029 -0.4931  0.1938
21450WAT     H287606   8.034   0.648   4.696  0.5077 -1.7314 -0.5568
21450WAT    EPW87607   8.042   0.597   4.766 -0.1097 -0.4383  0.4854
21451WAT      O87608   2.694   8.933   5.567  0.2606  0.5633  0.0575
21451WAT     H187609   2.679   8.876   5.492  2.2464 -0.8132  0.6195
21451WAT     H287610   2.660   8.884   5.641 -0.5616  1.3708  0.2269
21451WAT    EPW87611   2.688   8.919   5.567  0.4141  0.4883  0.1540
21452WAT      O87612  10.105   0.397   3.924  0.1272  0.0664 -0.4447
21452WAT     H187613  10.194   0.411   3.957  2.1341  0.3814 -5.1638
21452WAT     H287614  10.057   0.360   3.998  3.7977  1.0204  2.7117
21452WAT    EPW87615  10.111   0.394   3.938  0.8759  0.2338 -0.6506
21453WAT      O87616   4.972   9.285   3.086 -0.0952  0.4202  0.8283
21453WAT     H187617   4.991   9.320   3.000  1.0589  1.9984  1.6695
21453WAT     H287618   5.005   9.195   3.084 -1.0160  0.0744 -0.6536
21453WAT    EPW87619   4.979   9.278   3.075 -0.0644  0.5827  0.7437
21454WAT      O87620   2.950  10.365   4.849 -0.1637 -0.0146  0.1061
21454WAT     H187621   3.033  10.348   4.894 -0.0476 -0.7364 -0.3618
21454WAT     H287622   2.947  10.460   4.839  1.1314 -0.0450 -0.8190
21454WAT    EPW87623   2.961  10.375   4.854  0.0224 -0.1137 -0.0775
21455WAT      O87624   3.799   8.974   3.407  0.2313 -0.1214  0.4668
21455WAT     H187625   3.748   8.916   3.350 -0.1253 -0.5532  1.2001
21455WAT     H287626   3.751   8.973   3.490  0.1811  1.2893  0.4793
21455WAT    EPW87627   3.786   8.966   3.410  0.1776  0.0081  0.5652
21456WAT      O87628   3.330   9.615   4.962 -0.9681  0.7399 -0.1655
21456WAT     H187629   3.334   9.657   5.048 -1.4313  0.0074  0.2203
21456WAT     H287630   3.347   9.523   4.979 -0.8021  0.6323 -0.8967
21456WAT    EPW87631   3.332   9.608   4.976 -1.0072  0.6294 -0.2112
21457WAT      O87632   5.732   9.914   3.889 -0.5570 -0.0469 -0.0149
21457WAT     H187633   5.714  10.008   3.890 -3.1464 -0.4734 -0.7088
21457WAT     H287634   5.653   9.874   3.854 -0.5063 -2.7226  2.4885
21457WAT    EPW87635   5.720   9.921   3.885 -0.8922 -0.4563  0.2238
21458WAT      O87636   2.995   9.873   2.747 -0.0661 -0.6052 -0.0971
21458WAT     H187637   3.021   9.955   2.789 -0.0290 -0.5912 -0.1477
21458WAT     H287638   2.949   9.900   2.668 -0.5001 -0.6222  0.1474
21458WAT    EPW87639   2.992   9.888   2.742 -0.1185 -0.6056 -0.0715
21459WAT      O87640   5.656   7.211   4.272 -0.1267  0.0259  0.3790
21459WAT     H187641   5.581   7.202   4.330 -0.1021 -1.1413  0.2506
21459WAT     H287642   5.654   7.302   4.244 -1.3442  0.0768  0.5893
21459WAT    EPW87643   5.646   7.222   4.276 -0.2842 -0.1211  0.3896
21460WAT      O87644   3.876   6.927   5.845  0.1910 -0.1734 -0.0968
21460WAT     H187645   3.969   6.908   5.832  0.2891  0.5017 -0.4135
21460WAT     H287646   3.868   7.020   5.827 -1.0604 -0.7126 -3.1127
21460WAT    EPW87647   3.887   6.937   5.841  0.0387 -0.1557 -0.5360
21461WAT      O87648   2.186   8.613   5.063 -0.3119  0.7384  0.8944
21461WAT     H187649   2.202   8.526   5.099  0.0696  0.2916 -0.2972
21461WAT     H287650   2.243   8.671   5.113 -1.0806  0.4235  2.1611
21461WAT    EPW87651   2.196   8.610   5.074 -0.3629  0.6375  0.9046
21462WAT      O87652   1.947   6.507   4.688 -0.0452 -0.3877  0.3973
21462WAT     H187653   2.001   6.444   4.737  2.0336  1.1593  0.2349
21462WAT     H287654   1.890   6.546   4.755  0.2886 -0.8093  0.9391
21462WAT    EPW87655   1.947   6.504   4.703  0.2730 -0.2394  0.4473
21463WAT      O87656   4.892   6.208   3.499  0.0471  0.4274  0.0426
21463WAT     H187657   4.972   6.249   3.467  0.4813 -1.2359 -1.1387
21463WAT     H287658   4.885   6.235   3.590  1.0568  1.9050 -0.2775
21463WAT    EPW87659   4.901   6.217   3.507  0.2375  0.4029 -0.1553
21464WAT      O87660   5.099   8.538   3.867 -0.1424 -0.0205  0.1943
21464WAT     H187661   5.012   8.557   3.900 -1.0461  0.7549 -2.3884
21464WAT     H287662   5.107   8.442   3.872 -0.7730 -0.0195  1.2770
21464WAT    EPW87663   5.089   8.527   3.872 -0.3445  0.0815 -0.0035
21465WAT      O87664   5.711   6.585   5.563 -0.1612 -0.7807  0.3613
21465WAT     H187665   5.708   6.580   5.659  0.7147  0.1886  0.4509
21465WAT     H287666   5.795   6.547   5.539  1.0388  1.7593  0.2297
21465WAT    EPW87667   5.721   6.579   5.573  0.1125 -0.3181  0.3557
21466WAT      O87668   2.822   8.415   4.791 -0.5016  0.4314 -0.5086
21466WAT     H187669   2.749   8.444   4.846 -1.0020 -0.1651 -0.8487
21466WAT     H287670   2.847   8.330   4.828 -0.7656  0.0802 -1.1192
21466WAT    EPW87671   2.815   8.408   4.803 -0.6024  0.3061 -0.6340
21467WAT      O87672   7.043   8.070   3.364 -0.8781  0.4044  1.1730
21467WAT     H187673   7.091   8.065   3.282 -2.9955 -1.5205 -0.0656
21467WAT     H287674   7.097   8.021   3.426 -0.3802 -0.1781  0.3060
21467WAT    EPW87675   7.057   8.063   3.361 -1.0917  0.0734  0.8954
21468WAT      O87676   3.678   9.895   6.656  0.0801  0.0581 -0.1933
21468WAT     H187677   3.676   9.872   6.749  1.0444  0.2303 -0.1264
21468WAT     H287678   3.710   9.985   6.655  4.2997 -1.2712 -0.9083
21468WAT    EPW87679   3.682   9.904   6.668  0.7638 -0.0944 -0.2787
21469WAT      O87680   7.081   6.218   4.838  0.7060  0.5704  0.0666
21469WAT     H187681   7.165   6.180   4.814  0.9396 -0.3864  2.1429
21469WAT     H287682   7.021   6.192   4.769  1.1143 -2.7267  0.8038
21469WAT    EPW87683   7.084   6.210   4.826  0.7906  0.0095  0.4377
21470WAT      O87684   3.403   8.459   4.937 -0.2355  0.3379  0.1034
21470WAT     H187685   3.322   8.444   4.887  0.6215 -0.2304 -1.1828
21470WAT     H287686   3.408   8.555   4.945  0.2885  0.5740 -2.1843
21470WAT    EPW87687   3.393   8.470   4.931 -0.0533  0.2937 -0.3681
21471WAT      O87688   3.388   7.727   3.948  0.6525 -0.3390  0.3670
21471WAT     H187689   3.413   7.796   4.009  0.6345  0.7300 -0.7860
21471WAT     H287690   3.403   7.765   3.861 -1.2311 -1.0727 -0.3306
21471WAT    EPW87691   3.393   7.741   3.944  0.4016 -0.2947  0.1229
21472WAT      O87692   2.959   9.077   3.788 -0.5590 -0.2706  0.3808
21472WAT     H187693   2.945   9.132   3.865 -0.4667 -0.3928  0.4859
21472WAT     H287694   3.039   9.029   3.808 -0.4230 -0.1572  0.1241
21472WAT    EPW87695   2.968   9.078   3.801 -0.5287 -0.2723  0.3608
21473WAT      O87696   3.375   9.625   6.116  0.3167  0.0076  0.4374
21473WAT     H187697   3.328   9.595   6.039 -0.2810 -1.0252  1.1724
21473WAT     H287698   3.343   9.714   6.131  2.3443  1.2688 -1.9585
21473WAT    EPW87699   3.365   9.633   6.108  0.5053  0.0377  0.2184
21474WAT      O87700   7.527   0.316   6.431 -1.2527 -0.1594  0.6673
21474WAT     H187701   7.557   0.233   6.468  0.9272 -0.1749 -0.9430
21474WAT     H287702   7.489   0.292   6.346 -0.5130  0.4698  0.1453
21474WAT    EPW87703   7.526   0.302   6.424 -0.8674 -0.0785  0.3862
21475WAT      O87704   3.642   8.178   8.698  0.0397  0.3633  0.8243
21475WAT     H187705   3.589   8.124   8.639  0.9734  1.0102 -0.6534
21475WAT     H287706   3.586   8.191   8.775 -0.6563 -1.6942  0.7224
21475WAT    EPW87707   3.628   8.173   8.701  0.0710  0.1774  0.6156
21476WAT      O87708   6.867   9.044   0.903 -0.0631 -0.4781 -0.1221
21476WAT     H187709   6.882   9.100   0.827  1.0521 -0.8440 -0.1898
21476WAT     H287710   6.775   9.019   0.896 -0.5731  1.2563 -0.1294
21476WAT    EPW87711   6.857   9.048   0.892  0.0165 -0.2975 -0.1320
21477WAT      O87712   1.032   6.632   7.086  0.2798  0.1629 -0.2353
21477WAT     H187713   0.968   6.695   7.051  1.7532  0.2364 -3.0092
21477WAT     H287714   1.076   6.596   7.009  2.1490 -1.4652  1.4716
21477WAT    EPW87715   1.029   6.636   7.071  0.7206 -0.0422 -0.3762
21478WAT      O87716   4.727   7.501   4.812  0.4772 -0.5058 -0.8702
21478WAT     H187717   4.654   7.485   4.753 -0.0887  1.9625 -0.9504
21478WAT     H287718   4.691   7.559   4.879  2.4936  1.4174 -1.3438
21478WAT    EPW87719   4.713   7.507   4.813  0.6685  0.0732 -0.9434
21479WAT      O87720   4.764   2.193   2.807 -0.1671 -0.4510  0.0868
21479WAT     H187721   4.698   2.235   2.862 -0.1457 -1.6500  1.0849
21479WAT     H287722   4.750   2.229   2.720 -1.3908  0.1539  0.5162
21479WAT    EPW87723   4.754   2.204   2.803 -0.3257 -0.5293  0.2751
21480WAT      O87724   5.272   9.158   4.148  0.1087 -0.2287  0.0450
21480WAT     H187725   5.319   9.238   4.124  0.6942  0.1551  2.2478
21480WAT     H287726   5.331   9.087   4.125 -0.8387 -0.1834 -2.9168
21480WAT    EPW87727   5.286   9.159   4.142  0.0610 -0.1721 -0.0553
21481WAT      O87728   4.270  10.140   3.606  0.0793  0.0720  0.0329
21481WAT     H187729   4.288  10.113   3.516 -3.2797  1.7236 -1.3216
21481WAT     H287730   4.301  10.068   3.660  2.0968 -1.0369 -2.4172
21481WAT    EPW87731   4.277  10.127   3.601 -0.0978  0.1431 -0.4690
21482WAT      O87732   3.859   6.847   6.402  0.8683  0.2977 -0.0033
21482WAT     H187733   3.828   6.930   6.439  1.4863  1.4503 -1.9088
21482WAT     H287734   3.779   6.800   6.378  0.3722 -0.9836  3.5240
21482WAT    EPW87735   3.845   6.852   6.404  0.8844  0.2809  0.2105
21483WAT      O87736   0.340   1.115   2.429  0.2608 -0.2540 -0.0178
21483WAT     H187737   0.420   1.147   2.470  1.3088  1.7821 -3.3233
21483WAT     H287738   0.367   1.084   2.343 -2.3964 -0.2388 -0.9568
21483WAT    EPW87739   0.354   1.115   2.423  0.0485  0.0166 -0.5777
21484WAT      O87740   5.532   9.555   7.079  0.1151  0.5572  0.3423
21484WAT     H187741   5.534   9.594   6.992 -0.0728 -0.5470 -0.1643
21484WAT     H287742   5.616   9.509   7.087 -0.1496  0.0969  0.4801
21484WAT    EPW87743   5.543   9.554   7.069  0.0556  0.3505  0.2937
21485WAT      O87744   5.116   8.083   3.628 -0.6103 -0.3344 -0.0983
21485WAT     H187745   5.159   8.071   3.713  0.0308  1.3675 -0.1455
21485WAT     H287746   5.036   8.132   3.648 -0.5850 -0.1477 -0.4500
21485WAT    EPW87747   5.111   8.088   3.642 -0.5224 -0.0854 -0.1508
21486WAT      O87748   4.214   6.901   8.084  0.1803 -0.0790  0.0376
21486WAT     H187749   4.246   6.844   8.015  0.6181  1.3384 -0.9898
21486WAT     H287750   4.263   6.876   8.161  1.3540 -0.1864 -0.7189
21486WAT    EPW87751   4.224   6.890   8.085  0.3929  0.0939 -0.1979
21487WAT      O87752   6.782  10.198   8.063 -0.3370 -0.5962  0.7626
21487WAT     H187753   6.761  10.256   7.989  0.8140  1.5314  1.9763
21487WAT     H287754   6.777  10.255   8.140  3.4924 -1.3440  1.7812
21487WAT    EPW87755   6.779  10.213   8.063  0.3197 -0.4144  1.0567
21488WAT      O87756   2.966   7.751   4.838 -0.2643  1.1038 -0.3412
21488WAT     H187757   2.983   7.845   4.828 -2.1794  1.2656 -3.4893
21488WAT     H287758   2.879   7.738   4.800  0.0136 -1.9876 -0.2038
21488WAT    EPW87759   2.957   7.762   4.832 -0.4803  0.7176 -0.7384
21489WAT      O87760   2.925   7.515   1.149 -0.2626 -0.2724 -0.3910
21489WAT     H187761   2.850   7.472   1.190  0.3454 -1.0192 -0.0248
21489WAT     H287762   2.996   7.452   1.157  0.5186  0.5810 -0.3514
21489WAT    EPW87763   2.925   7.501   1.156 -0.0794 -0.2582 -0.3374
21490WAT      O87764   6.574   5.720   6.791 -0.4340  0.4768 -0.0807
21490WAT     H187765   6.526   5.722   6.708 -0.3739 -0.9002 -0.1608
21490WAT     H287766   6.641   5.653   6.779  0.9051  1.6798  0.3837
21490WAT    EPW87767   6.576   5.712   6.778 -0.2494  0.4537 -0.0300
21491WAT      O87768   0.919   8.947   3.683 -0.8986  0.4770 -0.8185
21491WAT     H187769   0.856   9.009   3.722 -0.0810  0.4691  0.5562
21491WAT     H287770   0.900   8.951   3.589 -3.3374  0.0621 -0.4325
21491WAT    EPW87771   0.908   8.956   3.676 -1.1124  0.4215 -0.5863
21492WAT      O87772   3.285   7.320   7.444 -0.3153  0.1417 -0.2281
21492WAT     H187773   3.271   7.272   7.526  2.2790 -0.6931 -0.1900
21492WAT     H287774   3.273   7.412   7.469  1.9876  0.0508  1.5801
21492WAT    EPW87775   3.281   7.326   7.458  0.3307  0.0198  0.0155
21493WAT      O87776   3.051   9.467   7.557 -0.4426  0.4991  0.1672
21493WAT     H187777   3.073   9.539   7.616 -1.3352  1.9562 -1.2209
21493WAT     H287778   3.084   9.494   7.472  1.9518 -2.1202  0.1231
21493WAT    EPW87779   3.058   9.480   7.553 -0.2445  0.3462 -0.0215
21494WAT      O87780   3.701   7.341   3.747  0.0622 -0.4730 -0.1124
21494WAT     H187781   3.771   7.362   3.809 -1.4772 -0.5182  1.7456
21494WAT     H287782   3.620   7.364   3.793 -1.1659  0.0779 -2.3709
21494WAT    EPW87783   3.699   7.347   3.761 -0.3029 -0.4063 -0.1652
21495WAT      O87784   2.064   8.909   4.107  0.1282 -0.1431 -0.4811
21495WAT     H187785   2.104   8.884   4.024  0.8027 -1.5068  0.2128
21495WAT     H287786   2.121   8.977   4.142 -0.7160  1.1673 -1.5622
21495WAT    EPW87787   2.077   8.915   4.101  0.1057 -0.1507 -0.5322
21496WAT      O87788   6.678   0.790   3.243 -0.2476  0.4097  0.2511
21496WAT     H187789   6.772   0.801   3.252 -0.2585  0.8147 -0.0962
21496WAT     H287790   6.642   0.878   3.258 -0.5272  0.3646 -0.1525
21496WAT    EPW87791   6.685   0.803   3.246 -0.2861  0.4571  0.1520
21497WAT      O87792   9.829   0.306   5.333 -0.3984 -0.3081 -0.3299
21497WAT     H187793   9.804   0.264   5.415 -2.5504  0.5358 -0.4862
21497WAT     H287794   9.915   0.345   5.351 -0.7861 -0.2284  1.5000
21497WAT    EPW87795   9.837   0.306   5.346 -0.7334 -0.1863 -0.1090
21498WAT      O87796   4.234   6.392   8.081  0.2411 -0.2917  0.3096
21498WAT     H187797   4.280   6.436   8.009  0.3990 -0.4417  0.3175
21498WAT     H287798   4.195   6.463   8.132  0.9832 -0.1193  0.6521
21498WAT    EPW87799   4.235   6.407   8.079  0.3595 -0.2887  0.3557
21499WAT      O87800   6.799   8.766   3.237  0.1997  0.1215  0.3220
21499WAT     H187801   6.860   8.830   3.275  0.7158  1.5598 -2.6503
21499WAT     H287802   6.717   8.814   3.225  0.1636 -0.1537 -0.6708
21499WAT    EPW87803   6.796   8.781   3.241  0.2632  0.2747 -0.2009
21500WAT      O87804   6.355   6.617   6.647 -0.4088  0.0172  0.3122
21500WAT     H187805   6.361   6.560   6.724  2.2223  2.5521  2.1979
21500WAT     H287806   6.362   6.558   6.572  0.4004 -2.2855  2.0965
21500WAT    EPW87807   6.357   6.602   6.647  0.0448  0.0477  0.7961
21501WAT      O87808   7.017   7.597   6.440  0.5829  0.3524 -0.5229
21501WAT     H187809   7.008   7.523   6.500  1.2895 -0.3776 -1.2697
21501WAT     H287810   6.951   7.582   6.373 -1.0665  1.8448  0.6931
21501WAT    EPW87811   7.007   7.585   6.439  0.4585  0.4530 -0.4609
21502WAT      O87812   5.323   9.411   3.401 -0.5685  0.0062  0.1180
21502WAT     H187813   5.271   9.452   3.470 -1.5602  2.6634 -2.0500
21502WAT     H287814   5.401   9.379   3.447 -1.5494  0.8776  2.5880
21502WAT    EPW87815   5.327   9.412   3.416 -0.8287  0.4716  0.1578
21503WAT      O87816   8.904   1.259   4.997  0.7619  0.1074 -0.5896
21503WAT     H187817   8.973   1.196   5.017 -0.0440 -0.6108 -0.0330
21503WAT     H287818   8.824   1.207   4.991  0.0383  1.0936  0.0963
21503WAT    EPW87819   8.902   1.244   4.999  0.5603  0.1428 -0.4256
21504WAT      O87820   3.962  10.310   2.271 -0.2059 -0.4481 -0.0529
21504WAT     H187821   3.925  10.398   2.284  1.3145  0.0740  0.9817
21504WAT     H287822   4.049  10.326   2.235 -0.4141 -1.6018 -1.1416
21504WAT    EPW87823   3.969  10.324   2.268 -0.0328 -0.5317 -0.0601
21505WAT      O87824   4.273   9.116   7.089  0.2356  0.3312  0.2084
21505WAT     H187825   4.216   9.135   7.164  0.8969  1.2375  0.5022
21505WAT     H287826   4.362   9.115   7.127  0.5189  0.1192 -0.4505
21505WAT    EPW87827   4.278   9.118   7.104  0.3600  0.4230  0.1602
21506WAT      O87828   2.283   7.294   6.632  0.3466 -0.3118  0.6103
21506WAT     H187829   2.261   7.226   6.696  2.3431 -0.6660  0.9698
21506WAT     H287830   2.370   7.323   6.657  1.2918 -0.5907 -2.0653
21506WAT    EPW87831   2.291   7.289   6.644  0.7344 -0.3955  0.3047
21507WAT      O87832   3.562   7.746   6.873  0.1954  0.3626 -0.2482
21507WAT     H187833   3.519   7.667   6.905  0.8494  0.1158  0.0480
21507WAT     H287834   3.572   7.732   6.779  2.0889 -0.8023  0.0890
21507WAT    EPW87835   3.558   7.734   6.865  0.5313  0.1762 -0.1643
21508WAT      O87836   2.198  10.070   7.131 -0.2582  0.1618  0.4972
21508WAT     H187837   2.205  10.091   7.038  0.1890 -0.7736  0.3081
21508WAT     H287838   2.206   9.975   7.135  2.3448  0.3499  1.7135
21508WAT    EPW87839   2.200  10.060   7.120  0.1442  0.0634  0.6328
21509WAT      O87840   7.723   9.071   5.253  0.0811  0.0695  1.2040
21509WAT     H187841   7.803   9.090   5.204 -0.8125  0.5862 -0.1066
21509WAT     H287842   7.725   8.976   5.268  1.2039  0.1576  1.7062
21509WAT    EPW87843   7.734   9.061   5.249  0.1113  0.1493  1.0972
21510WAT      O87844   5.577   7.134   6.632  0.8214  0.5645  0.2816
21510WAT     H187845   5.602   7.189   6.707  0.9943  1.2410 -0.2626
21510WAT     H287846   5.644   7.151   6.566  1.3308 -0.9317  0.3799
21510WAT    EPW87847   5.589   7.144   6.633  0.9112  0.4566  0.2229
21511WAT      O87848   7.397   1.031   0.300 -0.1457 -0.8234  0.2346
21511WAT     H187849   7.423   1.121   0.284 -0.9664 -0.9643 -2.4351
21511WAT     H287850   7.379   1.027   0.394  0.3272  1.6522  0.4854
21511WAT    EPW87851   7.398   1.042   0.310 -0.1917 -0.5155 -0.0844
21512WAT      O87852   5.286   5.939   7.975 -0.3242  0.4043  0.2331
21512WAT     H187853   5.308   5.876   8.043  1.8829  1.5384  0.6723
21512WAT     H287854   5.276   6.022   8.022 -0.2320  0.9298 -0.6477
21512WAT    EPW87855   5.288   5.942   7.990 -0.0210  0.6232  0.1750
21513WAT      O87856   3.038   8.687   3.366  0.0267 -0.5476 -0.3071
21513WAT     H187857   3.114   8.662   3.313  2.6404  1.5739  2.1123
21513WAT     H287858   3.002   8.764   3.322  0.8213 -0.1000 -0.1874
21513WAT    EPW87859   3.043   8.694   3.353  0.4762 -0.2089  0.0278
21514WAT      O87860   4.219  10.308   7.290  0.8619  0.4820 -0.1044
21514WAT     H187861   4.283  10.378   7.292  1.7684 -0.3491  2.0274
21514WAT     H287862   4.248  10.246   7.357 -0.2914 -1.5959 -1.4123
21514WAT    EPW87863   4.231  10.309   7.299  0.8295  0.0982  0.0043
21515WAT      O87864   4.377   7.557   7.051 -0.4084 -0.0049  0.0790
21515WAT     H187865   4.290   7.552   7.012 -0.3985  2.2532 -0.3744
21515WAT     H287866   4.378   7.642   7.096  2.9303  2.1782 -3.5529
21515WAT    EPW87867   4.366   7.568   7.052  0.0331  0.5808 -0.4597
21516WAT      O87868   3.712   6.380   2.098  0.3974 -0.6713 -0.4496
21516WAT     H187869   3.736   6.288   2.106  0.1891 -0.7821 -1.0465
21516WAT     H287870   3.628   6.378   2.051 -1.1029 -0.3408  2.0256
21516WAT    EPW87871   3.704   6.367   2.093  0.1720 -0.6425 -0.2017
21517WAT      O87872   3.801   7.637   6.482  0.6368 -0.3069  0.1872
21517WAT     H187873   3.768   7.616   6.569 -0.4598  2.4621  0.5343
21517WAT     H287874   3.743   7.591   6.422  2.9396 -4.4516  0.7142
21517WAT    EPW87875   3.789   7.628   6.486  0.7960 -0.4883  0.3028
21518WAT      O87876   5.555   6.671   6.688 -0.7844 -0.7426  0.5091
21518WAT     H187877   5.599   6.603   6.739  0.2265  0.4095  1.2047
21518WAT     H287878   5.512   6.622   6.617  1.2982 -1.9879  0.0022
21518WAT    EPW87879   5.555   6.655   6.685 -0.3765 -0.7548  0.5338
21519WAT      O87880   1.159   2.577   1.574  0.1353 -0.5016 -0.3771
21519WAT     H187881   1.252   2.598   1.582  0.0641  0.4677 -1.7442
21519WAT     H287882   1.143   2.572   1.480 -1.1359 -1.0056 -0.1622
21519WAT    EPW87883   1.169   2.579   1.563 -0.0417 -0.4404 -0.5291
21520WAT      O87884   4.218  10.068   7.867 -0.1920 -0.2978 -0.2137
21520WAT     H187885   4.193  10.039   7.954  2.3422 -0.5127  0.5328
21520WAT     H287886   4.252   9.989   7.824 -0.8379 -0.0690 -1.1857
21520WAT    EPW87887   4.219  10.054   7.873  0.0570 -0.2956 -0.2437
21521WAT      O87888   3.673   9.040   6.394 -0.1697  1.5793  0.3901
21521WAT     H187889   3.768   9.044   6.405  0.1478  1.0502 -1.7309
21521WAT     H287890   3.643   9.125   6.426  1.2724  2.6071 -0.7889
21521WAT    EPW87891   3.682   9.052   6.400  0.0623  1.6451 -0.0453
21522WAT      O87892   1.836   3.325   0.948  0.4661  0.1674  0.2426
21522WAT     H187893   1.904   3.309   1.014  2.6769 -0.4365 -2.0191
21522WAT     H287894   1.770   3.258   0.965 -0.3457  1.5520  3.3010
21522WAT    EPW87895   1.836   3.314   0.959  0.6507  0.2704  0.3476
21523WAT      O87896   2.329   4.305   5.974 -0.0167 -0.2782  0.5179
21523WAT     H187897   2.354   4.361   6.048 -1.6859 -0.8262  1.5616
21523WAT     H287898   2.240   4.333   5.953  0.2563 -0.4755 -0.9853
21523WAT    EPW87899   2.320   4.316   5.981 -0.2009 -0.3762  0.4575
21524WAT      O87900   7.355   7.748   4.998  0.1159 -0.3934 -1.0172
21524WAT     H187901   7.276   7.748   4.944 -1.3794  1.3403  0.9953
21524WAT     H287902   7.416   7.806   4.952 -1.9112  2.8153  0.0153
21524WAT    EPW87903   7.353   7.756   4.985 -0.3486  0.2584 -0.6156
21525WAT      O87904   6.532   7.043   3.690  1.0489 -0.3920  0.0152
21525WAT     H187905   6.535   7.038   3.786 -0.6324 -1.5331  0.0515
21525WAT     H287906   6.457   7.100   3.672  0.3502 -1.4776 -0.6041
21525WAT    EPW87907   6.522   7.050   3.700  0.7350 -0.6857 -0.0618
21526WAT      O87908   4.632   0.936   3.254  0.3086  0.0797  0.1768
21526WAT     H187909   4.676   0.850   3.255  1.4103  0.6107 -0.8747
21526WAT     H287910   4.670   0.982   3.329  0.9258  0.2281 -0.2221
21526WAT    EPW87911   4.643   0.931   3.264  0.5350  0.1693 -0.0144
21527WAT      O87912   1.763   9.927   4.693  0.5764 -0.4340  0.6278
21527WAT     H187913   1.757   9.832   4.701  1.0758 -0.3600  2.4336
21527WAT     H287914   1.820   9.942   4.618 -1.3143 -1.4792 -1.1262
21527WAT    EPW87915   1.770   9.917   4.684  0.3929 -0.5622  0.6347
21528WAT      O87916   5.800   7.550   6.559  0.0370  0.2387  0.9774
21528WAT     H187917   5.715   7.595   6.557 -0.9166 -1.4828  0.5646
21528WAT     H287918   5.859   7.609   6.512 -1.6950  0.1384 -1.5504
21528WAT    EPW87919   5.797   7.564   6.552 -0.3171 -0.0014  0.5894
21529WAT      O87920   3.690   8.562   5.349  0.4167  0.9048 -0.4153
21529WAT     H187921   3.696   8.587   5.257  2.1489  0.9963 -0.3197
21529WAT     H287922   3.780   8.539   5.373 -0.2615 -0.5743  0.8635
21529WAT    EPW87923   3.703   8.562   5.340  0.5556  0.7215 -0.2341
21530WAT      O87924   4.206   9.153   5.577 -0.2393  0.1221 -0.0046
21530WAT     H187925   4.277   9.206   5.614  0.0843 -0.1991 -0.1582
21530WAT     H287926   4.130   9.173   5.632  0.3283 -0.6367  1.0824
21530WAT    EPW87927   4.205   9.163   5.589 -0.1216 -0.0200  0.1183
21531WAT      O87928   2.864  10.020   4.638  0.2083 -0.4059  0.2475
21531WAT     H187929   2.861  10.068   4.721 -0.0885 -2.8550  1.7528
21531WAT     H287930   2.784   9.968   4.637  0.1721 -0.3890 -1.6510
21531WAT    EPW87931   2.853  10.019   4.649  0.1643 -0.7267  0.1957
21532WAT      O87932   3.310   9.358   5.167 -0.3309 -1.1223  0.1185
21532WAT     H187933   3.226   9.318   5.146  0.0650 -3.1380  1.9262
21532WAT     H287934   3.304   9.380   5.260 -0.1826  2.4190 -0.5677
21532WAT    EPW87935   3.298   9.355   5.176 -0.2590 -0.9208  0.2663
21533WAT      O87936   7.916   0.819   6.024  0.3965  0.2440 -0.8687
21533WAT     H187937   7.854   0.864   6.081 -0.5221  1.1983 -2.5591
21533WAT     H287938   7.990   0.799   6.081 -1.5733 -1.3217  1.3336
21533WAT    EPW87939   7.918   0.822   6.039  0.0155  0.1634 -0.8011
21534WAT      O87940   7.614   0.845   1.594 -0.1751  0.3728 -0.1080
21534WAT     H187941   7.542   0.907   1.583 -1.9782 -1.2983  1.5735
21534WAT     H287942   7.612   0.792   1.515 -2.2098 -0.9747  0.7762
21534WAT    EPW87943   7.605   0.847   1.582 -0.6812 -0.0254  0.2304
21535WAT      O87944   6.282   3.280   2.952  0.5228  0.1400 -0.4751
21535WAT     H187945   6.216   3.304   3.018 -0.2343 -0.6657 -0.9275
21535WAT     H287946   6.296   3.361   2.902  0.3788  0.4909  0.0408
21535WAT    EPW87947   6.275   3.294   2.954  0.4041  0.0801 -0.4668
21536WAT      O87948   5.264   9.418   7.283  0.1809  0.0276  0.3844
21536WAT     H187949   5.215   9.339   7.306  0.5685 -0.4880 -0.4945
21536WAT     H287950   5.206   9.465   7.223  0.3892 -0.1402  0.0481
21536WAT    EPW87951   5.250   9.414   7.278  0.2592 -0.0625  0.2244
21537WAT      O87952   4.871   7.842   3.849  0.0242  0.6097 -0.2205
21537WAT     H187953   4.882   7.796   3.766  0.6286  0.5900 -0.1336
21537WAT     H287954   4.776   7.853   3.857 -0.1616 -0.7987 -0.1438
21537WAT    EPW87955   4.860   7.837   3.839  0.0792  0.4213 -0.1990
21538WAT      O87956   9.408   1.455   4.398 -0.2249 -0.0758  0.0043
21538WAT     H187957   9.423   1.550   4.393  0.4656 -0.2434 -2.5429
21538WAT     H287958   9.321   1.443   4.359 -2.1624 -0.2363  3.8931
21538WAT    EPW87959   9.399   1.466   4.392 -0.3891 -0.1190  0.1812
21539WAT      O87960  10.068   1.418   2.676 -0.4738 -0.0460  0.5180
21539WAT     H187961  10.130   1.392   2.745 -0.5599 -1.3995  0.1122
21539WAT     H287962   9.988   1.440   2.723 -0.2652 -0.1098  0.9116
21539WAT    EPW87963  10.066   1.417   2.691 -0.4578 -0.2329  0.5162
21540WAT      O87964   5.691   6.060   5.923  0.6027 -0.8984 -0.2399
21540WAT     H187965   5.746   6.032   5.996  0.3785  0.7129  0.5743
21540WAT     H287966   5.750   6.062   5.847  1.5668  0.3729  0.5238
21540WAT    EPW87967   5.706   6.056   5.922  0.7002 -0.5183 -0.0317
21541WAT      O87968   9.616   0.783   5.593 -0.3443  0.2013  0.2099
21541WAT     H187969   9.538   0.728   5.589  0.0459 -0.3835  0.6198
21541WAT     H287970   9.689   0.722   5.585  0.1204  0.5412  1.6931
21541WAT    EPW87971   9.615   0.768   5.591 -0.2313  0.1690  0.4594
21542WAT      O87972   7.239   9.926   4.642  0.3673  0.1943  0.1412
21542WAT     H187973   7.145   9.909   4.635  0.2174  1.1583 -0.2690
21542WAT     H287974   7.249  10.018   4.620  1.3679  0.2112  0.5986
21542WAT    EPW87975   7.228   9.936   4.638  0.4792  0.3238  0.1476
21543WAT      O87976   8.115   2.534   4.353 -0.7559 -0.0181 -0.1499
21543WAT     H187977   8.200   2.563   4.320 -1.3251  1.1980 -0.6160
21543WAT     H287978   8.135   2.459   4.409  0.6080  0.1924 -0.3221
21543WAT    EPW87979   8.129   2.528   4.356 -0.6509  0.1701 -0.2341
21544WAT      O87980   6.564   0.654   2.721 -0.3850  0.2190  0.3030
21544WAT     H187981   6.551   0.729   2.779 -1.1072  0.3715 -0.0594
21544WAT     H287982   6.640   0.677   2.668 -1.6963  1.4993 -1.0880
21544WAT    EPW87983   6.572   0.667   2.722 -0.6530  0.4080  0.0718
21545WAT      O87984   6.447   9.906   5.032 -0.3431  0.0509 -0.1541
21545WAT     H187985   6.463   9.853   4.954 -0.9090 -1.2695  0.5831
21545WAT     H287986   6.481   9.853   5.104  0.0376  1.1843  0.5204
21545WAT    EPW87987   6.454   9.892   5.031 -0.3674  0.0257  0.0319
21546WAT      O87988   7.534   7.903   7.742 -0.9316 -0.4398 -0.5989
21546WAT     H187989   7.624   7.874   7.729 -1.2131 -0.8863 -1.5775
21546WAT     H287990   7.502   7.850   7.815 -0.2242  0.1525  0.1678
21546WAT    EPW87991   7.542   7.892   7.750 -0.8755 -0.4206 -0.6266
21547WAT      O87992   3.967   6.034   0.417  0.0395 -0.1916 -0.4066
21547WAT     H187993   4.052   6.015   0.456 -0.1078  0.7878  0.4564
21547WAT     H287994   3.951   5.961   0.357  2.0761  0.2736 -1.6135
21547WAT    EPW87995   3.976   6.022   0.414  0.2887 -0.0012 -0.4519
21548WAT      O87996   5.424   7.833   5.559  0.5437  0.3708 -0.6823
21548WAT     H187997   5.405   7.927   5.562  0.8689  0.4618 -1.2699
21548WAT     H287998   5.466   7.820   5.474  0.4178 -0.3247 -0.6452
21548WAT    EPW87999   5.427   7.844   5.548  0.5698  0.2911 -0.7546
21549WAT      O88000   3.361  10.080   5.120 -0.8081 -0.0109 -0.0915
21549WAT     H188001   3.351  10.025   5.198 -0.8409  0.2316  0.0787
21549WAT     H288002   3.455  10.098   5.116 -1.0856  2.1914  1.4607
21549WAT    EPW88003   3.372  10.075   5.130 -0.8490  0.3114  0.1357
21550WAT      O88004   1.653   9.013   4.469 -0.0446  0.2036  0.8831
21550WAT     H188005   1.622   8.924   4.453 -0.3955  0.5293 -0.3681
21550WAT     H288006   1.658   9.020   4.565  1.6608 -1.6916  0.9942
21550WAT    EPW88007   1.649   9.002   4.480  0.1340 -0.0038  0.7327
21551WAT      O88008   5.112   9.787   6.343  0.4272  0.3158 -0.3056
21551WAT     H188009   5.150   9.729   6.409 -0.8912 -1.2091 -0.8191
21551WAT     H288010   5.187   9.829   6.302  1.3180  2.9526  3.4319
21551WAT    EPW88011   5.127   9.785   6.346  0.3710  0.4621  0.1197
21552WAT      O88012   4.003   7.592   2.985 -0.0697  0.0393 -0.7025
21552WAT     H188013   3.917   7.632   2.976 -0.1482  0.2225  0.6881
21552WAT     H288014   3.987   7.498   2.971  0.1937  0.3838 -4.4617
21552WAT    EPW88015   3.990   7.585   2.982 -0.0453  0.1087 -1.0148
21553WAT      O88016   7.822   8.047   6.111 -0.5664  0.3839  0.4170
21553WAT     H188017   7.784   7.989   6.045  0.4904 -0.5702  0.6169
21553WAT     H288018   7.876   8.108   6.060  1.1702 -1.0681  0.4273
21553WAT    EPW88019   7.825   8.047   6.095 -0.1981  0.0668  0.4451
21554WAT      O88020   3.235   7.374   4.918  0.4097 -0.0287  0.3624
21554WAT     H188021   3.309   7.379   4.858  2.0708 -0.4808  2.2753
21554WAT     H288022   3.199   7.286   4.906  0.0651  0.2428 -0.6740
21554WAT    EPW88023   3.240   7.363   4.909  0.5834 -0.0522  0.4783
21555WAT      O88024   3.937  10.282   7.493 -0.1505 -0.0089  0.7442
21555WAT     H188025   3.854  10.329   7.483  0.3291  0.6889 -0.1317
21555WAT     H288026   4.004  10.347   7.475  0.5321 -1.0411 -0.6880
21555WAT    EPW88027   3.935  10.297   7.489  0.0029 -0.0525  0.4401
21556WAT      O88028   8.502   1.554   8.063  0.0211 -0.2827  0.2325
21556WAT     H188029   8.498   1.592   8.151  1.4378  2.6972 -0.8535
21556WAT     H288030   8.575   1.492   8.066  1.2087  1.0997  0.7485
21556WAT    EPW88031   8.511   1.551   8.075  0.3643  0.2927  0.1578
21557WAT      O88032   8.283   0.331   6.097  0.0795  0.0192  0.0165
21557WAT     H188033   8.356   0.278   6.066 -0.1140 -0.5415  0.5107
21557WAT     H288034   8.206   0.275   6.086  0.1174 -0.6141  2.4502
21557WAT    EPW88035   8.282   0.316   6.091  0.0587 -0.1383  0.4027
21558WAT      O88036   3.633   0.034   2.474 -0.2354  0.2691  0.3827
21558WAT     H188037   3.698  -0.017   2.522 -1.4097 -0.7192  0.9989
21558WAT     H288038   3.580  -0.032   2.429  1.3021  1.1788 -3.0622
21558WAT    EPW88039   3.634   0.018   2.475 -0.1874  0.2584  0.0095
21559WAT      O88040   6.655   7.969   4.177 -0.7139 -0.4348  0.1896
21559WAT     H188041   6.591   8.029   4.138  0.8056  1.6069  0.7248
21559WAT     H288042   6.602   7.908   4.228 -2.4525 -0.7337 -1.8030
21559WAT    EPW88043   6.640   7.969   4.178 -0.7432 -0.2048 -0.0024
21560WAT      O88044   4.835   9.849   3.683  0.6803 -0.0056  0.2506
21560WAT     H188045   4.827   9.769   3.734  0.4377  1.1045  2.0569
21560WAT     H288046   4.928   9.873   3.690  0.7718 -0.1541 -0.3621
21560WAT    EPW88047   4.847   9.842   3.690  0.6607  0.1211  0.4081
21561WAT      O88048   7.567   8.892   6.341 -0.1717 -0.3326  0.0536
21561WAT     H188049   7.545   8.898   6.434  0.1602 -1.0048  0.1887
21561WAT     H288050   7.484   8.877   6.297 -0.2673 -0.5909  0.3149
21561WAT    EPW88051   7.553   8.891   6.347 -0.1407 -0.4549  0.1061
21562WAT      O88052   0.923   0.334   6.225  0.3628 -0.2371 -0.7445
21562WAT     H188053   0.888   0.252   6.190  0.8100 -0.7840  0.0706
21562WAT     H288054   0.868   0.401   6.186 -0.7274 -0.9912 -0.5390
21562WAT    EPW88055   0.911   0.332   6.215  0.2780 -0.4087 -0.6099
21563WAT      O88056   1.343   8.608   0.060 -0.9142 -0.4781 -0.3836
21563WAT     H188057   1.317   8.637   0.148  0.6103  0.0509 -0.0773
21563WAT     H288058   1.422   8.657   0.041  0.1941 -2.4125 -1.0233
21563WAT    EPW88059   1.350   8.618   0.069 -0.5670 -0.6638 -0.4276
21564WAT      O88060   8.442   1.980   6.897 -0.4611 -0.2476 -0.6667
21564WAT     H188061   8.531   1.973   6.862  0.7397  0.4396  1.9803
21564WAT     H288062   8.420   1.890   6.923  0.4175 -0.1066  0.6854
21564WAT    EPW88063   8.451   1.967   6.896 -0.1864 -0.1384 -0.1392
21565WAT      O88064   9.615   1.712   3.362  0.9906 -0.0755 -0.2540
21565WAT     H188065   9.617   1.746   3.451 -0.4835  3.1081 -1.2436
21565WAT     H288066   9.546   1.646   3.363 -2.3530  3.0549  0.2577
21565WAT    EPW88067   9.606   1.708   3.374  0.3557  0.7573 -0.3170
21566WAT      O88068   9.922   0.583   7.211 -1.1267  0.0008 -0.1906
21566WAT     H188069   9.890   0.670   7.187 -1.9163 -0.1999  0.1016
21566WAT     H288070   9.977   0.598   7.288  0.1159  0.4421 -1.1356
21566WAT    EPW88071   9.925   0.597   7.218 -1.0667  0.0325 -0.2770
21567WAT      O88072   5.595   9.304   3.400 -0.0856  0.1137  0.0087
21567WAT     H188073   5.577   9.374   3.337 -1.4379 -1.3165 -1.2769
21567WAT     H288074   5.673   9.260   3.365  0.0032  0.1759  0.1248
21567WAT    EPW88075   5.603   9.307   3.387 -0.2520 -0.0663 -0.1457
21568WAT      O88076   6.865   0.937   4.194 -0.2627 -0.6993  0.4293
21568WAT     H188077   6.866   1.027   4.226 -2.4122 -0.1724 -0.7500
21568WAT     H288078   6.850   0.945   4.099  0.8708 -2.2855  0.0606
21568WAT    EPW88079   6.863   0.950   4.185 -0.3967 -0.8390  0.2253
21569WAT      O88080   2.980   9.561   4.246 -0.2542  0.4982  0.1983
21569WAT     H188081   2.978   9.465   4.245 -1.2018  0.4279  2.2959
21569WAT     H288082   2.923   9.586   4.173  0.8116 -0.4852 -1.0251
21569WAT    EPW88083   2.972   9.551   4.236 -0.2385  0.3595  0.3135
21570WAT      O88084   6.641   8.639   5.090  0.1930  0.1030 -0.2977
21570WAT     H188085   6.571   8.595   5.137  0.6384 -1.1833 -0.7717
21570WAT     H288086   6.686   8.568   5.043 -0.0626  1.2740 -2.4375
21570WAT    EPW88087   6.638   8.624   5.090  0.2182  0.0877 -0.6425
21571WAT      O88088   3.768   9.710   5.583 -0.2653 -0.4677  0.1376
21571WAT     H188089   3.786   9.775   5.516 -1.2940  0.1053  0.3946
21571WAT     H288090   3.847   9.710   5.638 -0.1089  0.3014 -0.0733
21571WAT    EPW88091   3.781   9.718   5.582 -0.3803 -0.2909  0.1435
21572WAT      O88092   2.845   8.564   7.693 -0.2834  0.4232  0.5743
21572WAT     H188093   2.907   8.636   7.701 -1.0152  1.1129  0.0887
21572WAT     H288094   2.901   8.486   7.687  0.5496  1.0433 -0.0410
21572WAT    EPW88095   2.861   8.563   7.693 -0.2699  0.5960  0.4294
21573WAT      O88096   0.182   5.468   0.428 -0.3633  0.4828  0.0734
21573WAT     H188097   0.157   5.386   0.471  2.8787 -0.4408  0.4432
21573WAT     H288098   0.137   5.536   0.478  0.8876 -0.7717  3.1660
21573WAT    EPW88099   0.173   5.467   0.441  0.2293  0.1955  0.5301
21574WAT      O88100   8.728   9.645   5.581  0.0774  0.3827  0.3555
21574WAT     H188101   8.706   9.581   5.513  0.9526  0.2344  0.1976
21574WAT     H288102   8.742   9.727   5.534  2.7096 -0.1488  0.0280
21574WAT    EPW88103   8.727   9.647   5.566  0.5398  0.2933  0.2913
21575WAT      O88104   5.682   9.331   6.634 -0.8997 -0.3655 -0.4645
21575WAT     H188105   5.594   9.299   6.615 -1.9152  2.0388 -0.1849
21575WAT     H288106   5.716   9.271   6.700 -1.8429 -2.0157 -1.4164
21575WAT    EPW88107   5.675   9.319   6.640 -1.1580 -0.2666 -0.5531
21576WAT      O88108   8.121   2.205   6.033 -0.0037  0.1113  0.4473
21576WAT     H188109   8.067   2.162   5.967 -0.1158  1.2964 -0.2629
21576WAT     H288110   8.101   2.159   6.115 -0.0664 -1.2032 -0.2805
21576WAT    EPW88111   8.112   2.193   6.035 -0.0272  0.0942  0.2575
21577WAT      O88112  10.487   1.091   5.807 -0.1619  0.0472 -0.4132
21577WAT     H188113  10.525   1.007   5.782  1.6906  0.7596 -0.1295
21577WAT     H288114  10.489   1.143   5.727  2.5188  1.1472  0.2691
21577WAT    EPW88115  10.492   1.087   5.793  0.4363  0.2862 -0.2859
21578WAT      O88116   7.745   4.198   4.415  0.4753  0.1907 -0.1231
21578WAT     H188117   7.683   4.267   4.389  1.8056  1.8580  0.8758
21578WAT     H288118   7.801   4.186   4.338  2.0665  2.4202  0.5818
21578WAT    EPW88119   7.744   4.206   4.401  0.8605  0.7048  0.1018
21579WAT      O88120   4.386   8.718   5.446  0.2076  0.2028 -0.0066
21579WAT     H188121   4.332   8.740   5.370  0.2909 -2.6272 -1.0094
21579WAT     H288122   4.324   8.712   5.518 -0.2202  0.7760 -0.3198
21579WAT    EPW88123   4.371   8.720   5.445  0.1621 -0.0944 -0.1802
21580WAT      O88124   7.377   8.183   4.864 -0.2987  0.2368 -0.3870
21580WAT     H188125   7.353   8.256   4.807  1.3750  0.7351 -0.5207
21580WAT     H288126   7.445   8.220   4.921  0.6579 -1.2540 -0.5278
21580WAT    EPW88127   7.383   8.198   4.864  0.0484  0.1054 -0.4232
21581WAT      O88128   1.257   1.928   1.081  0.0198 -0.2775  0.2745
21581WAT     H188129   1.266   1.869   1.006 -1.5327 -0.6859  0.3725
21581WAT     H288130   1.308   2.005   1.057 -0.0861 -0.5837 -1.0200
21581WAT    EPW88131   1.265   1.930   1.068 -0.1989 -0.3718  0.1167
21582WAT      O88132   6.597  10.295   3.572  0.7573 -0.2735 -0.3925
21582WAT     H188133   6.556  10.377   3.545  1.7369  0.5292  0.4865
21582WAT     H288134   6.667  10.281   3.508  1.6475  0.4610  0.3949
21582WAT    EPW88135   6.601  10.304   3.560  1.0040 -0.0706 -0.1729
21583WAT      O88136   8.673   0.064   4.981 -0.3793 -1.2477 -0.1859
21583WAT     H188137   8.744   0.105   5.030  0.9884  0.7999 -3.5002
21583WAT     H288138   8.693  -0.029   4.982  2.0614 -0.7875 -0.4583
21583WAT    EPW88139   8.685   0.057   4.987  0.1230 -0.9170 -0.6588
21584WAT      O88140   8.204   8.569   5.455 -0.8478  0.3921 -0.4222
21584WAT     H188141   8.208   8.626   5.532 -1.1407  1.6171 -1.3001
21584WAT     H288142   8.267   8.606   5.394  1.9336 -2.4706  0.3954
21584WAT    EPW88143   8.213   8.581   5.457 -0.5198  0.1760 -0.4301
21585WAT      O88144   6.041   6.802   4.862  0.0618 -0.4430 -0.1941
21585WAT     H188145   5.996   6.804   4.947  1.7006  0.9727  0.6826
21585WAT     H288146   6.026   6.888   4.824  1.1115 -0.3339 -0.3827
21585WAT    EPW88147   6.033   6.813   4.868  0.4165 -0.2420 -0.1035
21586WAT      O88148   6.663   2.107   5.192 -0.2817  0.6305 -0.5825
21586WAT     H188149   6.678   2.019   5.157 -0.0405  1.0243 -1.5034
21586WAT     H288150   6.593   2.142   5.136  0.5504  1.5082 -1.0938
21586WAT    EPW88151   6.655   2.100   5.180 -0.1404  0.7981 -0.7715
21587WAT      O88152   8.122   7.819   6.564 -0.0752 -0.3786 -0.3230
21587WAT     H188153   8.042   7.868   6.580  0.1748  0.7408 -2.1678
21587WAT     H288154   8.093   7.738   6.522 -0.2621 -0.1611 -0.6125
21587WAT    EPW88155   8.108   7.814   6.561 -0.0668 -0.2022 -0.6046
21588WAT      O88156   8.337   2.590   6.909 -0.3918  0.3256  0.3057
21588WAT     H188157   8.356   2.607   7.001  3.3978  1.5497 -0.5588
21588WAT     H288158   8.416   2.549   6.875 -2.3993 -1.9874 -2.0671
21588WAT    EPW88159   8.350   2.587   6.917 -0.1569  0.1820 -0.1216
21589WAT      O88160   4.221  10.126   3.902 -0.0690 -0.0589 -0.9115
21589WAT     H188161   4.139  10.141   3.948  0.8571  0.5797  0.6002
21589WAT     H288162   4.201  10.144   3.810 -1.6515 -0.1259 -0.6015
21589WAT    EPW88163   4.208  10.131   3.896 -0.1557  0.0167 -0.6713
21590WAT      O88164  10.180   0.126   5.533 -0.0933  0.8311 -0.1956
21590WAT     H188165  10.100   0.073   5.538  0.2480  0.2666 -0.5953
21590WAT     H288166  10.200   0.131   5.440  0.5589  0.6200 -0.0768
21590WAT    EPW88167  10.172   0.119   5.521  0.0377  0.7288 -0.2327
21591WAT      O88168   4.986   8.278   6.188  0.0562  0.3317 -0.3405
21591WAT     H188169   5.042   8.306   6.260  1.3192 -0.7925 -0.8413
21591WAT     H288170   4.905   8.250   6.231  0.4696  0.4734  0.5576
21591WAT    EPW88171   4.982   8.278   6.203  0.2775  0.2017 -0.2880
21592WAT      O88172   7.847  10.028   5.298 -0.4221  0.0343  0.0270
21592WAT     H188173   7.823  10.039   5.390 -1.8964  0.4519 -0.3752
21592WAT     H288174   7.880  10.114   5.272 -0.0370 -0.0746  0.1508
21592WAT    EPW88175   7.848  10.041   5.307 -0.5658  0.0749 -0.0100
21593WAT      O88176  10.387   1.319   4.629  0.3968  0.0922 -0.3744
21593WAT     H188177  10.303   1.315   4.674  0.4754  1.6267 -0.0514
21593WAT     H288178  10.447   1.354   4.694  0.7169  1.4675 -1.3657
21593WAT    EPW88179  10.384   1.323   4.643  0.4492  0.4759 -0.4625
21594WAT      O88180   2.944  10.275   3.886 -0.3998  0.7329  0.0360
21594WAT     H188181   3.001  10.209   3.924  0.2604  0.7946 -0.8215
21594WAT     H288182   2.959  10.353   3.938 -1.9105 -0.0010  1.6934
21594WAT    EPW88183   2.953  10.276   3.898 -0.5120  0.6442  0.1415
21595WAT      O88184  10.154   1.892   8.504  0.0751 -0.0173 -0.6704
21595WAT     H188185  10.185   1.844   8.581 -0.0378 -1.4182 -1.4791
21595WAT     H288186  10.216   1.965   8.496 -1.2685  1.6100  2.1138
21595WAT    EPW88187  10.167   1.896   8.513 -0.1168  0.0125 -0.4101
21596WAT      O88188   2.612   9.462   7.327 -0.0267 -0.3307  0.1525
21596WAT     H188189   2.663   9.416   7.393  0.5975 -1.4491 -1.0370
21596WAT     H288190   2.530   9.485   7.371  1.2997  1.1234  1.9758
21596WAT    EPW88191   2.608   9.459   7.341  0.2306 -0.2861  0.2360
21597WAT      O88192   4.123   8.047   7.802  0.6843 -0.1929 -0.3982
21597WAT     H188193   4.109   8.122   7.743  1.7100  0.5763  0.2970
21597WAT     H288194   4.213   8.020   7.785  0.9438 -0.0514  0.7091
21597WAT    EPW88195   4.133   8.054   7.792  0.8540 -0.0730 -0.1605
21598WAT      O88196   9.046  10.016   7.463 -0.9140  0.1710  0.1511
21598WAT     H188197   8.993  10.026   7.543  0.9627  0.5188  1.4177
21598WAT     H288198   9.128  10.060   7.484 -1.1911  2.3955 -2.8699
21598WAT    EPW88199   9.050  10.023   7.477 -0.7029  0.5102 -0.0801
21599WAT      O88200   4.691   7.269   7.929 -0.1132  0.3966 -0.1321
21599WAT     H188201   4.658   7.275   7.839  1.5409  1.5847 -0.7090
21599WAT     H288202   4.740   7.186   7.931  1.4856  1.2645 -0.9677
21599WAT    EPW88203   4.693   7.258   7.917  0.3157  0.6680 -0.3185
21600WAT      O88204   4.857   4.564   4.263  0.0660  0.5484  0.3491
21600WAT     H188205   4.884   4.487   4.213 -1.0742  1.8429 -2.5136
21600WAT     H288206   4.939   4.603   4.293  0.7867 -0.5897 -0.0920
21600WAT    EPW88207   4.871   4.559   4.260  0.0107  0.5691 -0.0865
21601WAT      O88208   5.750   7.699   2.323 -0.4222  0.0661 -0.8145
21601WAT     H188209   5.707   7.782   2.303 -1.4033 -0.5560 -1.3454
21601WAT     H288210   5.702   7.634   2.272  0.1057 -0.8852 -0.1300
21601WAT    EPW88211   5.738   7.701   2.314 -0.4821 -0.1414 -0.7942
21602WAT      O88212   7.819   0.489   4.114  0.3765 -0.1667 -0.2555
21602WAT     H188213   7.870   0.500   4.034 -1.7699 -0.0419 -1.6714
21602WAT     H288214   7.849   0.560   4.172  1.0644  0.5277 -1.4373
21602WAT    EPW88215   7.830   0.500   4.111  0.1841 -0.0586 -0.5980
21603WAT      O88216   1.183   3.374   0.696 -0.1389  0.1839  0.0320
21603WAT     H188217   1.137   3.292   0.680 -0.6853  0.6739 -0.9814
21603WAT     H288218   1.213   3.402   0.609 -1.1804  1.7581  0.1465
21603WAT    EPW88219   1.181   3.367   0.682 -0.3484  0.4561 -0.0866
21604WAT      O88220   7.282  10.347   2.873 -0.0003  0.0927 -0.5971
21604WAT     H188221   7.328  10.428   2.849  1.9354 -0.5258  0.7049
21604WAT     H288222   7.294  10.342   2.968 -1.0562 -1.1785 -0.5143
21604WAT    EPW88223   7.290  10.357   2.883  0.1159 -0.1566 -0.4145
21605WAT      O88224   7.322   0.553   5.989  0.3726 -0.3085 -0.2446
21605WAT     H188225   7.281   0.544   6.075 -0.2298 -2.1785 -0.6904
21605WAT     H288226   7.271   0.621   5.945  0.1573  0.0621  0.5635
21605WAT    EPW88227   7.310   0.561   5.994  0.2649 -0.5063 -0.1965
21606WAT      O88228   5.009   9.244   5.196  0.4694  0.4965 -0.3373
21606WAT     H188229   5.060   9.238   5.277  1.2397  0.8482 -0.7862
21606WAT     H288230   5.067   9.208   5.129  0.2379  1.1874 -0.9132
21606WAT    EPW88231   5.023   9.238   5.198  0.5407  0.6337 -0.4725
21607WAT      O88232  10.790   1.387   4.284 -0.4372  0.1653  0.5714
21607WAT     H188233  10.782   1.482   4.281 -2.5710  0.0398 -2.6339
21607WAT     H288234  10.718   1.359   4.340 -0.5216  0.3732  0.5691
21607WAT    EPW88235  10.780   1.396   4.291 -0.7296  0.1762  0.1483
21608WAT      O88236   8.590   0.694   6.716 -0.1148  0.4814  0.3659
21608WAT     H188237   8.652   0.766   6.703 -0.7631  0.9164 -0.4180
21608WAT     H288238   8.645   0.616   6.722  0.4589  0.5994 -2.2144
21608WAT    EPW88239   8.605   0.693   6.715 -0.1245  0.5543 -0.0777
21609WAT      O88240   6.726   8.034   8.837 -0.1158  0.3663  0.4618
21609WAT     H188241   6.732   7.981   8.917  1.5658  0.6390  0.5700
21609WAT     H288242   6.647   8.086   8.848 -1.5139 -1.6622  0.6059
21609WAT    EPW88243   6.717   8.034   8.849 -0.0787  0.1345  0.4945
21610WAT      O88244   4.046   9.590   2.497 -0.0694  0.0737  0.0520
21610WAT     H188245   4.063   9.662   2.558 -1.5291 -1.2225  2.1272
21610WAT     H288246   3.972   9.620   2.444 -0.1779  0.3981  0.3884
21610WAT    EPW88247   4.038   9.603   2.498 -0.2763 -0.0544  0.3701
21611WAT      O88248   4.024   9.199   8.440 -0.7325 -0.7036  0.3257
21611WAT     H188249   4.087   9.230   8.375 -3.1647 -0.2991 -2.0294
21611WAT     H288250   3.993   9.116   8.405 -1.2160 -1.0814  1.6139
21611WAT    EPW88251   4.028   9.192   8.427 -1.1170 -0.7005  0.1845
21612WAT      O88252   4.971  10.265   5.912  0.4888  0.5607  0.0441
21612WAT     H188253   4.955  10.341   5.855  0.5698  0.2576 -0.3941
21612WAT     H288254   5.052  10.287   5.958 -0.4398  1.5191  1.2776
21612WAT    EPW88255   4.980  10.278   5.910  0.3769  0.6471  0.1493
21613WAT      O88256   2.517   9.444   4.299  0.4543 -0.3656  0.2478
21613WAT     H188257   2.609   9.470   4.302  0.1392  0.8413 -0.0510
21613WAT     H288258   2.501   9.401   4.383  1.7472 -2.2665 -0.4255
21613WAT    EPW88259   2.527   9.442   4.310  0.5832 -0.4568  0.1194
21614WAT      O88260   8.312   0.465   5.811  0.4555 -0.4293  0.2022
21614WAT     H188261   8.343   0.394   5.868 -1.2139 -0.9848  0.4779
21614WAT     H288262   8.232   0.430   5.771 -2.1364  2.2698  2.5561
21614WAT    EPW88263   8.306   0.451   5.813 -0.1063 -0.1466  0.5488
21615WAT      O88264   9.819   9.455   7.593 -0.2675  0.4981 -0.5077
21615WAT     H188265   9.869   9.376   7.572 -2.0142 -0.0897 -2.8022
21615WAT     H288266   9.815   9.456   7.688  0.8061 -1.5144 -0.3880
21615WAT    EPW88267   9.825   9.445   7.603 -0.3562  0.1554 -0.7946
21616WAT      O88268   8.285   7.716   5.963  0.0674 -0.8394 -0.2834
21616WAT     H188269   8.273   7.710   6.058 -0.7387  1.4657 -0.1764
21616WAT     H288270   8.237   7.640   5.928 -0.5816 -1.0940  1.0863
21616WAT    EPW88271   8.277   7.705   5.971 -0.1245 -0.5689 -0.0887
21617WAT      O88272   6.183   1.710   4.227 -0.6590  0.3955 -0.4432
21617WAT     H188273   6.170   1.621   4.260 -0.6432  1.1029  1.6611
21617WAT     H288274   6.277   1.717   4.212 -0.5894  0.1908 -0.1201
21617WAT    EPW88275   6.193   1.699   4.229 -0.6478  0.4618 -0.1230
21618WAT      O88276   1.118   0.580   3.697 -0.3199 -0.5146  0.1109
21618WAT     H188277   1.058   0.506   3.687 -0.5540 -0.0999 -1.9595
21618WAT     H288278   1.061   0.657   3.699  0.0645 -0.1892 -0.8688
21618WAT    EPW88279   1.103   0.581   3.696 -0.3001 -0.4170 -0.2913
21619WAT      O88280   8.676   8.574   6.137 -0.6406 -0.0850 -0.5825
21619WAT     H188281   8.680   8.667   6.161  0.5399  0.1774 -1.7187
21619WAT     H288282   8.695   8.528   6.219 -2.1536  0.6118  0.2079
21619WAT    EPW88283   8.679   8.580   6.151 -0.6852  0.0420 -0.6280
21620WAT      O88284  10.355   2.252   7.193 -0.4240 -0.3225  0.8750
21620WAT     H188285  10.300   2.189   7.239 -1.6530 -0.2635 -0.4703
21620WAT     H288286  10.296   2.297   7.132  1.3439 -1.4759 -1.9132
21620WAT    EPW88287  10.340   2.250   7.191 -0.3529 -0.4669  0.3297
21621WAT      O88288   0.269   3.640   6.529 -0.3020 -0.4369  0.3061
21621WAT     H188289   0.322   3.560   6.525 -1.0574 -0.9182 -0.2282
21621WAT     H288290   0.187   3.617   6.486 -0.8573  0.3777  0.9024
21621WAT    EPW88291   0.266   3.627   6.523 -0.4749 -0.3929  0.3142
21622WAT      O88292   4.067   9.264   5.810 -0.2600 -0.1385 -0.1412
21622WAT     H188293   3.978   9.248   5.842 -0.7747  1.1809 -0.8374
21622WAT     H288294   4.121   9.265   5.889 -0.9748 -0.2045  0.3618
21622WAT    EPW88295   4.062   9.262   5.824 -0.4220  0.0267 -0.1667
21623WAT      O88296   6.744   9.415   1.752  0.0682  0.2307  0.2279
21623WAT     H188297   6.660   9.377   1.778 -0.1569  0.0542 -0.7208
21623WAT     H288298   6.791   9.429   1.835 -0.0574 -1.6135  0.6522
21623WAT    EPW88299   6.739   9.412   1.767  0.0222 -0.0358  0.1587
21624WAT      O88300   8.585   3.935   4.114 -0.3898 -0.1483  0.1337
21624WAT     H188301   8.671   3.896   4.130  1.2378  2.2546 -2.0331
21624WAT     H288302   8.590   4.021   4.156 -0.7787  0.9903 -2.0176
21624WAT    EPW88303   8.597   3.941   4.122 -0.2270  0.3189 -0.4361
21625WAT      O88304   6.005   9.212   2.745 -0.9863 -0.6085 -0.5496
21625WAT     H188305   5.991   9.169   2.830  1.3525  0.8483  0.6952
21625WAT     H288306   6.094   9.186   2.720 -1.9136 -1.6829 -3.0684
21625WAT    EPW88307   6.015   9.203   2.753 -0.8001 -0.5584 -0.7176
21626WAT      O88308   6.254   0.230   4.439  0.7834  0.4714  0.5200
21626WAT     H188309   6.319   0.209   4.372  2.0584  1.7575  1.2746
21626WAT     H288310   6.196   0.294   4.398 -0.9850 -1.7200 -0.6339
21626WAT    EPW88311   6.255   0.235   4.425  0.7184  0.3520  0.4671
21627WAT      O88312   5.545   7.812   7.308 -0.3031 -0.4561 -0.0972
21627WAT     H188313   5.516   7.872   7.376 -1.4779 -3.0137  1.8446
21627WAT     H288314   5.591   7.867   7.245 -1.2325  2.4054  1.5435
21627WAT    EPW88315   5.547   7.827   7.309 -0.5805 -0.4158  0.3755
21628WAT      O88316   8.439   9.311   7.522  0.1403 -0.1518 -0.1597
21628WAT     H188317   8.370   9.323   7.456 -1.4543 -0.3503  1.4189
21628WAT     H288318   8.434   9.219   7.546  1.1392 -0.2247 -0.2009
21628WAT    EPW88319   8.429   9.301   7.516  0.0615 -0.1874  0.0432
21629WAT      O88320   4.660   8.973   3.303 -0.2570  0.1937  0.7342
21629WAT     H188321   4.642   8.910   3.373  0.2883 -0.7555  0.0379
21629WAT     H288322   4.709   9.043   3.347  0.3394 -0.5290  1.2574
21629WAT    EPW88323   4.664   8.974   3.318 -0.1063 -0.0272  0.7114
21630WAT      O88324   2.794   9.328   3.340 -0.2797 -0.1821  0.2373
21630WAT     H188325   2.842   9.268   3.282 -0.5352  0.1461 -0.3297
21630WAT     H288326   2.812   9.415   3.305  1.6924  0.2736  2.2556
21630WAT    EPW88327   2.802   9.331   3.328 -0.0533 -0.0792  0.4289
21631WAT      O88328   9.829   2.850   3.982 -0.7110 -0.3036  0.0712
21631WAT     H188329   9.817   2.765   4.025 -0.3196 -1.3697 -1.8242
21631WAT     H288330   9.881   2.901   4.045  2.3130 -2.7506 -0.1774
21631WAT    EPW88331   9.834   2.846   3.996 -0.2608 -0.7670 -0.2116
21632WAT      O88332   8.404  10.102   4.669 -0.1710  0.4525 -0.0062
21632WAT     H188333   8.491  10.120   4.635 -0.0849  0.0053 -0.0266
21632WAT     H288334   8.412  10.017   4.714 -0.7003  0.1743 -0.4181
21632WAT    EPW88335   8.416  10.093   4.671 -0.2294  0.3567 -0.0632
21633WAT      O88336   8.216   1.159   3.501  0.5924  0.7029 -1.0041
21633WAT     H188337   8.148   1.151   3.568  2.5710  0.9741  1.1773
21633WAT     H288338   8.209   1.077   3.451 -1.2365  0.6887 -0.8096
21633WAT    EPW88339   8.206   1.147   3.504  0.6123  0.7368 -0.6908
21634WAT      O88340   7.684   0.625   0.055  0.3793  0.1628  0.1849
21634WAT     H188341   7.725   0.539   0.052  0.5259  0.1072  2.2741
21634WAT     H288342   7.677   0.645   0.149 -2.7191  0.9727 -0.1031
21634WAT    EPW88343   7.689   0.617   0.067 -0.0100  0.2625  0.4225
21635WAT      O88344   6.273  10.351   5.553 -0.6558 -0.0204  0.1184
21635WAT     H188345   6.255  10.367   5.645  0.9397 -0.1248  0.4823
21635WAT     H288346   6.194  10.380   5.507 -0.1380  3.4387  1.1800
21635WAT    EPW88347   6.260  10.357   5.559 -0.3772  0.4220  0.3064
21636WAT      O88348   7.869   1.663   4.329  0.6613 -0.3657 -0.2000
21636WAT     H188349   7.962   1.677   4.347  0.6430  0.5539 -0.7637
21636WAT     H288350   7.867   1.625   4.241  0.4429  1.5842 -1.1105
21636WAT    EPW88351   7.881   1.660   4.320  0.6304  0.0127 -0.3946
21637WAT      O88352   7.054  10.204   4.692  0.2400 -0.0953  0.1557
21637WAT     H188353   7.036  10.163   4.607  1.4793 -2.4095  0.9480
21637WAT     H288354   7.148  10.219   4.691  0.1624  0.4816  0.8967
21637WAT    EPW88355   7.064  10.201   4.680  0.3936 -0.3247  0.3576
21638WAT      O88356   6.566   1.022   5.889 -0.6684  0.4366 -0.0137
21638WAT     H188357   6.603   0.969   5.817 -2.1661  0.3508 -0.7551
21638WAT     H288358   6.475   0.994   5.894 -0.1000 -1.3900  3.6034
21638WAT    EPW88359   6.559   1.011   5.880 -0.7906  0.1844  0.3657
21639WAT      O88360   7.856   0.498   8.091 -0.2950  0.0100  0.3281
21639WAT     H188361   7.944   0.502   8.129 -0.3087 -0.1437  0.3738
21639WAT     H288362   7.821   0.414   8.120 -0.5738  0.2073  0.5630
21639WAT    EPW88363   7.863   0.488   8.100 -0.3335  0.0157  0.3648
21640WAT      O88364   8.410   0.690   2.197  0.3989  0.1395 -0.3135
21640WAT     H188365   8.494   0.651   2.176  1.4901  1.8414  0.6463
21640WAT     H288366   8.431   0.767   2.251 -1.7551  0.6525 -0.0738
21640WAT    EPW88367   8.424   0.695   2.201  0.2589  0.4317 -0.1553
21641WAT      O88368   2.915   1.448   4.405  0.5109  0.9918 -0.2051
21641WAT     H188369   2.915   1.391   4.328  2.2829  1.7122 -0.7948
21641WAT     H288370   2.973   1.520   4.381  0.2823  1.7659  1.4456
21641WAT    EPW88371   2.923   1.450   4.392  0.7145  1.1889 -0.0653
21642WAT      O88372   5.085   7.427   4.404  0.0926 -0.6309 -0.4487
21642WAT     H188373   5.133   7.442   4.486  0.0167  1.3255 -0.7074
21642WAT     H288374   5.148   7.380   4.349  0.8967 -0.1416  0.0212
21642WAT    EPW88375   5.100   7.423   4.408  0.1886 -0.3083 -0.4208
21643WAT      O88376   7.229   2.785   6.476 -0.0192 -0.6584  0.8000
21643WAT     H188377   7.267   2.862   6.435 -0.0592 -0.5122  1.0396
21643WAT     H288378   7.297   2.718   6.469  0.1841 -0.4744  0.9881
21643WAT    EPW88379   7.243   2.786   6.470  0.0021 -0.6149  0.8562
21644WAT      O88380   3.455  10.187   6.663  0.0377  0.1420 -0.8971
21644WAT     H188381   3.549  10.196   6.645  0.0705  1.1992 -0.3275
21644WAT     H288382   3.450  10.184   6.759 -0.4646 -0.6431 -0.9411
21644WAT    EPW88383   3.467  10.188   6.673 -0.0242  0.1779 -0.8280
21645WAT      O88384   8.180   0.812   5.636  0.3524 -0.4577  0.1013
21645WAT     H188385   8.118   0.762   5.583  0.2818  1.8446 -2.1989
21645WAT     H288386   8.133   0.893   5.657  2.0648  0.7567 -0.5319
21645WAT    EPW88387   8.166   0.816   5.632  0.5689  0.0061 -0.2859
21646WAT      O88388   9.212   1.528   8.581  0.5785 -1.4058 -0.7586
21646WAT     H188389   9.273   1.601   8.569 -0.3841 -0.4122  0.2251
21646WAT     H288390   9.141   1.546   8.519 -1.3491  0.4114  1.7749
21646WAT    EPW88391   9.211   1.540   8.571  0.1974 -1.0351 -0.2942
21647WAT      O88392   8.828   0.201   4.315 -0.4502 -0.3223 -0.8422
21647WAT     H188393   8.783   0.141   4.375 -0.2770 -0.4088 -0.7988
21647WAT     H288394   8.758   0.254   4.278 -0.5452 -0.1719 -0.4567
21647WAT    EPW88395   8.813   0.200   4.318 -0.4401 -0.3139 -0.7858
21648WAT      O88396  10.038   7.320   6.441 -0.6606  0.2255  0.3481
21648WAT     H188397  10.125   7.357   6.425  1.1547 -2.0022  3.8639
21648WAT     H288398  10.003   7.373   6.513 -0.4396 -1.2714  1.6052
21648WAT    EPW88399  10.045   7.332   6.449 -0.3915 -0.2658  0.9775
21649WAT      O88400   9.511   2.282   2.061  1.0856 -1.1686  0.3819
21649WAT     H188401   9.578   2.280   1.993  0.4942  0.3114 -0.2901
21649WAT     H288402   9.539   2.350   2.122  0.1911 -0.4969  0.0670
21649WAT    EPW88403   9.523   2.291   2.060  0.8898 -0.8847  0.2518
21650WAT      O88404   3.842   9.332   3.415  0.2303  1.0957  0.6287
21650WAT     H188405   3.909   9.267   3.436 -0.7024 -1.5175 -3.4188
21650WAT     H288406   3.764   9.301   3.461 -0.2343 -0.8886 -1.3605
21650WAT    EPW88407   3.840   9.319   3.424  0.0460  0.4892 -0.1674
21651WAT      O88408   4.994   9.364   5.572  0.7406 -0.1521 -0.4089
21651WAT     H188409   5.019   9.282   5.614  0.6918  0.3362  0.5957
21651WAT     H288410   4.922   9.398   5.625  1.2290  0.8914 -0.3913
21651WAT    EPW88411   4.988   9.358   5.584  0.7987  0.0501 -0.2742
21652WAT      O88412   5.464   9.969   4.800 -0.2149 -0.5766  0.6493
21652WAT     H188413   5.545  10.015   4.822 -1.5709  2.0716  0.5389
21652WAT     H288414   5.490   9.877   4.791  3.3157  0.4295 -1.9477
21652WAT    EPW88415   5.478   9.963   4.802  0.0720 -0.0949  0.2921
21653WAT      O88416   4.895   8.033   7.490  0.6724  0.3757 -0.9447
21653WAT     H188417   4.915   8.127   7.494  1.9609  0.0992 -0.4952
21653WAT     H288418   4.962   7.992   7.544 -1.4490 -0.6065  1.1309
21653WAT    EPW88419   4.906   8.040   7.498  0.5627  0.2103 -0.6118
21654WAT      O88420  10.036   1.305   5.474 -0.4538  0.0642  0.4780
21654WAT     H188421  10.071   1.327   5.560  0.7712 -0.7400  0.2160
21654WAT     H288422   9.941   1.317   5.483 -0.4034 -0.5016  2.0761
21654WAT    EPW88423  10.028   1.310   5.487 -0.2856 -0.1165  0.6542
21655WAT      O88424  10.300   3.060   4.440  0.1408  0.8729  0.3995
21655WAT     H188425  10.330   2.970   4.435 -1.0866  0.5071 -1.7877
21655WAT     H288426  10.378   3.110   4.463  1.6228 -0.4285 -1.4273
21655WAT    EPW88427  10.314   3.055   4.442  0.1740  0.6530 -0.1297
21656WAT      O88428   7.185  10.060   5.616 -0.3281  0.5182  0.7301
21656WAT     H188429   7.092  10.051   5.593 -0.0580 -0.8079  0.0229
21656WAT     H288430   7.221  10.119   5.550  0.1112 -2.0438 -1.4966
21656WAT    EPW88431   7.177  10.066   5.604 -0.2346  0.0052  0.3431
21657WAT      O88432   5.110   8.454   8.394 -0.2989  0.0683 -0.3261
21657WAT     H188433   5.053   8.509   8.341 -0.7114 -0.1600 -0.1245
21657WAT     H288434   5.159   8.402   8.330  0.2092  0.7652 -0.5254
21657WAT    EPW88435   5.109   8.455   8.379 -0.2866  0.1302 -0.3257
21658WAT      O88436   8.575   1.352   5.736  0.1604 -0.2681 -0.9865
21658WAT     H188437   8.572   1.365   5.831 -0.2902  3.1402 -1.3511
21658WAT     H288438   8.484   1.360   5.708  0.3669 -0.5960 -1.7879
21658WAT    EPW88439   8.562   1.355   5.745  0.1283  0.1381 -1.1401
21659WAT      O88440   8.241   7.097   6.603  0.1948  0.3336 -0.1724
21659WAT     H188441   8.334   7.083   6.619 -0.0703 -1.3602  0.0816
21659WAT     H288442   8.224   7.186   6.632  1.7340  0.6674 -0.2475
21659WAT    EPW88443   8.251   7.107   6.609  0.3629  0.1545 -0.1488
21660WAT      O88444   5.240   8.117   3.884  0.0844  0.0449 -0.0850
21660WAT     H188445   5.200   8.127   3.970 -2.1757  0.3545 -1.1059
21660WAT     H288446   5.278   8.029   3.885  0.7899  0.3434  1.4678
21660WAT    EPW88447   5.240   8.106   3.895 -0.1206  0.1254 -0.0149
21661WAT      O88448   6.885   3.859   7.005  0.0787  0.1471 -0.1828
21661WAT     H188449   6.942   3.891   6.935  1.8756  0.3160  1.2872
21661WAT     H288450   6.802   3.903   6.990 -0.4192 -1.6449 -3.6021
21661WAT    EPW88451   6.882   3.869   6.994  0.2499 -0.0669 -0.4401
21662WAT      O88452   7.772   0.867   6.288  0.3665  0.6548 -0.9203
21662WAT     H188453   7.697   0.908   6.245  0.6587  0.7399 -1.3562
21662WAT     H288454   7.736   0.788   6.329 -0.3848  1.7852  0.6910
21662WAT    EPW88455   7.757   0.862   6.288  0.3059  0.8151 -0.7656
21663WAT      O88456   7.059   9.138   3.884 -0.6452 -0.4133 -0.3484
21663WAT     H188457   7.072   9.050   3.920  3.8995 -0.2667 -0.9504
21663WAT     H288458   7.046   9.123   3.790  0.0797 -0.5077 -0.4439
21663WAT    EPW88459   7.059   9.124   3.876  0.0498 -0.4063 -0.4402
21664WAT      O88460  10.171   0.481   7.637  0.3967  0.3958  0.0219
21664WAT     H188461  10.104   0.423   7.672  1.3577 -1.5490 -1.1968
21664WAT     H288462  10.143   0.500   7.548  0.9627  0.4176 -0.1549
21664WAT    EPW88463  10.159   0.476   7.630  0.5980  0.1422 -0.1616
21665WAT      O88464   6.744   9.952   2.028  0.2428  0.7789  0.4484
21665WAT     H188465   6.775   9.910   2.109  1.0674  0.0419 -0.2396
21665WAT     H288466   6.768   9.891   1.959  1.8572  2.5502 -0.6363
21665WAT    EPW88467   6.751   9.938   2.030  0.5643  0.9160  0.2146
21666WAT      O88468   7.819   0.516   7.384  0.4198 -0.7560  0.1508
21666WAT     H188469   7.741   0.479   7.425  0.7359 -1.3533  0.2178
21666WAT     H288470   7.810   0.495   7.291 -0.3051  0.6142 -0.1189
21666WAT    EPW88471   7.807   0.509   7.377  0.3660 -0.6541  0.1240
21667WAT      O88472   7.673   6.909   6.180  0.5018  0.7994  0.2111
21667WAT     H188473   7.621   6.828   6.181 -0.2961  1.2943 -0.3184
21667WAT     H288474   7.764   6.878   6.175  0.3116 -0.0874  1.6556
21667WAT    EPW88475   7.678   6.894   6.179  0.3715  0.7477  0.3319
21668WAT      O88476   4.957   9.719   7.944  0.4136 -0.6157 -0.0264
21668WAT     H188477   4.936   9.629   7.967 -0.6299 -0.0305  1.4614
21668WAT     H288478   5.027   9.712   7.879  0.1133 -2.4874 -0.1934
21668WAT    EPW88479   4.963   9.706   7.938  0.2365 -0.7849  0.1478
21669WAT      O88480   8.756   0.538   6.070 -0.1878  0.7589 -0.1078
21669WAT     H188481   8.667   0.510   6.091  0.4730 -1.2979  0.2479
21669WAT     H288482   8.752   0.566   5.978 -0.9700 -0.4744 -0.4730
21669WAT    EPW88483   8.744   0.538   6.061 -0.2041  0.3249 -0.1090
21670WAT      O88484   8.659   0.382   4.148  0.7124 -0.2511 -0.9083
21670WAT     H188485   8.625   0.360   4.062 -0.2839  1.9291 -1.1394
21670WAT     H288486   8.692   0.472   4.139  1.4271 -0.2999  0.7565
21670WAT    EPW88487   8.659   0.391   4.136  0.6752  0.0300 -0.7191
21671WAT      O88488   4.919   8.196   2.903 -0.0679 -0.1015 -0.8034
21671WAT     H188489   4.952   8.232   2.985  0.0970 -0.2973 -0.7815
21671WAT     H288490   4.829   8.227   2.897 -1.3212 -2.9097  1.1994
21671WAT    EPW88491   4.912   8.205   2.913 -0.2115 -0.4978 -0.5363
21672WAT      O88492   9.765   9.285   4.977  0.1930 -0.2179  0.6915
21672WAT     H188493   9.785   9.208   4.923  1.9851  0.6660 -0.0100
21672WAT     H288494   9.837   9.289   5.040 -0.7508 -0.0201  1.7772
21672WAT    EPW88495   9.777   9.276   4.978  0.3042 -0.0753  0.7422
21673WAT      O88496   9.267   2.103   6.577 -0.2462 -0.8090  0.3646
21673WAT     H188497   9.325   2.113   6.501  0.6407  0.4405  1.1724
21673WAT     H288498   9.243   2.010   6.576 -0.8582 -0.6844 -1.8465
21673WAT    EPW88499   9.272   2.092   6.567 -0.2093 -0.6278  0.1795
21674WAT      O88500   6.327  10.075   4.744  0.6623 -0.0644  0.1761
21674WAT     H188501   6.256  10.017   4.772  1.1523 -0.2765  1.0313
21674WAT     H288502   6.284  10.141   4.689 -0.0854 -0.5635  0.1459
21674WAT    EPW88503   6.312  10.076   4.740  0.6280 -0.1588  0.2849
21675WAT      O88504   9.397   0.484   6.648  0.1184 -0.4976  0.0907
21675WAT     H188505   9.344   0.468   6.570 -0.1020 -1.7347  0.4735
21675WAT     H288506   9.481   0.443   6.629  0.8227  1.0675 -0.3338
21675WAT    EPW88507   9.401   0.476   6.636  0.1822 -0.4544  0.0851
21676WAT      O88508   8.357   0.604   2.876 -0.2590 -0.6064 -0.0925
21676WAT     H188509   8.294   0.579   2.944  2.1041 -1.2338  2.0272
21676WAT     H288510   8.393   0.520   2.846  3.1567 -0.2907  2.5034
21676WAT    EPW88511   8.353   0.589   2.881  0.5031 -0.6475  0.5294
21677WAT      O88512   4.711   9.364   8.149  0.2970 -0.1618  0.3000
21677WAT     H188513   4.699   9.274   8.121 -1.3825  0.2709 -0.5085
21677WAT     H288514   4.743   9.358   8.239 -2.2981 -1.5886  1.2214
21677WAT    EPW88515   4.713   9.352   8.157 -0.2668 -0.2933  0.3142
21678WAT      O88516   7.131   8.890   4.005 -0.0852  0.0832 -0.1005
21678WAT     H188517   7.040   8.861   4.004 -1.2954  3.5271 -0.4576
21678WAT     H288518   7.164   8.870   3.917 -1.1949  0.7639 -0.6817
21678WAT    EPW88519   7.124   8.883   3.993 -0.3910  0.6275 -0.2242
21679WAT      O88520   1.158   4.726   8.861 -0.4949  0.4532 -0.0789
21679WAT     H188521   1.077   4.719   8.912  0.1461  1.6506  1.1555
21679WAT     H288522   1.228   4.705   8.923  0.1785 -0.5217 -1.1184
21679WAT    EPW88523   1.156   4.722   8.876 -0.3216  0.4828 -0.0529
21680WAT      O88524   9.829   9.876   3.967 -0.1463 -0.2013  0.5709
21680WAT     H188525   9.817   9.819   4.043 -1.0138 -1.4362 -0.4323
21680WAT     H288526   9.899   9.834   3.916  0.0517  0.3098  0.4141
21680WAT    EPW88527   9.837   9.863   3.970 -0.2346 -0.2966  0.4179
21681WAT      O88528   9.152   0.359   5.188  0.5152 -0.0474  0.0290
21681WAT     H188529   9.152   0.428   5.122  0.6648 -1.0931 -1.0769
21681WAT     H288530   9.065   0.319   5.180  0.6312 -0.3522  0.2891
21681WAT    EPW88531   9.140   0.363   5.178  0.5498 -0.2255 -0.0823
21682WAT      O88532   7.851   6.676   5.569 -0.5082 -0.6837 -0.3632
21682WAT     H188533   7.840   6.637   5.482  0.9702 -0.6716 -0.5731
21682WAT     H288534   7.886   6.764   5.552 -0.3087 -0.6419  0.2349
21682WAT    EPW88535   7.854   6.682   5.555 -0.2871 -0.6769 -0.3119
21683WAT      O88536   0.110   0.130   4.055 -0.8930  0.2979 -0.7722
21683WAT     H188537   0.085   0.219   4.081 -2.5245  0.0249 -1.3431
21683WAT     H288538   0.060   0.073   4.113  0.5523 -0.2756 -0.0486
21683WAT    EPW88539   0.100   0.135   4.066 -0.9175  0.1862 -0.7522
21684WAT      O88540   0.409   0.787   3.356 -0.0337 -0.5788  0.2907
21684WAT     H188541   0.418   0.733   3.435 -5.0031 -1.5027  0.5550
21684WAT     H288542   0.364   0.865   3.386  1.9870  1.2342 -1.0721
21684WAT    EPW88543   0.404   0.790   3.371 -0.4226 -0.4615  0.1459
21685WAT      O88544   7.395   9.437   5.170 -0.1754 -0.1061 -0.5851
21685WAT     H188545   7.325   9.420   5.106 -2.5048 -0.2186  1.8007
21685WAT     H288546   7.392   9.362   5.229  1.1389  0.5041  0.3001
21685WAT    EPW88547   7.385   9.425   5.169 -0.3092 -0.0401 -0.1538
21686WAT      O88548   6.457   9.593   5.150  0.2265  0.0739 -0.0016
21686WAT     H188549   6.364   9.614   5.145  0.2557  0.2094  0.0221
21686WAT     H288550   6.490   9.648   5.221  0.6619  1.2670 -1.0921
21686WAT    EPW88551   6.449   9.603   5.159  0.2875  0.2489 -0.1423
21687WAT      O88552   7.729   8.581   4.329 -0.1158  0.4822 -0.8233
21687WAT     H188553   7.722   8.670   4.363 -1.3142 -0.5103  1.8408
21687WAT     H288554   7.638   8.555   4.314  0.2082 -0.3394 -1.4083
21687WAT    EPW88555   7.716   8.589   4.332 -0.2310  0.2432 -0.5491
21688WAT      O88556   7.040   8.903   3.065 -0.0673 -0.6761  0.9112
21688WAT     H188557   7.121   8.872   3.105  0.9841  0.8769  0.0547
21688WAT     H288558   7.042   8.866   2.976  0.0154 -0.1124  0.6785
21688WAT    EPW88559   7.051   8.894   3.059  0.0820 -0.3967  0.7676
21689WAT      O88560   7.842   1.221   5.228 -0.2690  0.7330  0.1927
21689WAT     H188561   7.793   1.303   5.241  0.2771  1.0602  0.2196
21689WAT     H288562   7.832   1.174   5.311 -0.2369  0.9605  0.3253
21689WAT    EPW88563   7.834   1.226   5.241 -0.1926  0.8063  0.2139
21690WAT      O88564   0.011   0.706   3.227 -1.2495 -0.0016 -0.2356
21690WAT     H188565  -0.066   0.707   3.170 -2.0964  1.6622  0.8178
21690WAT     H288566  -0.024   0.732   3.313  0.0559 -1.9126  0.9328
21690WAT    EPW88567  -0.004   0.710   3.231 -1.1890 -0.0342  0.0575
21691WAT      O88568   7.430   7.873   6.684  0.8176 -0.3590  0.7063
21691WAT     H188569   7.356   7.883   6.744  1.2989 -1.1577  1.4626
21691WAT     H288570   7.508   7.877   6.740  1.2504 -1.9615  0.2902
21691WAT    EPW88571   7.431   7.875   6.699  0.9382 -0.6754  0.7510
21692WAT      O88572   8.339   8.496   7.270  0.6087 -0.1775  0.6141
21692WAT     H188573   8.309   8.417   7.225 -3.0300  1.3733  0.0073
21692WAT     H288574   8.312   8.568   7.213  1.3045  1.6283  2.4327
21692WAT    EPW88575   8.332   8.495   7.257  0.2203  0.2656  0.7739
21693WAT      O88576   2.437   2.119   5.366 -0.2753  0.0423  0.4058
21693WAT     H188577   2.430   2.036   5.414  0.2053 -0.6971 -0.7694
21693WAT     H288578   2.515   2.161   5.403  1.2746 -1.4243 -0.9917
21693WAT    EPW88579   2.446   2.113   5.378 -0.0075 -0.2487  0.0665
21694WAT      O88580   2.657  10.370   5.079 -0.0985 -0.0268  0.3385
21694WAT     H188581   2.702  10.452   5.061 -1.7990  0.5258 -1.9541
21694WAT     H288582   2.703  10.305   5.026  0.1889 -0.2095  0.8074
21694WAT    EPW88583   2.669  10.372   5.069 -0.2849  0.0224  0.0980
21695WAT      O88584   9.467   2.347   5.164  0.4138  0.7282  0.2205
21695WAT     H188585   9.429   2.357   5.251 -1.8022  2.2566 -0.8109
21695WAT     H288586   9.500   2.434   5.141 -0.5028  0.7836 -1.0409
21695WAT    EPW88587   9.466   2.360   5.172  0.0010  0.9370 -0.0820
21696WAT      O88588   3.955   7.959   4.560 -0.2522 -0.5245 -0.0860
21696WAT     H188589   4.011   8.017   4.509  1.1469 -1.5581  0.2179
21696WAT     H288590   3.896   7.920   4.496 -3.7410  3.7560  0.0767
21696WAT    EPW88591   3.955   7.961   4.545 -0.5279 -0.0963 -0.0243
21697WAT      O88592   7.998   1.358   5.508 -0.1801 -0.6850 -0.1273
21697WAT     H188593   7.922   1.365   5.450 -0.8139 -0.5924  0.6971
21697WAT     H288594   8.024   1.448   5.524 -0.4633 -0.6796  0.3156
21697WAT    EPW88595   7.991   1.371   5.502 -0.3011 -0.6720  0.0398
21698WAT      O88596   8.354   1.150   5.006 -0.9598  0.6877  0.0319
21698WAT     H188597   8.315   1.064   5.021  0.1218 -0.0487 -1.2240
21698WAT     H288598   8.306   1.208   5.066 -0.2377 -1.1242  2.5350
21698WAT    EPW88599   8.342   1.147   5.016 -0.7219  0.3515  0.1965
21699WAT      O88600   5.514   6.633   2.790 -0.1850 -0.1424  0.1595
21699WAT     H188601   5.604   6.666   2.790 -0.0271 -0.4384  2.3851
21699WAT     H288602   5.518   6.555   2.845 -1.3091 -1.7857 -1.9180
21699WAT    EPW88603   5.527   6.627   2.797 -0.3123 -0.3982  0.1789
21700WAT      O88604   3.544   8.633   5.800  0.1920 -0.5386  0.5510
21700WAT     H188605   3.488   8.706   5.827  0.7034 -0.0188  0.2150
21700WAT     H288606   3.629   8.652   5.839  0.8360  0.0163 -1.0806
21700WAT    EPW88607   3.548   8.645   5.809  0.3444 -0.3967  0.2916
21701WAT      O88608   8.517   0.128   4.749  0.3440  0.2897  0.6459
21701WAT     H188609   8.519   0.037   4.721  0.3322  0.1665  1.0497
21701WAT     H288610   8.578   0.132   4.823  2.5273  1.1713 -1.0757
21701WAT    EPW88611   8.526   0.117   4.755  0.6304  0.3897  0.4723
21702WAT      O88612   9.463   0.786   5.210 -0.1941 -0.1538 -0.6247
21702WAT     H188613   9.422   0.738   5.138  1.5161  1.5925 -2.8892
21702WAT     H288614   9.557   0.780   5.192  0.2790  0.5896  1.3467
21702WAT    EPW88615   9.470   0.779   5.198  0.0939  0.1746 -0.6633
21703WAT      O88616   8.889   8.563   7.642 -0.5384 -0.2109 -0.2310
21703WAT     H188617   8.957   8.504   7.608  2.6175  0.3166  4.2624
21703WAT     H288618   8.832   8.507   7.694  1.1992  0.1478  2.2665
21703WAT    EPW88619   8.891   8.548   7.644  0.1068 -0.0944  0.6909
21704WAT      O88620  10.387   4.142   2.788  0.0945 -0.3198 -0.5181
21704WAT     H188621  10.443   4.105   2.719 -1.4593  2.1346 -3.3145
21704WAT     H288622  10.298   4.133   2.755 -0.7049  1.2304  1.0376
21704WAT    EPW88623  10.383   4.136   2.775 -0.2151  0.2084 -0.6816
21705WAT      O88624   6.607   8.893   2.353 -0.4169 -0.2063 -0.2330
21705WAT     H188625   6.576   8.813   2.395  1.2412 -0.8492 -0.1772
21705WAT     H288626   6.680   8.864   2.298  0.2553  1.2852 -0.1549
21705WAT    EPW88627   6.613   8.879   2.351 -0.1094 -0.0944 -0.2152
21706WAT      O88628   5.543   9.509   3.225  0.1414  0.7349  0.4615
21706WAT     H188629   5.582   9.596   3.234 -0.3213  1.0722 -0.6208
21706WAT     H288630   5.452   9.526   3.202  0.3627  0.0055 -1.1336
21706WAT    EPW88631   5.536   9.522   3.223  0.1097  0.6828  0.1084
21707WAT      O88632   7.122   9.655   7.068 -0.9035  0.4250  0.1649
21707WAT     H188633   7.199   9.651   7.124 -1.4400  2.7163  1.2027
21707WAT     H288634   7.051   9.683   7.127 -2.8782 -2.7129 -0.4745
21707WAT    EPW88635   7.123   9.658   7.083 -1.2348  0.3133  0.2177
21708WAT      O88636   4.811   5.394   0.263  0.2064 -0.3336 -0.0830
21708WAT     H188637   4.742   5.400   0.197 -1.7950 -0.9332  1.8159
21708WAT     H288638   4.892   5.388   0.213 -0.7920  2.8290 -2.4545
21708WAT    EPW88639   4.813   5.394   0.248 -0.1891  0.0043 -0.1454
21709WAT      O88640   6.558   8.506   3.616 -0.0887 -0.5117  0.3018
21709WAT     H188641   6.555   8.457   3.533  0.6649  0.1948 -0.1655
21709WAT     H288642   6.598   8.590   3.592 -0.8969  0.1372  1.1815
21709WAT    EPW88643   6.563   8.511   3.602 -0.0961 -0.3328  0.3561
21710WAT      O88644   8.790   2.453   6.069  0.2810 -0.0292  0.7299
21710WAT     H188645   8.808   2.419   5.982 -1.3448 -0.3087  0.4563
21710WAT     H288646   8.833   2.538   6.072  2.7073 -1.1706  0.6940
21710WAT    EPW88647   8.798   2.460   6.058  0.3867 -0.2164  0.6893
21711WAT      O88648   5.893   9.713   6.425  0.4285  0.5038  0.0519
21711WAT     H188649   5.820   9.679   6.476 -0.1851  0.4644 -0.8381
21711WAT     H288650   5.874   9.806   6.414  0.7678  0.5961  0.2467
21711WAT    EPW88651   5.881   9.721   6.430  0.3924  0.5112 -0.0398
21712WAT      O88652   6.030  10.118   4.838  0.1572 -0.2562 -0.2245
21712WAT     H188653   6.038  10.068   4.919 -0.3411 -0.5207 -0.3303
21712WAT     H288654   5.943  10.158   4.844  1.2419  2.1661  0.7322
21712WAT    EPW88655   6.019  10.117   4.850  0.2346  0.0277 -0.1123
21713WAT      O88656  10.383   8.408   7.419 -0.1621 -0.1307  0.3508
21713WAT     H188657  10.385   8.487   7.472  0.4220 -1.3567  2.2887
21713WAT     H288658  10.326   8.429   7.345  0.4112  2.2292  0.5052
21713WAT    EPW88659  10.376   8.421   7.416 -0.0095  0.0191  0.6266
21714WAT      O88660   5.288   8.766   3.768  0.4191  0.2744 -0.9894
21714WAT     H188661   5.197   8.739   3.759  1.1582 -2.0339 -2.7110
21714WAT     H288662   5.285   8.862   3.768 -2.0174  0.2576 -0.4456
21714WAT    EPW88663   5.276   8.775   3.767  0.1953 -0.0324 -1.1448
21715WAT      O88664   8.973   1.467   6.540 -0.2140 -0.0535 -0.5165
21715WAT     H188665   8.956   1.509   6.455 -1.1505 -1.6689 -1.1747
21715WAT     H288666   8.888   1.465   6.583 -0.1743 -1.1570 -0.4650
21715WAT    EPW88667   8.960   1.472   6.534 -0.3319 -0.4121 -0.5963
21716WAT      O88668   4.680   9.397   6.964 -0.0707  0.7396 -0.2478
21716WAT     H188669   4.684   9.312   6.920 -1.2381  0.9682 -0.8244
21716WAT     H288670   4.669   9.461   6.893 -0.2080  1.2814  0.2498
21716WAT    EPW88671   4.679   9.394   6.949 -0.2427  0.8407 -0.2582
21717WAT      O88672  10.865   0.073   2.165 -0.4386 -0.2345 -0.3508
21717WAT     H188673  10.848   0.162   2.133 -1.2791  0.1117  0.9645
21717WAT     H288674  10.899   0.026   2.089 -2.1844  0.5760 -1.6989
21717WAT    EPW88675  10.867   0.079   2.150 -0.7796 -0.0819 -0.3551
21718WAT      O88676   5.077   9.362   3.575  0.1169 -0.1596  0.0139
21718WAT     H188677   4.991   9.327   3.597 -1.0261  1.1202 -2.0535
21718WAT     H288678   5.134   9.333   3.646 -1.7058 -2.2070  0.7560
21718WAT    EPW88679   5.073   9.353   3.587 -0.2744 -0.2604 -0.1608
21719WAT      O88680   2.656   3.726   0.123  0.3416  0.5091  0.0238
21719WAT     H188681   2.616   3.683   0.048 -0.0520 -0.7550  0.9325
21719WAT     H288682   2.742   3.686   0.131 -1.1274 -2.5388  2.7215
21719WAT    EPW88683   2.662   3.715   0.115  0.0958 -0.0596  0.4995
21720WAT      O88684   4.879   8.495   6.035 -0.5653 -0.3579 -0.5591
21720WAT     H188685   4.921   8.424   6.085 -1.1939 -2.0106 -2.2493
21720WAT     H288686   4.787   8.471   6.032 -1.0301  1.2818 -0.0260
21720WAT    EPW88687   4.872   8.482   6.041 -0.7095 -0.3595 -0.7117
21721WAT      O88688   3.941   8.857   3.688 -0.5306  0.1091 -0.4071
21721WAT     H188689   3.954   8.826   3.777 -1.2868  2.7328  0.7295
21721WAT     H288690   3.846   8.865   3.680 -0.4155  1.0063 -1.0111
21721WAT    EPW88691   3.930   8.854   3.698 -0.6152  0.5736 -0.3368
21722WAT      O88692   2.085   6.504   0.217 -0.0329  0.5435  0.1848
21722WAT     H188693   2.023   6.552   0.271  1.0619  1.1055  0.9907
21722WAT     H288694   2.153   6.567   0.196  0.4365 -0.1381 -0.3972
21722WAT    EPW88695   2.086   6.518   0.222  0.1733  0.5279  0.2143
21723WAT      O88696   0.332   1.447   5.457  1.1026  0.3754  0.3683
21723WAT     H188697   0.264   1.396   5.412  0.1467 -0.2727  2.4229
21723WAT     H288698   0.319   1.536   5.425 -0.6757  0.2490  0.5990
21723WAT    EPW88699   0.321   1.452   5.447  0.7420  0.2732  0.6697
21724WAT      O88700   3.385   9.167   4.471  0.1067 -0.0464  0.2768
21724WAT     H188701   3.389   9.220   4.391 -1.2536 -2.8107 -1.7571
21724WAT     H288702   3.296   9.180   4.504  0.4715  0.6030  1.0384
21724WAT    EPW88703   3.374   9.176   4.465 -0.0246 -0.3252  0.1090
21725WAT      O88704   7.703   9.072   4.209  0.2007  0.8431 -0.1375
21725WAT     H188705   7.628   9.053   4.152  0.8260  0.7109 -0.9286
21725WAT     H288706   7.673   9.143   4.265 -1.0906 -0.2880  0.6979
21725WAT    EPW88707   7.689   9.079   4.209  0.1130  0.6762 -0.1318
21726WAT      O88708  10.527   3.497   2.537 -0.0479 -0.1099  0.0497
21726WAT     H188709  10.532   3.561   2.467  0.6924 -0.9097 -0.6526
21726WAT     H288710  10.508   3.414   2.493  0.6949 -0.6724  0.7515
21726WAT    EPW88711  10.525   3.494   2.522  0.1473 -0.2894  0.0496
21727WAT      O88712   7.169   9.442   6.194  0.5574  0.5459 -0.0793
21727WAT     H188713   7.186   9.466   6.103  1.2749  1.2272  0.2240
21727WAT     H288714   7.217   9.506   6.245 -2.1632  2.0102  0.8631
21727WAT    EPW88715   7.177   9.454   6.189  0.2933  0.8292  0.0851
21728WAT      O88716   8.361   4.004   5.318 -0.6976 -0.3817 -0.4287
21728WAT     H188717   8.331   4.047   5.238  0.1654 -1.7783 -1.5504
21728WAT     H288718   8.427   3.941   5.288  0.6469  0.0155  1.5370
21728WAT    EPW88719   8.366   4.001   5.303 -0.4063 -0.5136 -0.3178
21729WAT      O88720   3.838   9.836   8.389  0.2397  0.3021 -0.0779
21729WAT     H188721   3.774   9.885   8.440 -1.0138  1.7751 -2.8308
21729WAT     H288722   3.897   9.903   8.355  2.1310 -0.8276  0.7995
21729WAT    EPW88723   3.837   9.851   8.391  0.3238  0.3471 -0.3252
21730WAT      O88724   8.060   0.345   5.795  0.6811 -0.2195 -0.1582
21730WAT     H188725   8.030   0.420   5.846  0.4190  0.3007 -1.0466
21730WAT     H288726   8.072   0.275   5.859 -0.1173  0.2693  0.5447
21730WAT    EPW88727   8.058   0.345   5.810  0.5417 -0.0864 -0.1826
21731WAT      O88728  10.123   9.235   3.002  0.1215  0.1734 -0.2070
21731WAT     H188729  10.190   9.254   3.067 -0.1142 -0.1349  0.1327
21731WAT     H288730  10.049   9.203   3.053 -0.5862  1.2877 -0.5056
21731WAT    EPW88731  10.122   9.233   3.017 -0.0029  0.2794 -0.2017
21732WAT      O88732   6.766   7.248   5.465  0.1455  0.4787  0.7062
21732WAT     H188733   6.749   7.180   5.400 -0.6254  0.4229  0.9624
21732WAT     H288734   6.738   7.210   5.548 -0.8885  1.3231  0.7619
21732WAT    EPW88735   6.760   7.234   5.467 -0.0925  0.5832  0.7474
21733WAT      O88736   1.808   1.533   6.739  0.0755  0.0947 -0.1022
21733WAT     H188737   1.811   1.619   6.781  1.3057  0.3657 -0.6941
21733WAT     H288738   1.720   1.500   6.758 -0.6129  1.7159 -0.3113
21733WAT    EPW88739   1.796   1.540   6.747  0.1470  0.3442 -0.2074
21734WAT      O88740   2.730   9.422   7.584 -0.5556  0.3675 -0.2263
21734WAT     H188741   2.820   9.394   7.571 -1.0012 -1.5978  0.5110
21734WAT     H288742   2.737   9.507   7.628  0.9760 -0.4532  1.2277
21734WAT    EPW88743   2.743   9.430   7.588 -0.4123 -0.0005  0.0625
21735WAT      O88744   3.990   6.122   8.681 -0.9587 -0.4890 -0.5417
21735WAT     H188745   4.013   6.031   8.664 -1.6012 -0.2478 -3.2199
21735WAT     H288746   3.925   6.119   8.751 -0.4424 -2.0135 -0.1047
21735WAT    EPW88747   3.984   6.110   8.688 -0.9754 -0.6583 -0.8373
21736WAT      O88748   2.711   7.869   5.152 -0.0492  0.6381 -0.4136
21736WAT     H188749   2.793   7.918   5.163 -1.2072  2.4542  0.7631
21736WAT     H288750   2.666   7.880   5.236 -1.8202  0.3194 -1.2881
21736WAT    EPW88751   2.716   7.877   5.165 -0.4355  0.8357 -0.3734
21737WAT      O88752   4.509  10.015   6.128  0.2883  0.4549 -0.2010
21737WAT     H188753   4.460   9.962   6.065  1.8461 -0.8942 -0.3664
21737WAT     H288754   4.451  10.088   6.149 -0.4344  0.7771 -2.9289
21737WAT    EPW88755   4.495  10.017   6.122  0.3984  0.3190 -0.5825
21738WAT      O88756   6.740   9.259   4.082 -0.7584 -0.9175 -0.5561
21738WAT     H188757   6.744   9.187   4.019 -1.3820 -1.3855 -0.0771
21738WAT     H288758   6.646   9.274   4.095 -0.6464  0.6477 -1.3899
21738WAT    EPW88759   6.728   9.251   4.076 -0.8261 -0.7730 -0.6027
21739WAT      O88760   8.501   0.756   5.132  0.4317 -0.2443  0.7389
21739WAT     H188761   8.501   0.670   5.174  0.0007  0.9402  3.3388
21739WAT     H288762   8.504   0.818   5.205  0.8641  1.9561 -1.0667
21739WAT    EPW88763   8.501   0.753   5.147  0.4311  0.2021  0.8438
21740WAT      O88764   7.911   8.554   5.382  0.0181 -0.0430 -0.1058
21740WAT     H188765   8.002   8.554   5.411 -0.0270 -0.5572  0.0461
21740WAT     H288766   7.914   8.521   5.293  0.0364  0.4936 -0.3111
21740WAT    EPW88767   7.923   8.550   5.374  0.0145 -0.0405 -0.1128
21741WAT      O88768   4.971   8.243   7.692 -0.4756 -0.4036 -0.4818
21741WAT     H188769   5.048   8.277   7.737  0.0127 -0.2025 -1.4428
21741WAT     H288770   4.927   8.188   7.757  1.3436 -1.8432 -0.3701
21741WAT    EPW88771   4.975   8.240   7.707 -0.1712 -0.5665 -0.5939
21742WAT      O88772   6.269   6.515   5.165  0.3038  0.1805  0.2645
21742WAT     H188773   6.282   6.567   5.086 -0.6477 -0.3231 -0.2413
21742WAT     H288774   6.274   6.578   5.237 -0.7485  0.9598 -0.3300
21742WAT    EPW88775   6.272   6.530   5.164  0.0393  0.2170  0.1192
21743WAT      O88776   6.640   6.327   4.629  0.0709  0.0671  0.3558
21743WAT     H188777   6.683   6.404   4.666 -0.2998  0.6406 -0.3997
21743WAT     H288778   6.698   6.298   4.558  0.0840 -0.2117  0.4756
21743WAT    EPW88779   6.654   6.333   4.625  0.0238  0.1061  0.2718
21744WAT      O88780  10.933   0.972   2.379 -0.2594 -0.1821  0.7504
21744WAT     H188781  10.948   0.914   2.305 -0.1077  0.7751  0.0187
21744WAT     H288782  11.010   0.962   2.434 -0.8050 -1.6251  1.2955
21744WAT    EPW88783  10.945   0.963   2.377 -0.3119 -0.2461  0.7257
21745WAT      O88784   5.926   2.783   3.947 -0.2397 -0.7781 -0.4504
21745WAT     H188785   5.937   2.826   4.032 -2.7791  1.5203 -1.1607
21745WAT     H288786   6.014   2.781   3.909  0.5646  0.2638  1.2679
21745WAT    EPW88787   5.939   2.788   3.953 -0.4685 -0.3375 -0.3173
21746WAT      O88788   4.339   9.509   6.929 -0.1552  0.2186  0.4140
21746WAT     H188789   4.369   9.507   6.839  1.4690  0.2843  0.9280
21746WAT     H288790   4.270   9.442   6.933  0.1875 -0.2164 -0.7125
21746WAT    EPW88791   4.334   9.500   6.918  0.1044  0.1702  0.3331
21747WAT      O88792   6.828   6.979   6.409  0.5830 -0.3245 -0.4628
21747WAT     H188793   6.864   6.895   6.440  2.2000 -0.0060 -1.3608
21747WAT     H288794   6.739   6.958   6.381  0.8526 -1.6825 -0.3657
21747WAT    EPW88795   6.821   6.965   6.409  0.8318 -0.4616 -0.5682
21748WAT      O88796   7.461  10.244   6.429 -0.5741  0.1654 -0.4833
21748WAT     H188797   7.439  10.336   6.412  0.5017  0.6597  0.5921
21748WAT     H288798   7.445  10.199   6.346 -1.0495  1.3322 -1.0458
21748WAT    EPW88799   7.456  10.250   6.416 -0.4950  0.3843 -0.4156
21749WAT      O88800   8.449   0.429   8.241  0.4227 -0.2596  0.3062
21749WAT     H188801   8.448   0.409   8.335  0.1147  0.5803  0.4902
21749WAT     H288802   8.473   0.347   8.199 -0.8157 -1.0272  1.0324
21749WAT    EPW88803   8.452   0.416   8.248  0.2184 -0.2500  0.4263
21750WAT      O88804   9.187   0.339   3.096  0.5183 -0.1630 -0.2239
21750WAT     H188805   9.109   0.285   3.082 -0.1793  0.3342  1.5634
21750WAT     H288806   9.216   0.317   3.185  1.6893  0.5882 -0.3976
21750WAT    EPW88807   9.180   0.329   3.106  0.5808  0.0017 -0.0111
21751WAT      O88808   8.194   0.736   7.779 -0.6656  0.2797  1.0332
21751WAT     H188809   8.147   0.684   7.714 -1.7314  0.2308  1.8295
21751WAT     H288810   8.235   0.671   7.836  2.7382  0.2072 -1.1560
21751WAT    EPW88811   8.194   0.720   7.778 -0.3567  0.2637  0.8497
21752WAT      O88812   4.788   9.215   3.370  0.2110  0.3572 -0.4045
21752WAT     H188813   4.859   9.162   3.407 -0.7738  0.3594  1.6511
21752WAT     H288814   4.827   9.301   3.355  1.0128 -0.0558 -0.7071
21752WAT    EPW88815   4.802   9.219   3.373  0.1867  0.3037 -0.1733
21753WAT      O88816   7.800   7.343   6.540 -0.2024 -0.2935 -0.1756
21753WAT     H188817   7.797   7.439   6.544 -0.6427 -0.3424  1.8140
21753WAT     H288818   7.818   7.323   6.448 -1.4461  1.6541 -0.9001
21753WAT    EPW88819   7.802   7.353   6.529 -0.4249 -0.0434 -0.0088
21754WAT      O88820  10.845   9.153   5.691  0.3304  0.4922 -0.0036
21754WAT     H188821  10.763   9.191   5.723 -0.3988 -1.0555  0.0307
21754WAT     H288822  10.912   9.193   5.746 -0.1907  2.8746 -0.9534
21754WAT    EPW88823  10.843   9.163   5.702  0.1650  0.6022 -0.1245
21755WAT      O88824   9.819   3.175   8.010 -0.0139 -0.1716  0.0968
21755WAT     H188825   9.727   3.168   7.986 -0.0575  0.0410  0.2049
21755WAT     H288826   9.849   3.084   8.015  0.1783 -0.2075 -1.4421
21755WAT    EPW88827   9.811   3.162   8.008  0.0062 -0.1482 -0.0916
21756WAT      O88828   5.713  10.123   3.381  0.1970  0.5096  0.5102
21756WAT     H188829   5.674  10.209   3.398  2.6505  1.7151  0.5054
21756WAT     H288830   5.804  10.133   3.410  0.4264 -2.2637  0.9572
21756WAT    EPW88831   5.720  10.136   3.387  0.5510  0.3028  0.5686
21757WAT      O88832   8.371   8.414   3.308  0.2551 -0.5971  0.2365
21757WAT     H188833   8.449   8.359   3.314  0.0524 -0.8052  1.0731
21757WAT     H288834   8.321   8.376   3.235  1.1019 -0.2333 -0.5400
21757WAT    EPW88835   8.374   8.402   3.299  0.3400 -0.5765  0.2444
21758WAT      O88836   9.947   1.411   5.991 -1.0389 -0.1511 -0.1856
21758WAT     H188837   9.988   1.446   6.069  1.1110  0.5922 -1.5489
21758WAT     H288838   9.871   1.467   5.976  1.8509  3.8014 -1.8995
21758WAT    EPW88839   9.942   1.423   5.999 -0.3738  0.4682 -0.5915
21759WAT      O88840   7.677   7.994   5.796 -0.0557  0.1430 -0.5049
21759WAT     H188841   7.606   8.057   5.806 -0.8207 -0.8573  0.7840
21759WAT     H288842   7.746   8.042   5.751 -1.6814  1.0253 -2.1884
21759WAT    EPW88843   7.677   8.008   5.791 -0.3710  0.1273 -0.5572
21760WAT      O88844   8.602   2.515   5.085  0.1651  0.3486 -0.1514
21760WAT     H188845   8.588   2.543   5.175  0.8741  1.0678 -0.2526
21760WAT     H288846   8.552   2.434   5.077 -0.7745  0.8426  0.5663
21760WAT    EPW88847   8.594   2.508   5.096  0.1345  0.5085 -0.0701
21761WAT      O88848   9.145   3.923   7.190 -0.1792 -0.0208 -0.1596
21761WAT     H188849   9.122   3.928   7.097 -0.1336 -0.0047 -0.1701
21761WAT     H288850   9.121   3.834   7.216 -0.0104 -0.0890 -0.2343
21761WAT    EPW88851   9.138   3.912   7.181 -0.1512 -0.0277 -0.1707
21762WAT      O88852   7.084   1.801   6.268 -0.3170  0.3809 -0.0113
21762WAT     H188853   7.124   1.716   6.282  1.2687  0.6344 -2.3540
21762WAT     H288854   7.148   1.864   6.303  0.8734  0.7285 -2.5550
21762WAT    EPW88855   7.098   1.798   6.275  0.0491  0.4602 -0.6559
21763WAT      O88856   7.293   9.263   4.733  0.2301  0.1250  0.1592
21763WAT     H188857   7.278   9.302   4.646 -0.3938  0.9707  0.6256
21763WAT     H288858   7.266   9.172   4.723  1.5142 -0.1758 -0.9087
21763WAT    EPW88859   7.287   9.256   4.720  0.3173  0.1974  0.0796
21764WAT      O88860   6.176   9.188   4.345 -0.2588 -0.3786  0.0060
21764WAT     H188861   6.169   9.126   4.272  0.8204  0.1535 -0.5807
21764WAT     H288862   6.260   9.166   4.386  1.2675  2.0249 -1.5502
21764WAT    EPW88863   6.186   9.177   4.340  0.0849  0.0081 -0.2766
21765WAT      O88864   4.156   6.828   1.662  0.1579  0.3342  0.3388
21765WAT     H188865   4.226   6.806   1.724 -0.5486  0.2786  1.1489
21765WAT     H288866   4.081   6.847   1.718 -0.1623  1.5453 -0.4647
21765WAT    EPW88867   4.156   6.828   1.678  0.0226  0.4866  0.3397
21766WAT      O88868  10.842   5.177   7.065 -0.0904  0.5292  0.7612
21766WAT     H188869  10.852   5.112   7.134 -0.5379  0.6726  0.9652
21766WAT     H288870  10.754   5.162   7.031  0.7545 -0.8006 -1.0768
21766WAT    EPW88871  10.832   5.166   7.070 -0.0386  0.3731  0.5455
21767WAT      O88872   1.695   2.073   3.878 -0.2812  0.0184 -0.3063
21767WAT     H188873   1.646   2.151   3.906 -1.1526 -0.7573  0.4101
21767WAT     H288874   1.674   2.065   3.785 -0.1723  0.6434 -0.3923
21767WAT    EPW88875   1.685   2.082   3.870 -0.3818 -0.0017 -0.2230
21768WAT      O88876   1.129   8.048   8.803 -0.0790  0.2127  0.2487
21768WAT     H188877   1.174   8.071   8.884  0.5379  1.6483 -0.4840
21768WAT     H288878   1.156   7.957   8.786  3.2286  1.2243 -0.5571
21768WAT    EPW88879   1.139   8.039   8.811  0.4386  0.5350  0.0458
21769WAT      O88880   9.650   0.374   8.714  0.4514  0.3067 -0.7650
21769WAT     H188881   9.582   0.375   8.647 -0.6179  2.5390  0.2404
21769WAT     H288882   9.693   0.459   8.705  1.5934 -0.1446  0.1347
21769WAT    EPW88883   9.647   0.385   8.704  0.4606  0.5416 -0.5136
21770WAT      O88884   9.375   0.367   3.966 -0.3406  0.4035  0.0306
21770WAT     H188885   9.361   0.375   4.060  0.9346 -2.0985  0.5313
21770WAT     H288886   9.467   0.391   3.954 -0.3742  0.2818 -0.5013
21770WAT    EPW88887   9.386   0.372   3.977 -0.1769  0.0575  0.0265
21771WAT      O88888   0.640   1.354   5.409  0.1470  0.5174  0.7160
21771WAT     H188889   0.665   1.434   5.363  2.2464  1.0909  2.6938
21771WAT     H288890   0.570   1.382   5.469 -0.8086  0.3044 -0.2634
21771WAT    EPW88891   0.634   1.368   5.411  0.2979  0.5650  0.8476
21772WAT      O88892   8.218   8.625   4.463 -0.2940  0.2784 -0.8437
21772WAT     H188893   8.254   8.714   4.462 -3.0916  1.5157 -1.3517
21772WAT     H288894   8.173   8.616   4.379 -0.5955 -1.4193 -0.5473
21772WAT    EPW88895   8.217   8.635   4.452 -0.7033  0.2174 -0.8717
21773WAT      O88896   8.781   1.832   3.100  1.0798 -0.0933  0.1622
21773WAT     H188897   8.834   1.772   3.153  0.9118  0.3214  0.8128
21773WAT     H288898   8.733   1.775   3.040  2.7105 -0.4322 -0.8797
21773WAT    EPW88899   8.782   1.816   3.099  1.2722 -0.0833  0.1107
21774WAT      O88900   6.789   9.067   5.397 -0.9534 -0.3932  0.0690
21774WAT     H188901   6.770   9.009   5.323  0.1852 -2.2084  1.1372
21774WAT     H288902   6.748   9.025   5.472  1.5810 -0.9750  1.2440
21774WAT    EPW88903   6.781   9.054   5.397 -0.4690 -0.7091  0.3648
21775WAT      O88904   0.157   1.984   3.480 -0.3026  0.6458 -0.6375
21775WAT     H188905   0.209   1.941   3.411  0.0126 -0.6627  0.3858
21775WAT     H288906   0.104   1.914   3.517 -0.2671  1.2737  0.6436
21775WAT    EPW88907   0.157   1.969   3.476 -0.2563  0.5561 -0.3334
21776WAT      O88908   9.611   3.023   4.474 -0.0577  0.4364  0.1253
21776WAT     H188909   9.704   3.004   4.461  0.3379 -0.5407  3.4735
21776WAT     H288910   9.569   2.937   4.476 -0.7529  0.7750  0.3251
21776WAT    EPW88911   9.618   3.009   4.472 -0.0978  0.3521  0.5932
21777WAT      O88912  10.177   2.710   6.257  0.3280  0.1791  0.2216
21777WAT     H188913  10.142   2.654   6.188  0.2061  1.0905 -0.4732
21777WAT     H288914  10.268   2.726   6.232 -0.0858  1.6098 -0.4745
21777WAT    EPW88915  10.184   2.704   6.245  0.2575  0.4880  0.0381
21778WAT      O88916   9.541   0.165   7.101  0.0716  0.1627  0.4922
21778WAT     H188917   9.452   0.146   7.129 -0.5318  0.7655 -0.9119
21778WAT     H288918   9.531   0.220   7.023  1.6753  2.1090  1.5520
21778WAT    EPW88919   9.528   0.170   7.095  0.2036  0.4989  0.4473
21779WAT      O88920   9.582   9.577   6.493 -0.2271 -0.2810  0.3258
21779WAT     H188921   9.621   9.529   6.420  4.4126  0.1486  2.2268
21779WAT     H288922   9.562   9.510   6.558 -0.8737 -0.2787  0.1445
21779WAT    EPW88923   9.584   9.562   6.492  0.2995 -0.2246  0.5527
21780WAT      O88924   0.746   0.593   8.591 -0.9417 -0.2866  0.0001
21780WAT     H188925   0.748   0.614   8.498 -2.2916 -0.4076 -0.0716
21780WAT     H288926   0.705   0.669   8.632  0.8791  0.3677  0.6968
21780WAT    EPW88927   0.741   0.606   8.584 -0.8796 -0.2163  0.0830
21781WAT      O88928   9.853   9.362   8.154  0.4548 -0.2104 -0.5638
21781WAT     H188929   9.911   9.298   8.196 -0.2440 -0.7464 -0.3924
21781WAT     H288930   9.863   9.345   8.060 -0.3273 -1.1497 -0.5055
21781WAT    EPW88931   9.862   9.351   8.147  0.2599 -0.4048 -0.5336
21782WAT      O88932   7.303  10.339   4.728  0.0426  0.5266  0.1316
21782WAT     H188933   7.339  10.312   4.812 -1.4621  1.0488  0.9755
21782WAT     H288934   7.365  10.405   4.695  0.9445 -0.1059  0.5374
21782WAT    EPW88935   7.316  10.344   4.735 -0.0367  0.5126  0.2964
21783WAT      O88936   5.261   8.493   4.998  0.7206  0.1042 -0.5878
21783WAT     H188937   5.245   8.403   4.972 -1.9046  0.6268 -1.1227
21783WAT     H288938   5.230   8.545   4.924 -1.4365  1.4840  1.1444
21783WAT    EPW88939   5.255   8.488   4.985  0.0901  0.3543 -0.4299
21784WAT      O88940   9.556   5.740   8.955  0.3778 -0.4651 -0.3060
21784WAT     H188941   9.522   5.668   8.902 -1.1232 -0.0159  0.0066
21784WAT     H288942   9.603   5.697   9.027 -3.4325 -1.3773  1.9068
21784WAT    EPW88943   9.558   5.725   8.958 -0.3223 -0.5264  0.0272
21785WAT      O88944   7.775   8.683   4.691 -0.0893  0.4303 -0.1764
21785WAT     H188945   7.791   8.706   4.782 -0.5993  2.6467 -0.5695
21785WAT     H288946   7.861   8.659   4.657  0.0679 -0.6246  0.9240
21785WAT    EPW88947   7.788   8.683   4.698 -0.1357  0.5832 -0.0834
21786WAT      O88948   7.436   7.844   7.064  0.5485 -0.2134 -0.4592
21786WAT     H188949   7.439   7.758   7.021 -2.5843 -0.7518  0.1528
21786WAT     H288950   7.396   7.902   6.999  0.8196  0.3049 -0.1727
21786WAT    EPW88951   7.431   7.840   7.050  0.1712 -0.2162 -0.3407
21787WAT      O88952   6.515   9.908   6.675  0.0065 -0.3316  0.0221
21787WAT     H188953   6.510   9.827   6.726  0.8225  0.7536  1.9222
21787WAT     H288954   6.430   9.914   6.632 -0.8298 -1.2240  1.4510
21787WAT    EPW88955   6.503   9.898   6.676  0.0043 -0.3061  0.4611
21788WAT      O88956   1.069   0.739   8.565  0.3177  0.2481 -0.5380
21788WAT     H188957   0.980   0.750   8.532 -0.4620  2.0416  1.8466
21788WAT     H288958   1.067   0.657   8.614 -0.0733  0.3130 -0.4414
21788WAT    EPW88959   1.057   0.730   8.567  0.1633  0.4932 -0.2103
21789WAT      O88960   8.560   8.104   6.024  0.0787 -0.1613 -0.4506
21789WAT     H188961   8.500   8.156   6.077 -1.6300  0.0380 -2.4383
21789WAT     H288962   8.503   8.042   5.978  1.6446 -1.2434 -1.0056
21789WAT    EPW88963   8.545   8.103   6.025  0.0606 -0.2775 -0.7861
21790WAT      O88964  10.198   0.374   6.545  0.0865 -0.1687  0.3365
21790WAT     H188965  10.126   0.412   6.595 -0.2269  1.3753 -1.1732
21790WAT     H288966  10.261   0.446   6.535  1.1642 -1.0831  0.4105
21790WAT    EPW88967  10.196   0.389   6.550  0.1869 -0.0857  0.1471
21791WAT      O88968   6.155  10.055   7.945  0.3939 -0.3532  0.3500
21791WAT     H188969   6.113   9.972   7.968 -1.0722 -0.4019 -2.1645
21791WAT     H288970   6.232  10.030   7.895 -0.3040 -0.2371 -0.8149
21791WAT    EPW88971   6.160  10.041   7.941  0.1087 -0.3443 -0.1352
21792WAT      O88972   0.086   0.094   8.247  0.4304 -0.5639  0.4857
21792WAT     H188973   0.136   0.030   8.297 -0.3904  0.4518  2.7791
21792WAT     H288974   0.150   0.159   8.219  0.6076  0.6142  3.2076
21792WAT    EPW88975   0.101   0.094   8.250  0.3455 -0.2746  1.1473
21793WAT      O88976  10.442   8.842   7.362 -0.4184  0.5960  0.1735
21793WAT     H188977  10.505   8.891   7.416  0.6870  0.8266 -1.2578
21793WAT     H288978  10.496   8.778   7.315 -1.1895  1.0543 -1.3838
21793WAT    EPW88979  10.458   8.840   7.363 -0.3748  0.6871 -0.2205
21794WAT      O88980   9.220   0.415   5.468 -0.2106  0.2653  0.2594
21794WAT     H188981   9.164   0.362   5.525  0.7576 -0.8351  0.2126
21794WAT     H288982   9.181   0.405   5.381  0.2108 -0.7569  0.1702
21794WAT    EPW88983   9.208   0.407   5.464 -0.0267 -0.0146  0.2418
21795WAT      O88984   1.614   2.348   8.910  0.2595 -0.0482  0.7380
21795WAT     H188985   1.537   2.292   8.897  0.5073 -0.1304 -0.4352
21795WAT     H288986   1.613   2.409   8.837 -0.3363  1.9414  2.3039
21795WAT    EPW88987   1.604   2.349   8.899  0.2137  0.2034  0.7896
21796WAT      O88988   4.784   1.916   6.242 -0.1862  0.3954 -0.1684
21796WAT     H188989   4.854   1.963   6.196  0.3596 -0.6530 -0.4420
21796WAT     H288990   4.723   1.890   6.173  0.7314 -1.3445 -0.3678
21796WAT    EPW88991   4.786   1.919   6.227  0.0069  0.0276 -0.2310
21797WAT      O88992   1.935   0.591   4.384 -0.6007 -0.2045  0.3032
21797WAT     H188993   1.856   0.585   4.331  1.9102  0.6052 -4.0614
21797WAT     H288994   1.931   0.679   4.423 -3.1935 -1.3525  3.0098
21797WAT    EPW88995   1.924   0.602   4.382 -0.6114 -0.2491  0.0844
21798WAT      O88996  10.619   0.589   5.722  0.7870 -0.3604  0.1355
21798WAT     H188997  10.713   0.575   5.735  0.5984  0.1360  2.4755
21798WAT     H288998  10.599   0.666   5.776 -0.7815  0.2098 -1.1765
21798WAT    EPW88999  10.629   0.598   5.731  0.5550 -0.2197  0.2711
21799WAT      O89000   9.567   5.895   4.684 -0.5100 -0.3255 -0.0389
21799WAT     H189001   9.569   5.825   4.749 -0.2735 -0.1227  0.1718
21799WAT     H289002   9.474   5.907   4.665 -0.8653  1.5770  2.3795
21799WAT    EPW89003   9.555   5.887   4.690 -0.5260 -0.0479  0.3080
21800WAT      O89004   0.782   3.503   8.409 -0.8632  0.7592 -0.3051
21800WAT     H189005   0.697   3.473   8.378 -0.8138  0.4918 -0.1859
21800WAT     H289006   0.809   3.569   8.346 -0.9191  0.4667 -0.6383
21800WAT    EPW89007   0.774   3.508   8.397 -0.8641  0.6853 -0.3328
21801WAT      O89008  10.156   9.464   5.734 -0.1873  0.2819 -0.7924
21801WAT     H189009  10.137   9.530   5.667  0.3245  0.5827 -0.6400
21801WAT     H289010  10.187   9.514   5.809 -2.7352  0.1490  0.4518
21801WAT    EPW89011  10.158   9.479   5.735 -0.4559  0.3042 -0.6082
21802WAT      O89012   9.619   2.920   6.181  0.5119  0.7620 -0.3480
21802WAT     H189013   9.564   2.944   6.255 -1.7772  2.9556 -2.5780
21802WAT     H289014   9.671   2.846   6.213 -0.1703  1.7244  3.4468
21802WAT    EPW89015   9.619   2.913   6.195  0.1197  1.1783 -0.1416
21803WAT      O89016   9.951  10.059   5.444  0.7821 -0.6309 -0.1576
21803WAT     H189017   9.987   9.981   5.486  0.0511  0.0296  1.8151
21803WAT     H289018   9.873  10.081   5.496  0.8246  1.2549 -0.7987
21803WAT    EPW89019   9.945  10.052   5.457  0.6914 -0.2952  0.0181
21804WAT      O89020   9.319   0.901   7.794  0.0244  0.1289 -0.5148
21804WAT     H189021   9.224   0.904   7.801 -0.0934 -1.4597 -0.9141
21804WAT     H289022   9.336   0.821   7.744  1.6067 -0.0534  0.2732
21804WAT    EPW89023   9.309   0.891   7.788  0.2179 -0.1046 -0.4635
21805WAT      O89024   8.791   5.870   3.253 -0.5007  0.7372  0.8183
21805WAT     H189025   8.866   5.903   3.303  1.6779 -2.3844 -0.1259
21805WAT     H289026   8.807   5.899   3.164 -0.5138  0.2817  0.6637
21805WAT    EPW89027   8.803   5.878   3.248 -0.2146  0.2656  0.6735
21806WAT      O89028   8.529   2.161   4.298  0.8878  0.2726  0.7265
21806WAT     H189029   8.514   2.160   4.204  2.4228  0.1724  0.4505
21806WAT     H289030   8.499   2.247   4.327 -0.9695 -0.2396  0.4239
21806WAT    EPW89031   8.523   2.172   4.290  0.8454  0.1918  0.6502
21807WAT      O89032   7.700   0.654   5.769  0.3331  0.1193 -0.4734
21807WAT     H189033   7.633   0.677   5.834  1.2128  0.8647  0.2090
21807WAT     H289034   7.662   0.583   5.719 -0.6724  0.0296  0.3845
21807WAT    EPW89035   7.686   0.648   5.771  0.3166  0.2058 -0.2701
21808WAT      O89036   8.062  10.075   1.868 -0.5162  0.4478 -0.3525
21808WAT     H189037   8.018  10.157   1.848 -2.8465 -0.3646  1.0221
21808WAT     H289038   8.007  10.008   1.827  3.2795 -0.4712 -4.7968
21808WAT    EPW89039   8.049  10.077   1.860 -0.3233  0.2198 -0.7573
21809WAT      O89040   9.953   1.078   6.697  0.4175 -0.0909 -0.6496
21809WAT     H189041  10.021   1.078   6.764  0.8606  1.3766 -1.0537
21809WAT     H289042   9.872   1.059   6.745  1.0304 -1.3375 -0.0889
21809WAT    EPW89043   9.951   1.076   6.712  0.5569 -0.0618 -0.6289
21810WAT      O89044   4.097   9.752   6.650  0.0199 -0.4238 -0.3559
21810WAT     H189045   4.190   9.739   6.634  0.2996 -2.3436  2.1831
21810WAT     H289046   4.077   9.837   6.610  3.0204  0.4408 -0.2472
21810WAT    EPW89047   4.106   9.762   6.642  0.4523 -0.5631 -0.0067
21811WAT      O89048   9.125   1.147   7.983 -0.3239  0.9755  0.2632
21811WAT     H189049   9.073   1.066   7.987  2.2639 -1.0374 -2.2863
21811WAT     H289050   9.136   1.164   7.890  1.9302  2.3858  0.7005
21811WAT    EPW89051   9.119   1.138   7.971  0.3147  0.8960 -0.0153
21812WAT      O89052   9.377   1.617   5.925 -0.3688 -0.2827 -0.3823
21812WAT     H189053   9.388   1.711   5.913 -2.4873 -0.2471 -2.9672
21812WAT     H289054   9.321   1.590   5.852 -1.6904 -3.1693  1.5193
21812WAT    EPW89055   9.371   1.626   5.914 -0.8230 -0.6588 -0.4723
21813WAT      O89056   0.313   2.501   6.375 -0.3076  0.4197  0.4079
21813WAT     H189057   0.316   2.409   6.347 -2.2607  0.6026 -0.5627
21813WAT     H289058   0.354   2.549   6.303  0.5864  0.3452  0.8529
21813WAT    EPW89059   0.319   2.495   6.362 -0.4473  0.4339  0.3386
21814WAT      O89060   9.317  10.209   3.423 -0.1654 -0.3757  0.2253
21814WAT     H189061   9.378  10.260   3.370  0.2227 -2.1624 -1.1604
21814WAT     H289062   9.259  10.274   3.463 -0.0944  1.1112 -1.9204
21814WAT    EPW89063   9.317  10.224   3.421 -0.1049 -0.4158 -0.2403
21815WAT      O89064   7.284   9.424   1.359 -0.3300 -0.1637  0.9853
21815WAT     H189065   7.246   9.429   1.271  1.7676  1.4491  0.0738
21815WAT     H289066   7.326   9.338   1.361  2.7765  1.0909 -1.1494
21815WAT    EPW89067   7.284   9.414   1.347  0.3564  0.2141  0.5835
21816WAT      O89068   9.625   2.221   4.828 -0.1101  0.2100 -0.2324
21816WAT     H189069   9.547   2.274   4.846 -2.3622 -2.8346 -0.3112
21816WAT     H289070   9.678   2.229   4.908 -1.6345  0.5337  0.7902
21816WAT    EPW89071   9.622   2.229   4.841 -0.6084 -0.1488 -0.1082
21817WAT      O89072   0.679   2.117   3.095 -0.1547 -0.2806 -0.4010
21817WAT     H189073   0.653   2.079   3.012 -0.2838  1.7369 -1.3386
21817WAT     H289074   0.757   2.067   3.121  0.1627 -0.6349 -1.9506
21817WAT    EPW89075   0.686   2.105   3.088 -0.1299 -0.0613 -0.7291
21818WAT      O89076   9.438   9.859   4.701 -0.0266  0.1036  0.0957
21818WAT     H189077   9.351   9.834   4.731  0.4136  1.1299  2.4074
21818WAT     H289078   9.430   9.861   4.606 -1.0631 -5.1413 -0.2553
21818WAT    EPW89079   9.425   9.856   4.693 -0.1054 -0.4525  0.3543
21819WAT      O89080   8.534   1.758   0.700 -0.1570  0.5487 -0.0722
21819WAT     H189081   8.525   1.673   0.656  0.0918 -0.9046  2.4921
21819WAT     H289082   8.445   1.794   0.700 -0.3532  0.0844 -0.7762
21819WAT    EPW89083   8.521   1.751   0.694 -0.1502  0.2958  0.1732
21820WAT      O89084   9.236   0.803   6.509 -0.9510 -0.2965 -0.5231
21820WAT     H189085   9.236   0.888   6.463  0.4651  0.0207  0.0004
21820WAT     H289086   9.220   0.739   6.440 -0.6711  0.3030 -1.1612
21820WAT    EPW89087   9.234   0.806   6.494 -0.7272 -0.1756 -0.5381
21821WAT      O89088   7.451   9.651   8.061 -0.4305 -0.1827 -0.0696
21821WAT     H189089   7.419   9.689   7.979  0.4979  0.3053 -0.2086
21821WAT     H289090   7.386   9.677   8.126 -0.1380  1.1239 -0.2818
21821WAT    EPW89091   7.438   9.659   8.059 -0.2694  0.0544 -0.1159
21822WAT      O89092   8.651   2.422   6.308 -0.5821  0.1404  0.5727
21822WAT     H189093   8.593   2.348   6.294  2.7425 -2.7656  0.9740
21822WAT     H289094   8.696   2.434   6.225  0.9074 -0.2255  1.2916
21822WAT    EPW89095   8.649   2.414   6.295  0.0529 -0.2911  0.7205
21823WAT      O89096   1.206   0.389   6.960  0.0552 -0.0542 -0.1522
21823WAT     H189097   1.201   0.297   6.934 -2.0213 -0.1172  0.2744
21823WAT     H289098   1.289   0.397   7.006  0.7909 -1.4445 -1.1789
21823WAT    EPW89099   1.216   0.378   6.963 -0.1216 -0.2459 -0.2315
21824WAT      O89100   8.704   0.407   4.657 -0.6781  0.5529  0.0785
21824WAT     H189101   8.700   0.330   4.601 -0.7090 -0.5619  1.5440
21824WAT     H289102   8.797   0.424   4.669 -0.5966 -0.7435  1.6341
21824WAT    EPW89103   8.715   0.399   4.651 -0.6723  0.2349  0.4771
21825WAT      O89104   3.845   9.431   3.714  0.3495 -0.1945  0.1613
21825WAT     H189105   3.786   9.399   3.782 -0.2165 -2.3522 -1.2722
21825WAT     H289106   3.923   9.377   3.722  0.1577 -0.6873 -1.0613
21825WAT    EPW89107   3.847   9.420   3.724  0.2496 -0.5441 -0.1889
21826WAT      O89108   8.338   2.057   6.655  0.0826 -0.0797 -0.0030
21826WAT     H189109   8.379   2.033   6.738  0.9600 -1.3345 -0.7642
21826WAT     H289110   8.397   2.123   6.618  0.8833 -1.1017 -0.6017
21826WAT    EPW89111   8.351   2.063   6.661  0.3042 -0.3800 -0.1822
21827WAT      O89112   9.924   2.484   4.833  0.5981  0.1136 -0.3038
21827WAT     H189113   9.948   2.555   4.893 -0.9541 -1.4486  2.3694
21827WAT     H289114   9.830   2.472   4.846  0.6212 -1.7039 -1.4783
21827WAT    EPW89115   9.915   2.492   4.843  0.3963 -0.3321 -0.1063
21828WAT      O89116   0.730  10.157   4.349  0.4463  0.1940  0.2299
21828WAT     H189117   0.699  10.105   4.423 -0.1884  0.5118  0.1950
21828WAT     H289118   0.764  10.092   4.287 -1.0064 -0.2564 -0.1303
21828WAT    EPW89119   0.730  10.141   4.350  0.1709  0.1769  0.1776
21829WAT      O89120   8.216  10.287   2.827  0.5487 -0.4212 -0.3326
21829WAT     H189121   8.155  10.265   2.897  0.9033 -1.0577 -0.2118
21829WAT     H289122   8.178  10.363   2.784 -0.6768 -1.1894 -0.6674
21829WAT    EPW89123   8.203  10.294   2.830  0.4339 -0.6065 -0.3608
21830WAT      O89124   9.080   8.914   8.521 -0.5254  0.1330 -0.3380
21830WAT     H189125   9.154   8.853   8.527  0.5119  1.5278  2.4188
21830WAT     H289126   9.101   8.968   8.445  2.2650  1.5611  1.2865
21830WAT    EPW89127   9.093   8.913   8.512 -0.0205  0.5054  0.2398
21831WAT      O89128   9.499   1.652   6.735 -0.2085  0.5483 -0.2446
21831WAT     H189129   9.441   1.645   6.811 -0.3735 -0.4637 -0.4583
21831WAT     H289130   9.446   1.621   6.661  0.4492  0.0492 -0.5124
21831WAT    EPW89131   9.484   1.647   6.735 -0.1435  0.3490 -0.3080
21832WAT      O89132   0.199   2.767   2.651  0.4085 -0.3795  0.3144
21832WAT     H189133   0.153   2.750   2.569  1.0649 -0.8755  0.0396
21832WAT     H289134   0.130   2.792   2.713  0.0341  1.2186 -0.6960
21832WAT    EPW89135   0.183   2.768   2.649  0.4457 -0.2342  0.1450
21833WAT      O89136   6.194   9.320   5.431 -0.1479 -0.7402 -0.2937
21833WAT     H189137   6.259   9.294   5.497 -0.8861  0.8198  1.1353
21833WAT     H289138   6.129   9.250   5.434 -0.6792 -0.2333  1.4203
21833WAT    EPW89139   6.194   9.308   5.440 -0.3152 -0.4678  0.1209
21834WAT      O89140   7.290   3.445   3.604 -0.3956 -0.6433 -0.4998
21834WAT     H189141   7.300   3.530   3.560 -0.6205  1.3586  2.9518
21834WAT     H289142   7.218   3.403   3.558  0.4183  0.4892 -3.0160
21834WAT    EPW89143   7.282   3.451   3.592 -0.3178 -0.2300 -0.3763
21835WAT      O89144   1.027   0.661   8.115  0.4549  0.1376  0.0867
21835WAT     H189145   0.954   0.627   8.064 -0.3416  0.4387  0.9983
21835WAT     H289146   1.026   0.610   8.196  0.6946  0.7527  0.4834
21835WAT    EPW89147   1.017   0.650   8.119  0.3814  0.2584  0.2594
21836WAT      O89148   8.182   3.714   3.465 -0.3736 -0.4293 -0.1583
21836WAT     H189149   8.152   3.787   3.519  0.8396 -2.1686  3.2198
21836WAT     H289150   8.276   3.709   3.483  0.0486 -1.3176 -2.3294
21836WAT    EPW89151   8.190   3.723   3.475 -0.1583 -0.7758  0.0008
21837WAT      O89152   9.719   2.384   3.561 -0.5020 -0.1783  0.2382
21837WAT     H189153   9.739   2.440   3.636 -1.2789 -0.4869  0.6887
21837WAT     H289154   9.746   2.296   3.589 -2.1883 -0.5695  0.7795
21837WAT    EPW89155   9.725   2.379   3.575 -0.8268 -0.2706  0.3690
21838WAT      O89156   3.388   6.257   0.583 -0.1098  0.3665  0.3182
21838WAT     H189157   3.321   6.269   0.516  1.1349  1.5997 -0.7904
21838WAT     H289158   3.400   6.345   0.620 -0.9864 -0.3447  2.4277
21838WAT    EPW89159   3.381   6.270   0.579 -0.0613  0.4351  0.4502
21839WAT      O89160   8.365   2.979   7.682  0.3673 -0.1354  0.1717
21839WAT     H189161   8.427   3.048   7.659  0.3310 -0.6775 -1.7325
21839WAT     H289162   8.406   2.899   7.649 -1.4871 -0.4664 -1.5093
21839WAT    EPW89163   8.379   2.977   7.674  0.1178 -0.2506 -0.3014
21840WAT      O89164   1.309   3.241   6.594 -0.3160  0.1311 -0.2669
21840WAT     H189165   1.306   3.261   6.500 -0.9294  0.9354 -0.0871
21840WAT     H289166   1.263   3.314   6.635 -0.5827 -0.5229  0.6181
21840WAT    EPW89167   1.303   3.253   6.587 -0.4321  0.1509 -0.1261
21841WAT      O89168   7.844   1.967   3.456 -0.1793 -0.0503 -0.6844
21841WAT     H189169   7.819   2.049   3.498  2.7508 -0.0011  1.3364
21841WAT     H289170   7.900   1.993   3.383 -2.4859 -0.2422 -2.6220
21841WAT    EPW89171   7.848   1.981   3.452 -0.0970 -0.0693 -0.6735
21842WAT      O89172   8.623   1.398   6.980  0.6206  0.1386  0.2872
21842WAT     H189173   8.575   1.432   7.056 -1.0815 -1.6381  0.0774
21842WAT     H289174   8.664   1.318   7.010 -0.7598 -1.0443 -0.8078
21842WAT    EPW89175   8.622   1.392   6.994  0.2141 -0.2517  0.1152
21843WAT      O89176   6.828   1.582   4.211 -0.3152  0.0192 -0.3895
21843WAT     H189177   6.781   1.583   4.294 -1.7260  3.4539 -1.0717
21843WAT     H289178   6.913   1.621   4.231 -0.1144 -0.4362 -0.3329
21843WAT    EPW89179   6.833   1.587   4.225 -0.4747  0.4121 -0.4718
21844WAT      O89180   6.350   8.204   5.218 -0.0473 -0.4033 -0.1979
21844WAT     H189181   6.268   8.190   5.170 -2.5365  0.7618  3.2927
21844WAT     H289182   6.378   8.115   5.242 -0.8361 -0.7853 -0.6341
21844WAT    EPW89183   6.343   8.190   5.215 -0.4797 -0.2995  0.2048
21845WAT      O89184  10.818   0.896   4.418 -0.5225 -0.1837  0.3410
21845WAT     H189185  10.839   0.805   4.438  0.8079  0.0365  0.0766
21845WAT     H289186  10.788   0.933   4.501  1.0295 -0.3219  1.0038
21845WAT    EPW89187  10.817   0.889   4.431 -0.1416 -0.1729  0.3934
21846WAT      O89188   2.715   2.981   6.007 -0.1368  0.1120 -0.5147
21846WAT     H189189   2.768   3.053   6.040 -3.1890  2.0437  0.6072
21846WAT     H289190   2.745   2.905   6.057  1.5814  1.0695 -0.0123
21846WAT    EPW89191   2.726   2.980   6.018 -0.3127  0.4932 -0.3004
21847WAT      O89192   5.377  10.269   4.752 -0.1893 -0.5541  0.1591
21847WAT     H189193   5.387  10.360   4.726  0.9157 -0.5591  0.4935
21847WAT     H289194   5.394  10.219   4.672  2.0254 -0.5326  0.5564
21847WAT    EPW89195   5.381  10.274   4.738  0.2487 -0.5522  0.2556
21848WAT      O89196   7.301   8.725   2.076  0.8819  0.0650  0.4375
21848WAT     H189197   7.394   8.745   2.063  1.2652 -0.2358  2.3515
21848WAT     H289198   7.277   8.775   2.154 -0.6889  0.4505 -0.2644
21848WAT    EPW89199   7.310   8.734   2.085  0.7255  0.0758  0.5974
21849WAT      O89200   9.173   2.728   3.402  0.3844  0.0553 -0.0924
21849WAT     H189201   9.225   2.653   3.375  1.0425  0.7066 -0.6691
21849WAT     H289202   9.127   2.698   3.480  1.1353 -0.7436  0.0613
21849WAT    EPW89203   9.174   2.714   3.409  0.5703  0.0359 -0.1482
21850WAT      O89204   2.571   1.922   4.322  0.2345  0.1154 -0.2209
21850WAT     H189205   2.583   1.836   4.282  2.0627 -0.1713  0.7945
21850WAT     H289206   2.659   1.946   4.352  0.1246  3.0751 -1.8918
21850WAT    EPW89207   2.585   1.914   4.321  0.4610  0.4680 -0.3076
21851WAT      O89208   8.804   0.247   6.323 -0.6022 -1.0256 -0.9420
21851WAT     H189209   8.722   0.278   6.285 -1.2629 -0.6987  0.6566
21851WAT     H289210   8.835   0.320   6.377 -0.1591 -1.7437 -0.1894
21851WAT    EPW89211   8.797   0.261   6.325 -0.6304 -1.0772 -0.6320
21852WAT      O89212   1.573   0.384   6.221 -0.0865  0.2013  0.4260
21852WAT     H189213   1.631   0.378   6.146 -1.3720  0.4228 -0.6237
21852WAT     H289214   1.608   0.320   6.284  1.9305  1.1496  0.3255
21852WAT    EPW89215   1.585   0.375   6.220  0.0100  0.3556  0.2742
21853WAT      O89216   7.879  10.064   6.251  0.4072  0.5592  0.1060
21853WAT     H189217   7.855  10.057   6.159  0.2643  3.1119 -0.1152
21853WAT     H289218   7.799  10.096   6.294  0.4940 -0.5273  1.1156
21853WAT    EPW89219   7.865  10.067   6.245  0.3998  0.7524  0.2100
21854WAT      O89220   1.672   2.248   3.381 -0.1807  0.1850  0.1338
21854WAT     H189221   1.767   2.258   3.393  0.0109  0.9369 -1.6964
21854WAT     H289222   1.663   2.224   3.289 -1.8278  0.9527  0.0732
21854WAT    EPW89223   1.683   2.246   3.370 -0.3727  0.3854 -0.1156
21855WAT      O89224   9.197   3.940   5.904  0.6906  0.2540  0.7798
21855WAT     H189225   9.248   3.875   5.857  0.6837  0.0772  1.0166
21855WAT     H289226   9.209   4.021   5.853  1.5304  0.3130  1.0478
21855WAT    EPW89227   9.205   3.942   5.891  0.8001  0.2385  0.8461
21856WAT      O89228  10.525   2.926   8.738  0.3284  0.0923 -0.4430
21856WAT     H189229  10.432   2.904   8.742 -0.0402  1.2338 -1.7984
21856WAT     H289230  10.567   2.847   8.706 -0.5805  0.3699 -2.4905
21856WAT    EPW89231  10.518   2.913   8.734  0.1602  0.2795 -0.8917
21857WAT      O89232   1.382   0.637   2.221 -0.2874 -0.1854 -0.0517
21857WAT     H189233   1.326   0.599   2.289 -1.4993  0.0581 -0.8811
21857WAT     H289234   1.324   0.696   2.173  1.6322  3.4429  1.6476
21857WAT    EPW89235   1.367   0.640   2.224 -0.1940  0.3253  0.0632
21858WAT      O89236  10.667  10.175   2.739  0.1381  0.2914 -0.1003
21858WAT     H189237  10.651  10.225   2.819  0.0395 -1.0199  0.7454
21858WAT     H289238  10.617  10.220   2.671  0.7109  1.7837  0.4338
21858WAT    EPW89239  10.659  10.187   2.741  0.2012  0.3147  0.0817
21859WAT      O89240  10.347  10.155   5.131 -0.0536  0.5563  0.3087
21859WAT     H189241  10.307  10.077   5.168  0.4413  1.4557  2.9433
21859WAT     H289242  10.276  10.218   5.124  0.0334  0.6941  0.6545
21859WAT    EPW89243  10.333  10.153   5.135  0.0234  0.6928  0.7019
21860WAT      O89244   9.286   9.566   4.468  0.2139 -0.9773 -0.7627
21860WAT     H189245   9.236   9.622   4.528 -0.7194 -0.2501 -2.1771
21860WAT     H289246   9.317   9.626   4.400 -0.9522 -2.1749 -2.4117
21860WAT    EPW89247   9.284   9.581   4.467 -0.0634 -1.0390 -1.1668
21861WAT      O89248  10.476   2.170   6.804  0.9161  0.8719  0.7300
21861WAT     H189249  10.419   2.105   6.762  0.3465  1.1808  1.0030
21861WAT     H289250  10.558   2.164   6.757  0.0497  1.7930 -0.9849
21861WAT    EPW89251  10.479   2.160   6.793  0.7267  1.0340  0.5398
21862WAT      O89252   1.624   1.635   5.360  0.0636  0.1729  0.2153
21862WAT     H189253   1.637   1.604   5.270  0.8381  0.4479  0.2278
21862WAT     H289254   1.683   1.710   5.368 -3.1665  3.0034 -0.4685
21862WAT    EPW89255   1.634   1.641   5.349 -0.2602  0.5824  0.1268
21863WAT      O89256  10.589   2.205   1.666 -0.1599 -0.0380 -0.1377
21863WAT     H189257  10.500   2.198   1.700  0.4488 -1.7032  1.2902
21863WAT     H289258  10.630   2.121   1.690  1.6607  0.5248 -1.1184
21863WAT    EPW89259  10.582   2.193   1.674  0.1597 -0.1833 -0.0788
21864WAT      O89260   7.977   8.927   6.399  0.5233 -0.3921 -0.0387
21864WAT     H189261   7.953   9.019   6.398  0.2234 -0.4503 -2.2053
21864WAT     H289262   7.896   8.881   6.423 -0.5793 -0.2904 -3.0560
21864WAT    EPW89263   7.963   8.933   6.402  0.3386 -0.3862 -0.7224
21865WAT      O89264   2.131   1.149   4.912 -0.2343 -0.2035 -0.1388
21865WAT     H189265   2.168   1.170   4.826 -1.3177  2.8069  0.0027
21865WAT     H289266   2.193   1.187   4.974 -0.8921  0.1777  0.2919
21865WAT    EPW89267   2.144   1.157   4.909 -0.4641  0.2438 -0.0637
21866WAT      O89268   9.506   3.513   5.834  0.3714  0.3467 -0.6582
21866WAT     H189269   9.580   3.475   5.787  0.3703  3.0276 -3.1375
21866WAT     H289270   9.508   3.471   5.920  3.7594 -0.8774 -1.1719
21866WAT    EPW89271   9.516   3.503   5.840  0.8178  0.5388 -1.0531
21867WAT      O89272  10.196   5.008   4.904 -0.2911 -0.1023 -0.2180
21867WAT     H189273  10.217   4.977   4.992 -3.0668 -1.4216  0.1067
21867WAT     H289274  10.275   4.993   4.853  0.2494 -2.7138  1.2438
21867WAT    EPW89275  10.209   5.002   4.909 -0.5860 -0.6211  0.0176
21868WAT      O89276   1.697   1.214   1.245  0.4625 -0.3487 -0.1251
21868WAT     H189277   1.682   1.126   1.279 -0.5682  0.5117  1.7904
21868WAT     H289278   1.670   1.272   1.316 -0.2575  1.5502 -1.8560
21868WAT    EPW89279   1.692   1.210   1.259  0.2317  0.0152 -0.1008
21869WAT      O89280   0.817   7.724   5.440  0.5640 -0.4946  0.0150
21869WAT     H189281   0.881   7.785   5.477 -2.2068  1.5480  1.7475
21869WAT     H289282   0.791   7.669   5.513 -0.9087 -0.1405 -0.2209
21869WAT    EPW89283   0.822   7.725   5.454  0.0043 -0.1786  0.2124
21870WAT      O89284  10.977   4.184   6.660  0.6696  0.2106 -0.3089
21870WAT     H189285  10.883   4.190   6.642  0.8018  0.8304 -0.8431
21870WAT     H289286  10.990   4.244   6.734  0.1184 -2.3775  2.0494
21870WAT    EPW89287  10.966   4.193   6.667  0.6146 -0.0494 -0.0684
21871WAT      O89288   4.090   3.233   4.567  0.3257  1.2266 -0.1775
21871WAT     H189289   4.035   3.310   4.587 -0.0038  0.9284  0.0745
21871WAT     H289290   4.119   3.248   4.477 -1.5089  0.6219 -0.9304
21871WAT    EPW89291   4.086   3.245   4.558  0.0405  1.1076 -0.2434
21872WAT      O89292   7.449   6.145   5.404 -0.7884  0.5607  0.2855
21872WAT     H189293   7.524   6.181   5.358 -2.4357  2.9403 -0.7533
21872WAT     H289294   7.384   6.215   5.403 -1.8038 -0.0571  4.2503
21872WAT    EPW89295   7.450   6.159   5.398 -1.1396  0.7932  0.6711
21873WAT      O89296   1.162   1.297   5.523 -0.6314  0.1350  0.0228
21873WAT     H189297   1.176   1.275   5.616  1.5020 -0.5299 -0.4007
21873WAT     H289298   1.133   1.215   5.484 -0.8488  0.2377 -0.0325
21873WAT    EPW89299   1.160   1.283   5.530 -0.3787  0.0607 -0.0403
21874WAT      O89300   1.997   2.205   6.290 -0.2583 -0.4293  0.3686
21874WAT     H189301   2.007   2.178   6.199  1.4438  0.9993  0.0669
21874WAT     H289302   2.084   2.193   6.328 -0.5157  0.5689  1.3290
21874WAT    EPW89303   2.010   2.200   6.283 -0.0677 -0.1092  0.4556
21875WAT      O89304   0.916   2.930   3.325 -0.1676  0.9055  0.1064
21875WAT     H189305   0.919   2.836   3.310  2.0930  1.0701 -0.9024
21875WAT     H289306   1.002   2.951   3.362 -0.7549  2.5415  0.6522
21875WAT    EPW89307   0.928   2.920   3.328  0.0531  1.1431  0.0454
21876WAT      O89308   0.414   4.345   4.613  0.5995 -0.1941  0.1534
21876WAT     H189309   0.339   4.298   4.576 -1.5055  2.3432  0.8830
21876WAT     H289310   0.379   4.389   4.690  2.7765  1.3480  0.3444
21876WAT    EPW89311   0.399   4.344   4.618  0.6090  0.3440  0.2747
21877WAT      O89312   7.348   3.955   0.363 -0.3697  0.2890  0.0345
21877WAT     H189313   7.313   4.018   0.425 -0.9552 -0.2006  0.2135
21877WAT     H289314   7.270   3.917   0.321  0.0133  0.6903 -1.0832
21877WAT    EPW89315   7.333   3.958   0.366 -0.3963  0.2775 -0.0893
21878WAT      O89316   5.121   2.560   4.497 -0.5164 -0.3485  0.0261
21878WAT     H189317   5.199   2.605   4.529 -0.2407 -1.1958  0.6031
21878WAT     H289318   5.060   2.562   4.571 -0.9123  0.0013 -0.3035
21878WAT    EPW89319   5.123   2.566   4.511 -0.5324 -0.4141  0.0587
21879WAT      O89320   1.061   0.733   2.772  0.0474 -0.0716  0.2403
21879WAT     H189321   1.037   0.809   2.718  2.1508  0.2813 -0.2862
21879WAT     H289322   0.987   0.721   2.830 -1.2037  1.1400 -1.0204
21879WAT    EPW89323   1.048   0.742   2.772  0.1599  0.1348  0.0048
21880WAT      O89324   2.167   0.669   7.602  0.4810  0.1032 -0.3878
21880WAT     H189325   2.093   0.609   7.612  1.5621 -0.8880  3.4745
21880WAT     H289326   2.127   0.753   7.580 -1.3284 -1.2762 -2.7615
21880WAT    EPW89327   2.152   0.672   7.601  0.3848 -0.2095 -0.1915
21881WAT      O89328   8.864   9.423   4.056 -0.4296  0.1103  0.1122
21881WAT     H189329   8.928   9.353   4.069  1.0195  1.2409 -0.6551
21881WAT     H289330   8.875   9.448   3.964  0.0863  2.2714  0.7176
21881WAT    EPW89331   8.874   9.417   4.045 -0.1712  0.5445  0.0911
21882WAT      O89332   8.333   8.252   5.711  0.1828 -0.7387  0.1928
21882WAT     H189333   8.327   8.348   5.712 -0.5711 -0.7669 -0.5793
21882WAT     H289334   8.417   8.233   5.753  2.5008  0.4801 -3.4330
21882WAT    EPW89335   8.344   8.262   5.717  0.3891 -0.5813 -0.3870
21883WAT      O89336   0.819   2.449   2.891 -0.1525  0.0909  0.2632
21883WAT     H189337   0.889   2.439   2.956 -1.0080  1.1728  1.3854
21883WAT     H289338   0.819   2.366   2.843  1.4132 -0.1973  0.7237
21883WAT    EPW89339   0.828   2.437   2.893 -0.0588  0.1957  0.4719
21884WAT      O89340   1.892   1.292   4.357 -0.4085  0.4674  0.3382
21884WAT     H189341   1.983   1.321   4.361 -0.8340  2.8232 -2.7692
21884WAT     H289342   1.870   1.270   4.447  2.6159  1.8553  1.5630
21884WAT    EPW89343   1.901   1.293   4.370 -0.0657  0.9612  0.0896
21885WAT      O89344   1.749   1.158   4.985  0.3414 -0.0863 -0.5338
21885WAT     H189345   1.680   1.202   5.035 -0.7354  0.3080 -2.2909
21885WAT     H289346   1.791   1.228   4.935  0.7147 -0.6056 -0.9655
21885WAT    EPW89347   1.745   1.173   4.985  0.2486 -0.1029 -0.8228
21886WAT      O89348  10.483   2.260   4.918 -0.1945  0.1615  0.2915
21886WAT     H189349  10.403   2.268   4.969  0.7610 -3.6677  2.8481
21886WAT     H289350  10.554   2.282   4.979  0.8759  2.5197 -1.6225
21886WAT    EPW89351  10.482   2.264   4.933  0.0725 -0.0325  0.3762
21887WAT      O89352   0.979   3.208   4.228  0.1707 -0.1248  0.0785
21887WAT     H189353   0.981   3.251   4.142  1.4620 -2.3312 -1.0802
21887WAT     H289354   1.064   3.229   4.266 -0.4173  0.8848  0.8921
21887WAT    EPW89355   0.991   3.216   4.221  0.2635 -0.2826  0.0331
21888WAT      O89356   2.623   2.376   1.212  0.1941 -0.2855 -0.1297
21888WAT     H189357   2.561   2.401   1.280  0.3783 -0.5886  0.1524
21888WAT     H289358   2.603   2.284   1.194  1.7436 -0.9580  1.2770
21888WAT    EPW89359   2.612   2.367   1.218  0.4227 -0.4144  0.0930
21889WAT      O89360  10.732   1.899   3.224  0.7013  0.4506 -0.6570
21889WAT     H189361  10.727   1.921   3.317 -1.2096  1.7726 -1.0014
21889WAT     H289362  10.657   1.841   3.209  0.5685  0.8239 -1.5050
21889WAT    EPW89363  10.721   1.894   3.234  0.4320  0.6741 -0.8142
21890WAT      O89364   4.112   2.553   5.726 -0.0196 -0.3944 -0.2722
21890WAT     H189365   4.086   2.462   5.709  1.0361 -1.0972  1.5978
21890WAT     H289366   4.189   2.566   5.670  0.3981 -0.9877  0.1428
21890WAT    EPW89367   4.119   2.542   5.716  0.1748 -0.5655  0.0293
21891WAT      O89368   0.098   2.902   3.408  0.1595  0.2635 -0.1759
21891WAT     H189369   0.180   2.943   3.383 -1.0902  1.5093 -2.6408
21891WAT     H289370   0.087   2.830   3.345 -0.4213 -0.1995  0.4287
21891WAT    EPW89371   0.107   2.898   3.396 -0.0819  0.3668 -0.4213
21892WAT      O89372   7.051   9.088   4.807 -0.1790 -1.0465  0.3174
21892WAT     H189373   7.033   9.181   4.822  2.7233  0.3499 -3.3508
21892WAT     H289374   6.970   9.054   4.770 -0.5209  0.6941 -0.6524
21892WAT    EPW89375   7.038   9.096   4.804  0.1585 -0.6328 -0.2942
21893WAT      O89376   9.165   6.980   8.343 -0.4554 -0.4488 -0.2025
21893WAT     H189377   9.090   7.038   8.325 -0.7438  0.0838  2.3222
21893WAT     H289378   9.126   6.893   8.352 -0.0775 -1.0986 -3.5576
21893WAT    EPW89379   9.150   6.976   8.342 -0.4444 -0.4642 -0.3119
21894WAT      O89380   9.981   2.659   5.034  0.3719 -0.0786 -0.2280
21894WAT     H189381  10.000   2.570   5.064  0.8334 -0.3691 -1.3547
21894WAT     H289382  10.065   2.704   5.036  0.1741  0.2922  0.1547
21894WAT    EPW89383   9.994   2.653   5.038  0.4067 -0.0679 -0.3266
21895WAT      O89384   2.648   1.031   2.623  0.1815 -0.2001 -0.0575
21895WAT     H189385   2.566   0.997   2.659 -0.5436  2.6412  1.2043
21895WAT     H289386   2.625   1.055   2.533 -0.4818  0.7447  0.3407
21895WAT    EPW89387   2.634   1.030   2.616 -0.0015  0.2993  0.1615
21896WAT      O89388   8.905   8.102   3.165 -0.3599 -0.0156  0.2474
21896WAT     H189389   8.975   8.066   3.110 -1.1956  0.0218 -0.8823
21896WAT     H289390   8.856   8.160   3.107 -0.7364  0.7566  1.2919
21896WAT    EPW89391   8.908   8.105   3.150 -0.5202  0.0911  0.2363
21897WAT      O89392  10.589   9.441   6.517 -0.1649 -0.0500  0.3594
21897WAT     H189393  10.680   9.428   6.544  0.4482  1.5510 -0.7900
21897WAT     H289394  10.575   9.376   6.448  0.9499  1.2773 -1.1932
21897WAT    EPW89395  10.599   9.431   6.511  0.0634  0.3357  0.0029
21898WAT      O89396   1.256   1.500   5.316 -0.2844 -0.0952 -0.2969
21898WAT     H189397   1.191   1.439   5.352 -0.6062  0.6854  0.4798
21898WAT     H289398   1.212   1.539   5.241  0.5536 -2.0660 -1.8972
21898WAT    EPW89399   1.241   1.497   5.311 -0.2164 -0.2522 -0.4055
21899WAT      O89400   0.182   1.979   6.763  0.2274  0.3419  0.3591
21899WAT     H189401   0.224   1.912   6.818  2.1163  1.4207  0.3279
21899WAT     H289402   0.253   2.011   6.707 -1.0617  1.0884 -0.9027
21899WAT    EPW89403   0.197   1.974   6.763  0.3065  0.5826  0.1886
21900WAT      O89404   5.286   4.639   2.044  0.1687 -0.5547  1.0135
21900WAT     H189405   5.246   4.710   1.994 -0.3076  0.3231  2.5735
21900WAT     H289406   5.272   4.561   1.991  1.5161  0.6165 -1.2024
21900WAT    EPW89407   5.279   4.638   2.031  0.2835 -0.2844  0.9270
21901WAT      O89408  10.541   1.269   8.882  1.1056 -0.4412 -0.1913
21901WAT     H189409  10.592   1.253   8.803  2.4122 -0.8206  0.7045
21901WAT     H289410  10.571   1.202   8.944 -2.2649 -2.3411 -0.3824
21901WAT    EPW89411  10.552   1.258   8.880  0.8330 -0.7418 -0.0982
21902WAT      O89412   1.907   0.513   7.922 -0.5003  0.1600 -0.2387
21902WAT     H189413   1.852   0.553   7.854 -0.5982 -0.7785 -0.7195
21902WAT     H289414   1.926   0.585   7.983 -1.1011  0.8142 -0.8142
21902WAT    EPW89415   1.902   0.528   7.921 -0.5925  0.1225 -0.3781
21903WAT      O89416  10.337   3.450   1.020 -0.7336 -0.6286  0.1240
21903WAT     H189417  10.303   3.414   1.102  4.3504 -0.3532  2.7446
21903WAT     H289418  10.368   3.373   0.972  1.3293 -0.5654  1.2245
21903WAT    EPW89419  10.337   3.435   1.024  0.2084 -0.5839  0.6148
21904WAT      O89420   9.958   2.921   7.998 -0.2321 -0.1037 -0.0639
21904WAT     H189421   9.974   2.892   8.088 -0.2747  0.4452  0.1244
21904WAT     H289422  10.036   2.973   7.976 -0.5851  0.4398 -0.0537
21904WAT    EPW89423   9.971   2.924   8.007 -0.2837  0.0404 -0.0372
21905WAT      O89424   6.411   9.441   6.181  0.1709  0.1945  0.1508
21905WAT     H189425   6.386   9.426   6.272 -0.0838  2.5330  0.5300
21905WAT     H289426   6.495   9.487   6.187  0.4819 -0.2256 -0.8234
21905WAT    EPW89427   6.419   9.445   6.193  0.1783  0.4473  0.0725
21906WAT      O89428   2.869   0.788   4.781 -0.2018 -0.2798  1.1441
21906WAT     H189429   2.824   0.783   4.865 -0.6308  0.6227  0.9788
21906WAT     H289430   2.829   0.863   4.737 -0.0738 -0.8161  0.0806
21906WAT    EPW89431   2.858   0.797   4.786 -0.2413 -0.2315  0.9820
21907WAT      O89432   1.191   1.500   4.217 -1.1705 -0.2709  0.3474
21907WAT     H189433   1.263   1.437   4.223 -0.5445 -0.0387 -2.9535
21907WAT     H289434   1.118   1.457   4.262 -0.8203 -3.5308 -1.8206
21907WAT    EPW89435   1.191   1.486   4.224 -1.0418 -0.6703 -0.3741
21908WAT      O89436   0.554   4.676   4.753  0.4267  0.0113  0.8028
21908WAT     H189437   0.584   4.706   4.839  0.0237 -0.0017  0.9484
21908WAT     H289438   0.505   4.596   4.771 -3.5247  2.2492  1.1566
21908WAT    EPW89439   0.551   4.669   4.767 -0.1476  0.3047  0.8688
21909WAT      O89440   8.626   4.938   4.172  0.3986 -0.8540  0.0053
21909WAT     H189441   8.665   4.876   4.111 -0.0097  0.8626 -2.1050
21909WAT     H289442   8.595   5.010   4.117 -0.2555  0.6582  2.2190
21909WAT    EPW89443   8.627   4.939   4.157  0.2584 -0.4277  0.0191
21910WAT      O89444   0.032   5.733   6.400  0.5112  0.8519 -0.0990
21910WAT     H189445  -0.002   5.735   6.310  0.1045  0.2441  0.0305
21910WAT     H289446   0.101   5.799   6.401  0.0418  1.3674 -0.6666
21910WAT    EPW89447   0.036   5.742   6.388  0.3956  0.8397 -0.1566
21911WAT      O89448   0.440   0.573   5.321  0.3354 -0.1719  0.8039
21911WAT     H189449   0.427   0.573   5.226  0.3160  0.0256  0.8044
21911WAT     H289450   0.514   0.631   5.334 -0.6363  1.0753  1.0209
21911WAT    EPW89451   0.448   0.581   5.310  0.2047  0.0187  0.8326
21912WAT      O89452   1.549   0.909   7.810  0.1087 -0.1939 -0.3557
21912WAT     H189453   1.564   0.988   7.758 -3.7959  1.0720  0.0480
21912WAT     H289454   1.546   0.941   7.901 -0.2810 -1.0162 -0.0662
21912WAT    EPW89455   1.550   0.924   7.815 -0.4577 -0.1354 -0.2642
21913WAT      O89456   8.618  10.004   6.953 -1.0535  0.2053 -0.6700
21913WAT     H189457   8.613  10.079   6.894  1.1184 -0.7634 -2.2163
21913WAT     H289458   8.692   9.953   6.921  1.8148  0.6835  4.2136
21913WAT    EPW89459   8.627  10.007   6.941 -0.3886  0.1402 -0.2298
21914WAT      O89460   9.087   8.820   6.004 -0.2863 -0.6619  0.4806
21914WAT     H189461   9.167   8.864   6.032  0.4166 -0.9609 -0.9682
21914WAT     H289462   9.112   8.773   5.924 -1.7838 -1.1778  0.2849
21914WAT    EPW89463   9.101   8.819   5.997 -0.3915 -0.7696  0.2632
21915WAT      O89464   2.956   0.410   6.081  0.0951  1.0326  0.3419
21915WAT     H189465   2.977   0.336   6.138 -1.6353 -0.2109 -0.5321
21915WAT     H289466   2.910   0.472   6.138 -0.6381  0.3045  0.5552
21915WAT    EPW89467   2.953   0.409   6.096 -0.2298  0.7725  0.2546
21916WAT      O89468   2.033   2.821   2.468  0.0087 -0.4027 -0.1802
21916WAT     H189469   2.101   2.852   2.527 -0.1624 -0.1970 -0.0922
21916WAT     H289470   1.951   2.832   2.517 -0.5554  2.8981 -1.6236
21916WAT    EPW89471   2.031   2.826   2.482 -0.0883  0.0598 -0.3592
21917WAT      O89472   5.265   2.356   2.319 -0.4209  0.3827  0.4416
21917WAT     H189473   5.206   2.344   2.393  0.4299 -0.4981  0.9858
21917WAT     H289474   5.316   2.434   2.341 -0.1365  0.0956  0.8113
21917WAT    EPW89475   5.264   2.365   2.331 -0.2713  0.2286  0.5621
21918WAT      O89476   9.985   1.520   3.363  0.4091 -0.2388  0.1586
21918WAT     H189477   9.936   1.458   3.310 -1.9562  0.8657  0.9223
21918WAT     H289478  10.055   1.551   3.305  0.0174 -1.6107 -1.1038
21918WAT    EPW89479   9.988   1.516   3.348  0.0458 -0.2740  0.0929
21919WAT      O89480  10.114   1.949   2.806 -0.4944  0.1391  0.0063
21919WAT     H189481  10.195   1.990   2.835 -1.5670  2.6115 -0.1966
21919WAT     H289482  10.092   1.995   2.724 -0.4730 -2.7121 -1.7384
21919WAT    EPW89483  10.122   1.961   2.799 -0.6328  0.0891 -0.2506
21920WAT      O89484   1.117   2.309   3.280 -0.4213  0.5874  0.4926
21920WAT     H189485   1.077   2.334   3.363  0.0625 -0.1246  0.9519
21920WAT     H289486   1.211   2.325   3.293 -0.3523  0.5321  0.0647
21920WAT    EPW89487   1.124   2.314   3.293 -0.3484  0.4863  0.4966
21921WAT      O89488   2.859   1.459   2.526 -0.0520  0.4199  0.1625
21921WAT     H189489   2.847   1.553   2.538  1.1292  1.1111 -2.9118
21921WAT     H289490   2.951   1.444   2.549 -0.0255  0.2041 -0.0801
21921WAT    EPW89491   2.870   1.470   2.530  0.1073  0.4827 -0.2750
21922WAT      O89492   4.373   2.633   3.716 -0.4134  0.2345 -0.5314
21922WAT     H189493   4.452   2.686   3.702 -0.7623  0.7012 -0.7433
21922WAT     H289494   4.404   2.557   3.766  0.3371 -0.0279 -1.3653
21922WAT    EPW89495   4.388   2.630   3.721 -0.3605  0.2614 -0.6695
21923WAT      O89496   8.041   7.407   1.177  0.2081  0.5597  0.2710
21923WAT     H189497   8.120   7.443   1.138 -1.4860  1.5874 -2.5100
21923WAT     H289498   7.989   7.484   1.202 -0.2256 -0.0806  1.4485
21923WAT    EPW89499   8.044   7.422   1.175 -0.0730  0.6108  0.0595
21924WAT      O89500   4.728   9.178   4.826 -0.0454 -0.2678  0.5047
21924WAT     H189501   4.776   9.104   4.790  2.2803  0.9716  0.8953
21924WAT     H289502   4.735   9.168   4.921  1.9815  1.4163  0.5881
21924WAT    EPW89503   4.735   9.167   4.833  0.5286  0.1178  0.5672
21925WAT      O89504  10.558   0.583   7.649 -0.3261 -0.4557 -0.3040
21925WAT     H189505  10.563   0.566   7.555  2.6428 -2.2567  0.0638
21925WAT     H289506  10.600   0.668   7.661  0.9247 -1.0426 -0.4563
21925WAT    EPW89507  10.564   0.592   7.638  0.2303 -0.7706 -0.2756
21926WAT      O89508   9.998   9.447   6.194  0.4753  0.0535  0.4792
21926WAT     H189509   9.918   9.479   6.152  2.6965  2.1851 -2.5868
21926WAT     H289510  10.006   9.356   6.164 -0.9894 -0.3476  1.2291
21926WAT    EPW89511   9.989   9.439   6.185  0.5751  0.2813  0.1738
21927WAT      O89512  10.677   2.320   5.076 -0.5556  0.1541  0.0181
21927WAT     H189513  10.658   2.239   5.122 -2.2194  0.6441  0.2838
21927WAT     H289514  10.767   2.311   5.045 -0.0365 -0.9518  1.7558
21927WAT    EPW89515  10.686   2.308   5.078 -0.7071  0.0728  0.2823
21928WAT      O89516   1.357   3.866   6.134  0.3133 -0.6307  0.6952
21928WAT     H189517   1.417   3.885   6.206  3.0386  2.9129 -2.1028
21928WAT     H289518   1.406   3.808   6.076  1.5146  2.5246 -1.7677
21928WAT    EPW89519   1.371   3.861   6.136  0.8312  0.2528  0.0012
21929WAT      O89520   9.168   7.922   6.959 -0.3307 -0.1727 -0.2593
21929WAT     H189521   9.216   7.859   7.013 -0.4687 -0.1730 -0.1376
21929WAT     H289522   9.125   7.979   7.022  0.6292  0.6898 -0.3566
21929WAT    EPW89523   9.169   7.921   6.974 -0.2227 -0.0591 -0.2561
21930WAT      O89524   1.253   3.506   3.002 -0.2970  0.5041 -0.0470
21930WAT     H189525   1.315   3.448   2.960 -1.2430 -1.9913  1.7692
21930WAT     H289526   1.270   3.592   2.963  4.2740  0.0343  0.3647
21930WAT    EPW89527   1.263   3.510   2.991  0.1811  0.1129  0.2468
21931WAT      O89528   8.827   3.671   2.954 -0.9312 -0.0878  0.3703
21931WAT     H189529   8.743   3.697   2.990 -1.5734 -2.1303  0.4482
21931WAT     H289530   8.892   3.710   3.013 -1.4715  5.0383 -1.8848
21931WAT    EPW89531   8.825   3.679   2.966 -1.0872  0.3189  0.0832
21932WAT      O89532  10.452   9.681   2.929 -0.1786  0.7587 -0.4114
21932WAT     H189533  10.433   9.671   3.022  1.7996  1.3139  0.0987
21932WAT     H289534  10.448   9.776   2.914 -1.5026  0.6101 -1.1616
21932WAT    EPW89535  10.449   9.692   2.939 -0.0930  0.8121 -0.4431
21933WAT      O89536   8.150   8.651   3.588 -0.1846 -0.6559 -0.0772
21933WAT     H189537   8.117   8.728   3.634  0.9763  0.5101 -1.0968
21933WAT     H289538   8.081   8.629   3.525  0.3227  0.9312 -1.2735
21933WAT    EPW89539   8.137   8.658   3.585  0.0358 -0.2928 -0.3694
21934WAT      O89540   8.475   9.580   7.661 -0.2866  0.1181  0.5019
21934WAT     H189541   8.442   9.506   7.713  0.0161 -1.8249 -1.8925
21934WAT     H289542   8.488   9.543   7.573  0.1209  2.9894 -0.7358
21934WAT    EPW89543   8.472   9.565   7.656 -0.1926  0.2403  0.0229
21935WAT      O89544   0.291   9.767   3.548 -0.3683 -0.2367  0.7216
21935WAT     H189545   0.317   9.719   3.469  0.4887 -1.0716  1.4963
21935WAT     H289546   0.195   9.764   3.546 -0.4026  0.7583 -0.8782
21935WAT    EPW89547   0.282   9.760   3.537 -0.2598 -0.2160  0.6127
21936WAT      O89548   0.920   3.839   1.992  0.0799 -0.5694  0.3061
21936WAT     H189549   0.895   3.839   2.084 -0.8482  1.4004  0.1065
21936WAT     H289550   1.007   3.799   1.991  0.9256  0.9936  2.3144
21936WAT    EPW89551   0.928   3.834   2.004  0.0690 -0.1034  0.5447
21937WAT      O89552   8.307   4.222   4.639 -0.8589 -0.3686 -0.0864
21937WAT     H189553   8.310   4.313   4.668  0.2151 -0.2385 -0.5753
21937WAT     H289554   8.298   4.227   4.544  1.0257 -0.7293 -0.3233
21937WAT    EPW89555   8.306   4.234   4.631 -0.4687 -0.3991 -0.1822
21938WAT      O89556  10.861   6.132   6.134 -0.3220 -0.4656 -0.2558
21938WAT     H189557  10.825   6.133   6.045  0.7144  0.6075 -0.6935
21938WAT     H289558  10.819   6.057   6.176 -2.7566  0.5047 -0.8226
21938WAT    EPW89559  10.851   6.122   6.128 -0.5054 -0.1960 -0.3884
21939WAT      O89560   6.599   4.664   0.137  0.8663  0.7513 -0.0176
21939WAT     H189561   6.646   4.589   0.174  0.0252  0.0580 -0.3157
21939WAT     H289562   6.543   4.627   0.069  2.9848  2.0936 -2.6774
21939WAT    EPW89563   6.597   4.649   0.133  1.0345  0.8366 -0.4077
21940WAT      O89564   8.248  10.129   4.005 -0.2382  0.4607  1.1082
21940WAT     H189565   8.304  10.138   3.928 -0.3185 -2.2590  0.6473
21940WAT     H289566   8.292  10.064   4.059 -0.9329  1.2640  2.7062
21940WAT    EPW89567   8.261  10.122   4.002 -0.3409  0.2084  1.2581
21941WAT      O89568   5.975   9.393   6.584  0.4309  0.1627  0.4865
21941WAT     H189569   5.991   9.299   6.580  0.9417  0.2826 -1.7020
21941WAT     H289570   5.886   9.400   6.620  0.0193 -1.2120 -0.1805
21941WAT    EPW89571   5.965   9.381   6.588  0.4439 -0.0024  0.1099
21942WAT      O89572   8.221  10.295   4.545 -0.0940  0.3828 -0.4728
21942WAT     H189573   8.256  10.295   4.456 -1.0274 -1.6204 -0.8993
21942WAT     H289574   8.293  10.262   4.599 -0.1488 -0.3089 -0.8087
21942WAT    EPW89575   8.235  10.291   4.540 -0.2246  0.0277 -0.5736
21943WAT      O89576   3.721   1.015   2.053  0.0739  0.3594  0.3087
21943WAT     H189577   3.703   1.107   2.068 -0.9051 -0.0311  1.8153
21943WAT     H289578   3.638   0.979   2.020  0.6787  0.1480 -1.0639
21943WAT    EPW89579   3.708   1.022   2.050  0.0244  0.2800  0.3263
21944WAT      O89580   2.692   2.369   3.021  0.3251  0.0790  0.3476
21944WAT     H189581   2.702   2.437   2.954  0.1846  0.0255  0.2739
21944WAT     H289582   2.769   2.381   3.078  1.4301 -1.0215 -0.8490
21944WAT    EPW89583   2.704   2.380   3.020  0.4524 -0.0733  0.1800
21945WAT      O89584   9.554   1.226   5.083 -0.4005  0.1583 -0.4645
21945WAT     H189585   9.491   1.196   5.017 -0.5140  0.5188 -0.5197
21945WAT     H289586   9.599   1.300   5.043  0.2748 -0.2838 -0.5389
21945WAT    EPW89587   9.551   1.231   5.069 -0.3257  0.1475 -0.4816
21946WAT      O89588   2.285   2.956   2.283  0.2617 -0.8383  0.0728
21946WAT     H189589   2.331   3.037   2.261  0.4102 -0.4722  1.5662
21946WAT     H289590   2.199   2.985   2.312  0.0660 -1.2737 -0.0710
21946WAT    EPW89591   2.280   2.971   2.284  0.2555 -0.8475  0.2508
21947WAT      O89592  10.357   2.783   4.429  0.4954  0.2966 -0.3671
21947WAT     H189593  10.385   2.750   4.515 -0.1613 -1.1443 -0.6717
21947WAT     H289594  10.299   2.714   4.395 -0.4421  1.5128 -1.3287
21947WAT    EPW89595  10.353   2.769   4.436  0.2851  0.2668 -0.5343
21948WAT      O89596   8.090   8.798   5.970  0.2560 -0.1642 -0.3086
21948WAT     H189597   8.087   8.792   6.066  0.1493  0.7924 -0.2445
21948WAT     H289598   7.999   8.784   5.944  0.2942 -0.4820 -0.2812
21948WAT    EPW89599   8.077   8.795   5.980  0.2470 -0.0796 -0.2968
21949WAT      O89600   1.875   0.772   6.067 -0.3305  0.2922 -0.0176
21949WAT     H189601   1.877   0.865   6.091  0.0587 -0.0163  1.2180
21949WAT     H289602   1.876   0.726   6.151  2.2265 -0.8733 -0.5921
21949WAT    EPW89603   1.875   0.778   6.081  0.0582  0.0978  0.0694
21950WAT      O89604   1.157   0.023   2.904 -0.2038 -0.3885 -0.8861
21950WAT     H189605   1.068  -0.003   2.877  0.1790 -0.9588 -1.6342
21950WAT     H289606   1.211   0.005   2.828  0.8497 -1.6709  0.1215
21950WAT    EPW89607   1.152   0.017   2.891 -0.0143 -0.6328 -0.8518
21951WAT      O89608   3.964   1.432   3.762 -0.1546  0.5363  0.0474
21951WAT     H189609   4.037   1.485   3.794  2.3305 -2.4029 -0.2696
21951WAT     H289610   3.978   1.427   3.667 -1.4250  0.7907 -0.1701
21951WAT    EPW89611   3.975   1.438   3.754  0.0057  0.1822 -0.0230
21952WAT      O89612   1.988   0.878   5.204 -0.0544 -0.1650 -0.0915
21952WAT     H189613   1.896   0.852   5.211  0.6261 -2.5163  1.0268
21952WAT     H289614   2.004   0.884   5.110 -1.1138 -0.6524 -0.3148
21952WAT    EPW89615   1.978   0.875   5.193 -0.1044 -0.5394  0.0265
21953WAT      O89616   0.429   2.616   2.462 -0.1443 -0.4042  0.6134
21953WAT     H189617   0.493   2.602   2.532  0.8044 -0.9528 -0.3392
21953WAT     H289618   0.354   2.657   2.506  1.5662  2.1017  1.4585
21953WAT    EPW89619   0.428   2.620   2.477  0.2064 -0.1459  0.5993
21954WAT      O89620  10.565   9.956   7.797 -0.3977  0.2296  0.2198
21954WAT     H189621  10.541   9.864   7.793 -0.1834  0.2196 -2.9537
21954WAT     H289622  10.485  10.001   7.823  0.2190 -0.9180  5.1173
21954WAT    EPW89623  10.552   9.950   7.800 -0.2880  0.0768  0.4470
21955WAT      O89624   9.175  10.021   4.702 -0.2326  0.3602 -0.6828
21955WAT     H189625   9.217  10.086   4.759 -1.1790  0.0721  0.3774
21955WAT     H289626   9.111  10.071   4.652 -0.5696  0.3518 -0.2700
21955WAT    EPW89627   9.172  10.036   4.703 -0.4020  0.3209 -0.4885
21956WAT      O89628   1.734   1.803   3.163 -0.5359  0.2655 -0.2133
21956WAT     H189629   1.789   1.867   3.208 -0.5809  0.5915 -0.6241
21956WAT     H289630   1.749   1.721   3.211  1.0944  0.1054 -0.9285
21956WAT    EPW89631   1.744   1.800   3.175 -0.3268  0.2874 -0.3617
21957WAT      O89632   0.299   2.545   3.347  0.0249  0.2002  0.3860
21957WAT     H189633   0.316   2.454   3.370 -3.0366 -0.3911  0.6952
21957WAT     H289634   0.204   2.554   3.349  0.1536  3.1850 -0.5700
21957WAT    EPW89635   0.289   2.535   3.350 -0.3619  0.5158  0.3006
21958WAT      O89636   2.473   5.153   3.527 -0.2949  0.1918  0.0762
21958WAT     H189637   2.508   5.085   3.585 -1.7819 -0.0623  0.7417
21958WAT     H289638   2.432   5.216   3.587 -1.3883  0.1963 -0.6455
21958WAT    EPW89639   2.472   5.152   3.543 -0.6353  0.1590  0.0688
21959WAT      O89640   2.375   2.742   4.234  0.1391  0.2845 -0.8052
21959WAT     H189641   2.388   2.658   4.191 -3.2183  0.1758 -1.8627
21959WAT     H289642   2.384   2.724   4.327  0.0449 -1.1044 -1.0541
21959WAT    EPW89643   2.378   2.729   4.240 -0.3161  0.0869 -0.9775
21960WAT      O89644   1.744   1.077   3.690  0.4727  0.0681 -0.3710
21960WAT     H189645   1.694   1.067   3.609 -1.0884 -1.9267  0.7086
21960WAT     H289646   1.676   1.080   3.758  1.7573 -1.5080  1.0696
21960WAT    EPW89647   1.728   1.076   3.688  0.4362 -0.4029 -0.0385
21961WAT      O89648   1.486   0.481   5.184  0.0011  0.4263 -0.3678
21961WAT     H189649   1.581   0.490   5.174  0.2376  0.3241  1.4344
21961WAT     H289650   1.475   0.426   5.262 -1.5440 -2.0432 -2.1901
21961WAT    EPW89651   1.497   0.475   5.193 -0.1715  0.0871 -0.3707
21962WAT      O89652   1.269   1.794   5.391 -0.7275 -0.2976  0.4887
21962WAT     H189653   1.257   1.838   5.475 -1.2183  1.4353 -0.4439
21962WAT     H289654   1.273   1.701   5.413  3.2804  0.2085  2.9365
21962WAT    EPW89655   1.268   1.788   5.405 -0.2636 -0.0023  0.6883
21963WAT      O89656   0.343   2.640   1.982  0.2004  0.5078  0.0910
21963WAT     H189657   0.272   2.641   2.047  1.5698  1.4116  1.6389
21963WAT     H289658   0.306   2.593   1.907 -2.0717  1.0711  0.7870
21963WAT    EPW89659   0.329   2.634   1.981  0.0813  0.7013  0.3870
21964WAT      O89660   0.005   9.316   5.879 -0.2056 -0.2132 -0.3495
21964WAT     H189661   0.096   9.344   5.869 -0.1190  1.2645  3.3217
21964WAT     H289662  -0.047   9.387   5.841  0.1612  0.2544  0.0199
21964WAT    EPW89663   0.010   9.329   5.872 -0.1454  0.0439  0.1836
21965WAT      O89664   8.284   4.831   4.764  0.1823 -0.8959 -0.0400
21965WAT     H189665   8.378   4.816   4.760  0.2864 -0.2782 -0.0202
21965WAT     H289666   8.263   4.875   4.681  0.5054  2.0528  1.3192
21965WAT    EPW89667   8.293   4.835   4.752  0.2384 -0.4253  0.1419
21966WAT      O89668   7.177   7.342   6.454  0.3194 -0.4147  0.4252
21966WAT     H189669   7.175   7.411   6.387 -0.0193 -0.1933  0.6600
21966WAT     H289670   7.185   7.261   6.404  0.5567 -0.2196  0.1379
21966WAT    EPW89671   7.178   7.341   6.438  0.3061 -0.3598  0.4182
21967WAT      O89672   0.582   0.759   5.930 -0.3587 -0.1964 -0.0190
21967WAT     H189673   0.596   0.800   6.015 -0.6516 -3.6080  1.8139
21967WAT     H289674   0.666   0.771   5.884 -0.5005  2.5035  0.2242
21967WAT    EPW89675   0.595   0.766   5.935 -0.4160 -0.2903  0.2549
21968WAT      O89676   1.539   0.911   2.854  0.9128 -0.8956 -0.1978
21968WAT     H189677   1.549   0.951   2.940 -1.7233 -1.1436  0.3015
21968WAT     H289678   1.553   0.817   2.870  1.1097 -0.8631 -0.1772
21968WAT    EPW89679   1.542   0.904   2.868  0.5911 -0.9241 -0.1293
21969WAT      O89680   0.646   3.783   7.482 -0.1689  0.0033 -0.6171
21969WAT     H189681   0.712   3.823   7.426  1.2622 -1.7037 -0.2418
21969WAT     H289682   0.685   3.784   7.570 -0.4472 -1.3669 -0.4501
21969WAT    EPW89683   0.660   3.789   7.486 -0.0169 -0.4026 -0.5455
21970WAT      O89684   8.201   8.193   7.139 -0.5651  0.1833  0.0572
21970WAT     H189685   8.124   8.245   7.158 -1.1219 -0.6751  0.1987
21970WAT     H289686   8.230   8.223   7.053 -1.8996 -0.4753 -0.6439
21970WAT    EPW89687   8.195   8.204   7.130 -0.8149 -0.0167 -0.0167
21971WAT      O89688  10.908   3.622   6.726 -0.3033  0.1517 -0.1403
21971WAT     H189689  10.946   3.704   6.758 -1.7555  0.1006  1.8402
21971WAT     H289690  10.905   3.633   6.631  0.9532  1.7362 -0.0422
21971WAT    EPW89691  10.913   3.634   6.718 -0.3295  0.3539  0.1338
21972WAT      O89692   1.627   1.338   1.556 -0.1958  0.2431 -0.3026
21972WAT     H189693   1.721   1.353   1.567 -0.5505  1.5276  1.4837
21972WAT     H289694   1.611   1.255   1.601  0.2922 -0.8478 -2.0389
21972WAT    EPW89695   1.637   1.329   1.564 -0.1782  0.2686 -0.2960
21973WAT      O89696  10.340   4.293   8.020  0.5566  0.2298 -0.2429
21973WAT     H189697  10.408   4.276   7.955 -0.4657 -0.6436 -1.1241
21973WAT     H289698  10.384   4.346   8.086  1.8377  0.5025 -1.2520
21973WAT    EPW89699  10.355   4.298   8.020  0.5908  0.1504 -0.4921
21974WAT      O89700  10.820   8.848   6.984 -0.2380 -0.0753 -0.2237
21974WAT     H189701  10.725   8.835   6.982 -0.4379  1.2353 -0.2281
21974WAT     H289702  10.839   8.869   7.076 -0.0355  0.2453 -0.3394
21974WAT    EPW89703  10.810   8.849   6.996 -0.2379  0.1397 -0.2396
21975WAT      O89704   8.609  10.097   2.757  0.3422 -0.6272  0.6795
21975WAT     H189705   8.652  10.017   2.785  0.6175 -0.7409 -0.0401
21975WAT     H289706   8.528  10.101   2.808  0.5012 -1.1753  0.9747
21975WAT    EPW89707   8.604  10.087   2.768  0.4001 -0.7153  0.6236
21976WAT      O89708   1.889   0.578   6.289  0.3823  0.4699  0.0700
21976WAT     H189709   1.877   0.502   6.345 -0.0139 -0.2199 -0.9182
21976WAT     H289710   1.983   0.585   6.277  0.3814 -2.3463 -3.0187
21976WAT    EPW89711   1.899   0.569   6.295  0.3299  0.0075 -0.4675
21977WAT      O89712   1.656   3.533   2.981  0.0999 -1.0166  0.0636
21977WAT     H189713   1.725   3.583   2.938 -2.9657  0.7262 -3.4726
21977WAT     H289714   1.627   3.590   3.053  0.1174 -0.0818 -0.6373
21977WAT    EPW89715   1.661   3.547   2.984 -0.3021 -0.6635 -0.4952
21978WAT      O89716   1.951   0.906   3.219  0.1912 -0.5019  0.5614
21978WAT     H189717   1.972   0.979   3.277  4.1345 -0.6178 -0.4693
21978WAT     H289718   1.924   0.948   3.137 -2.8495 -0.3547  1.5070
21978WAT    EPW89719   1.950   0.921   3.216  0.3102 -0.4978  0.5502
21979WAT      O89720   4.293   2.225   5.213  0.2648  0.6959 -0.7822
21979WAT     H189721   4.213   2.240   5.264  0.6334  0.0738  0.0088
21979WAT     H289722   4.277   2.269   5.130 -0.5856  1.2502 -0.3402
21979WAT    EPW89723   4.280   2.233   5.209  0.2015  0.6869 -0.6196
21980WAT      O89724   2.341   0.391   7.027 -0.0781 -0.0184  0.2487
21980WAT     H189725   2.401   0.383   7.100 -0.2438 -2.7926  0.1546
21980WAT     H289726   2.393   0.432   6.958  0.2973  1.9117  1.5889
21980WAT    EPW89727   2.356   0.396   7.027 -0.0504 -0.1298  0.4129
21981WAT      O89728   8.555   9.213   3.484  0.0079 -0.8804  0.1058
21981WAT     H189729   8.575   9.247   3.571 -0.7172 -0.9392  0.3070
21981WAT     H289730   8.638   9.178   3.451  0.0853 -1.7149  1.1509
21981WAT    EPW89731   8.568   9.213   3.491 -0.0777 -0.9985  0.2702
21982WAT      O89732   2.882   4.178   5.261 -0.3667 -0.1483 -0.2340
21982WAT     H189733   2.964   4.129   5.272 -0.7121 -0.7933 -0.5237
21982WAT     H289734   2.854   4.198   5.350  1.5145  2.4742 -0.1222
21982WAT    EPW89735   2.889   4.174   5.274 -0.1642  0.1125 -0.2575
21983WAT      O89736   0.217   3.896   2.750 -0.4733  0.8959  0.6916
21983WAT     H189737   0.194   3.883   2.842  0.3356 -1.0403  0.6711
21983WAT     H289738   0.279   3.826   2.731 -0.9530  0.9956 -1.4550
21983WAT    EPW89739   0.222   3.885   2.759 -0.4299  0.6537  0.4059
21984WAT      O89740   3.170   0.639   5.006  0.1323 -0.1429 -0.4898
21984WAT     H189741   3.234   0.594   4.952 -0.0518 -0.7659 -0.1910
21984WAT     H289742   3.090   0.586   4.998  0.0562 -0.1559  0.2596
21984WAT    EPW89743   3.168   0.626   4.998  0.0979 -0.2269 -0.3512
21985WAT      O89744   9.969   3.412   4.858 -0.6891 -0.3219  0.0600
21985WAT     H189745   9.920   3.464   4.921 -0.5136 -0.5615  0.3924
21985WAT     H289746   9.957   3.458   4.775 -2.0428 -0.7475 -0.0038
21985WAT    EPW89747   9.961   3.425   4.855 -0.8445 -0.4097  0.0956
21986WAT      O89748  10.683   3.651   5.037 -0.1362 -0.3053 -0.3532
21986WAT     H189749  10.716   3.611   4.956 -1.0644  1.0693 -1.4522
21986WAT     H289750  10.757   3.702   5.069  0.0225 -0.2962 -0.7225
21986WAT    EPW89751  10.697   3.652   5.031 -0.2379 -0.1229 -0.5467
21987WAT      O89752   1.153   5.325   1.150  0.1665 -0.2817 -0.3874
21987WAT     H189753   1.224   5.390   1.144  0.0329 -0.0724  0.2706
21987WAT     H289754   1.197   5.245   1.176  0.0269  0.1114  1.1120
21987WAT    EPW89755   1.168   5.323   1.152  0.1305 -0.2022 -0.1029
21988WAT      O89756   0.817   0.969   5.535  0.7077 -0.2552 -0.1559
21988WAT     H189757   0.806   1.035   5.604 -2.4215  0.6196 -1.3125
21988WAT     H289758   0.768   0.893   5.567  0.3558 -0.3175 -0.8296
21988WAT    EPW89759   0.809   0.967   5.548  0.2486 -0.1480 -0.3974
21989WAT      O89760   9.612  10.345   8.021 -0.6219  1.0399 -0.2281
21989WAT     H189761   9.624  10.440   8.016  1.8210  0.7729 -0.6729
21989WAT     H289762   9.692  10.309   7.982 -2.6114 -1.2208 -2.5851
21989WAT    EPW89763   9.624  10.353   8.015 -0.5627  0.7067 -0.5980
21990WAT      O89764   2.335   3.554   6.740 -0.1697 -0.2856 -0.4830
21990WAT     H189765   2.409   3.587   6.689 -0.7161  0.9067 -0.5259
21990WAT     H289766   2.266   3.619   6.727 -0.0061  0.6331  2.6187
21990WAT    EPW89767   2.335   3.567   6.731 -0.2201 -0.0072 -0.0799
21991WAT      O89768   0.105   1.726   7.409  0.0487 -0.4744  0.6972
21991WAT     H189769   0.080   1.772   7.328 -2.2785  1.4495  2.3718
21991WAT     H289770   0.031   1.670   7.429 -0.6345  1.0282  2.7838
21991WAT    EPW89771   0.092   1.725   7.401 -0.3483 -0.0225  1.1938
21992WAT      O89772  10.087   3.546   2.427 -0.4387 -0.3161 -0.0991
21992WAT     H189773  10.016   3.501   2.381  0.3939 -2.1999  0.3575
21992WAT     H289774  10.048   3.574   2.510 -1.5363  1.7751 -1.2303
21992WAT    EPW89775  10.072   3.544   2.432 -0.4735 -0.2887 -0.1882
21993WAT      O89776   0.288   3.348   6.589 -0.5744 -0.4628 -0.0731
21993WAT     H189777   0.377   3.354   6.553 -0.6243  1.0161  0.0017
21993WAT     H289778   0.234   3.317   6.517 -0.3541  0.6955 -0.7569
21993WAT    EPW89779   0.293   3.344   6.575 -0.5519 -0.1148 -0.1535
21994WAT      O89780  10.086   3.220   3.853  0.2293  0.1117  0.2302
21994WAT     H189781  10.070   3.140   3.904 -0.1852 -0.1735 -0.3448
21994WAT     H289782  10.168   3.202   3.807 -0.4724 -0.4647 -0.8271
21994WAT    EPW89783  10.095   3.207   3.854  0.0815 -0.0020  0.0151
21995WAT      O89784   2.725   2.632   7.622  0.1469 -0.4710  0.2093
21995WAT     H189785   2.713   2.557   7.682  1.9548 -1.9591 -1.1840
21995WAT     H289786   2.811   2.619   7.584 -0.1281  1.5276 -1.2587
21995WAT    EPW89787   2.735   2.620   7.625  0.3490 -0.4038 -0.1681
21996WAT      O89788   1.699   0.071   6.724 -0.5763  0.1735  0.7879
21996WAT     H189789   1.769   0.113   6.774 -1.2517  0.9919  1.0606
21996WAT     H289790   1.697  -0.019   6.757 -2.2803  1.1461  3.6964
21996WAT    EPW89791   1.708   0.065   6.735 -0.8901  0.4098  1.2076
21997WAT      O89792  10.248   8.395   6.610 -0.0073  0.3041  0.0510
21997WAT     H189793  10.288   8.351   6.534 -0.3917 -0.7358  0.4296
21997WAT     H289794  10.313   8.460   6.636  1.0367 -0.6824  0.0381
21997WAT    EPW89795  10.262   8.398   6.603  0.0801  0.0367  0.0992
21998WAT      O89796   0.592   2.382   4.709  0.1376  0.0722  0.2139
21998WAT     H189797   0.660   2.342   4.764 -0.1168 -1.5944 -0.6275
21998WAT     H289798   0.638   2.412   4.631  0.0267 -0.3090  0.0038
21998WAT    EPW89799   0.607   2.381   4.706  0.0893 -0.1978  0.0751
21999WAT      O89800  10.988   5.533   7.571  1.0553 -0.0895 -0.0475
21999WAT     H189801  11.023   5.468   7.509  0.2032 -0.0369 -0.5994
21999WAT     H289802  10.893   5.527   7.561  0.7132 -1.9306  3.1759
21999WAT    EPW89803  10.980   5.524   7.561  0.8974 -0.3254  0.3049
22000WAT      O89804   1.820   3.766   3.781 -0.2450 -0.0660  0.1080
22000WAT     H189805   1.896   3.708   3.789  0.6909  1.0920 -0.0819
22000WAT     H289806   1.748   3.716   3.819  0.5279 -1.3400 -0.0329
22000WAT    EPW89807   1.820   3.752   3.787 -0.0196 -0.0814  0.0644
22001WAT      O89808   1.966   1.813   5.167 -0.5913  0.2942 -0.2593
22001WAT     H189809   2.053   1.852   5.170 -0.7521  0.6064  0.4111
22001WAT     H289810   1.957   1.780   5.077  0.8493 -1.2050  0.1050
22001WAT    EPW89811   1.976   1.814   5.155 -0.4224  0.1377 -0.1228
22002WAT      O89812   8.510   9.701   1.259 -0.1117  0.0539 -0.2634
22002WAT     H189813   8.552   9.648   1.191 -0.5403 -0.1237 -0.3928
22002WAT     H289814   8.576   9.767   1.282 -0.2214  0.5764 -1.3780
22002WAT    EPW89815   8.524   9.703   1.253 -0.1826  0.0997 -0.4275
22003WAT      O89816   0.227   6.956   0.683  0.0946 -0.3728  0.0976
22003WAT     H189817   0.191   6.966   0.771  0.3811  1.6894  0.0401
22003WAT     H289818   0.245   6.862   0.674 -0.4846 -0.7002  2.0005
22003WAT    EPW89819   0.225   6.945   0.693  0.0560 -0.1438  0.3410
22004WAT      O89820   7.045   8.624   5.162  0.0345 -0.1614  0.0567
22004WAT     H189821   7.056   8.719   5.168  0.6605 -0.2708  1.0196
22004WAT     H289822   7.133   8.589   5.182  0.0403 -0.9241 -1.2006
22004WAT    EPW89823   7.058   8.632   5.165  0.1178 -0.2761  0.0181
22005WAT      O89824   1.201   1.807   8.443  0.0674  0.0212 -0.7727
22005WAT     H189825   1.260   1.871   8.404 -0.4015  0.9416  0.0039
22005WAT     H289826   1.139   1.859   8.493  1.6229 -1.1321  2.6304
22005WAT    EPW89827   1.201   1.822   8.444  0.2107 -0.0095 -0.2217
22006WAT      O89828   7.747   3.283   5.004 -0.5468 -0.1745  0.3744
22006WAT     H189829   7.737   3.361   5.058  0.0250 -0.0927  0.3683
22006WAT     H289830   7.683   3.294   4.934  1.2419  1.5839 -1.1129
22006WAT    EPW89831   7.737   3.294   5.002 -0.2356  0.0682  0.1774
22007WAT      O89832   9.414   9.754   6.398 -0.4119 -0.0988 -0.0552
22007WAT     H189833   9.498   9.723   6.432 -1.6869 -0.0729  3.5309
22007WAT     H289834   9.435   9.839   6.359  1.4391 -0.8375 -0.8392
22007WAT    EPW89835   9.428   9.761   6.397 -0.3357 -0.1926  0.3140
22008WAT      O89836  10.555   2.392   4.011 -0.3950  0.7110  0.3768
22008WAT     H189837  10.510   2.391   4.095 -0.0618 -1.7116  0.5977
22008WAT     H289838  10.647   2.408   4.033 -0.1447 -0.9020  0.6239
22008WAT    EPW89839  10.561   2.394   4.025 -0.3181  0.1787  0.4385
22009WAT      O89840   6.665   9.507   6.255 -0.1772 -0.4141  0.2168
22009WAT     H189841   6.657   9.583   6.312  1.0587  1.1583 -1.5967
22009WAT     H289842   6.682   9.543   6.169 -0.0099 -2.7586 -0.8081
22009WAT    EPW89843   6.667   9.522   6.252  0.0079 -0.5164 -0.1576
22010WAT      O89844   2.435   1.091   3.650 -0.0869 -0.1686 -0.1262
22010WAT     H189845   2.376   1.099   3.574 -0.1687 -0.6795 -0.1177
22010WAT     H289846   2.429   0.999   3.675  0.6392 -0.1990 -0.0568
22010WAT    EPW89847   2.426   1.080   3.643 -0.0018 -0.2400 -0.1160
22011WAT      O89848   2.035   6.236   0.262 -0.4068 -0.4024  0.2778
22011WAT     H189849   2.051   6.183   0.184 -2.4217  0.1682 -0.5956
22011WAT     H289850   2.070   6.322   0.239  1.9133 -1.0053  1.2955
22011WAT    EPW89851   2.042   6.241   0.248 -0.3666 -0.4067  0.2968
22012WAT      O89852   0.326   3.238   4.324 -0.4618  0.2497 -0.2594
22012WAT     H189853   0.341   3.315   4.379 -1.2193 -1.2774  2.2702
22012WAT     H289854   0.232   3.219   4.335 -0.4296 -0.6627 -1.3541
22012WAT    EPW89855   0.315   3.246   4.333 -0.5574 -0.0719 -0.0699
22013WAT      O89856   2.414   3.766   0.275  0.0006  1.2411  0.1386
22013WAT     H189857   2.486   3.723   0.230 -1.1583 -1.3396  0.5403
22013WAT     H289858   2.340   3.759   0.214 -1.2373 -1.0911  1.7539
22013WAT    EPW89859   2.413   3.760   0.261 -0.3154  0.5931  0.4047
22014WAT      O89860   2.067   4.589   6.882  0.5358  0.1580  0.2014
22014WAT     H189861   2.064   4.498   6.912  2.6041  0.3497  1.1451
22014WAT     H289862   1.993   4.631   6.925  0.4000 -0.7578  0.8928
22014WAT    EPW89863   2.057   4.582   6.891  0.7906  0.0625  0.4170
22015WAT      O89864  10.914   4.183   8.224 -0.3912  0.4688  0.2687
22015WAT     H189865  10.941   4.269   8.193  0.1097  0.4421  0.6255
22015WAT     H289866  10.994   4.143   8.257 -0.8756  0.4703  1.5274
22015WAT    EPW89867  10.928   4.189   8.224 -0.3891  0.4654  0.4816
22016WAT      O89868   0.850   3.881   7.304  0.1836  0.5027 -0.0396
22016WAT     H189869   0.923   3.938   7.281  1.2312 -0.9114 -0.3572
22016WAT     H289870   0.775   3.918   7.258  0.9076  1.4083 -0.5220
22016WAT    EPW89871   0.850   3.893   7.295  0.4173  0.4356 -0.1452
22017WAT      O89872  10.326   3.770   7.576 -0.0827  1.1294  0.7881
22017WAT     H189873  10.377   3.850   7.588 -1.2573  1.9789  0.3453
22017WAT     H289874  10.273   3.763   7.655  0.1060  0.6978  0.8834
22017WAT    EPW89875  10.326   3.779   7.588 -0.2131  1.1843  0.7420
22018WAT      O89876   2.897   0.997   0.179  1.1562 -0.1946  0.3207
22018WAT     H189877   2.883   0.994   0.085  1.5711  1.0668  0.2076
22018WAT     H289878   2.810   1.017   0.216  1.4101  1.6370  0.0239
22018WAT    EPW89879   2.883   0.999   0.172  1.2445  0.2134  0.2666
22019WAT      O89880   0.705   0.726   8.096  0.1229  0.3711  0.9912
22019WAT     H189881   0.766   0.764   8.033  0.0142  1.8285  1.7263
22019WAT     H289882   0.632   0.788   8.099 -0.6651 -0.5440  1.3001
22019WAT    EPW89883   0.703   0.739   8.088  0.0046  0.4427  1.1287
22020WAT      O89884   0.478   3.394   6.822 -0.5100  0.6510  0.0288
22020WAT     H189885   0.565   3.365   6.851 -0.7858  0.2652  0.4807
22020WAT     H289886   0.463   3.476   6.868  0.6704  2.0751 -1.9555
22020WAT    EPW89887   0.488   3.401   6.832 -0.3907  0.7880 -0.1733
22021WAT      O89888   5.525   9.056   6.053 -0.4911  0.6272 -0.1692
22021WAT     H189889   5.497   9.123   6.115 -2.0851  0.5558 -0.7586
22021WAT     H289890   5.534   8.977   6.105  0.7860  1.1433  0.4207
22021WAT    EPW89891   5.522   9.055   6.068 -0.5326  0.6857 -0.1690
22022WAT      O89892  10.696   2.478   2.317  0.2845  0.3742 -0.1499
22022WAT     H189893  10.668   2.531   2.242 -1.2658 -0.1190  0.0344
22022WAT     H289894  10.626   2.414   2.328  2.0932 -1.7628 -0.3658
22022WAT    EPW89895  10.683   2.476   2.308  0.3190  0.0273 -0.1540
22023WAT      O89896   3.480   3.714   5.127  0.1762  0.1312 -0.0575
22023WAT     H189897   3.539   3.757   5.189 -0.9135  1.7819 -0.1019
22023WAT     H289898   3.414   3.672   5.181 -0.2354  0.7626 -0.0590
22023WAT    EPW89899   3.479   3.714   5.142 -0.0218  0.4323 -0.0634
22024WAT      O89900   2.580   1.670   6.221 -0.5741  0.7833  0.1662
22024WAT     H189901   2.616   1.614   6.153  0.8578  0.4051  1.1938
22024WAT     H289902   2.651   1.730   6.244 -0.7718  0.4469  1.8102
22024WAT    EPW89903   2.594   1.671   6.215 -0.4113  0.6891  0.5188
22025WAT      O89904   8.736  10.296   2.444 -0.3033 -0.2233 -0.0764
22025WAT     H189905   8.791  10.258   2.512  0.9514  1.5327 -0.0208
22025WAT     H289906   8.647  10.267   2.464  0.0416  0.1944  2.2940
22025WAT    EPW89907   8.732  10.287   2.455 -0.0920  0.0634  0.2437
22026WAT      O89908   0.422   2.736   3.757  0.3738  0.3955  0.0354
22026WAT     H189909   0.430   2.759   3.665  2.2811  1.3082  0.3697
22026WAT     H289910   0.429   2.640   3.758 -0.2855  0.3338 -0.8086
22026WAT    EPW89911   0.424   2.726   3.745  0.5384  0.5075 -0.0318
22027WAT      O89912   0.977   1.819   6.653 -0.2632  0.1079  0.0151
22027WAT     H189913   0.983   1.859   6.566 -2.7099 -1.2806 -0.9118
22027WAT     H289914   1.066   1.792   6.673  0.0732 -1.8637 -3.3261
22027WAT    EPW89915   0.989   1.820   6.644 -0.5415 -0.3353 -0.5479
22028WAT      O89916  10.760  10.217   7.951  0.5431 -0.1680  0.1307
22028WAT     H189917  10.750  10.145   8.013 -0.6465  0.5759  0.8434
22028WAT     H289918  10.678  10.218   7.902 -0.9446  2.6729  2.3607
22028WAT    EPW89919  10.748  10.208   7.953  0.1898  0.3052  0.5190
22029WAT      O89920   0.804   1.147   6.006 -0.1882  0.0657  0.2886
22029WAT     H189921   0.743   1.152   5.931 -0.7205  1.3604  0.7745
22029WAT     H289922   0.869   1.082   5.980 -0.3605  0.4956 -1.3123
22029WAT    EPW89923   0.804   1.139   5.992 -0.2811  0.2933  0.1414
22030WAT      O89924   5.226   2.161   0.450  0.0119  0.1423  0.3126
22030WAT     H189925   5.282   2.083   0.451  0.5501  0.5289  0.5934
22030WAT     H289926   5.240   2.198   0.363 -0.2132 -0.0496  0.1934
22030WAT    EPW89927   5.236   2.155   0.438  0.0534  0.1680  0.3339
22031WAT      O89928   0.963   7.999   1.418  0.0161  0.2018 -0.3587
22031WAT     H189929   0.943   8.008   1.511 -0.1350 -1.4064 -0.1974
22031WAT     H289930   0.996   8.085   1.391 -4.3766  2.2322  0.0122
22031WAT    EPW89931   0.965   8.011   1.426 -0.5832  0.2575 -0.2885
22032WAT      O89932   2.501   4.251   6.621  0.0453  0.3072  0.2502
22032WAT     H189933   2.435   4.182   6.624 -0.2490  0.6010  0.7535
22032WAT     H289934   2.457   4.327   6.659  0.4477  0.7020 -0.0617
22032WAT    EPW89935   2.486   4.252   6.626  0.0595  0.3977  0.2754
22033WAT      O89936   1.744   1.147   6.899  0.3120 -0.1614 -1.3178
22033WAT     H189937   1.720   1.119   6.811 -0.2929  1.8380 -1.8341
22033WAT     H289938   1.672   1.203   6.928  1.7955  1.5955 -0.7579
22033WAT    EPW89939   1.732   1.151   6.891  0.4278  0.3340 -1.3120
22034WAT      O89940   0.220   0.850   4.478 -0.0255  0.1931  0.2507
22034WAT     H189941   0.228   0.759   4.507  2.2194  0.2203 -0.0966
22034WAT     H289942   0.129   0.857   4.448 -0.2377 -1.9644  0.1716
22034WAT    EPW89943   0.209   0.839   4.478  0.2426 -0.0879  0.1943
22035WAT      O89944   1.961   2.200   3.320  0.0732 -0.5477 -0.4013
22035WAT     H189945   1.956   2.105   3.324 -1.2973 -0.6150 -2.1590
22035WAT     H289946   1.934   2.222   3.230 -1.5776  1.5803  0.5061
22035WAT    EPW89947   1.956   2.191   3.308 -0.3254 -0.2760 -0.5136
22036WAT      O89948   8.184   0.969   3.828 -0.0038  0.5973 -0.9000
22036WAT     H189949   8.196   1.057   3.793  0.5822 -0.2961 -3.1070
22036WAT     H289950   8.216   0.911   3.759 -2.3746 -1.4445 -0.4181
22036WAT    EPW89951   8.190   0.973   3.815 -0.2389  0.2102 -1.1275
22037WAT      O89952   7.626   9.235   0.902  0.4155  0.0371 -0.0134
22037WAT     H189953   7.542   9.189   0.898  0.8615 -0.8095  0.1600
22037WAT     H289954   7.618   9.292   0.978 -0.0646  0.0897 -0.0965
22037WAT    EPW89955   7.614   9.236   0.912  0.4110 -0.0672 -0.0015
22038WAT      O89956   1.433   2.752   5.229  0.6326 -0.6926 -0.4796
22038WAT     H189957   1.354   2.793   5.192  0.6252  0.0628  0.3196
22038WAT     H289958   1.405   2.664   5.254  0.0994 -0.5142 -0.4230
22038WAT    EPW89959   1.419   2.746   5.227  0.5613 -0.5695 -0.3664
22039WAT      O89960   1.870   1.389   6.525  0.5648  0.1336 -0.8041
22039WAT     H189961   1.922   1.452   6.474 -0.4604  0.6624 -1.2143
22039WAT     H289962   1.864   1.428   6.612 -0.3535  0.7943 -1.1465
22039WAT    EPW89963   1.876   1.402   6.530  0.3085  0.2905 -0.9034
22040WAT      O89964   9.833   1.528   4.226  0.5302 -0.3802 -0.6665
22040WAT     H189965   9.901   1.471   4.263 -0.8070 -0.9935  0.9941
22040WAT     H289966   9.752   1.479   4.241 -0.2718  0.1702 -2.9105
22040WAT    EPW89967   9.832   1.514   4.233  0.2484 -0.3885 -0.7436
22041WAT      O89968   2.994   3.490   2.935  0.2032 -0.5299 -0.0979
22041WAT     H189969   2.931   3.461   3.002  0.6404  0.2754  0.6794
22041WAT     H289970   3.071   3.436   2.950  0.2281 -0.4905 -0.0833
22041WAT    EPW89971   2.996   3.479   2.946  0.2643 -0.4185  0.0066
22042WAT      O89972   2.016   4.663   4.357  0.0097 -0.4803 -0.3081
22042WAT     H189973   1.942   4.638   4.413  0.6907 -0.6667  0.5377
22042WAT     H289974   2.065   4.726   4.411  1.0921 -1.2345 -0.3983
22042WAT    EPW89975   2.012   4.668   4.372  0.2424 -0.6044 -0.2084
22043WAT      O89976   9.625   2.287   3.986  0.1140  0.4489 -0.0472
22043WAT     H189977   9.566   2.286   3.910 -0.4105 -0.5408  0.3471
22043WAT     H289978   9.571   2.257   4.059  0.7381  0.9211  0.6216
22043WAT    EPW89979   9.610   2.283   3.985  0.1273  0.3808  0.0931
22044WAT      O89980   0.500   4.252   5.777 -0.8721  0.1427  0.5220
22044WAT     H189981   0.437   4.221   5.713 -1.6496 -0.6066  1.6200
22044WAT     H289982   0.547   4.173   5.805  0.2535  0.6278  0.0440
22044WAT    EPW89983   0.498   4.238   5.772 -0.8262  0.1078  0.6039
22045WAT      O89984   9.353   0.433   4.232 -0.3886  0.0799  0.7201
22045WAT     H189985   9.445   0.451   4.213 -0.4770  1.3128  1.3201
22045WAT     H289986   9.311   0.519   4.228 -1.2846 -0.2930  1.6287
22045WAT    EPW89987   9.359   0.447   4.229 -0.5183  0.1933  0.9193
22046WAT      O89988   9.861   2.069   6.833 -0.2212  0.2761 -0.1707
22046WAT     H189989   9.791   2.004   6.829  0.8796 -0.9104 -3.6273
22046WAT     H289990   9.834   2.137   6.771  0.2997  1.3995  0.7791
22046WAT    EPW89991   9.848   2.070   6.825 -0.0076  0.2677 -0.5014
22047WAT      O89992   3.237   2.485   3.259  0.3943  0.3020  0.4494
22047WAT     H189993   3.263   2.574   3.281  0.9987  0.3161 -0.2686
22047WAT     H289994   3.142   2.488   3.252  0.2979  0.5947  1.6810
22047WAT    EPW89995   3.228   2.497   3.261  0.4613  0.3425  0.5172
22048WAT      O89996   1.751   4.592   4.361 -0.2007 -0.0189 -0.3869
22048WAT     H189997   1.693   4.556   4.428 -0.6153  0.3916 -0.5252
22048WAT     H289998   1.772   4.518   4.305 -1.0577 -0.0515 -0.6780
22048WAT    EPW89999   1.746   4.577   4.362 -0.3684  0.0308 -0.4437
22049WAT      O90000   0.751   3.700   2.625 -0.2587 -1.0117 -0.6125
22049WAT     H190001   0.838   3.684   2.588  0.7806 -1.8995  1.9829
22049WAT     H290002   0.693   3.701   2.549  2.2258  1.9638 -2.7367
22049WAT    EPW90003   0.755   3.698   2.610  0.2060 -0.7364 -0.5504
22050WAT      O90004   2.550   3.987   5.927 -0.1386 -0.0474  0.0293
22050WAT     H190005   2.606   4.014   6.000 -0.5646  0.5923  0.1256
22050WAT     H290006   2.461   3.992   5.961 -0.7470  4.0497 -1.5325
22050WAT    EPW90007   2.546   3.992   5.941 -0.2751  0.5772 -0.1640
22051WAT      O90008   3.228   4.607   5.798 -0.0515 -0.3742  0.0951
22051WAT     H190009   3.286   4.634   5.870  1.2289  0.7812 -1.3121
22051WAT     H290010   3.171   4.683   5.784  2.3862  1.1061 -2.7085
22051WAT    EPW90011   3.228   4.621   5.806  0.4388 -0.0265 -0.4599
22052WAT      O90012   2.950   3.498   0.745 -0.6094  0.6337  0.3908
22052WAT     H190013   3.046   3.493   0.754 -0.5135  1.3075 -0.1457
22052WAT     H290014   2.926   3.417   0.701 -0.2320  0.6450  0.1596
22052WAT    EPW90015   2.960   3.487   0.741 -0.5471  0.7240  0.2895
22053WAT      O90016   4.077   7.098   6.360  0.3248 -0.2587  0.1749
22053WAT     H190017   4.036   7.091   6.274  0.4225 -1.6123  0.2302
22053WAT     H290018   4.129   7.018   6.369  3.1822  1.4328  0.0224
22053WAT    EPW90019   4.079   7.087   6.350  0.7145 -0.2143  0.1621
22054WAT      O90020   1.446   3.347   5.360  0.2814  0.1712  0.3324
22054WAT     H190021   1.447   3.400   5.280 -2.3107  1.6538  1.1519
22054WAT     H290022   1.399   3.267   5.334  0.5725  0.0843  0.0693
22054WAT    EPW90023   1.440   3.343   5.346 -0.0221  0.3554  0.4055
22055WAT      O90024   2.657   3.002   3.978  0.3501  1.2721 -0.2903
22055WAT     H190025   2.742   3.005   3.933  0.7900  0.5587  0.4639
22055WAT     H290026   2.632   2.909   3.975 -0.2175  1.4205 -0.1618
22055WAT    EPW90027   2.665   2.990   3.971  0.3333  1.1976 -0.1739
22056WAT      O90028   1.641   3.031   2.125  0.2056  0.4342  0.2573
22056WAT     H190029   1.660   3.065   2.213  0.1567 -0.9916  0.8390
22056WAT     H290030   1.598   3.105   2.081  0.9847  1.4548  1.1366
22056WAT    EPW90031   1.638   3.046   2.131  0.3020  0.3809  0.4500
22057WAT      O90032   0.709   5.235   1.408  0.0303 -0.0625 -0.0467
22057WAT     H190033   0.757   5.180   1.346 -0.5306  1.0989 -1.5917
22057WAT     H290034   0.777   5.288   1.450  0.3818 -0.5531  0.0150
22057WAT    EPW90035   0.724   5.235   1.405  0.0027  0.0262 -0.2424
22058WAT      O90036   1.413   2.849   4.893  0.0939 -0.3075  0.5758
22058WAT     H190037   1.501   2.880   4.918  1.7741 -2.7922 -1.6948
22058WAT     H290038   1.425   2.755   4.877 -2.4916 -0.3277 -1.8465
22058WAT    EPW90039   1.426   2.841   4.895 -0.0255 -0.6378 -0.0429
22059WAT      O90040   3.692   3.911   5.986 -0.1461  0.0962  0.1877
22059WAT     H190041   3.719   3.829   6.027  0.4610 -0.3938 -1.1661
22059WAT     H290042   3.596   3.905   5.981 -0.1291 -0.3714  0.3920
22059WAT    EPW90043   3.683   3.900   5.991 -0.0638 -0.0302  0.0362
22060WAT      O90044   5.128   2.129   7.912  0.0244  0.3642 -0.3962
22060WAT     H190045   5.047   2.165   7.876 -0.0812 -0.3253 -0.8635
22060WAT     H290046   5.105   2.039   7.936  0.3563  0.5144  0.5094
22060WAT    EPW90047   5.114   2.122   7.911  0.0546  0.2930 -0.3388
22061WAT      O90048   8.765   9.845   5.989 -0.0907 -0.5641  0.1748
22061WAT     H190049   8.814   9.775   6.032  0.8112 -0.5454 -0.7839
22061WAT     H290050   8.706   9.798   5.929 -0.4223 -0.5460  0.4859
22061WAT    EPW90051   8.763   9.829   5.987 -0.0157 -0.5593  0.0894
22062WAT      O90052   1.901   4.567   5.471  0.4590 -0.0441 -0.1836
22062WAT     H190053   1.926   4.612   5.551  2.4618 -2.4558  0.6816
22062WAT     H290054   1.983   4.529   5.438 -0.9531 -2.5814 -1.0850
22062WAT    EPW90055   1.915   4.568   5.477  0.5370 -0.6969 -0.1884
22063WAT      O90056   1.551   6.423   4.010 -0.5697 -0.3718 -0.7278
22063WAT     H190057   1.597   6.487   3.957 -1.0185  0.4507 -0.1527
22063WAT     H290058   1.620   6.367   4.046  0.0466  1.1008  0.4578
22063WAT    EPW90059   1.566   6.424   4.008 -0.5476 -0.0691 -0.4957
22064WAT      O90060   0.777   2.722   2.758  0.2138  0.6310  0.2427
22064WAT     H190061   0.772   2.628   2.744  0.8712  0.8572 -1.9100
22064WAT     H290062   0.732   2.737   2.841 -0.4240 -1.4969  0.3261
22064WAT    EPW90063   0.771   2.712   2.767  0.2163  0.3803 -0.0303
22065WAT      O90064   3.592   5.069   3.460  0.1537 -0.0438 -0.0616
22065WAT     H190065   3.519   5.007   3.465 -1.5196  1.9113  1.7177
22065WAT     H290066   3.570   5.137   3.524  0.9005  3.3950 -3.1186
22065WAT    EPW90067   3.580   5.070   3.469  0.0314  0.6676 -0.2300
22066WAT      O90068   2.725   2.671   5.647  0.1579  0.2254  0.0768
22066WAT     H190069   2.736   2.621   5.727  1.6074 -0.5332 -0.5575
22066WAT     H290070   2.630   2.678   5.635 -0.1080 -2.4862  0.1276
22066WAT    EPW90071   2.714   2.666   5.656  0.3140 -0.2322 -0.0002
22067WAT      O90072   2.795   1.619   3.995  0.7743  0.0672 -0.2291
22067WAT     H190073   2.796   1.592   3.903 -0.2876  1.1161 -0.5746
22067WAT     H290074   2.741   1.698   3.996  1.2549  0.4073  1.2119
22067WAT    EPW90075   2.788   1.626   3.983  0.6976  0.2503 -0.0846
22068WAT      O90076   0.504   3.808   4.704  0.5046 -0.1293  0.0140
22068WAT     H190077   0.477   3.892   4.668 -1.0478 -0.6419 -0.1154
22068WAT     H290078   0.436   3.747   4.674  0.5376 -1.0557  1.7288
22068WAT    EPW90079   0.491   3.811   4.695  0.3042 -0.3190  0.2234
22069WAT      O90080   9.772   2.151   3.714 -0.0814 -0.1335  0.2047
22069WAT     H190081   9.755   2.119   3.803 -2.5665  3.1044  1.0865
22069WAT     H290082   9.857   2.194   3.720  0.2236 -0.7813  0.7162
22069WAT    EPW90083   9.781   2.152   3.727 -0.3691  0.2079  0.3885
22070WAT      O90084   2.779   4.923   3.028 -0.5181  1.1558  0.0311
22070WAT     H190085   2.748   4.860   3.093  1.3567 -0.7218 -0.7965
22070WAT     H290086   2.700   4.947   2.979 -1.4208  0.1363  0.9414
22070WAT    EPW90087   2.764   4.918   3.030 -0.3899  0.7737  0.0420
22071WAT      O90088   1.167   3.557   6.287  0.8101 -0.0903  0.6493
22071WAT     H190089   1.151   3.563   6.193  0.7999 -0.5006  0.6254
22071WAT     H290090   1.163   3.648   6.317  1.0646  0.0695  0.2146
22071WAT    EPW90091   1.164   3.570   6.278  0.8423 -0.1234  0.5884
22072WAT      O90092   5.242   3.887   3.724  0.8759 -0.6703  0.0137
22072WAT     H190093   5.190   3.966   3.736  1.5448 -0.1208 -0.5806
22072WAT     H290094   5.325   3.905   3.768 -0.0552 -2.2642  2.6242
22072WAT    EPW90095   5.246   3.899   3.731  0.8414 -0.8080  0.2795
22073WAT      O90096   4.872   3.211   3.285 -0.0136  0.5028 -0.2970
22073WAT     H190097   4.869   3.146   3.356  0.0542 -1.6384 -2.1343
22073WAT     H290098   4.799   3.186   3.227  0.3573  1.7512 -1.3440
22073WAT    EPW90099   4.862   3.199   3.287  0.0443  0.3852 -0.6775
22074WAT      O90100   0.120   4.053   4.759 -0.3807 -0.4079 -0.3839
22074WAT     H190101   0.113   4.146   4.781 -2.2036 -0.9907  1.8309
22074WAT     H290102   0.180   4.051   4.684  3.5860  2.1376  2.3488
22074WAT    EPW90103   0.127   4.065   4.752 -0.0979 -0.1490  0.2687
22075WAT      O90104   4.521   2.223   0.498  0.3813 -0.2460 -0.4560
22075WAT     H190105   4.529   2.309   0.456  0.7095 -0.9503 -1.9051
22075WAT     H290106   4.562   2.234   0.584  1.1073  0.8493 -0.9273
22075WAT    EPW90107   4.528   2.236   0.504  0.5205 -0.1943 -0.7093
22076WAT      O90108   3.328   1.861   4.592 -0.1772 -0.5794 -0.0712
22076WAT     H190109   3.401   1.799   4.599 -0.9350 -1.7052 -1.5505
22076WAT     H290110   3.355   1.936   4.645  1.0231 -1.9308  1.2985
22076WAT    EPW90111   3.341   1.863   4.600 -0.1187 -0.9061 -0.0858
22077WAT      O90112   0.518   8.065   3.141  0.4066 -0.0518 -0.1116
22077WAT     H190113   0.451   8.132   3.149  1.0593  0.9286 -2.2364
22077WAT     H290114   0.475   7.993   3.095  0.6831  0.3916 -1.0686
22077WAT    EPW90115   0.504   8.064   3.136  0.5291  0.1354 -0.5181
22078WAT      O90116   2.081   2.717   1.577  0.1917  0.1525  0.3044
22078WAT     H190117   2.122   2.771   1.509 -0.7658  0.8160  0.2335
22078WAT     H290118   2.118   2.750   1.659 -0.3816  0.9232  0.2592
22078WAT    EPW90119   2.092   2.728   1.578 -0.0103  0.3417  0.2891
22079WAT      O90120   1.383   1.292   6.650 -0.2609  0.2124  0.2529
22079WAT     H190121   1.368   1.248   6.733 -3.3781 -0.5665 -0.6013
22079WAT     H290122   1.354   1.230   6.584 -1.3340  2.1344 -1.1904
22079WAT    EPW90123   1.378   1.278   6.652 -0.8135  0.3632 -0.0501
22080WAT      O90124   2.340   2.426   6.469  0.1429 -0.2905 -0.6030
22080WAT     H190125   2.383   2.372   6.535  1.6034 -1.5300 -2.4926
22080WAT     H290126   2.323   2.367   6.396 -1.8177  0.9436 -1.2315
22080WAT    EPW90127   2.343   2.411   6.468  0.0770 -0.2911 -0.9351
22081WAT      O90128   3.541   3.063   5.188  0.7421 -0.1304 -0.4364
22081WAT     H190129   3.630   3.086   5.213  0.7588  1.4921 -1.8393
22081WAT     H290130   3.498   3.042   5.271  2.1416 -0.0045  0.3628
22081WAT    EPW90131   3.547   3.063   5.202  0.9289  0.1003 -0.5159
22082WAT      O90132   0.012   2.836   6.636 -0.7016 -0.1674 -0.2174
22082WAT     H190133   0.088   2.868   6.588 -0.9657 -0.5533 -0.9099
22082WAT     H290134   0.025   2.867   6.726  1.1006 -1.5886  0.0633
22082WAT    EPW90135   0.024   2.844   6.641 -0.4988 -0.4057 -0.2716
22083WAT      O90136   3.771   0.960   4.567  0.1724 -0.5128  1.0115
22083WAT     H190137   3.798   0.869   4.551 -2.9081 -1.4024  0.2816
22083WAT     H290138   3.677   0.961   4.550 -0.0562  2.6740  1.7949
22083WAT    EPW90139   3.763   0.948   4.563 -0.2640 -0.2098  1.0185
22084WAT      O90140   8.049   8.443   7.205  0.2251  0.0160  0.6566
22084WAT     H190141   8.060   8.531   7.241 -1.1161 -0.0134  1.2111
22084WAT     H290142   8.026   8.457   7.113 -0.5330  0.2993  0.8726
22084WAT    EPW90143   8.047   8.457   7.198 -0.0520  0.0491  0.7577
22085WAT      O90144   1.950   1.935   1.899  0.3087  0.1932  0.4474
22085WAT     H190145   1.984   1.991   1.969  0.7559 -0.2362  0.5814
22085WAT     H290146   1.862   1.911   1.928  0.4588  0.0862  0.8310
22085WAT    EPW90147   1.943   1.939   1.912  0.3875  0.1225  0.5157
22086WAT      O90148   1.723   4.063   3.025 -0.4606 -0.2509  0.2608
22086WAT     H190149   1.709   4.155   3.049  0.5257 -0.5729  2.2921
22086WAT     H290150   1.684   4.013   3.096  0.2037 -1.3716 -0.1270
22086WAT    EPW90151   1.716   4.068   3.037 -0.2429 -0.4413  0.4776
22087WAT      O90152   5.595   1.529   1.931  0.0239 -0.1199 -0.5938
22087WAT     H190153   5.555   1.613   1.952 -0.9269 -0.3237 -1.5010
22087WAT     H290154   5.666   1.519   1.995 -1.7034 -0.0075  1.4285
22087WAT    EPW90155   5.599   1.538   1.942 -0.3293 -0.1319 -0.4467
22088WAT      O90156  10.958   2.361   8.931 -0.3904  0.2318 -0.0506
22088WAT     H190157  11.018   2.397   8.996  0.7626 -3.2394  1.0433
22088WAT     H290158  11.006   2.287   8.893 -2.1573  0.3685 -2.7679
22088WAT    EPW90159  10.972   2.356   8.935 -0.4711 -0.2079 -0.2651
22089WAT      O90160   1.976   6.250   7.334 -0.2820  0.5955  0.1934
22089WAT     H190161   2.046   6.311   7.310 -0.2223  1.2899  1.9437
22089WAT     H290162   1.896   6.292   7.305 -0.0597  0.0636 -1.3023
22089WAT    EPW90163   1.975   6.263   7.327 -0.2449  0.6168  0.2270
22090WAT      O90164   0.327   5.808   6.334  0.2084  0.2838  0.4100
22090WAT     H190165   0.321   5.903   6.345 -0.9265  0.4395 -1.1594
22090WAT     H290166   0.419   5.792   6.311  0.0150  1.2726 -1.2150
22090WAT    EPW90167   0.339   5.818   6.333  0.0332  0.4349 -0.0112
22091WAT      O90168   2.358   3.922   1.804 -0.6940  0.0842 -0.0177
22091WAT     H190169   2.291   3.964   1.858 -0.0045  2.3220 -0.7916
22091WAT     H290170   2.438   3.932   1.854 -0.2419  1.1904 -0.9236
22091WAT    EPW90171   2.359   3.929   1.818 -0.5435  0.5252 -0.2393
22092WAT      O90172   0.382   3.164   2.706 -0.0131  0.0192 -0.2994
22092WAT     H190173   0.289   3.153   2.690 -0.0912  0.4274 -0.1571
22092WAT     H290174   0.404   3.248   2.664 -0.0503  0.7089  0.9836
22092WAT    EPW90175   0.373   3.174   2.698 -0.0283  0.1640 -0.1113
22093WAT      O90176   2.618   1.411   3.058 -0.3301  0.5862  0.3172
22093WAT     H190177   2.646   1.501   3.077  0.2717  1.0943 -2.5168
22093WAT     H290178   2.700   1.362   3.047 -0.5421  0.5430 -1.4799
22093WAT    EPW90179   2.632   1.416   3.059 -0.2788  0.6475 -0.2935
22094WAT      O90180   2.070   1.828   3.600 -0.1562  0.7887 -0.3955
22094WAT     H190181   2.045   1.771   3.673  2.4148  0.6276  0.4641
22094WAT     H290182   2.044   1.916   3.629  2.1650  0.9615  1.5383
22094WAT    EPW90183   2.063   1.832   3.613  0.4891  0.7903 -0.0272
22095WAT      O90184   6.834   9.307   6.353  0.7480  0.0503  0.1727
22095WAT     H190185   6.785   9.387   6.333 -1.5401 -1.4158 -0.3424
22095WAT     H290186   6.876   9.326   6.437  1.3270  2.2203 -0.5192
22095WAT    EPW90187   6.833   9.320   6.361  0.5226  0.1431  0.0136
22096WAT      O90188   2.930   5.301   6.261  0.2936 -0.4788 -0.0344
22096WAT     H190189   2.903   5.229   6.204  0.3032 -0.0850 -0.5456
22096WAT     H290190   3.004   5.341   6.216 -0.3752  0.5086 -0.2926
22096WAT    EPW90191   2.936   5.296   6.248  0.2067 -0.2964 -0.1359
22097WAT      O90192   3.002   1.268   2.733  0.2537 -0.1989  0.1431
22097WAT     H190193   2.969   1.242   2.647  3.3353  2.2291 -2.0380
22097WAT     H290194   3.034   1.187   2.772 -1.7307 -1.4506 -0.6925
22097WAT    EPW90195   3.002   1.254   2.726  0.3984 -0.0438 -0.2549
22098WAT      O90196   3.144   2.977   4.024 -0.1841  0.3878 -0.3618
22098WAT     H190197   3.219   2.996   4.080 -0.9413 -0.5158  0.9934
22098WAT     H290198   3.183   2.939   3.945  0.7601 -0.9072  0.6842
22098WAT    EPW90199   3.159   2.974   4.021 -0.1595  0.0979 -0.0451
22099WAT      O90200   9.426  10.270   4.499  0.2491  0.2432 -0.4315
22099WAT     H190201   9.465  10.248   4.584 -0.0794 -0.6640 -0.5001
22099WAT     H290202   9.501  10.277   4.440  0.3207 -3.0111 -0.9027
22099WAT    EPW90203   9.441  10.268   4.503  0.2146 -0.3052 -0.5026
22100WAT      O90204   1.289   1.072   2.274 -0.4268 -0.6472 -0.0066
22100WAT     H190205   1.204   1.076   2.319 -1.0468 -0.2632 -1.1613
22100WAT     H290206   1.294   1.155   2.226  0.4269 -0.8403 -0.2705
22100WAT    EPW90207   1.278   1.084   2.273 -0.3960 -0.6220 -0.1937
22101WAT      O90208   3.944   2.805   4.140  0.1623  0.4347 -0.0224
22101WAT     H190209   3.957   2.724   4.188  1.5944  0.3146 -0.5785
22101WAT     H290210   3.956   2.874   4.206 -1.9895  0.2414  0.6668
22101WAT    EPW90211   3.947   2.804   4.155  0.0674  0.3935 -0.0050
22102WAT      O90212   1.244   4.049   6.968 -0.7430  0.1320 -0.3577
22102WAT     H190213   1.239   4.138   6.933 -1.4817 -0.2630 -1.2695
22102WAT     H290214   1.337   4.027   6.963 -0.8140  0.1361 -1.9494
22102WAT    EPW90215   1.256   4.058   6.963 -0.8498  0.0806 -0.6881
22103WAT      O90216   5.378   1.590   2.718 -0.0080  0.4763  0.3134
22103WAT     H190217   5.332   1.519   2.673 -0.1505 -0.4705  1.8765
22103WAT     H290218   5.373   1.567   2.811  2.4483  1.0615  0.6586
22103WAT    EPW90219   5.371   1.578   2.724  0.2973  0.4286  0.5651
22104WAT      O90220   4.310   2.795   1.265 -0.1267 -0.2276 -0.2296
22104WAT     H190221   4.243   2.734   1.234 -0.0707 -1.2082  1.5161
22104WAT     H290222   4.383   2.783   1.204 -0.2980 -1.5468 -0.2010
22104WAT    EPW90223   4.311   2.786   1.253 -0.1419 -0.5310  0.0045
22105WAT      O90224   1.222   4.485   6.535  0.4470 -0.2159 -0.4426
22105WAT     H190225   1.208   4.573   6.569  0.8318  0.8054 -2.7546
22105WAT     H290226   1.151   4.433   6.574 -1.1678  1.6293 -0.7708
22105WAT    EPW90227   1.210   4.490   6.545  0.2849  0.1621 -0.7911
22106WAT      O90228   1.180   2.895   5.945 -0.1124 -0.8993 -0.0950
22106WAT     H190229   1.095   2.938   5.933 -0.1688 -1.3485 -1.5451
22106WAT     H290230   1.238   2.964   5.976 -0.6005 -0.1655 -0.7756
22106WAT    EPW90231   1.176   2.910   5.947 -0.1842 -0.8619 -0.3762
22107WAT      O90232   0.492   1.451   4.992  0.7857  0.4980 -0.0036
22107WAT     H190233   0.510   1.537   5.030  2.2557  0.4410 -0.5168
22107WAT     H290234   0.528   1.457   4.903  0.7546 -0.5997 -0.0966
22107WAT    EPW90235   0.499   1.463   4.985  0.9755  0.3456 -0.0834
22108WAT      O90236   2.834   4.081   3.820 -0.6697 -0.1330  0.6508
22108WAT     H190237   2.899   4.060   3.753  1.9412  1.9885  2.2986
22108WAT     H290238   2.771   4.137   3.776 -0.2145 -0.5330 -0.5344
22108WAT    EPW90239   2.834   4.086   3.806 -0.2654  0.0942  0.7119
22109WAT      O90240   4.233   5.722   3.198 -0.6348  0.0444 -0.1883
22109WAT     H190241   4.180   5.686   3.127  0.2130 -1.3066 -0.1838
22109WAT     H290242   4.303   5.658   3.210  0.4210  1.2686  0.4823
22109WAT    EPW90243   4.236   5.709   3.190 -0.3839  0.0279 -0.0993
22110WAT      O90244   2.624   2.162   4.796 -0.0927  0.2973  0.4250
22110WAT     H190245   2.632   2.246   4.840  2.1924 -0.1629  0.9764
22110WAT     H290246   2.578   2.182   4.714  0.3750  2.0591  0.5687
22110WAT    EPW90247   2.619   2.176   4.791  0.2702  0.4690  0.5164
22111WAT      O90248   0.863   5.227   3.468  0.2313  0.2133 -0.6590
22111WAT     H190249   0.864   5.323   3.463  0.2294  0.1736 -1.7051
22111WAT     H290250   0.777   5.206   3.505 -0.1266  0.5946 -1.2607
22111WAT    EPW90251   0.851   5.237   3.472  0.1839  0.2584 -0.8763
22112WAT      O90252   1.398   5.904   3.850  0.4285 -0.0921 -0.1629
22112WAT     H190253   1.466   5.838   3.838  2.2008  1.6710 -0.2693
22112WAT     H290254   1.356   5.912   3.764  2.6870  1.4759 -1.2087
22112WAT    EPW90255   1.401   5.896   3.837  0.9601  0.3471 -0.3150
22113WAT      O90256   2.665   3.766   6.938 -0.3557 -0.2565  0.3528
22113WAT     H190257   2.738   3.717   6.902 -2.3288 -0.9117 -3.2802
22113WAT     H290258   2.613   3.701   6.985 -0.5540 -0.6590 -0.4050
22113WAT    EPW90259   2.668   3.751   6.939 -0.6422 -0.3961 -0.2263
22114WAT      O90260   7.316   2.888   3.307  0.4127 -0.1634  0.3512
22114WAT     H190261   7.380   2.927   3.365 -0.6898 -1.8576  2.9092
22114WAT     H290262   7.275   2.819   3.359 -0.9938 -1.5453 -2.3320
22114WAT    EPW90263   7.319   2.884   3.321  0.0815 -0.5691  0.3347
22115WAT      O90264   0.978   2.976   2.648  0.1351 -0.3149 -0.0864
22115WAT     H190265   0.978   2.897   2.594  0.7451  1.0572 -2.1731
22115WAT     H290266   1.049   3.030   2.613 -0.4911  1.3268  1.0482
22115WAT    EPW90267   0.987   2.972   2.636  0.1329  0.0827 -0.2121
22116WAT      O90268   4.038   4.021   5.646 -0.5812  0.2366  0.1417
22116WAT     H190269   4.105   4.057   5.588  2.0491 -2.4722  1.2284
22116WAT     H290270   4.019   4.091   5.708  2.0794  0.8173  0.3941
22116WAT    EPW90271   4.044   4.035   5.647  0.1166 -0.0443  0.3183
22117WAT      O90272   2.345   0.685   2.317  0.0902 -0.1741  0.1521
22117WAT     H190273   2.379   0.760   2.365  0.1034 -1.2042  1.8550
22117WAT     H290274   2.268   0.718   2.271  0.3628  0.9778  0.5049
22117WAT    EPW90275   2.339   0.699   2.318  0.1279 -0.1580  0.4232
22118WAT      O90276   3.255   3.295   5.502 -1.1197  0.0427 -0.1948
22118WAT     H190277   3.256   3.387   5.475 -0.4163  0.2912  0.6418
22118WAT     H290278   3.346   3.268   5.500 -0.9531  0.2296  2.3837
22118WAT    EPW90279   3.267   3.303   5.498 -1.0049  0.1003  0.2558
22119WAT      O90280   5.846   2.560   5.146  0.7634  0.7858  0.0656
22119WAT     H190281   5.786   2.522   5.082  0.8226  1.4715 -0.4105
22119WAT     H290282   5.903   2.616   5.094 -0.4289  2.9117  0.9085
22119WAT    EPW90283   5.845   2.562   5.131  0.6142  1.1566  0.1140
22120WAT      O90284   9.222   4.169   3.800  0.4489 -0.3710 -0.6391
22120WAT     H190285   9.244   4.252   3.757 -3.3214  0.7894 -0.7360
22120WAT     H290286   9.134   4.148   3.768  1.1841 -4.4197 -0.4891
22120WAT    EPW90287   9.213   4.177   3.790  0.0491 -0.7517 -0.6320
22121WAT      O90288   4.323   3.810   4.910 -0.3139  0.1276 -0.3904
22121WAT     H190289   4.336   3.717   4.929 -3.7986 -0.1470  1.5040
22121WAT     H290290   4.253   3.812   4.845 -1.3065  1.3577  0.6367
22121WAT    EPW90291   4.315   3.798   4.904 -0.9046  0.2536 -0.0050
22122WAT      O90292   2.481   2.376   2.773 -0.1377  0.2184 -0.7964
22122WAT     H190293   2.485   2.447   2.709  0.2270  1.5259  0.6285
22122WAT     H290294   2.553   2.319   2.750 -0.1508  0.5401 -1.6877
22122WAT    EPW90295   2.491   2.378   2.761 -0.0913  0.4333 -0.7259
22123WAT      O90296   2.025   3.126   4.001 -0.3331  0.0686 -0.6677
22123WAT     H190297   2.094   3.073   4.039 -0.0837  1.7140  1.3353
22123WAT     H290298   1.963   3.063   3.965  2.1088 -1.4525 -2.4829
22123WAT    EPW90299   2.026   3.111   4.001  0.0218  0.0849 -0.6430
22124WAT      O90300  10.630   3.238   2.633 -0.0299  0.3983 -0.0383
22124WAT     H190301  10.645   3.269   2.544 -2.3677 -0.1196 -0.6882
22124WAT     H290302  10.698   3.280   2.685 -0.0679  2.6563 -1.6704
22124WAT    EPW90303  10.641   3.248   2.628 -0.3433  0.6278 -0.3393
22125WAT      O90304   0.733   5.942   5.026 -0.5641 -0.8955  0.3680
22125WAT     H190305   0.780   5.933   5.109 -0.8130  1.5648  0.8646
22125WAT     H290306   0.657   5.884   5.036  0.5994 -2.3998  0.8786
22125WAT    EPW90307   0.729   5.933   5.038 -0.4435 -0.7694  0.5007
22126WAT      O90308   2.078   4.200   5.752  0.0188  0.3912 -0.4860
22126WAT     H190309   2.096   4.114   5.790 -2.5031  0.5663  1.3412
22126WAT     H290310   2.044   4.181   5.665  0.2761 -0.3929 -0.4225
22126WAT    EPW90311   2.076   4.186   5.746 -0.2799  0.3111 -0.2367
22127WAT      O90312  10.794   1.631   2.389  0.1327  0.4770 -0.2027
22127WAT     H190313  10.759   1.550   2.428  0.0634  0.6696  0.1389
22127WAT     H290314  10.813   1.687   2.464  3.5971 -0.5541 -0.1727
22127WAT    EPW90315  10.792   1.628   2.404  0.5803  0.3664 -0.1537
22128WAT      O90316   9.156   9.126   8.681  0.1297  0.4333  0.6813
22128WAT     H190317   9.120   9.051   8.634  1.6074  0.0684  0.0830
22128WAT     H290318   9.089   9.149   8.745 -0.9219 -0.5328 -0.0501
22128WAT    EPW90319   9.143   9.119   8.683  0.1860  0.2575  0.5054
22129WAT      O90320   0.048   5.492   5.054  0.2607 -0.9117  0.9085
22129WAT     H190321  -0.031   5.453   5.016  0.2680  0.6486 -0.8650
22129WAT     H290322   0.016   5.539   5.131 -0.2393 -1.8391  1.2719
22129WAT    EPW90323   0.033   5.493   5.059  0.1960 -0.8283  0.7226
22130WAT      O90324   8.371   6.772   7.839 -0.2002 -0.5119 -0.1893
22130WAT     H190325   8.432   6.798   7.908  0.4918  1.4731 -1.4706
22130WAT     H290326   8.285   6.779   7.878  0.2034  0.1895  0.6043
22130WAT    EPW90327   8.368   6.776   7.853 -0.0558 -0.1574 -0.2534
22131WAT      O90328   6.416   6.088   2.084 -0.5975  0.5065 -0.6343
22131WAT     H190329   6.346   6.098   2.149  1.6022  2.1650  1.6541
22131WAT     H290330   6.438   5.995   2.088  1.1437  0.8589  3.0950
22131WAT    EPW90331   6.409   6.077   2.093 -0.0777  0.7718  0.1593
22132WAT      O90332   1.710   1.705   0.519  0.0349 -0.9353  0.2291
22132WAT     H190333   1.768   1.780   0.527 -2.0393  0.7486  0.3799
22132WAT     H290334   1.712   1.682   0.426 -0.4725  0.3335 -0.1171
22132WAT    EPW90335   1.718   1.712   0.508 -0.3055 -0.5459  0.2033
22133WAT      O90336   3.410   3.829   1.883 -0.0642 -0.1519 -0.3347
22133WAT     H190337   3.367   3.747   1.860 -0.0823 -1.2639  3.1419
22133WAT     H290338   3.349   3.873   1.942  0.0912  2.3024 -1.8394
22133WAT    EPW90339   3.396   3.824   1.888 -0.0460  0.0250 -0.0746
22134WAT      O90340   2.535   4.885   5.804  0.7416  0.3024  0.2729
22134WAT     H190341   2.566   4.844   5.724  2.8782  0.4529  0.9431
22134WAT     H290342   2.542   4.816   5.871  2.2665  1.0689  0.9634
22134WAT    EPW90343   2.540   4.871   5.803  1.2246  0.4237  0.4525
22135WAT      O90344  10.557   5.753   2.927 -0.2888 -0.6542  0.3952
22135WAT     H190345  10.544   5.709   3.011 -2.7276 -0.5523  0.1634
22135WAT     H290346  10.560   5.682   2.863 -0.7008 -0.6415  0.3595
22135WAT    EPW90347  10.556   5.738   2.930 -0.6647 -0.6394  0.3599
22136WAT      O90348   3.330   5.438   3.818  0.1990 -0.8383  0.3064
22136WAT     H190349   3.343   5.344   3.801 -1.0560 -0.8039 -1.0006
22136WAT     H290350   3.277   5.440   3.898  2.2002 -1.1272  1.7430
22136WAT    EPW90351   3.325   5.426   3.827  0.2973 -0.8719  0.3235
22137WAT      O90352   0.628   6.276   4.742 -0.0287  0.1922  0.1955
22137WAT     H190353   0.597   6.339   4.806 -3.1822 -0.1992 -0.8005
22137WAT     H290354   0.705   6.235   4.783 -0.3964  1.7221  2.5712
22137WAT    EPW90355   0.634   6.279   4.756 -0.4931  0.3424  0.3777
22138WAT      O90356   3.102   2.577   3.838  0.4023  0.0533 -0.1928
22138WAT     H190357   3.021   2.597   3.884  0.0178 -1.7206 -0.0179
22138WAT     H290358   3.155   2.529   3.901  0.8645 -0.3295 -0.8549
22138WAT    EPW90359   3.098   2.573   3.852  0.4125 -0.2311 -0.2571
22139WAT      O90360   5.030   5.361   3.844  0.1587 -0.3374 -0.6123
22139WAT     H190361   5.098   5.320   3.790  2.5602  2.0443  0.3635
22139WAT     H290362   5.064   5.355   3.933 -0.5467  1.5624 -0.1839
22139WAT    EPW90363   5.043   5.355   3.849  0.3827  0.2272 -0.4271
22140WAT      O90364   1.876   5.999   4.459  0.3529 -0.2455  0.1320
22140WAT     H190365   1.796   5.960   4.424  0.9390  0.4321 -2.1391
22140WAT     H290366   1.946   5.947   4.421  1.0455  0.5660  0.2831
22140WAT    EPW90367   1.875   5.987   4.449  0.5216 -0.0491 -0.1478
22141WAT      O90368   1.687   2.486   4.703 -0.2287 -0.1130 -0.2524
22141WAT     H190369   1.716   2.575   4.680 -2.5002  1.2345  1.5593
22141WAT     H290370   1.660   2.447   4.620  0.2954  1.0993 -1.0186
22141WAT    EPW90371   1.687   2.493   4.689 -0.4593  0.2246 -0.1147
22142WAT      O90372   1.337   2.046   4.031 -0.1219  1.0238 -0.0992
22142WAT     H190373   1.246   2.062   4.055 -0.0464  0.8791  0.2860
22142WAT     H290374   1.366   1.977   4.090  0.0716  0.6741 -0.5968
22142WAT    EPW90375   1.329   2.039   4.042 -0.0864  0.9586 -0.1140
22143WAT      O90376   0.344   0.213   6.421  0.4532 -0.0250 -0.4348
22143WAT     H190377   0.294   0.153   6.366 -2.5101  0.7468  1.1871
22143WAT     H290378   0.369   0.284   6.362 -0.3469 -0.4672 -1.3364
22143WAT    EPW90379   0.340   0.214   6.406 -0.0431  0.0184 -0.3400
22144WAT      O90380   8.716   2.977   4.995 -0.4062 -0.7264 -0.2326
22144WAT     H190381   8.693   2.903   4.939 -1.3512 -1.8766  1.5748
22144WAT     H290382   8.664   3.050   4.961 -1.3670 -1.5268 -0.5254
22144WAT    EPW90383   8.706   2.977   4.983 -0.6571 -0.9837 -0.0327
22145WAT      O90384   0.476   1.520   2.137 -0.0377 -0.1899  0.3406
22145WAT     H190385   0.407   1.513   2.203 -1.6607  0.3421 -1.1914
22145WAT     H290386   0.462   1.444   2.080  0.3480  0.1575 -0.2356
22145WAT    EPW90387   0.465   1.509   2.138 -0.2009 -0.0740  0.0626
22146WAT      O90388   4.477   5.312   3.575 -0.1654 -0.1127 -0.1343
22146WAT     H190389   4.467   5.351   3.662 -1.0050 -0.0178 -0.2569
22146WAT     H290390   4.558   5.262   3.579 -0.3302 -0.3191  0.7892
22146WAT    EPW90391   4.486   5.311   3.587 -0.2978 -0.1276 -0.0288
22147WAT      O90392   1.307  10.119   5.584 -0.2999 -0.4071  0.0444
22147WAT     H190393   1.359  10.181   5.533 -0.6613 -1.6087 -1.9105
22147WAT     H290394   1.310  10.152   5.673  3.8812 -0.4709  0.0974
22147WAT    EPW90395   1.314  10.132   5.589  0.2038 -0.5746 -0.2067
22148WAT      O90396   3.752   4.080   2.373 -0.0627 -0.2800  0.2660
22148WAT     H190397   3.756   4.175   2.388 -0.7152 -0.2414  0.2255
22148WAT     H290398   3.695   4.071   2.297 -2.1971 -0.8317  1.8328
22148WAT    EPW90399   3.745   4.091   2.365 -0.4303 -0.3474  0.4672
22149WAT      O90400   0.198   5.191   5.265 -0.0859 -0.8682 -0.4886
22149WAT     H190401   0.178   5.281   5.291  3.4602  0.2019 -0.9641
22149WAT     H290402   0.229   5.149   5.345 -0.1448 -1.1384 -0.6082
22149WAT    EPW90403   0.199   5.197   5.279  0.3740 -0.7629 -0.5672
22150WAT      O90404   9.392   3.128   4.272 -0.0525 -0.5226  0.3908
22150WAT     H190405   9.325   3.075   4.314 -1.5778  1.9353  1.2596
22150WAT     H290406   9.458   3.142   4.341 -0.9402  0.7996  1.0068
22150WAT    EPW90407   9.392   3.123   4.287 -0.3710 -0.0241  0.5865
22151WAT      O90408  10.146   5.841   3.667  0.7633  1.1983 -0.0374
22151WAT     H190409  10.179   5.893   3.740  0.4280  2.1388 -0.5382
22151WAT     H290410  10.152   5.900   3.592 -0.6841  0.8880 -0.4163
22151WAT    EPW90411  10.151   5.856   3.666  0.5279  1.2813 -0.1534
22152WAT      O90412  10.415   9.963   5.572  0.1180 -0.4303  0.0830
22152WAT     H190413  10.442  10.034   5.514 -0.3579 -0.2779  0.0438
22152WAT     H290414  10.397  10.005   5.656 -0.2140 -0.4940  0.0448
22152WAT    EPW90415  10.416   9.978   5.575  0.0114 -0.4177  0.0727
22153WAT      O90416  10.108   7.573   3.789  0.6285 -0.1335  0.2045
22153WAT     H190417  10.189   7.586   3.838 -0.2378  0.0814  1.6080
22153WAT     H290418  10.084   7.660   3.758 -0.7424  0.3876  2.5343
22153WAT    EPW90419  10.115   7.586   3.791  0.3338 -0.0365  0.6969
22154WAT      O90420   9.522   7.176   4.826 -0.3360  1.0210  0.5288
22154WAT     H190421   9.462   7.238   4.868 -0.8911  0.9335 -0.1185
22154WAT     H290422   9.471   7.138   4.755 -0.0086 -0.2028  0.9219
22154WAT    EPW90423   9.508   7.179   4.823 -0.3662  0.8481  0.4954
22155WAT      O90424   1.659   0.216   2.616  0.2295 -0.7374 -0.3363
22155WAT     H190425   1.645   0.122   2.604  0.5291 -0.8000 -0.1979
22155WAT     H290426   1.679   0.226   2.709 -2.1207 -0.2406  0.1799
22155WAT    EPW90427   1.660   0.205   2.626 -0.0409 -0.6801 -0.2500
22156WAT      O90428   1.906   1.256   2.184  0.3667 -0.2427 -0.0424
22156WAT     H190429   1.830   1.219   2.230  0.5718  0.7485  1.1584
22156WAT     H290430   1.868   1.322   2.126  0.2957  0.1693  0.4687
22156WAT    EPW90431   1.891   1.260   2.183  0.3844 -0.0576  0.1836
22157WAT      O90432   1.359   3.023   0.862  0.5482  1.0979 -0.1528
22157WAT     H190433   1.399   2.972   0.791 -0.4702  1.0177 -0.6911
22157WAT     H290434   1.267   3.028   0.838  0.2732  1.4712  0.9443
22157WAT    EPW90435   1.352   3.017   0.849  0.3775  1.1365 -0.0791
22158WAT      O90436   0.298   2.712   4.400 -0.4091 -0.7023 -0.1419
22158WAT     H190437   0.267   2.622   4.405 -1.3245 -0.3311  1.5646
22158WAT     H290438   0.251   2.750   4.326 -1.0828 -1.2387  0.0030
22158WAT    EPW90439   0.288   2.705   4.391 -0.6187 -0.7241  0.1023
22159WAT      O90440   5.152   3.843   4.653  0.1194 -0.2751 -0.6215
22159WAT     H190441   5.102   3.781   4.600 -1.5703  1.4380 -1.1830
22159WAT     H290442   5.142   3.811   4.743 -1.7344 -0.2329 -0.7577
22159WAT    EPW90443   5.144   3.831   4.658 -0.3479 -0.0436 -0.7138
22160WAT      O90444   1.707   7.816   1.098  0.3491  0.3642 -0.3697
22160WAT     H190445   1.793   7.823   1.141  1.7519  0.5534 -2.9759
22160WAT     H290446   1.702   7.895   1.045 -1.8623  0.7371  0.3142
22160WAT    EPW90447   1.718   7.827   1.097  0.2425  0.4380 -0.6233
22161WAT      O90448   1.260   1.860   2.770  0.6244  0.7566  0.6274
22161WAT     H190449   1.242   1.838   2.862  0.4082  1.4459  0.7513
22161WAT     H290450   1.178   1.897   2.739  0.2359 -0.7496 -0.2500
22161WAT    EPW90451   1.247   1.862   2.778  0.5447  0.6489  0.5279
22162WAT      O90452   3.186   4.535   1.220  0.6020 -0.4147 -0.2201
22162WAT     H190453   3.113   4.541   1.281 -1.0498  0.1187 -2.1295
22162WAT     H290454   3.254   4.591   1.257 -0.2471 -0.2778  1.2004
22162WAT    EPW90455   3.186   4.543   1.233  0.2723 -0.3264 -0.2846
22163WAT      O90456   1.552   1.114   3.933 -0.0830 -0.0253 -0.1456
22163WAT     H190457   1.617   1.118   4.003  0.9449  1.8143 -1.1355
22163WAT     H290458   1.499   1.194   3.944 -1.5300 -0.9618  0.0007
22163WAT    EPW90459   1.553   1.125   3.943 -0.1383  0.0937 -0.2568
22164WAT      O90460   3.148   0.847   4.393  0.3404  0.2827  0.4460
22164WAT     H190461   3.184   0.777   4.449 -1.0489 -1.5957 -0.8920
22164WAT     H290462   3.221   0.870   4.335  0.5818 -0.6629  0.3533
22164WAT    EPW90463   3.163   0.841   4.393  0.1891 -0.0898  0.2575
22165WAT      O90464   2.975   2.104   5.506 -0.3404  0.1389 -0.2675
22165WAT     H190465   2.981   2.164   5.581  2.1493  0.0263 -0.2996
22165WAT     H290466   2.998   2.019   5.542 -0.2769 -0.1263 -0.9266
22165WAT    EPW90467   2.979   2.101   5.521 -0.0037  0.0892 -0.3586
22166WAT      O90468   4.611   7.024   0.907  0.3253 -0.6098  0.6919
22166WAT     H190469   4.693   7.072   0.908 -0.6332  1.1419 -0.1445
22166WAT     H290470   4.632   6.941   0.863  1.5099  0.0832 -0.1083
22166WAT    EPW90471   4.624   7.019   0.901  0.3550 -0.2875  0.4760
22167WAT      O90472   4.618   1.016   1.932  0.5439  0.2130  0.8441
22167WAT     H190473   4.712   1.036   1.930  0.3851  0.9226  0.1065
22167WAT     H290474   4.591   1.019   1.841 -1.2446  5.3179  1.2159
22167WAT    EPW90475   4.627   1.019   1.920  0.2871  0.9800  0.7958
22168WAT      O90476   3.751   4.043   7.530 -0.0090 -0.3201  0.2226
22168WAT     H190477   3.708   4.127   7.515  0.4179 -0.2303 -0.5984
22168WAT     H290478   3.680   3.980   7.537 -0.3573  0.1830  1.4258
22168WAT    EPW90479   3.736   4.046   7.529  0.0013 -0.2418  0.2730
22169WAT      O90480   3.977   3.562   5.178  0.5327  0.4314  0.3021
22169WAT     H190481   3.883   3.548   5.186  0.4846  0.2305 -0.5676
22169WAT     H290482   3.998   3.622   5.250 -0.4144  1.1947 -0.0361
22169WAT    EPW90483   3.967   3.568   5.189  0.4014  0.5056  0.1428
22170WAT      O90484   3.230   7.284   3.958 -0.2678 -1.4417 -0.3842
22170WAT     H190485   3.182   7.313   3.881  1.8200 -0.6446 -1.4876
22170WAT     H290486   3.164   7.245   4.015 -2.2939  0.1824 -1.4705
22170WAT    EPW90487   3.215   7.283   3.956 -0.2596 -1.1225 -0.6731
22171WAT      O90488   1.160   4.694   4.053 -0.6676  0.0860  0.3929
22171WAT     H190489   1.079   4.745   4.056  0.1720  1.8526 -2.4386
22171WAT     H290490   1.229   4.760   4.045  0.7503 -1.4242 -0.4007
22171WAT    EPW90491   1.158   4.709   4.052 -0.3698  0.1197 -0.0854
22172WAT      O90492  10.189   3.412   5.476  0.3900 -0.4696 -0.3499
22172WAT     H190493  10.106   3.393   5.520  0.5003  1.2155  0.6594
22172WAT     H290494  10.229   3.481   5.529  1.5669  0.0680 -1.8788
22172WAT    EPW90495  10.183   3.418   5.489  0.5598 -0.1764 -0.4187
22173WAT      O90496   2.412   0.057   2.102 -0.4901 -0.2416  0.0784
22173WAT     H190497   2.389   0.068   2.194 -1.2319  2.5962 -0.3485
22173WAT     H290498   2.480   0.123   2.086 -0.7720 -0.2902 -1.5008
22173WAT    EPW90499   2.418   0.067   2.112 -0.6251  0.1263 -0.1861
22174WAT      O90500   1.521   3.242   6.178 -0.1672 -0.5090 -0.7774
22174WAT     H190501   1.462   3.284   6.241  1.8130 -0.2667  1.0509
22174WAT     H290502   1.563   3.315   6.132 -1.2594 -0.6787 -2.0818
22174WAT    EPW90503   1.519   3.257   6.180 -0.0501 -0.4995 -0.7086
22175WAT      O90504   0.555   0.380   2.357 -1.2437  0.7967 -0.2620
22175WAT     H190505   0.506   0.299   2.372  0.0735  0.2687  1.6241
22175WAT     H290506   0.544   0.398   2.263 -0.9785 -2.0073 -0.9305
22175WAT    EPW90507   0.547   0.371   2.346 -1.0350  0.3572 -0.1013
22176WAT      O90508   5.506   2.756   2.656  0.3372  0.5667  0.8011
22176WAT     H190509   5.583   2.762   2.712 -0.2426  0.9765  1.5647
22176WAT     H290510   5.433   2.785   2.711 -0.2047  1.2901 -0.2503
22176WAT    EPW90511   5.506   2.761   2.671  0.1893  0.7161  0.7631
22177WAT      O90512   1.069   4.734   4.728 -0.4550 -0.2514  0.6191
22177WAT     H190513   1.005   4.765   4.791 -3.1753 -3.3415 -0.3286
22177WAT     H290514   1.097   4.648   4.761 -0.2609 -0.9517 -1.1867
22177WAT    EPW90515   1.064   4.726   4.740 -0.7882 -0.7515  0.2561
22178WAT      O90516   2.208   1.701   0.403 -0.3992  0.8553 -0.9900
22178WAT     H190517   2.181   1.671   0.316 -0.3310  1.2875 -1.1608
22178WAT     H290518   2.167   1.787   0.413  0.0909  1.0747 -0.8413
22178WAT    EPW90519   2.199   1.709   0.393 -0.3256  0.9412 -0.9929
22179WAT      O90520   4.996   8.388   4.541  0.9814  0.0333  0.1487
22179WAT     H190521   5.013   8.419   4.630 -0.2391  1.8854 -0.2059
22179WAT     H290522   5.082   8.386   4.499  1.2400  2.4861  0.4070
22179WAT    EPW90523   5.009   8.392   4.547  0.8543  0.6013  0.1361
22180WAT      O90524   2.930   2.461   6.782  0.1934  0.5717  0.2813
22180WAT     H190525   2.940   2.386   6.723 -0.8225 -1.0992  2.0947
22180WAT     H290526   2.916   2.421   6.868  0.1720  2.8884  1.4144
22180WAT    EPW90527   2.930   2.446   6.785  0.0565  0.6570  0.6702
22181WAT      O90528   4.607   1.948   2.705 -0.2121  0.5157 -0.1721
22181WAT     H190529   4.660   1.905   2.638  0.2959  1.0674 -0.1266
22181WAT     H290530   4.658   2.024   2.731  0.3010 -0.4514  1.8889
22181WAT    EPW90531   4.621   1.952   2.700 -0.0775  0.4609  0.1057
22182WAT      O90532   3.908   2.756   2.402  0.7067  0.0556  0.2469
22182WAT     H190533   4.002   2.752   2.424  0.6801  1.0948  0.6272
22182WAT     H290534   3.871   2.677   2.441  1.2553  0.1652  1.0267
22182WAT    EPW90535   3.916   2.745   2.410  0.7757  0.2072  0.3998
22183WAT      O90536   0.227   3.414   3.875  0.0470 -0.3750 -0.5364
22183WAT     H190537   0.140   3.439   3.905 -0.8059 -1.4982 -1.9136
22183WAT     H290538   0.248   3.336   3.926 -0.8681 -1.5559 -1.8728
22183WAT    EPW90539   0.218   3.407   3.885 -0.1862 -0.6790 -0.8944
22184WAT      O90540  10.897  10.074   4.067 -0.7609 -0.1379  0.6373
22184WAT     H190541  10.980  10.080   4.113  0.2424 -0.3919 -1.0659
22184WAT     H290542  10.888  10.160   4.024  0.1066 -1.0713 -1.5418
22184WAT    EPW90543  10.907  10.086   4.067 -0.5136 -0.2947  0.1254
22185WAT      O90544   5.179   3.517   7.412  0.0796 -0.2188  0.2754
22185WAT     H190545   5.142   3.513   7.500 -0.8565 -0.0682 -0.1037
22185WAT     H290546   5.217   3.431   7.398 -0.4664 -0.5067  0.5284
22185WAT    EPW90547   5.179   3.505   7.422 -0.1159 -0.2369  0.2587
22186WAT      O90548   2.192   1.700   2.531  0.1024 -0.5751  0.3975
22186WAT     H190549   2.211   1.778   2.584 -1.7038  0.8727 -0.9513
22186WAT     H290550   2.098   1.686   2.540  0.4964 -3.2161  1.3113
22186WAT    EPW90551   2.182   1.708   2.539 -0.0839 -0.7325  0.3402
22187WAT      O90552  10.666   2.160   3.238 -0.0204  0.1128 -0.7413
22187WAT     H190553  10.679   2.068   3.217 -2.3126 -0.6070  0.7057
22187WAT     H290554  10.711   2.173   3.321 -0.0459  0.2141 -0.7429
22187WAT    EPW90555  10.674   2.150   3.246 -0.3262  0.0312 -0.5507
22188WAT      O90556  10.501   0.281   5.083 -0.1833  0.3726  0.7403
22188WAT     H190557  10.571   0.345   5.097 -0.3796  0.1875  2.8927
22188WAT     H290558  10.532   0.201   5.125 -1.2219 -0.0387  0.7630
22188WAT    EPW90559  10.514   0.279   5.090 -0.3457  0.2940  1.0273
22189WAT      O90560   3.092   2.497   7.357 -0.6135  0.0335  0.0147
22189WAT     H190561   3.033   2.559   7.401 -0.6026 -0.1189  0.2457
22189WAT     H290562   3.043   2.468   7.280 -0.5917  0.3819 -0.1359
22189WAT    EPW90563   3.078   2.501   7.353 -0.6093  0.0592  0.0250
22190WAT      O90564   1.784   1.050   0.720  0.4833  0.1582  0.1564
22190WAT     H190565   1.763   1.022   0.809  0.2779  4.3115  1.6370
22190WAT     H290566   1.734   1.131   0.708  3.4553  1.8527 -2.2081
22190WAT    EPW90567   1.775   1.057   0.730  0.8482  0.9294  0.0398
22191WAT      O90568   4.774   4.797   4.130  0.0572 -0.8159  0.1302
22191WAT     H190569   4.780   4.705   4.156  0.3297 -0.4321  1.5410
22191WAT     H290570   4.859   4.816   4.091  0.0341 -1.1368 -0.0819
22191WAT    EPW90571   4.786   4.788   4.128  0.0904 -0.8075  0.2882
22192WAT      O90572   0.143   2.597   7.284  0.2220 -0.2906  0.4852
22192WAT     H190573   0.080   2.528   7.265  0.1689 -0.2944  0.6779
22192WAT     H290574   0.169   2.582   7.375  0.2444 -0.0843  0.5126
22192WAT    EPW90575   0.138   2.586   7.293  0.2179 -0.2639  0.5143
22193WAT      O90576   4.329   2.938   1.860 -0.0599  0.3074  0.0043
22193WAT     H190577   4.364   2.850   1.874 -1.5677 -0.1855  0.8295
22193WAT     H290578   4.345   2.984   1.943 -0.1405  0.5157 -0.0946
22193WAT    EPW90579   4.336   2.932   1.873 -0.2697  0.2699  0.1001
22194WAT      O90580   1.128   0.747   3.198 -0.4285  0.2504  0.3707
22194WAT     H190581   1.068   0.672   3.188  1.0527 -0.8657 -0.7816
22194WAT     H290582   1.081   0.809   3.253 -1.1428 -2.1761  2.6933
22194WAT    EPW90583   1.114   0.745   3.204 -0.3274 -0.2168  0.5251
22195WAT      O90584   2.069   3.288   2.384  0.2873  0.2875 -0.7956
22195WAT     H190585   2.049   3.273   2.476  1.0084 -0.0876 -0.6920
22195WAT     H290586   2.016   3.223   2.337  0.2080  0.2256 -0.6224
22195WAT    EPW90587   2.059   3.278   2.390  0.3719  0.2298 -0.7591
22196WAT      O90588   2.498   8.181   3.898  0.2527  0.0943 -0.9510
22196WAT     H190589   2.504   8.173   3.803 -2.3295 -1.5683 -1.0790
22196WAT     H290590   2.415   8.227   3.913  1.6264  2.2481  0.5213
22196WAT    EPW90591   2.488   8.186   3.887  0.0932  0.1588 -0.7737
22197WAT      O90592   2.343   3.098   0.646 -0.0847 -0.3549 -0.7223
22197WAT     H190593   2.258   3.057   0.632 -0.8280  1.1309 -0.6898
22197WAT     H290594   2.351   3.161   0.575  0.3162  0.5759  0.1315
22197WAT    EPW90595   2.333   3.101   0.635 -0.1298 -0.0361 -0.6054
22198WAT      O90596   4.295   2.063   4.247 -0.5458  0.2440  0.0971
22198WAT     H190597   4.263   2.056   4.337  0.2284  0.1057  0.3658
22198WAT     H290598   4.266   2.149   4.218  2.8707  2.2525  1.9790
22198WAT    EPW90599   4.287   2.073   4.255  0.0069  0.4907  0.3810
22199WAT      O90600   0.612   6.048   0.266 -0.7568  0.8718 -0.2871
22199WAT     H190601   0.628   5.981   0.333 -3.9483 -0.5566 -0.7748
22199WAT     H290602   0.686   6.109   0.275 -0.2667 -0.0288  3.5071
22199WAT    EPW90603   0.624   6.047   0.276 -1.1131  0.5648  0.1490
22200WAT      O90604  10.130   4.301   7.796  0.4277  0.0919 -0.0219
22200WAT     H190605  10.094   4.376   7.747  1.4075  0.2722 -0.4906
22200WAT     H290606  10.157   4.239   7.728  1.7190  0.3040  0.2774
22200WAT    EPW90607  10.129   4.303   7.780  0.7272  0.1438 -0.0441
22201WAT      O90608   9.306   6.653   1.229  0.4750  0.0532  0.2736
22201WAT     H190609   9.239   6.639   1.163 -0.5622  2.1416  0.7737
22201WAT     H290610   9.263   6.632   1.312  0.2071  1.8660  0.6422
22201WAT    EPW90611   9.291   6.649   1.231  0.3023  0.5677  0.3881
22202WAT      O90612   4.165   4.012   4.162  0.1447  0.6323  0.0705
22202WAT     H190613   4.160   3.927   4.206  0.5654 -0.4477 -1.8425
22202WAT     H290614   4.252   4.013   4.122 -1.3659 -0.0527 -3.6549
22202WAT    EPW90615   4.176   4.001   4.163  0.0012  0.3994 -0.6731
22203WAT      O90616   0.229   5.926   5.137 -0.4464  0.0446 -0.1836
22203WAT     H190617   0.164   5.913   5.068 -1.4827 -0.0475  0.7908
22203WAT     H290618   0.200   5.869   5.209  0.9208 -0.2874  0.1425
22203WAT    EPW90619   0.217   5.917   5.137 -0.4028 -0.0112 -0.0122
22204WAT      O90620   4.608   5.385   4.463  1.0116  0.0517 -0.5695
22204WAT     H190621   4.622   5.384   4.557  0.3773 -2.3073 -0.4507
22204WAT     H290622   4.651   5.306   4.431 -2.5614 -1.6872 -1.5786
22204WAT    EPW90623   4.615   5.375   4.471  0.4568 -0.4885 -0.6869
22205WAT      O90624   8.570   9.494   5.049  0.3063 -0.1942  0.4772
22205WAT     H190625   8.522   9.576   5.039  1.9990  0.8757  0.6782
22205WAT     H290626   8.585   9.464   4.959  0.1958  0.0379  0.3801
22205WAT    EPW90627   8.566   9.501   5.036  0.5145 -0.0224  0.4911
22206WAT      O90628   3.235   3.354   1.160  0.5008 -1.1500  0.0388
22206WAT     H190629   3.149   3.373   1.122  0.5394  1.1962  0.9606
22206WAT     H290630   3.272   3.287   1.103 -0.3044  0.6377 -2.8056
22206WAT    EPW90631   3.228   3.348   1.148  0.3998 -0.6046 -0.2148
22207WAT      O90632   3.364   2.295   2.594  0.3981  0.7903 -0.4096
22207WAT     H190633   3.292   2.347   2.559 -0.6509 -0.6203 -0.4500
22207WAT     H290634   3.359   2.212   2.545  3.1181  1.2349 -1.6289
22207WAT    EPW90635   3.353   2.291   2.583  0.6186  0.6629 -0.5757
22208WAT      O90636   2.920   1.179   7.991 -0.3494 -0.1390 -0.1951
22208WAT     H190637   2.859   1.216   7.927  0.0920  1.4282  0.2324
22208WAT     H290638   3.004   1.221   7.970  0.2552 -1.1263  0.1623
22208WAT    EPW90639   2.923   1.189   7.980 -0.2114 -0.0626 -0.0916
22209WAT      O90640   4.646   1.471   1.560  0.1409 -0.5066  0.3410
22209WAT     H190641   4.613   1.480   1.650 -0.1743  0.0265  0.1786
22209WAT     H290642   4.728   1.421   1.569  1.4196  1.5878  1.2254
22209WAT    EPW90643   4.653   1.466   1.573  0.2677 -0.1601  0.4362
22210WAT      O90644   2.257   3.850   3.223 -0.2654 -0.1924  0.4715
22210WAT     H190645   2.301   3.934   3.238  1.4990 -0.6869 -1.3421
22210WAT     H290646   2.312   3.786   3.269 -1.4498 -0.4294  1.6173
22210WAT    EPW90647   2.270   3.853   3.231 -0.1888 -0.2888  0.3834
22211WAT      O90648   5.569   6.032   3.345  0.0323 -0.6340 -0.5686
22211WAT     H190649   5.660   6.014   3.368  0.4100 -1.0871 -2.2289
22211WAT     H290650   5.519   6.015   3.424  1.4067 -0.2132  0.4194
22211WAT    EPW90651   5.575   6.028   3.358  0.2635 -0.6385 -0.6572
22212WAT      O90652  10.229   1.702   8.686 -0.0061  0.0536  0.2019
22212WAT     H190653  10.183   1.721   8.768 -0.2514  1.6786 -0.2703
22212WAT     H290654  10.314   1.744   8.696  0.5480 -1.0610  0.2164
22212WAT    EPW90655  10.234   1.710   8.698  0.0343  0.1210  0.1411
22213WAT      O90656   2.678   3.460   6.650  0.6038 -0.4398  0.3207
22213WAT     H190657   2.732   3.524   6.695 -0.8546  0.7666  0.4582
22213WAT     H290658   2.740   3.403   6.606  1.9763  0.9103  0.4068
22213WAT    EPW90659   2.693   3.461   6.650  0.5925 -0.1026  0.3505
22214WAT      O90660  10.937   2.150   5.286  0.1630  0.5625 -0.6747
22214WAT     H190661  10.978   2.070   5.254 -0.1247 -0.9722  2.4311
22214WAT     H290662  11.006   2.216   5.282  1.7709 -0.9394  0.5711
22214WAT    EPW90663  10.951   2.148   5.282  0.3371  0.1619 -0.1009
22215WAT      O90664   1.148   3.874   2.401 -0.5338 -0.0962 -0.0437
22215WAT     H190665   1.165   3.784   2.376 -2.7359 -0.0746 -1.9613
22215WAT     H290666   1.163   3.924   2.321 -2.6860  0.7373  0.0182
22215WAT    EPW90667   1.153   3.869   2.387 -1.1082  0.0166 -0.2884
22216WAT      O90668   2.064   6.037   3.364 -1.0561 -0.5357  0.1986
22216WAT     H190669   2.094   6.116   3.410  1.6568  0.0396 -2.2601
22216WAT     H290670   1.984   6.065   3.319  0.5602  1.3454 -1.7045
22216WAT    EPW90671   2.057   6.051   3.364 -0.4852 -0.2117 -0.3767
22217WAT      O90672   2.643   6.087   4.677  0.3254 -0.4848 -0.3564
22217WAT     H190673   2.705   6.063   4.745  1.4552 -0.1094 -1.2329
22217WAT     H290674   2.644   6.013   4.616  0.2352 -0.2995 -0.5874
22217WAT    EPW90675   2.651   6.074   4.678  0.4627 -0.4108 -0.5023
22218WAT      O90676   7.914   9.793   6.802  0.1639  0.6720 -0.6250
22218WAT     H190677   7.975   9.794   6.876  1.6373  0.6983 -1.7885
22218WAT     H290678   7.911   9.884   6.772 -4.2775  1.8080  2.2960
22218WAT    EPW90679   7.921   9.805   6.808 -0.2275  0.8254 -0.3932
22219WAT      O90680   2.760   5.295   5.252  0.0308 -0.1049 -0.4140
22219WAT     H190681   2.728   5.338   5.331 -1.2179  1.9312 -1.9318
22219WAT     H290682   2.855   5.305   5.256  0.2065 -1.7877  1.7132
22219WAT    EPW90683   2.768   5.302   5.263 -0.1107 -0.0582 -0.3335
22220WAT      O90684   4.194   0.909   6.712  0.0378  0.1215  0.2683
22220WAT     H190685   4.220   0.847   6.644 -0.2184 -1.1497  1.2900
22220WAT     H290686   4.256   0.982   6.703 -0.6095  0.4685 -1.9449
22220WAT    EPW90687   4.206   0.911   6.702 -0.0815 -0.0004  0.1113
22221WAT      O90688   2.177   4.982   6.084  0.2648 -0.2456 -0.2490
22221WAT     H190689   2.245   4.934   6.132 -0.7797 -0.2918  1.2581
22221WAT     H290690   2.226   5.042   6.027  1.5631 -1.3067 -0.2949
22221WAT    EPW90691   2.192   4.984   6.083  0.2981 -0.3915 -0.0563
22222WAT      O90692   8.183   4.138   3.184  0.4672  1.0820  0.7060
22222WAT     H190693   8.090   4.157   3.195  0.4229  1.1447  0.2757
22222WAT     H290694   8.212   4.200   3.117  1.2572  2.3430  2.1505
22222WAT    EPW90695   8.175   4.149   3.176  0.5660  1.2565  0.8397
22223WAT      O90696   9.380   2.390   4.858  0.6300 -0.5781  0.3966
22223WAT     H190697   9.292   2.367   4.829  0.4658 -0.4995  0.8282
22223WAT     H290698   9.381   2.486   4.860  1.6178 -0.4510 -2.3440
22223WAT    EPW90699   9.369   2.400   4.855  0.7381 -0.5510  0.0920
22224WAT      O90700   1.269   1.251   7.518 -0.1565  0.2487 -0.1797
22224WAT     H190701   1.205   1.320   7.533 -0.2924  0.0023  0.3793
22224WAT     H290702   1.217   1.171   7.511  0.1163 -0.0266  0.7715
22224WAT    EPW90703   1.254   1.249   7.519 -0.1385  0.1799  0.0196
22225WAT      O90704   4.511   4.085   8.863  0.0833 -0.0828  0.7383
22225WAT     H190705   4.494   4.138   8.785  0.9718 -1.0993 -0.1646
22225WAT     H290706   4.521   4.150   8.934 -1.3960  0.8198  0.1691
22225WAT    EPW90707   4.510   4.101   8.862  0.0052 -0.0980  0.5436
22226WAT      O90708   0.947   3.108   5.819 -0.5784  0.5748  0.1569
22226WAT     H190709   0.989   3.167   5.881 -1.1641  1.4127 -0.2188
22226WAT     H290710   0.866   3.081   5.863 -0.0301 -0.4245  0.5672
22226WAT    EPW90711   0.942   3.112   5.833 -0.5834  0.5535  0.1616
22227WAT      O90712   2.509   3.209   2.451  0.0618  0.7076  0.2862
22227WAT     H190713   2.488   3.152   2.378  0.7937 -0.1474  0.7203
22227WAT     H290714   2.425   3.223   2.496  0.0182 -0.8424  0.7362
22227WAT    EPW90715   2.495   3.203   2.447  0.1526  0.3903  0.4027
22228WAT      O90716   3.275   3.185   0.005 -0.1300  0.9192  0.8877
22228WAT     H190717   3.320   3.102   0.014 -0.8427  0.6737  2.6387
22228WAT     H290718   3.344   3.251  -0.001  0.4306  0.2606 -0.0227
22228WAT    EPW90719   3.290   3.183   0.005 -0.1497  0.8001  0.9980
22229WAT      O90720   0.460   2.421   5.106 -0.0967  1.0342  0.2372
22229WAT     H190721   0.439   2.480   5.178 -1.3615  2.2140 -1.0357
22229WAT     H290722   0.526   2.467   5.055 -0.3672  0.9264 -0.2200
22229WAT    EPW90723   0.466   2.435   5.109 -0.2992  1.1755  0.0091
22230WAT      O90724   2.815   6.466   3.269 -0.3714 -0.6147 -0.2631
22230WAT     H190725   2.899   6.438   3.233  0.8733  4.4636 -2.3330
22230WAT     H290726   2.756   6.470   3.193 -0.7331  1.0021  0.0587
22230WAT    EPW90727   2.818   6.463   3.254 -0.2550  0.2682 -0.4936
22231WAT      O90728   1.670   3.960   4.702  0.1899 -0.1264 -0.4275
22231WAT     H190729   1.711   3.890   4.652  1.0879 -1.7901  2.4074
22231WAT     H290730   1.576   3.946   4.693  0.3442 -0.6590 -1.2329
22231WAT    EPW90731   1.663   3.949   4.694  0.3287 -0.4160 -0.1597
22232WAT      O90732   1.548   3.979   4.317 -0.1557 -0.4582 -0.3131
22232WAT     H190733   1.550   4.054   4.377  0.0356 -0.7814  0.0908
22232WAT     H290734   1.610   3.917   4.356 -0.3338 -0.8334 -0.6348
22232WAT    EPW90735   1.557   3.981   4.330 -0.1540 -0.5504 -0.3021
22233WAT      O90736   5.893   8.187   5.527 -0.1457  0.0615 -0.4625
22233WAT     H190737   5.797   8.187   5.532 -0.1640 -0.0346 -0.7888
22233WAT     H290738   5.919   8.258   5.585 -0.4104 -0.0021 -0.2637
22233WAT    EPW90739   5.884   8.196   5.535 -0.1829  0.0410 -0.4792
22234WAT      O90740  10.082   1.927   1.390 -0.0410 -0.3668 -0.1521
22234WAT     H190741  10.030   2.003   1.365 -2.2507 -0.0562  4.2838
22234WAT     H290742  10.034   1.853   1.352  0.1038  0.2179 -1.5427
22234WAT    EPW90743  10.069   1.927   1.382 -0.3133 -0.2487  0.2496
22235WAT      O90744   2.675   5.332   6.545  0.3636 -0.0839 -0.2407
22235WAT     H190745   2.597   5.346   6.598 -1.0940 -0.5660 -2.1507
22235WAT     H290746   2.642   5.298   6.462  2.5698  0.2229 -1.3238
22235WAT    EPW90747   2.660   5.329   6.541  0.4623 -0.1073 -0.6354
22236WAT      O90748   7.766   8.396   4.553  0.1780 -0.9744 -0.3787
22236WAT     H190749   7.726   8.473   4.513 -0.7362 -0.4574  1.3957
22236WAT     H290750   7.762   8.413   4.647  1.2872 -2.5595  0.0032
22236WAT    EPW90751   7.760   8.408   4.560  0.2038 -1.1153 -0.0942
22237WAT      O90752   2.616   4.520   4.143  0.1909 -0.0870  0.4812
22237WAT     H190753   2.612   4.507   4.237  0.3875 -0.7734  0.4021
22237WAT     H290754   2.707   4.500   4.120  0.7441  2.2010  0.4433
22237WAT    EPW90755   2.628   4.515   4.152  0.2898  0.1242  0.4659
22238WAT      O90756   9.143   0.585   8.294 -0.6767  0.3100 -0.5172
22238WAT     H190757   9.100   0.638   8.228 -1.3075  0.1670 -0.2239
22238WAT     H290758   9.081   0.516   8.315 -0.9501  0.9719  1.0102
22238WAT    EPW90759   9.129   0.583   8.288 -0.7968  0.3784 -0.2770
22239WAT      O90760   3.519   6.210   5.754 -1.0682 -0.1917  0.1073
22239WAT     H190761   3.598   6.261   5.736 -0.2678 -0.3071  2.8270
22239WAT     H290762   3.459   6.233   5.683  1.0590  0.5446 -1.5933
22239WAT    EPW90763   3.522   6.220   5.742 -0.6821 -0.1094  0.2420
22240WAT      O90764   4.999   6.339   4.868 -0.5642 -0.6573 -0.3046
22240WAT     H190765   5.056   6.403   4.824 -0.4750 -0.1660  0.5080
22240WAT     H290766   4.939   6.393   4.919 -2.0937 -1.1467 -1.5117
22240WAT    EPW90767   4.999   6.355   4.869 -0.7539 -0.6571 -0.3567
22241WAT      O90768   2.417   4.397   5.197  0.2167  0.1756 -0.7403
22241WAT     H190769   2.452   4.476   5.238 -1.1002  0.6826 -0.5433
22241WAT     H290770   2.329   4.389   5.233 -1.0837  0.7130 -3.5251
22241WAT    EPW90771   2.410   4.407   5.207 -0.1286  0.3133 -1.0815
22242WAT      O90772   5.917   2.266   5.168  0.7517  0.3746 -0.2262
22242WAT     H190773   5.822   2.257   5.166  0.8853 -1.4064 -2.0890
22242WAT     H290774   5.933   2.359   5.154 -0.7152  0.7483  0.4591
22242WAT    EPW90775   5.907   2.277   5.166  0.5758  0.1889 -0.3817
22243WAT      O90776   7.040   1.841   0.462  0.9988 -0.6645  0.1312
22243WAT     H190777   7.095   1.822   0.538 -0.0033 -0.6773  0.8617
22243WAT     H290778   6.966   1.890   0.497 -0.3240 -2.0823 -0.5565
22243WAT    EPW90779   7.038   1.845   0.477  0.6924 -0.8532  0.1369
22244WAT      O90780   2.499   3.908   1.351  0.3913  0.1971 -0.3249
22244WAT     H190781   2.576   3.959   1.376 -0.2833  1.2284 -0.3131
22244WAT     H290782   2.522   3.817   1.374  1.2924  0.5969  0.4198
22244WAT    EPW90783   2.512   3.902   1.358  0.4210  0.3859 -0.2251
22245WAT      O90784   3.313   4.733   4.048 -0.6111  0.1227  1.2753
22245WAT     H190785   3.302   4.649   4.002  0.9607 -0.6940  2.2868
22245WAT     H290786   3.407   4.750   4.045 -1.0700  2.9807 -0.7331
22245WAT    EPW90787   3.324   4.724   4.042 -0.4642  0.3920  1.1437
22246WAT      O90788   0.818   5.780   1.758 -0.2461  0.1527  0.3232
22246WAT     H190789   0.814   5.816   1.669  1.0637 -1.0728 -0.2751
22246WAT     H290790   0.898   5.816   1.795 -0.8960  0.8313  1.1305
22246WAT    EPW90791   0.828   5.790   1.751 -0.1591  0.0803  0.3508
22247WAT      O90792   1.904   3.544   5.886  0.6951 -0.4632 -0.7173
22247WAT     H190793   1.957   3.583   5.956  0.0734 -0.3450 -0.3049
22247WAT     H290794   1.968   3.514   5.822  1.3510 -1.4844  0.3636
22247WAT    EPW90795   1.919   3.545   5.887  0.6996 -0.5823 -0.5200
22248WAT      O90796   2.172   1.535   5.010 -0.3526 -0.3227 -0.0021
22248WAT     H190797   2.087   1.536   4.966 -0.4348  1.9393  0.0964
22248WAT     H290798   2.155   1.493   5.094 -0.8105 -2.0663 -0.9153
22248WAT    EPW90799   2.158   1.530   5.015 -0.4238 -0.2543 -0.1094
22249WAT      O90800   4.622   5.091   2.259 -0.0615 -0.1872  1.0752
22249WAT     H190801   4.529   5.070   2.259  0.0913 -0.9448  0.2864
22249WAT     H290802   4.627   5.182   2.287 -1.1670  0.3945 -0.4862
22249WAT    EPW90803   4.610   5.100   2.263 -0.1874 -0.2103  0.7651
22250WAT      O90804   1.093   5.291   6.268 -0.1443  0.5327 -0.1999
22250WAT     H190805   1.034   5.339   6.211  0.3708  0.6408 -0.6592
22250WAT     H290806   1.176   5.290   6.221  0.0516 -0.1693  0.1343
22250WAT    EPW90807   1.096   5.297   6.254 -0.0505  0.4542 -0.2162
22251WAT      O90808   3.773   5.353   3.675  0.9137 -0.4201 -0.8405
22251WAT     H190809   3.788   5.331   3.767  0.2341  0.4564 -0.5082
22251WAT     H290810   3.687   5.314   3.655 -0.9159  2.7530  0.1123
22251WAT    EPW90811   3.763   5.345   3.684  0.5828  0.1140 -0.6709
22252WAT      O90812   1.026   6.643   7.401 -0.4388  0.5078  0.2690
22252WAT     H190813   1.028   6.660   7.307  0.7897  0.7287  0.3204
22252WAT     H290814   1.052   6.726   7.441 -2.6443  0.9427  0.9020
22252WAT    EPW90815   1.030   6.656   7.394 -0.5676  0.5944  0.3593
22253WAT      O90816   2.865   2.636   4.000  0.0985 -0.0638  0.6453
22253WAT     H190817   2.887   2.684   4.080 -0.7345 -0.1331  0.9170
22253WAT     H290818   2.770   2.639   3.994  0.1881  0.8984 -0.9456
22253WAT    EPW90819   2.856   2.643   4.010  0.0005  0.0540  0.4714
22254WAT      O90820   2.428   0.436   4.313  0.4772  0.4681  0.1230
22254WAT     H190821   2.375   0.478   4.380  1.8338 -0.2831  1.7277
22254WAT     H290822   2.499   0.498   4.296  0.5373  0.3388 -0.1049
22254WAT    EPW90823   2.430   0.450   4.319  0.6640  0.3520  0.3047
22255WAT      O90824  10.717   1.740   5.130  0.2089  0.2723 -0.3314
22255WAT     H190825  10.624   1.720   5.122  0.3724 -0.2738 -1.0752
22255WAT     H290826  10.737   1.793   5.053  0.3137  1.2258  0.3423
22255WAT    EPW90827  10.707   1.744   5.119  0.2446  0.3260 -0.3407
22256WAT      O90828   2.799   1.741   8.668  0.2458  0.2763  0.0914
22256WAT     H190829   2.833   1.718   8.581 -2.0308 -1.4554 -0.4256
22256WAT     H290830   2.773   1.832   8.660  0.5997  0.3101 -0.8536
22256WAT    EPW90831   2.800   1.750   8.656 -0.0079  0.0523 -0.1016
22257WAT      O90832   0.577   1.940   2.605 -0.0790  0.0547  0.1574
22257WAT     H190833   0.558   1.982   2.520 -0.7344 -0.9019 -0.1824
22257WAT     H290834   0.550   2.005   2.670  0.7218  0.9235 -0.3543
22257WAT    EPW90835   0.571   1.954   2.602 -0.0598  0.0432  0.0451
22258WAT      O90836   1.228   1.263   4.980  0.0884 -0.5043  0.1475
22258WAT     H190837   1.173   1.310   4.917 -0.5163  0.2239  1.1872
22258WAT     H290838   1.213   1.308   5.063  0.9536 -1.3757  0.7981
22258WAT    EPW90839   1.219   1.275   4.983  0.1228 -0.5231  0.3703
22259WAT      O90840   3.521   5.361   3.497  0.1621  0.1004 -0.0523
22259WAT     H190841   3.551   5.383   3.409  0.3719 -3.3922 -1.0192
22259WAT     H290842   3.433   5.325   3.484 -0.2851  0.6162  1.3489
22259WAT    EPW90843   3.513   5.359   3.484  0.1309 -0.2923  0.0051
22260WAT      O90844   4.013   4.393   7.359  0.2066  0.4403  0.3789
22260WAT     H190845   3.996   4.342   7.280 -0.0094  1.4914 -0.2675
22260WAT     H290846   4.101   4.429   7.346  0.1065  0.7475  0.5404
22260WAT    EPW90847   4.022   4.391   7.347  0.1645  0.6196  0.3152
22261WAT      O90848   3.838   2.788   3.766  0.1576  1.1245 -0.4879
22261WAT     H190849   3.900   2.815   3.699  0.1394  2.0957 -0.1400
22261WAT     H290850   3.752   2.794   3.724  0.2788 -0.1093 -0.9349
22261WAT    EPW90851   3.835   2.793   3.752  0.1713  1.0898 -0.5008
22262WAT      O90852   8.095   9.554   8.194 -0.4895  0.1847  0.3374
22262WAT     H190853   8.115   9.609   8.269 -0.0707  2.6503 -1.4515
22262WAT     H290854   8.178   9.548   8.146 -1.1156  0.0533 -0.7582
22262WAT    EPW90855   8.109   9.560   8.197 -0.5169  0.4926 -0.0424
22263WAT      O90856   2.482   2.178   1.948 -0.2328 -0.0364 -0.0363
22263WAT     H190857   2.534   2.225   2.013 -0.0261 -1.7002  1.0658
22263WAT     H290858   2.450   2.246   1.889 -1.1511  1.6625  2.2765
22263WAT    EPW90859   2.485   2.193   1.949 -0.3266 -0.0318  0.4141
22264WAT      O90860   3.588   1.770   4.650 -0.5859 -0.2581 -0.3130
22264WAT     H190861   3.648   1.843   4.639  1.8121 -1.7354  1.9523
22264WAT     H290862   3.601   1.716   4.572 -0.4379  0.3892 -0.7456
22264WAT    EPW90863   3.597   1.773   4.639 -0.2500 -0.3676 -0.0713
22265WAT      O90864   3.449   1.261   5.679  0.2295  0.1452 -0.6312
22265WAT     H190865   3.371   1.281   5.626 -2.8941 -0.9652  3.0590
22265WAT     H290866   3.492   1.345   5.690 -1.6341  1.2406 -1.1692
22265WAT    EPW90867   3.444   1.274   5.673 -0.4283  0.1432 -0.2153
22266WAT      O90868   4.420   6.078   6.545  0.5232  0.3950 -0.2768
22266WAT     H190869   4.515   6.088   6.536  0.5494 -0.1366 -0.6213
22266WAT     H290870   4.406   6.070   6.639  0.6778  1.8371 -0.1176
22266WAT    EPW90871   4.431   6.078   6.556  0.5469  0.5150 -0.3014
22267WAT      O90872   2.135   6.657   5.020  0.0878 -0.3411  0.1645
22267WAT     H190873   2.160   6.686   4.932 -0.7696 -0.7238 -0.2084
22267WAT     H290874   2.061   6.714   5.044  1.8241  1.4469  1.6537
22267WAT    EPW90875   2.129   6.669   5.011  0.2037 -0.1557  0.3119
22268WAT      O90876   3.661   4.703   5.637  0.3490 -0.1466 -0.4400
22268WAT     H190877   3.740   4.658   5.666 -0.4052 -1.9372 -0.9861
22268WAT     H290878   3.637   4.761   5.710  2.4213  0.8439 -0.4910
22268WAT    EPW90879   3.668   4.705   5.650  0.5229 -0.2522 -0.5188
22269WAT      O90880   3.979   5.110   2.588 -0.1472 -0.2873 -0.2389
22269WAT     H190881   3.902   5.130   2.640  0.2376 -4.0681  2.0914
22269WAT     H290882   4.047   5.086   2.651  1.8035 -0.7414 -2.3325
22269WAT    EPW90883   3.978   5.110   2.603  0.1608 -0.8459 -0.2077
22270WAT      O90884   5.516   9.160   4.467  0.1392  0.3265  0.5453
22270WAT     H190885   5.508   9.145   4.561  0.4532 -1.0927  0.3694
22270WAT     H290886   5.540   9.074   4.431 -1.2766  0.5143 -0.9838
22270WAT    EPW90887   5.518   9.147   4.475 -0.0060  0.1645  0.3204
22271WAT      O90888   3.449   5.165   4.962  0.0033 -0.1920 -0.0644
22271WAT     H190889   3.490   5.138   5.044  0.3042  1.3839  0.3534
22271WAT     H290890   3.410   5.086   4.926  3.3132 -1.8233 -0.4582
22271WAT    EPW90891   3.449   5.151   4.968  0.4795 -0.1996 -0.0613
22272WAT      O90892   5.852   5.382   3.774  0.0841  0.6539  0.3221
22272WAT     H190893   5.904   5.303   3.760 -2.9207 -1.3207 -0.7944
22272WAT     H290894   5.882   5.443   3.708  1.7893  0.0767  0.5271
22272WAT    EPW90895   5.862   5.379   3.764 -0.0870  0.3173  0.2019
22273WAT      O90896   2.495   2.874   0.582 -0.3861  0.5756 -0.4910
22273WAT     H190897   2.447   2.952   0.609 -0.2790  0.6971 -0.6482
22273WAT     H290898   2.526   2.836   0.664  3.2856  3.0541 -0.4850
22273WAT    EPW90899   2.493   2.879   0.596  0.1122  0.9186 -0.5110
22274WAT      O90900   2.331   5.096   6.649  0.0689  0.4126  0.3829
22274WAT     H190901   2.326   5.005   6.677 -0.0611  0.8335  1.8328
22274WAT     H290902   2.403   5.133   6.700 -1.0422  1.5466  1.1969
22274WAT    EPW90903   2.339   5.089   6.659 -0.0949  0.6180  0.6816
22275WAT      O90904   0.410   5.743   4.822  0.0353 -0.6466 -0.0335
22275WAT     H190905   0.315   5.757   4.826 -0.1077 -0.7884 -1.9710
22275WAT     H290906   0.438   5.794   4.747  1.2979 -1.6476 -0.2636
22275WAT    EPW90907   0.401   5.752   4.813  0.1830 -0.7970 -0.3192
22276WAT      O90908   2.827   3.422   5.477 -0.1974  0.8360 -0.2986
22276WAT     H190909   2.815   3.510   5.512 -1.8135  0.9487 -1.0200
22276WAT     H290910   2.740   3.398   5.444  0.8022  0.0187 -2.5207
22276WAT    EPW90911   2.814   3.430   5.477 -0.2786  0.7430 -0.6869
22277WAT      O90912   1.917   2.238   2.455  0.1249 -0.3157 -0.2916
22277WAT     H190913   1.846   2.179   2.480  0.2201  0.1387  1.1639
22277WAT     H290914   1.971   2.245   2.534  0.5879  1.0400 -0.6986
22277WAT    EPW90915   1.915   2.232   2.468  0.1985 -0.0770 -0.1533
22278WAT      O90916   3.620   4.871   4.715  0.1935  0.0544 -0.0086
22278WAT     H190917   3.638   4.961   4.689  0.2890 -0.5938 -2.4251
22278WAT     H290918   3.607   4.824   4.633  1.6305 -2.4710  1.0720
22278WAT    EPW90919   3.621   4.877   4.701  0.3957 -0.3641 -0.1848
22279WAT      O90920   6.260   8.516   1.019 -0.0173 -0.0579  0.1707
22279WAT     H190921   6.206   8.511   0.940  0.7344 -1.0019 -0.2996
22279WAT     H290922   6.320   8.442   1.012 -1.3124 -1.4660  2.6970
22279WAT    EPW90923   6.261   8.506   1.007 -0.0892 -0.3676  0.4419
22280WAT      O90924   5.013   2.233   3.227  0.3170 -0.4916  0.0608
22280WAT     H190925   5.105   2.238   3.251  0.3805 -1.5360  0.0796
22280WAT     H290926   5.013   2.192   3.140 -0.0999  0.0002 -0.1773
22280WAT    EPW90927   5.025   2.228   3.218  0.2706 -0.5646  0.0319
22281WAT      O90928   2.884   5.136   3.962  0.5911  0.1373 -0.0565
22281WAT     H190929   2.801   5.101   3.929  0.2313 -0.7023  1.6444
22281WAT     H290930   2.885   5.113   4.055  2.5270  0.5411  0.0720
22281WAT    EPW90931   2.873   5.128   3.969  0.7989  0.0796  0.1848
22282WAT      O90932   2.795   4.947   4.200  0.1439  0.3180 -0.5093
22282WAT     H190933   2.765   4.962   4.289  0.2142  1.7330 -0.6928
22282WAT     H290934   2.730   4.889   4.162 -0.6891  0.8736  0.0304
22282WAT    EPW90935   2.782   4.941   4.207  0.0433  0.5779 -0.4623
22283WAT      O90936   4.044   5.101   1.905 -0.1920  0.0594 -0.0134
22283WAT     H190937   3.956   5.139   1.902 -0.2972 -0.2009 -0.2057
22283WAT     H290938   4.037   5.028   1.967 -0.0828  0.1117  0.0615
22283WAT    EPW90939   4.031   5.096   1.913 -0.1917  0.0319 -0.0288
22284WAT      O90940   3.248   3.001   4.565 -0.1654 -0.2379  1.0360
22284WAT     H190941   3.321   3.062   4.575 -0.2810 -0.2289  1.8684
22284WAT     H290942   3.254   2.942   4.641 -0.6310 -0.6499  0.7646
22284WAT    EPW90943   3.258   3.001   4.576 -0.2421 -0.2910  1.1098
22285WAT      O90944   3.262   3.625   5.581  0.1774 -0.2880  0.9667
22285WAT     H190945   3.341   3.680   5.588 -0.4232  1.0860 -1.6109
22285WAT     H290946   3.203   3.675   5.524 -1.9015 -2.0303  1.4623
22285WAT    EPW90947   3.265   3.639   5.574 -0.1761 -0.3365  0.6921
22286WAT      O90948  10.693   4.474   6.904 -0.7639 -0.6844  0.2657
22286WAT     H190949  10.630   4.458   6.974 -0.5869  1.3886  0.9718
22286WAT     H290950  10.771   4.424   6.930 -1.1976 -1.1171  0.7538
22286WAT    EPW90951  10.695   4.465   6.917 -0.7977 -0.4680  0.4232
22287WAT      O90952   1.604   1.392   6.395 -0.1555  0.6339  0.0709
22287WAT     H190953   1.509   1.404   6.401 -0.3652 -0.7656 -0.0929
22287WAT     H290954   1.638   1.431   6.476 -0.7406  2.1806 -0.3997
22287WAT    EPW90955   1.596   1.399   6.407 -0.2604  0.6533 -0.0131
22288WAT      O90956   4.030   7.251   2.614  0.2536  0.1689  0.1203
22288WAT     H190957   4.085   7.287   2.545 -0.9220  0.5391 -0.6456
22288WAT     H290958   3.952   7.218   2.568  0.1393 -0.9768  1.0918
22288WAT    EPW90959   4.027   7.251   2.599  0.0834  0.0665  0.1473
22289WAT      O90960   5.324   5.792   3.880  0.5951  0.4309 -0.5749
22289WAT     H190961   5.317   5.749   3.795 -1.4140 -1.4459  0.4542
22289WAT     H290962   5.333   5.885   3.858 -2.3586  0.3274 -2.9009
22289WAT    EPW90963   5.324   5.799   3.866 -0.0594  0.1698 -0.7460
22290WAT      O90964   2.103   4.432   4.234 -0.2278  0.0126 -0.0983
22290WAT     H190965   2.124   4.367   4.301  1.3244  0.8890  0.3224
22290WAT     H290966   2.072   4.508   4.284 -0.5780  0.1234 -0.4814
22290WAT    EPW90967   2.102   4.434   4.250 -0.0693  0.1431 -0.0935
22291WAT      O90968   0.844   3.714   2.960 -0.2864  0.1814 -0.0336
22291WAT     H190969   0.910   3.653   2.927 -2.7446 -2.8793  0.1789
22291WAT     H290970   0.841   3.698   3.054 -1.5743 -0.0877 -0.0984
22291WAT    EPW90971   0.852   3.703   2.968 -0.7806 -0.2577 -0.0142
22292WAT      O90972   3.674   6.790   4.473 -0.1487  0.6088  0.3870
22292WAT     H190973   3.693   6.773   4.565 -2.0884 -0.2227  0.6980
22292WAT     H290974   3.746   6.846   4.443  1.3004 -0.3028  1.9925
22292WAT    EPW90975   3.686   6.796   4.481 -0.2134  0.3786  0.6397
22293WAT      O90976   0.458   2.593   5.766 -0.0095  0.0858 -1.0194
22293WAT     H190977   0.434   2.534   5.695  1.2905 -3.0178  0.9177
22293WAT     H290978   0.452   2.540   5.845  3.1749  1.9183  0.6779
22293WAT    EPW90979   0.454   2.578   5.767  0.5819 -0.0817 -0.5400
22294WAT      O90980   4.450   2.880   5.858  0.2917 -0.3081 -0.8263
22294WAT     H190981   4.491   2.946   5.915 -0.0825 -0.3549 -0.4973
22294WAT     H290982   4.453   2.919   5.770 -0.1078  0.2447 -0.6023
22294WAT    EPW90983   4.456   2.894   5.854  0.1898 -0.2413 -0.7534
22295WAT      O90984   4.558   6.751   4.594  0.3320  0.0382  0.1903
22295WAT     H190985   4.545   6.712   4.508  0.0217 -0.9802  0.6711
22295WAT     H290986   4.576   6.843   4.577 -1.2284  0.1928 -0.8799
22295WAT    EPW90987   4.559   6.758   4.581  0.0854 -0.0758  0.1128
22296WAT      O90988   2.371   5.141   4.416  0.6403  0.4827 -0.5294
22296WAT     H190989   2.384   5.227   4.457  3.2327 -0.4415  0.7322
22296WAT     H290990   2.360   5.081   4.489  0.8260 -0.5617 -1.3419
22296WAT    EPW90991   2.371   5.145   4.431  1.0067  0.2229 -0.4699
22297WAT      O90992   3.010   2.145   5.022 -0.0858 -0.0551 -0.6593
22297WAT     H190993   3.002   2.229   4.977  1.0953  0.0083 -0.7870
22297WAT     H290994   3.037   2.169   5.111 -2.6021 -0.1657  0.2122
22297WAT    EPW90995   3.012   2.159   5.028 -0.2619 -0.0614 -0.5615
22298WAT      O90996   3.502   4.836   1.591  0.7323 -0.4204  0.4355
22298WAT     H190997   3.443   4.761   1.594  1.0221 -0.6199  2.0695
22298WAT     H290998   3.479   4.887   1.670  1.9219  0.1220  0.4443
22298WAT    EPW90999   3.491   4.833   1.602  0.9274 -0.3750  0.6521
22299WAT      O91000   4.176   6.827   3.219  0.1218  0.0498  0.4439
22299WAT     H191001   4.174   6.891   3.290  0.4574  0.1106  0.4004
22299WAT     H291002   4.139   6.872   3.144  0.4279  0.2137  0.3936
22299WAT    EPW91003   4.171   6.841   3.219  0.2065  0.0794  0.4317
22300WAT      O91004   4.440   6.563   5.481  0.4582  0.6779 -0.5524
22300WAT     H191005   4.453   6.481   5.529 -0.5314  1.4149  1.0454
22300WAT     H291006   4.383   6.539   5.408  0.3893 -0.0934 -0.2563
22300WAT    EPW91007   4.434   6.549   5.478  0.3183  0.6733 -0.3026
22301WAT      O91008   4.521   3.863   5.122 -1.2098  0.5368 -0.0257
22301WAT     H191009   4.465   3.860   5.045 -1.3636 -1.4709  0.1008
22301WAT     H291010   4.473   3.813   5.188 -0.5950  1.3216  1.0427
22301WAT    EPW91011   4.507   3.856   5.121 -1.1492  0.3755  0.1321
22302WAT      O91012   4.200   4.510   5.094  0.1684 -0.5440 -0.0425
22302WAT     H191013   4.160   4.596   5.081 -2.0201 -1.6813 -1.3005
22302WAT     H291014   4.286   4.518   5.054  0.3301  1.2497  0.5417
22302WAT    EPW91015   4.206   4.523   5.087 -0.0987 -0.4575 -0.1314
22303WAT      O91016   4.937   4.742   3.307  0.0772  0.0020  0.5836
22303WAT     H191017   5.007   4.692   3.264 -1.3648 -1.5909 -0.0237
22303WAT     H291018   4.967   4.832   3.304 -0.1479  0.2059 -4.5500
22303WAT    EPW91019   4.950   4.747   3.301 -0.1428 -0.1812 -0.1736
22304WAT      O91020   4.300   9.393   2.648  0.2179 -0.3292  0.1045
22304WAT     H191021   4.273   9.361   2.562  0.3355 -0.1820  0.0113
22304WAT     H291022   4.386   9.433   2.632 -1.6787  4.0273 -0.7129
22304WAT    EPW91023   4.308   9.394   2.634 -0.0167  0.2651 -0.0155
22305WAT      O91024  10.636   2.720   8.614 -0.3104 -0.5160 -0.2870
22305WAT     H191025  10.731   2.733   8.615 -0.3798 -0.0070  0.4696
22305WAT     H291026  10.613   2.719   8.521  0.0324  2.3524 -0.4849
22305WAT    EPW91027  10.645   2.721   8.602 -0.2747 -0.0705 -0.2136
22306WAT      O91028   5.730   7.157   2.655 -0.5898 -0.0617 -0.1557
22306WAT     H191029   5.786   7.182   2.582 -0.1079 -0.0542  0.2158
22306WAT     H291030   5.703   7.068   2.635  1.5439 -0.9953  0.8553
22306WAT    EPW91031   5.734   7.149   2.643 -0.2449 -0.1841  0.0267
22307WAT      O91032   2.434   3.841   3.526 -0.3143  0.7380  0.2610
22307WAT     H191033   2.495   3.810   3.593 -1.2286  0.6599  1.0751
22307WAT     H291034   2.431   3.936   3.538  0.0231  0.7959 -0.1059
22307WAT    EPW91035   2.441   3.850   3.536 -0.3904  0.7353  0.3201
22308WAT      O91036   3.194   2.298   6.385 -0.2049  0.0563  0.3526
22308WAT     H191037   3.215   2.349   6.463 -0.1368 -0.3065  0.5753
22308WAT     H291038   3.255   2.330   6.318  0.4853 -0.3953  0.7546
22308WAT    EPW91039   3.205   2.309   6.386 -0.1050 -0.0510  0.4349
22309WAT      O91040   4.925   7.537   5.441  0.3180 -0.0396 -0.2340
22309WAT     H191041   4.869   7.612   5.457  0.9953  0.6405 -0.9646
22309WAT     H291042   4.872   7.477   5.389  0.7171  1.2747 -2.2664
22309WAT    EPW91043   4.911   7.539   5.436  0.4599  0.2234 -0.5984
22310WAT      O91044   4.280   5.710   5.146 -0.3344  0.4206  0.1336
22310WAT     H191045   4.375   5.719   5.154 -0.3290 -0.8071  1.9657
22310WAT     H291046   4.246   5.783   5.198 -0.3352 -0.4409  1.4091
22310WAT    EPW91047   4.288   5.721   5.154 -0.3335  0.1452  0.5436
22311WAT      O91048   0.777   6.605   2.664 -0.1748  0.1411  0.2336
22311WAT     H191049   0.792   6.687   2.713 -0.0496  0.6431 -0.6275
22311WAT     H291050   0.849   6.549   2.690 -0.0048  0.4677  0.4845
22311WAT    EPW91051   0.788   6.609   2.674 -0.1359  0.2501  0.1532
22312WAT      O91052   1.765   4.948   6.502 -0.2417 -0.0162  0.3815
22312WAT     H191053   1.793   4.856   6.504 -0.7832 -0.1846  0.6088
22312WAT     H291054   1.840   4.996   6.468 -0.6807 -0.8270 -1.9341
22312WAT    EPW91055   1.778   4.942   6.498 -0.3710 -0.1454  0.1059
22313WAT      O91056   5.844   2.686   3.032 -0.1575 -0.4903 -0.0112
22313WAT     H191057   5.808   2.745   3.097  0.0489  0.1019 -0.4268
22313WAT     H291058   5.912   2.637   3.079 -0.6461 -0.7299  0.4507
22313WAT    EPW91059   5.848   2.687   3.046 -0.1948 -0.4438 -0.0049
22314WAT      O91060   4.362   4.464   4.557 -0.2213 -0.9371  0.2082
22314WAT     H191061   4.386   4.409   4.483 -2.2057 -1.1976 -0.3058
22314WAT     H291062   4.394   4.417   4.634  0.8974 -1.2071 -0.4053
22314WAT    EPW91063   4.369   4.451   4.558 -0.3355 -1.0071  0.0594
22315WAT      O91064   5.616   6.258   1.756  0.2914  0.4453 -0.2325
22315WAT     H191065   5.608   6.341   1.709 -0.3002  0.6343  0.1957
22315WAT     H291066   5.702   6.262   1.797 -0.4164  1.6200  1.2301
22315WAT    EPW91067   5.626   6.269   1.755  0.1199  0.6254  0.0169
22316WAT      O91068   4.667   5.101   4.369 -0.2772  0.1094 -0.1062
22316WAT     H191069   4.609   5.099   4.445 -1.8204  2.3818 -1.1259
22316WAT     H291070   4.743   5.049   4.395 -1.7337 -1.0475  2.1312
22316WAT    EPW91071   4.669   5.094   4.382 -0.6728  0.2565  0.0541
22317WAT      O91072   1.743   3.814   4.455 -0.4097  0.2467  0.2664
22317WAT     H191073   1.823   3.866   4.449  0.0472 -0.4481  0.1739
22317WAT     H291074   1.764   3.733   4.407 -0.9143 -0.2407  0.8588
22317WAT    EPW91075   1.757   3.810   4.448 -0.4159  0.0907  0.3321
22318WAT      O91076   4.539   7.470   4.293  0.1071 -0.1512 -0.6085
22318WAT     H191077   4.628   7.492   4.267 -0.1185  0.1749 -1.1025
22318WAT     H291078   4.488   7.549   4.276  0.2270  0.6447  2.2546
22318WAT    EPW91079   4.544   7.483   4.288  0.0930 -0.0029 -0.2959
22319WAT      O91080   4.989   6.464   3.053  1.1088  0.2825 -0.2240
22319WAT     H191081   4.992   6.372   3.027  0.5098  0.4544 -0.9453
22319WAT     H291082   4.943   6.464   3.137 -1.0796  0.1248 -1.3552
22319WAT    EPW91083   4.984   6.452   3.061  0.7412  0.2844 -0.4684
22320WAT      O91084   2.499   5.881   5.622 -0.1511  0.2021 -0.0792
22320WAT     H191085   2.446   5.917   5.693  0.8106  1.2320  0.1392
22320WAT     H291086   2.495   5.786   5.635  2.2335  0.3862  3.0611
22320WAT    EPW91087   2.491   5.873   5.633  0.2903  0.3622  0.3638
22321WAT      O91088   3.692   3.668   4.490  0.1513  0.1143 -0.7073
22321WAT     H191089   3.782   3.666   4.523  0.4862  0.2027 -1.6067
22321WAT     H291090   3.693   3.610   4.414 -0.8056 -0.6922 -0.1304
22321WAT    EPW91091   3.704   3.660   4.485  0.0691  0.0196 -0.7498
22322WAT      O91092   3.295   3.708   7.789  0.7886  1.1549 -0.3946
22322WAT     H191093   3.295   3.669   7.876 -1.3254  2.2969  0.1759
22322WAT     H291094   3.342   3.791   7.799  0.3945  1.3678 -0.2879
22322WAT    EPW91095   3.301   3.714   7.802  0.4578  1.3336 -0.3052
22323WAT      O91096   2.980   5.958   5.245 -0.4906 -0.5545 -0.2528
22323WAT     H191097   2.938   6.026   5.193 -1.4733  0.0545  1.2624
22323WAT     H291098   2.971   5.988   5.335  0.4557 -1.9510  0.3461
22323WAT    EPW91099   2.973   5.971   5.250 -0.4953 -0.6583  0.0262
22324WAT      O91100   4.120   5.789   3.885 -0.6127 -1.1757  0.3091
22324WAT     H191101   4.185   5.742   3.833 -0.3777  0.1535 -0.6584
22324WAT     H291102   4.159   5.875   3.899 -3.1948  0.7372 -2.7244
22324WAT    EPW91103   4.134   5.794   3.880 -0.9222 -0.7482 -0.2186
22325WAT      O91104   3.202   2.437   5.340 -0.4436 -0.2469 -0.4128
22325WAT     H191105   3.173   2.485   5.417 -0.3255  2.3505 -1.8715
22325WAT     H291106   3.297   2.432   5.350 -0.2669  1.3663 -1.0111
22325WAT    EPW91107   3.211   2.443   5.351 -0.4046  0.3085 -0.6840
22326WAT      O91108   2.941   4.333   3.576 -0.3570 -0.5930 -0.4517
22326WAT     H191109   2.950   4.424   3.548 -0.3812 -0.3743  0.2428
22326WAT     H291110   3.019   4.316   3.629 -0.2328 -1.0510 -0.7768
22326WAT    EPW91111   2.952   4.343   3.579 -0.3439 -0.6247 -0.4030
22327WAT      O91112   0.872   0.043   8.759 -0.3334  0.6480  0.4968
22327WAT     H191113   0.861  -0.012   8.837  0.0603  1.2720  1.0028
22327WAT     H291114   0.920   0.120   8.791 -0.4233  1.0425 -0.3050
22327WAT    EPW91115   0.877   0.046   8.774 -0.2935  0.7824  0.4578
22328WAT      O91116   6.224   6.659   2.923 -0.0749 -0.1966  0.4648
22328WAT     H191117   6.175   6.739   2.942  0.4964  0.1338  0.5472
22328WAT     H291118   6.157   6.591   2.921 -0.6562  0.3840 -0.2833
22328WAT    EPW91119   6.208   6.660   2.925 -0.0761 -0.0765  0.3769
22329WAT      O91120   0.888   8.020   2.167  0.6688 -0.3457 -0.4107
22329WAT     H191121   0.969   8.070   2.181  0.8941 -0.5106 -1.1123
22329WAT     H291122   0.859   7.997   2.256  0.7334  0.7496 -0.0837
22329WAT    EPW91123   0.895   8.024   2.181  0.7070 -0.2232 -0.4601
22330WAT      O91124   2.351   3.407   6.113  0.1503  0.1565 -0.1947
22330WAT     H191125   2.401   3.334   6.074 -0.7504 -0.2395 -0.6243
22330WAT     H291126   2.374   3.404   6.206  3.1224  1.7220 -0.7488
22330WAT    EPW91127   2.361   3.397   6.120  0.4236  0.3109 -0.3245
22331WAT      O91128   4.553   5.754   3.178  0.0782  0.2039  0.3981
22331WAT     H191129   4.495   5.812   3.228  1.4833  1.5070  0.5832
22331WAT     H291130   4.529   5.769   3.087 -0.0363  0.5542  0.4839
22331WAT    EPW91131   4.542   5.764   3.173  0.2484  0.4220  0.4338
22332WAT      O91132   0.107   1.576   3.165  0.5280 -0.6450  0.5095
22332WAT     H191133   0.033   1.532   3.207  0.8594 -2.1141 -0.3477
22332WAT     H291134   0.077   1.665   3.150 -0.2360 -0.5927  2.2005
22332WAT    EPW91135   0.093   1.582   3.168  0.4710 -0.8318  0.6195
22333WAT      O91136   1.186   3.770   1.917 -1.1149 -0.5390 -0.3437
22333WAT     H191137   1.210   3.681   1.891 -4.5663 -1.1640 -2.0501
22333WAT     H291138   1.232   3.827   1.855  1.2014 -1.0352  0.8244
22333WAT    EPW91139   1.195   3.766   1.905 -1.2646 -0.6869 -0.4147
22334WAT      O91140   2.411   5.634   2.685  0.1127  0.0067 -0.7392
22334WAT     H191141   2.454   5.611   2.602  2.2192  2.3015 -0.3821
22334WAT     H291142   2.394   5.728   2.678 -1.2125 -0.0797  0.8110
22334WAT    EPW91143   2.415   5.643   2.673  0.2156  0.2983 -0.4877
22335WAT      O91144   6.355   9.739   8.877 -0.0421  0.1953  0.6244
22335WAT     H191145   6.397   9.672   8.823 -0.1437  0.5987  0.0320
22335WAT     H291146   6.405   9.739   8.958 -0.1236 -0.6906  0.6911
22335WAT    EPW91147   6.367   9.730   8.881 -0.0660  0.1316  0.5550
22336WAT      O91148   2.685   8.329   6.376 -0.3061  0.5874 -0.2626
22336WAT     H191149   2.741   8.299   6.304  0.4651  1.1961  0.0694
22336WAT     H291150   2.664   8.419   6.355 -2.0853  0.0510 -0.9275
22336WAT    EPW91151   2.690   8.337   6.364 -0.4390  0.5970 -0.3066
22337WAT      O91152   2.649   4.193   5.046 -0.1701 -0.0685  0.3609
22337WAT     H191153   2.741   4.217   5.060  0.3695 -1.1563 -1.0270
22337WAT     H291154   2.618   4.168   5.133  1.0356 -0.2375  0.7732
22337WAT    EPW91155   2.657   4.193   5.059  0.0601 -0.2341  0.2322
22338WAT      O91156   3.517   6.314   4.050 -0.2060 -0.1007 -0.4282
22338WAT     H191157   3.438   6.339   4.002  0.8082 -0.1650 -2.2118
22338WAT     H291158   3.485   6.259   4.122 -1.6489 -1.7999 -2.2493
22338WAT    EPW91159   3.502   6.310   4.053 -0.2625 -0.3333 -0.9034
22339WAT      O91160   4.670   6.750   3.117 -0.6657 -0.2700 -0.4945
22339WAT     H191161   4.722   6.707   3.184 -0.0582 -2.4716 -2.2718
22339WAT     H291162   4.720   6.828   3.093 -0.7731  0.4104  1.3516
22339WAT    EPW91163   4.683   6.754   3.122 -0.5999 -0.4709 -0.4855
22340WAT      O91164   2.108   4.503   4.777  0.0201  0.0511  0.6265
22340WAT     H191165   2.157   4.527   4.699 -1.7839 -0.4211 -0.7119
22340WAT     H291166   2.138   4.565   4.844 -0.6456  2.5696 -1.2566
22340WAT    EPW91167   2.119   4.514   4.776 -0.3057  0.3209  0.2017
22341WAT      O91168   5.754   5.306   2.360 -0.5112  0.3149 -0.2982
22341WAT     H191169   5.786   5.393   2.383 -2.6589  1.1428 -0.1952
22341WAT     H291170   5.820   5.246   2.396  0.3508  1.8407  0.7987
22341WAT    EPW91171   5.767   5.309   2.368 -0.6809  0.6254 -0.1400
22342WAT      O91172   6.269   6.234   4.997  0.3541 -0.6481  0.2986
22342WAT     H191173   6.266   6.294   4.923 -0.5039  1.2062  1.7832
22342WAT     H291174   6.344   6.264   5.049 -0.0144 -0.9177  0.9972
22342WAT    EPW91175   6.279   6.246   4.994  0.1926 -0.4389  0.5865
22343WAT      O91176   1.060   6.610   3.706 -0.0028 -0.7454  0.4040
22343WAT     H191177   1.069   6.701   3.733 -1.5133  0.0239 -1.4388
22343WAT     H291178   1.148   6.585   3.678  0.4337  0.1188  0.9390
22343WAT    EPW91179   1.073   6.619   3.706 -0.1444 -0.5300  0.2315
22344WAT      O91180   4.437   8.026   3.857 -0.4625  0.4385  0.3398
22344WAT     H191181   4.376   7.985   3.918 -0.2600  1.7861  1.4989
22344WAT     H291182   4.489   8.085   3.911 -0.0833  1.4759 -1.1000
22344WAT    EPW91183   4.436   8.028   3.872 -0.3858  0.7534  0.3028
22345WAT      O91184   3.849   8.226   2.337  0.3002  0.0421  0.5853
22345WAT     H191185   3.932   8.268   2.359  0.6274  0.0225 -0.5275
22345WAT     H291186   3.873   8.136   2.314  0.3176  0.5954 -1.8352
22345WAT    EPW91187   3.864   8.220   2.337  0.3457  0.1125  0.1192
22346WAT      O91188   2.427   5.562   4.937 -0.4090 -0.0021  0.0919
22346WAT     H191189   2.509   5.579   4.891 -0.5882 -0.2078 -0.3122
22346WAT     H291190   2.359   5.572   4.870 -0.5663 -1.7420 -0.0587
22346WAT    EPW91191   2.429   5.565   4.922 -0.4535 -0.2587  0.0188
22347WAT      O91192   2.499   6.496   5.336  0.6908 -0.7350 -0.4003
22347WAT     H191193   2.527   6.472   5.247  1.7221 -2.7526  0.4116
22347WAT     H291194   2.571   6.470   5.392 -0.7475 -1.3300  1.2514
22347WAT    EPW91195   2.512   6.490   5.331  0.6372 -1.0793 -0.0753
22348WAT      O91196   4.469   6.604   5.073  0.0369 -0.0274  0.0874
22348WAT     H191197   4.431   6.613   4.986  2.3748  1.1998 -0.8866
22348WAT     H291198   4.403   6.555   5.123 -1.5054 -0.4823 -2.2430
22348WAT    EPW91199   4.455   6.599   5.068  0.1421  0.0744 -0.3486
22349WAT      O91200   5.076   4.986   5.068  0.4998 -0.7568 -0.2870
22349WAT     H191201   5.116   5.040   5.137 -1.2924 -0.9816  0.9708
22349WAT     H291202   5.083   5.041   4.990  1.0905  0.1999  0.3975
22349WAT    EPW91203   5.082   5.001   5.067  0.3412 -0.6602 -0.0312
22350WAT      O91204   1.091   5.147   1.514  0.2796 -1.0752 -0.3452
22350WAT     H191205   1.117   5.110   1.599 -2.0609 -1.4538  0.2705
22350WAT     H291206   1.090   5.072   1.454  0.5685 -1.0536 -0.3805
22350WAT    EPW91207   1.094   5.132   1.517  0.0090 -1.1220 -0.2686
22351WAT      O91208   1.398   8.846   1.796 -0.9337 -0.0691  0.1767
22351WAT     H191209   1.388   8.788   1.721  0.8766  0.4769 -0.5485
22351WAT     H291210   1.332   8.914   1.783 -1.0075 -0.2856 -0.6238
22351WAT    EPW91211   1.388   8.847   1.784 -0.7047 -0.0253 -0.0245
22352WAT      O91212   1.321   6.101   4.050  0.5033  0.5539 -0.2968
22352WAT     H191213   1.362   6.024   4.011 -2.3610  1.0629 -5.2623
22352WAT     H291214   1.264   6.066   4.118 -1.8964 -2.2450 -3.4045
22352WAT    EPW91215   1.319   6.087   4.053 -0.1910  0.2518 -1.3618
22353WAT      O91216   5.101   4.296   5.554 -0.1904 -0.0075 -0.5508
22353WAT     H191217   5.179   4.241   5.544  1.9082  3.1026 -3.1759
22353WAT     H291218   5.111   4.334   5.642  0.2857 -0.9935 -0.1598
22353WAT    EPW91219   5.113   4.294   5.565  0.1490  0.2725 -0.8454
22354WAT      O91220   3.329   4.555   3.163  0.8095 -0.2296  0.2266
22354WAT     H191221   3.309   4.485   3.225  0.6298  0.0812  0.5226
22354WAT     H291222   3.331   4.511   3.078 -1.8905 -0.2057  0.0649
22354WAT    EPW91223   3.326   4.540   3.160  0.4296 -0.1855  0.2444
22355WAT      O91224   3.426   3.324   4.777  0.4453 -0.4778  0.1515
22355WAT     H191225   3.442   3.398   4.836  0.7477 -1.1058  0.8821
22355WAT     H291226   3.429   3.362   4.689 -4.0589  1.3738  0.4710
22355WAT    EPW91227   3.428   3.339   4.773 -0.1087 -0.3163  0.2899
22356WAT      O91228   3.167   2.908   2.708 -0.6319  0.6248 -0.3475
22356WAT     H191229   3.160   2.844   2.636  1.9770  0.1274 -0.2399
22356WAT     H291230   3.242   2.878   2.759 -1.2674  2.0648  1.5225
22356WAT    EPW91231   3.176   2.895   2.705 -0.3716  0.7490 -0.0867
22357WAT      O91232   2.231   8.789   4.747  0.3643 -0.2356 -0.3379
22357WAT     H191233   2.219   8.811   4.840 -2.7584  0.8451 -0.8705
22357WAT     H291234   2.164   8.723   4.730  0.3366  0.1793 -1.9763
22357WAT    EPW91235   2.220   8.783   4.757 -0.0513 -0.0381 -0.6242
22358WAT      O91236   1.281   4.597   2.831 -0.6313  0.2829  0.2142
22358WAT     H191237   1.216   4.666   2.845 -0.0661  0.7536  0.5793
22358WAT     H291238   1.245   4.521   2.878 -0.6393  0.7141  0.9302
22358WAT    EPW91239   1.267   4.596   2.839 -0.5578  0.4015  0.3569
22359WAT      O91240   3.226   6.528   5.720 -0.4575 -0.6784  0.2397
22359WAT     H191241   3.276   6.503   5.797  5.8888  1.4746 -2.5567
22359WAT     H291242   3.185   6.612   5.744 -1.1964 -1.4957  2.0216
22359WAT    EPW91243   3.227   6.536   5.734  0.2822 -0.5023  0.1059
22360WAT      O91244   0.822   4.789   0.821  0.0114 -0.2187  0.0307
22360WAT     H191245   0.793   4.716   0.766 -0.9560 -0.7267  1.1783
22360WAT     H291246   0.782   4.867   0.782  0.2867 -0.4140 -0.6540
22360WAT    EPW91247   0.813   4.790   0.809 -0.0799 -0.3116  0.0918
22361WAT      O91248   4.388   5.693   4.540 -0.2524 -0.1225  0.4680
22361WAT     H191249   4.472   5.648   4.550 -0.5899 -0.3159  3.3236
22361WAT     H291250   4.403   5.757   4.471  1.6678 -1.4144 -0.3981
22361WAT    EPW91251   4.401   5.695   4.533 -0.0439 -0.3185  0.7300
22362WAT      O91252   7.053   8.634   7.410 -0.1005  0.1052  0.3279
22362WAT     H191253   6.978   8.577   7.429  1.1904 -1.8869 -0.2591
22362WAT     H291254   7.130   8.582   7.435  1.1447  1.8881  0.4405
22362WAT    EPW91255   7.053   8.620   7.416  0.2341  0.0777  0.2651
22363WAT      O91256   4.240   5.916   3.547  0.2565 -0.4022  0.3002
22363WAT     H191257   4.285   5.850   3.600 -0.1709 -0.2738  0.8344
22363WAT     H291258   4.263   5.999   3.589 -0.1209 -0.3038  0.3132
22363WAT    EPW91259   4.249   5.918   3.560  0.1504 -0.3724  0.3723
22364WAT      O91260   3.727   3.339   5.594 -0.2400  0.8707 -0.8745
22364WAT     H191261   3.772   3.384   5.523  3.2037 -0.3179  0.3403
22364WAT     H291262   3.798   3.300   5.647 -2.7462 -2.9924  0.0878
22364WAT    EPW91263   3.743   3.340   5.592 -0.1163  0.2044 -0.5872
22365WAT      O91264   4.172   4.145   4.808  0.4122 -0.3275  0.8002
22365WAT     H191265   4.151   4.083   4.878 -3.4807 -2.7153 -2.0224
22365WAT     H291266   4.233   4.098   4.751  2.3526  1.0099  1.6674
22365WAT    EPW91267   4.177   4.130   4.810  0.1547 -0.4661  0.5422
22366WAT      O91268   2.665   5.595   5.191  0.5611 -0.1964 -0.5207
22366WAT     H191269   2.708   5.558   5.268 -0.7149 -1.8447 -0.5373
22366WAT     H291270   2.583   5.547   5.184 -0.2399  1.2587 -1.8064
22366WAT    EPW91271   2.660   5.584   5.200  0.2872 -0.2217 -0.6924
22367WAT      O91272   2.298   6.313   6.223 -0.2182 -0.2900 -0.3886
22367WAT     H191273   2.332   6.379   6.284  1.2080  0.1286 -1.5985
22367WAT     H291274   2.209   6.296   6.255  0.4670 -0.1060  1.8217
22367WAT    EPW91275   2.291   6.319   6.236  0.0603 -0.2103 -0.2570
22368WAT      O91276   4.533   8.023   5.335 -0.2535 -0.5305  0.1948
22368WAT     H191277   4.451   8.012   5.287  0.7485 -0.3349 -1.6430
22368WAT     H291278   4.513   8.088   5.402 -1.5375 -0.3195 -0.3596
22368WAT    EPW91279   4.519   8.030   5.337 -0.2906 -0.4773 -0.1209
22369WAT      O91280   4.629   5.591   4.040 -0.4005  0.2896  0.4811
22369WAT     H191281   4.557   5.652   4.056 -0.4922  0.5618 -0.8557
22369WAT     H291282   4.598   5.508   4.077 -0.0900  1.1024  2.7381
22369WAT    EPW91283   4.615   5.588   4.047 -0.3717  0.4323  0.6022
22370WAT      O91284   4.762   5.314   4.692 -0.9067  0.0591  0.3810
22370WAT     H191285   4.854   5.294   4.705  0.4717  3.3067 -2.6643
22370WAT     H291286   4.717   5.230   4.697  2.1467 -1.6116  2.0386
22370WAT    EPW91287   4.768   5.301   4.695 -0.3221  0.2673  0.1981
22371WAT      O91288   5.461   5.909   3.577 -0.0704 -0.0855  0.3299
22371WAT     H191289   5.488   5.939   3.664  0.7382 -0.3545  0.1736
22371WAT     H291290   5.501   5.822   3.568  1.1544  0.5789 -0.9228
22371WAT    EPW91291   5.470   5.901   3.587  0.1979 -0.0334  0.1441
22372WAT      O91292   4.060   7.494   5.285 -0.3945 -1.1508 -0.0496
22372WAT     H191293   4.008   7.570   5.259  1.5903  0.2214 -0.2341
22372WAT     H291294   3.996   7.429   5.312 -2.2172  0.1442 -1.0562
22372WAT    EPW91295   4.045   7.495   5.285 -0.3729 -0.7992 -0.2065
22373WAT      O91296   4.221   4.716   5.328  0.3395  0.1225 -0.6841
22373WAT     H191297   4.270   4.798   5.325  2.8629 -0.9821  3.1699
22373WAT     H291298   4.264   4.661   5.263  1.0652  0.7025 -0.7157
22373WAT    EPW91299   4.233   4.720   5.319  0.7677  0.0532 -0.1800
22374WAT      O91300   4.451   6.754   4.327  0.0769 -0.7936 -0.1523
22374WAT     H191301   4.413   6.670   4.304 -0.0247 -0.6090 -0.6664
22374WAT     H291302   4.533   6.759   4.278  0.5631 -1.0046  0.6238
22374WAT    EPW91303   4.457   6.744   4.318  0.1278 -0.7973 -0.1180
22375WAT      O91304  10.971   3.611   7.230 -0.0071 -0.2001 -0.6281
22375WAT     H191305  10.892   3.561   7.208 -1.5283  1.3624  1.0214
22375WAT     H291306  10.960   3.695   7.187  1.0790 -0.1765 -0.8959
22375WAT    EPW91307  10.959   3.615   7.222 -0.0648  0.0092 -0.4458
22376WAT      O91308   2.322   7.194   4.430  0.0350 -0.7385  0.8703
22376WAT     H191309   2.397   7.181   4.487  1.2616  2.1972  0.1478
22376WAT     H291310   2.354   7.172   4.343  0.6331  1.8219  0.3517
22376WAT    EPW91311   2.336   7.190   4.426  0.2757 -0.0138  0.7067
22377WAT      O91312   2.726   3.282   6.949 -0.2759  0.1302  0.3025
22377WAT     H191313   2.648   3.247   6.907  0.7235 -0.3934 -1.2091
22377WAT     H291314   2.727   3.242   7.036 -0.4330 -1.7888 -0.5245
22377WAT    EPW91315   2.716   3.272   6.955 -0.1646 -0.1919 -0.0060
22378WAT      O91316   1.356   8.643   8.704 -0.1235  0.8182  0.3379
22378WAT     H191317   1.397   8.577   8.647 -0.2165  0.6079  0.5106
22378WAT     H291318   1.305   8.698   8.645  0.2291  0.9444  0.1490
22378WAT    EPW91319   1.355   8.641   8.688 -0.0892  0.8073  0.3357
22379WAT      O91320   2.371   4.895   4.619  0.4496  0.2843 -0.4956
22379WAT     H191321   2.342   4.901   4.709  1.4133  1.8487 -0.2480
22379WAT     H291322   2.397   4.803   4.608  2.3525  0.5087  1.4872
22379WAT    EPW91323   2.370   4.884   4.629  0.8277  0.5202 -0.2015
22380WAT      O91324   5.973   1.588   6.517 -0.0497  0.4610  0.4070
22380WAT     H191325   6.008   1.623   6.435  0.5617 -0.1651  0.3878
22380WAT     H291326   5.988   1.494   6.511  2.2750  0.6210  2.2626
22380WAT    EPW91327   5.980   1.580   6.506  0.3376  0.3995  0.6495
22381WAT      O91328  10.840   3.388   6.307  0.1225  0.4558 -0.3243
22381WAT     H191329  10.769   3.328   6.284  1.2336 -0.8023 -0.5356
22381WAT     H291330  10.859   3.435   6.225 -1.1886  1.6397 -0.0063
22381WAT    EPW91331  10.833   3.386   6.293  0.0958  0.4461 -0.3102
22382WAT      O91332   2.970   6.192   7.498 -0.3357  0.3729 -0.3084
22382WAT     H191333   2.887   6.230   7.526 -1.3378 -1.7500 -0.2206
22382WAT     H291334   3.036   6.249   7.536 -1.7166  1.0986  1.1317
22382WAT    EPW91335   2.967   6.205   7.507 -0.6499  0.1886 -0.1070
22383WAT      O91336   2.534   5.790   6.429 -0.4143 -0.2134 -0.0743
22383WAT     H191337   2.442   5.814   6.419 -0.8344 -2.0170 -1.0872
22383WAT     H291338   2.535   5.730   6.504 -0.0419 -0.0989  0.0144
22383WAT    EPW91339   2.522   5.785   6.438 -0.4206 -0.4361 -0.1962
22384WAT      O91340   3.550   4.056   3.932 -0.7544 -0.3503 -0.5608
22384WAT     H191341   3.471   4.097   3.896  0.4047  0.8758 -1.7801
22384WAT     H291342   3.612   4.128   3.943 -0.1388 -1.1227  1.4162
22384WAT    EPW91343   3.548   4.071   3.929 -0.5203 -0.2904 -0.4609
22385WAT      O91344   9.404   1.040   8.757  0.2563 -0.4429 -0.3576
22385WAT     H191345   9.422   1.120   8.707 -4.7381  0.3957 -1.3262
22385WAT     H291346   9.377   0.976   8.691 -3.8057 -0.1698  0.7919
22385WAT    EPW91347   9.403   1.042   8.741 -0.9384 -0.2963 -0.3338
22386WAT      O91348   0.772   6.398   4.257  0.2221 -0.7975  0.1819
22386WAT     H191349   0.856   6.442   4.271  0.7902 -1.9554  0.4706
22386WAT     H291350   0.751   6.359   4.342 -0.3979 -0.8838 -0.0054
22386WAT    EPW91351   0.781   6.399   4.270  0.2152 -0.9615  0.1950
22387WAT      O91352   3.171   5.621   3.383 -0.0929 -0.2038  0.3140
22387WAT     H191353   3.262   5.627   3.413 -0.0765 -0.8082  0.4058
22387WAT     H291354   3.152   5.707   3.345  0.6733 -0.2270 -0.1322
22387WAT    EPW91355   3.181   5.633   3.382  0.0104 -0.2866  0.2674
22388WAT      O91356   0.848   3.541   6.388  0.1292 -0.0969  0.2131
22388WAT     H191357   0.846   3.508   6.298 -0.7721  1.2839 -0.3193
22388WAT     H291358   0.920   3.604   6.389 -0.9735  1.2245 -0.0918
22388WAT    EPW91359   0.857   3.545   6.376 -0.1351  0.2594  0.1028
22389WAT      O91360   4.446   4.565   4.988 -0.0359  0.0267 -0.8770
22389WAT     H191361   4.436   4.491   4.927  1.0198  0.0852 -1.1506
22389WAT     H291362   4.486   4.527   5.066 -1.9632 -0.1637  0.0695
22389WAT    EPW91363   4.450   4.550   4.990 -0.1509  0.0093 -0.7882
22390WAT      O91364   0.962   2.832   5.707 -0.2039 -0.1918 -0.1680
22390WAT     H191365   0.949   2.925   5.692 -1.1729  0.5120  3.9651
22390WAT     H291366   0.877   2.800   5.737  0.8434 -1.6499  1.4409
22390WAT    EPW91367   0.949   2.840   5.709 -0.1936 -0.2912  0.5894
22391WAT      O91368   2.862   3.039   1.410 -0.4209  0.1169 -0.2893
22391WAT     H191369   2.866   3.018   1.503  2.3696  1.7330  0.0616
22391WAT     H291370   2.774   3.075   1.398 -0.7664  0.0928  1.7599
22391WAT    EPW91371   2.851   3.041   1.421 -0.0985  0.3269  0.0272
22392WAT      O91372  10.598   7.092   1.313  0.0023 -0.6665  0.1281
22392WAT     H191373  10.666   7.096   1.380  1.7214  1.9620 -1.5800
22392WAT     H291374  10.624   7.018   1.258 -1.8148 -3.3026  2.5473
22392WAT    EPW91375  10.611   7.083   1.314 -0.0110 -0.6673  0.2218
22393WAT      O91376   3.620   5.678   0.969 -0.1242 -0.3237  0.1588
22393WAT     H191377   3.646   5.698   1.059 -0.5607  1.1682 -0.0181
22393WAT     H291378   3.575   5.757   0.940 -1.8920 -1.5875 -0.6559
22393WAT    EPW91379   3.618   5.691   0.977 -0.4148 -0.2935  0.0280
22394WAT      O91380   3.719   1.387   4.359  0.0878  0.1323  0.1011
22394WAT     H191381   3.625   1.376   4.373  0.0556 -2.5470 -1.4110
22394WAT     H291382   3.731   1.369   4.266  2.0649  0.7446  0.1987
22394WAT    EPW91383   3.708   1.383   4.349  0.3443 -0.1403 -0.0854
22395WAT      O91384   1.899   3.508   1.811  0.3043  0.2276 -0.7863
22395WAT     H191385   1.948   3.437   1.853 -0.3690  0.1537 -0.1106
22395WAT     H291386   1.833   3.463   1.758 -1.2722  0.3197  1.0050
22395WAT    EPW91387   1.896   3.492   1.809  0.0075  0.2301 -0.4609
22396WAT      O91388   4.608   4.059   1.748  0.6821  0.8580  0.5265
22396WAT     H191389   4.688   4.110   1.758  0.3395  1.2312  1.5087
22396WAT     H291390   4.586   4.067   1.655  0.5291  2.6839  0.6851
22396WAT    EPW91391   4.616   4.067   1.737  0.6168  1.1482  0.6770
22397WAT      O91392   2.344   4.088   3.310  0.0133 -0.8004 -0.1860
22397WAT     H191393   2.270   4.124   3.360 -0.0830 -1.6188  0.2703
22397WAT     H291394   2.420   4.104   3.366 -0.0401 -1.3561  0.0540
22397WAT    EPW91395   2.344   4.095   3.324 -0.0064 -0.9818 -0.0942
22398WAT      O91396   2.047   3.500   4.307 -0.3011  0.8597  0.4900
22398WAT     H191397   1.995   3.530   4.233 -1.7502 -0.1734  1.0145
22398WAT     H291398   2.096   3.425   4.274 -1.0552  0.3106  0.5730
22398WAT    EPW91399   2.046   3.494   4.293 -0.5916  0.6510  0.5701
22399WAT      O91400   2.135   2.121   5.680 -0.2501 -0.3982  0.4533
22399WAT     H191401   2.119   2.026   5.685 -0.5576 -0.4013 -0.4629
22399WAT     H291402   2.119   2.143   5.588 -1.0989  0.7067  0.8500
22399WAT    EPW91403   2.130   2.111   5.669 -0.4027 -0.2530  0.3846
22400WAT      O91404   2.623   4.784   0.276  0.2953  0.3681 -0.0379
22400WAT     H191405   2.659   4.703   0.239 -0.3082 -0.1043  0.3948
22400WAT     H291406   2.535   4.760   0.305 -0.5992  1.6373 -1.5625
22400WAT    EPW91407   2.617   4.770   0.275  0.0976  0.4735 -0.1819
22401WAT      O91408   5.274  10.250   2.019  0.0305  0.1123 -0.0643
22401WAT     H191409   5.271  10.287   2.108 -0.8188 -2.1756  0.9349
22401WAT     H291410   5.308  10.161   2.032 -0.0754 -0.2483 -2.0591
22401WAT    EPW91411   5.278  10.243   2.033 -0.0954 -0.2370 -0.1956
22402WAT      O91412   1.325   4.470   3.692 -0.2717  0.0247  0.2312
22402WAT     H191413   1.398   4.424   3.733  1.0538  1.1037 -0.8379
22402WAT     H291414   1.314   4.427   3.607 -0.1541  0.5724 -0.0643
22402WAT    EPW91415   1.333   4.458   3.686 -0.0814  0.2391  0.0513
22403WAT      O91416   4.944   5.104   1.781 -0.1224 -0.4151  0.5950
22403WAT     H191417   4.935   5.058   1.865 -1.1720 -3.2737 -0.9284
22403WAT     H291418   4.867   5.077   1.731  0.7773  0.7073 -1.5016
22403WAT    EPW91419   4.933   5.094   1.786 -0.1419 -0.6440  0.1175
22404WAT      O91420   3.808   5.577   5.197 -0.0891  0.1831 -0.3104
22404WAT     H191421   3.764   5.497   5.169  0.0336  0.0456 -0.1170
22404WAT     H291422   3.743   5.646   5.187 -0.4425 -0.0640  0.2551
22404WAT    EPW91423   3.794   5.575   5.192 -0.1196  0.1323 -0.2103
22405WAT      O91424   2.759   5.234   0.642  0.2723  0.8589  0.2249
22405WAT     H191425   2.776   5.328   0.638  0.3501  0.8550  0.4454
22405WAT     H291426   2.745   5.216   0.735  1.6180  0.4129  0.3619
22405WAT    EPW91427   2.760   5.244   0.654  0.4600  0.7997  0.2720
22406WAT      O91428   3.457   3.286   2.329  1.0722 -0.4373 -0.1895
22406WAT     H191429   3.481   3.204   2.286  1.6346  0.4235 -1.6057
22406WAT     H291430   3.510   3.352   2.285  0.4882  0.7200  0.7822
22406WAT    EPW91431   3.467   3.284   2.317  1.0692 -0.1712 -0.2481
22407WAT      O91432   2.003   7.536   5.610 -0.4801  0.3321  0.3393
22407WAT     H191433   1.907   7.541   5.610 -0.8868 -3.1074 -2.8891
22407WAT     H291434   2.022   7.442   5.602  3.1286  1.0169 -0.8889
22407WAT    EPW91435   1.993   7.524   5.609 -0.0578 -0.0312 -0.2487
22408WAT      O91436   5.209   6.412   1.751 -0.1546  0.1428 -0.4430
22408WAT     H191437   5.131   6.374   1.710  0.0134 -0.6350 -0.0653
22408WAT     H291438   5.282   6.362   1.715  0.1869  0.9275 -0.8600
22408WAT    EPW91439   5.208   6.400   1.741 -0.0875  0.1435 -0.4482
22409WAT      O91440   1.043   6.944   5.137 -0.1876  0.1013  0.2437
22409WAT     H191441   0.956   6.978   5.157 -0.2658  0.0924 -0.0823
22409WAT     H291442   1.090   7.019   5.100 -0.1238  0.0499  0.2207
22409WAT    EPW91443   1.038   6.958   5.135 -0.1895  0.0932  0.1974
22410WAT      O91444   3.895   4.177   4.946 -0.1005 -0.0311  0.3025
22410WAT     H191445   3.864   4.253   4.896  1.5847  0.7280  0.3277
22410WAT     H291446   3.882   4.102   4.888 -2.4727  0.1220  0.5464
22410WAT    EPW91447   3.889   4.177   4.932 -0.1912  0.0892  0.3381
22411WAT      O91448   0.335   7.404   4.166  0.4717 -0.0839 -0.3254
22411WAT     H191449   0.418   7.378   4.206 -0.9671 -1.2000  2.1977
22411WAT     H291450   0.329   7.498   4.184 -0.4643 -0.6463  3.1163
22411WAT    EPW91451   0.345   7.413   4.174  0.1585 -0.3052  0.4613
22412WAT      O91452   2.627   3.700   3.271  0.1163  0.3769  0.3079
22412WAT     H191453   2.695   3.634   3.272 -0.6125 -0.3902  0.3494
22412WAT     H291454   2.553   3.660   3.317 -0.8460  0.6451 -0.9214
22412WAT    EPW91455   2.626   3.686   3.277 -0.1068  0.3110  0.1513
22413WAT      O91456   2.660   1.702   6.650 -0.4064 -0.7252  0.1133
22413WAT     H191457   2.605   1.682   6.575 -0.2062  0.7364 -0.4525
22413WAT     H291458   2.749   1.683   6.621 -0.5525 -4.6355  1.5301
22413WAT    EPW91459   2.664   1.697   6.637 -0.3994 -1.0481  0.2255
22414WAT      O91460   4.703   4.018   5.836 -0.2886  0.0603  0.1877
22414WAT     H191461   4.740   3.951   5.894 -1.4718 -1.9017 -1.1844
22414WAT     H291462   4.777   4.075   5.814  0.6750 -0.5478  1.7187
22414WAT    EPW91463   4.718   4.017   5.841 -0.3176 -0.2787  0.2089
22415WAT      O91464   1.632   3.650   4.762  0.0386  0.5528  0.3168
22415WAT     H191465   1.586   3.690   4.688  0.5285 -1.0994 -0.9233
22415WAT     H291466   1.724   3.651   4.737  0.0180 -1.9303 -0.1145
22415WAT    EPW91467   1.638   3.655   4.749  0.1006  0.0075  0.0963
22416WAT      O91468   5.461   5.481   3.983  0.6411 -0.3457 -0.7045
22416WAT     H191469   5.549   5.508   3.957  1.0242  0.7080  1.4796
22416WAT     H291470   5.475   5.406   4.042 -0.0997 -1.6473 -2.1089
22416WAT    EPW91471   5.474   5.474   3.988  0.5939 -0.3784 -0.6016
22417WAT      O91472   4.461   5.946   3.389  0.6589  0.2511 -0.7704
22417WAT     H191473   4.390   5.923   3.449 -1.1509  2.4045 -1.9356
22417WAT     H291474   4.507   6.018   3.432 -1.1883  2.4151 -2.1387
22417WAT    EPW91475   4.458   5.952   3.402  0.1767  0.8206 -1.1046
22418WAT      O91476   3.513   3.801   3.804  0.3095  0.2263 -0.7555
22418WAT     H191477   3.519   3.884   3.852  0.8641 -0.1124 -0.2394
22418WAT     H291478   3.569   3.815   3.727  1.0157  0.0623 -0.2761
22418WAT    EPW91479   3.521   3.814   3.800  0.4759  0.1601 -0.6243
22419WAT      O91480   1.712   8.679   8.414 -0.5251  0.5733  0.3854
22419WAT     H191481   1.792   8.729   8.396  0.0821 -0.2600  0.6913
22419WAT     H291482   1.643   8.729   8.372  0.0358  1.7673  0.8261
22419WAT    EPW91483   1.714   8.692   8.406 -0.3710  0.6204  0.4835
22420WAT      O91484   6.463   3.274   1.909  0.5823 -0.1526 -0.4495
22420WAT     H191485   6.523   3.323   1.853  0.1619 -1.0125 -1.6976
22420WAT     H291486   6.379   3.278   1.863  0.6619 -2.5029 -0.9152
22420WAT    EPW91487   6.460   3.281   1.895  0.5376 -0.5759 -0.6756
22421WAT      O91488  10.641   5.761   0.732 -0.4603  0.0249 -0.2351
22421WAT     H191489  10.642   5.855   0.749  0.3413  0.6325 -3.1151
22421WAT     H291490  10.634   5.721   0.819 -2.6763  2.7110  0.9626
22421WAT    EPW91491  10.640   5.768   0.746 -0.6466  0.4592 -0.4570
22422WAT      O91492   8.274   5.826   1.574 -0.5043  0.7343  0.0562
22422WAT     H191493   8.261   5.779   1.492  0.5982 -1.2220  0.9265
22422WAT     H291494   8.249   5.763   1.642 -2.0848  2.5478  1.2434
22422WAT    EPW91495   8.269   5.812   1.572 -0.5679  0.7155  0.3275
22423WAT      O91496   3.272   4.980   4.699  0.6884 -0.5470 -0.1221
22423WAT     H191497   3.210   5.052   4.686  0.2927 -0.8284  0.1618
22423WAT     H291498   3.322   4.976   4.618 -0.0870 -0.7069 -0.6058
22423WAT    EPW91499   3.270   4.989   4.686  0.5338 -0.6051 -0.1483
22424WAT      O91500  10.878   2.955   7.127 -0.1035  0.7485  0.2871
22424WAT     H191501  10.879   2.876   7.182 -1.1805  0.9153  0.5822
22424WAT     H291502  10.788   2.987   7.134  0.2111  1.7671 -0.1753
22424WAT    EPW91503  10.866   2.949   7.135 -0.2041  0.9049  0.2649
22425WAT      O91504  10.113   0.000   8.379  0.0508  0.1133 -0.2595
22425WAT     H191505  10.123  -0.030   8.289 -0.9856  1.0070 -0.6892
22425WAT     H291506  10.040  -0.051   8.414 -0.1982  0.4734 -0.2493
22425WAT    EPW91507  10.105  -0.011   8.372 -0.1187  0.2789 -0.3152
22426WAT      O91508   4.501   8.422   3.763  0.3793 -0.0665  0.2552
22426WAT     H191509   4.493   8.411   3.668  1.4732  0.3677  0.0971
22426WAT     H291510   4.437   8.490   3.785  1.1317  0.8762 -0.4031
22426WAT    EPW91511   4.491   8.430   3.753  0.6230  0.1154  0.1476
22427WAT      O91512   4.040   4.414   6.213  0.4649  0.3635 -0.5859
22427WAT     H191513   3.957   4.389   6.172 -0.1773  0.0224  0.8728
22427WAT     H291514   4.085   4.330   6.229  1.2496  0.5625 -1.6576
22427WAT    EPW91515   4.035   4.399   6.210  0.4838  0.3450 -0.5348
22428WAT      O91516   2.887   7.298   6.164 -0.4551  0.1465  0.5964
22428WAT     H191517   2.890   7.232   6.094 -0.5632 -1.7607  2.3148
22428WAT     H291518   2.949   7.266   6.230 -1.4451  1.0992  2.0356
22428WAT    EPW91519   2.896   7.285   6.163 -0.6000  0.0205  1.0128
22429WAT      O91520   6.200   6.425   3.624 -0.1976  0.3608 -0.1128
22429WAT     H191521   6.256   6.481   3.571 -0.0933 -0.6009 -1.0696
22429WAT     H291522   6.252   6.405   3.702  0.1106  0.8533 -0.1884
22429WAT    EPW91523   6.214   6.430   3.627 -0.1431  0.2990 -0.2489
22430WAT      O91524   3.311   3.668   2.158 -0.8233  0.7200  0.8838
22430WAT     H191525   3.226   3.675   2.115 -0.8107  1.3695  0.9509
22430WAT     H291526   3.300   3.598   2.222 -1.0115  0.1257  0.2165
22430WAT    EPW91527   3.299   3.660   2.161 -0.8465  0.7274  0.8047
22431WAT      O91528   5.322  10.190   8.528 -0.5302  0.2793  0.3942
22431WAT     H191529   5.247  10.190   8.468 -0.9343 -0.2630  0.8884
22431WAT     H291530   5.319  10.103   8.569 -0.1578  0.5874  1.0764
22431WAT    EPW91531   5.312  10.178   8.526 -0.5345  0.2480  0.5493
22432WAT      O91532   3.691   4.148   4.518  0.3393  0.3088  0.0507
22432WAT     H191533   3.687   4.244   4.519  2.9758  0.6469  4.3359
22432WAT     H291534   3.769   4.128   4.466 -0.1176  0.4897 -0.7072
22432WAT    EPW91535   3.701   4.158   4.511  0.6268  0.3774  0.5159
22433WAT      O91536   0.172   1.279   5.773  0.3548  0.8112  0.3125
22433WAT     H191537   0.162   1.370   5.745 -0.4031 -0.1390 -2.9783
22433WAT     H291538   0.107   1.266   5.841 -1.1562  2.1610 -0.8173
22433WAT    EPW91539   0.162   1.289   5.778  0.0555  0.8639 -0.2704
22434WAT      O91540   3.062   3.628   2.589 -0.2186  0.7956  0.1988
22434WAT     H191541   2.992   3.646   2.526  0.2745 -0.0906 -0.6128
22434WAT     H291542   3.125   3.698   2.575 -0.5382  1.1221  0.3587
22434WAT    EPW91543   3.061   3.640   2.579 -0.1959  0.7218  0.1128
22435WAT      O91544   4.341   4.264   5.324  0.0100 -0.3356 -0.3686
22435WAT     H191545   4.405   4.267   5.396 -0.6978 -0.4763  0.2787
22435WAT     H291546   4.289   4.343   5.335 -1.9585 -1.7208  1.0567
22435WAT    EPW91547   4.343   4.275   5.335 -0.3428 -0.5369 -0.0954
22436WAT      O91548   2.357   3.076   2.757  0.7094 -0.5238 -0.3697
22436WAT     H191549   2.379   3.169   2.758 -0.4802 -0.2349 -0.3277
22436WAT     H291550   2.289   3.066   2.823  1.3560 -1.5725  0.1702
22436WAT    EPW91551   2.351   3.087   2.765  0.6379 -0.6239 -0.2929
22437WAT      O91552   4.695   7.591   3.481 -1.0503  0.7353  0.8036
22437WAT     H191553   4.647   7.530   3.426 -1.1638  1.5672 -0.0595
22437WAT     H291554   4.651   7.675   3.466  0.7811  1.5807 -0.2266
22437WAT    EPW91555   4.683   7.594   3.471 -0.8237  0.9565  0.5540
22438WAT      O91556   2.698   4.236   0.006  0.1531  0.1405 -0.4746
22438WAT     H191557   2.710   4.282  -0.077  3.2645  0.1611 -0.1493
22438WAT     H291558   2.737   4.294   0.071 -0.6552 -0.6388  0.7439
22438WAT    EPW91559   2.705   4.250   0.004  0.4570  0.0405 -0.2710
22439WAT      O91560   1.994   5.091   3.011  0.4759 -0.2099  0.2691
22439WAT     H191561   1.903   5.106   3.034  0.1443  0.5070 -1.3420
22439WAT     H291562   2.044   5.120   3.088 -0.5061  2.8337 -0.0984
22439WAT    EPW91563   1.989   5.097   3.024  0.3026  0.2863  0.0081
22440WAT      O91564   3.079   7.160   4.149 -0.5070 -0.3976  0.2436
22440WAT     H191565   3.118   7.089   4.200 -3.0125 -0.5557  2.1443
22440WAT     H291566   3.099   7.239   4.199 -1.4064 -0.3299  0.5203
22440WAT    EPW91567   3.086   7.161   4.163 -0.9561 -0.4094  0.5310
22441WAT      O91568   3.973   9.161   3.743  0.2581  0.8907 -1.2816
22441WAT     H191569   4.010   9.175   3.655  2.4976  0.3709 -0.5002
22441WAT     H291570   3.903   9.097   3.730  1.0613  0.2368 -2.6162
22441WAT    EPW91571   3.969   9.154   3.730  0.6595  0.7353 -1.3547
22442WAT      O91572   3.311   6.516   4.919 -0.7083  0.2866  0.6081
22442WAT     H191573   3.264   6.438   4.888  0.2503  0.4818 -1.5724
22442WAT     H291574   3.267   6.541   5.000 -1.8389 -1.7815  0.6907
22442WAT    EPW91575   3.299   6.509   4.925 -0.7310  0.0398  0.3314
22443WAT      O91576   2.851   5.803   3.682  0.1683  0.6987 -0.4831
22443WAT     H191577   2.789   5.745   3.725  1.2006 -0.8423 -0.9982
22443WAT     H291578   2.808   5.889   3.683  0.5219  1.1266  4.5885
22443WAT    EPW91579   2.837   5.807   3.688  0.3510  0.5519  0.1179
22444WAT      O91580   1.826   2.444   5.725  0.0772 -0.5565 -0.4681
22444WAT     H191581   1.826   2.513   5.792  1.5176 -1.1907  0.2208
22444WAT     H291582   1.761   2.473   5.661 -1.1012  0.2526  1.0153
22444WAT    EPW91583   1.817   2.457   5.726  0.1118 -0.5335 -0.1817
22445WAT      O91584   3.913   5.781   5.594 -0.0702  0.3834 -0.0511
22445WAT     H191585   3.872   5.717   5.535 -0.2073  0.4268 -0.0036
22445WAT     H291586   3.996   5.741   5.620 -0.7353 -0.3521  1.0072
22445WAT    EPW91587   3.919   5.767   5.589 -0.1761  0.2923  0.0949
22446WAT      O91588   4.229   4.041   2.856 -0.2514  0.0055 -0.2464
22446WAT     H191589   4.207   3.971   2.796 -1.2997 -0.4300  0.5997
22446WAT     H291590   4.144   4.069   2.892  0.3801 -0.4273  1.7319
22446WAT    EPW91591   4.215   4.035   2.853 -0.3064 -0.1094  0.1261
22447WAT      O91592   3.597   5.753   6.281 -0.1738 -0.2830  0.6704
22447WAT     H191593   3.508   5.767   6.250  0.0590  1.4364  0.6460
22447WAT     H291594   3.620   5.835   6.326  2.3094  0.5004 -1.6784
22447WAT    EPW91595   3.588   5.766   6.283  0.1844  0.0472  0.3576
22448WAT      O91596   6.786   6.524   2.360 -0.5016  0.4536 -0.9091
22448WAT     H191597   6.728   6.464   2.406  0.4169 -0.5620 -1.0366
22448WAT     H291598   6.764   6.610   2.394 -1.3810 -0.0322 -0.2215
22448WAT    EPW91599   6.776   6.527   2.370 -0.4964  0.2558 -0.8354
22449WAT      O91600   3.907   5.416   6.487  0.0017  0.6718 -0.2918
22449WAT     H191601   3.927   5.442   6.577  1.5898 -3.0976  0.6412
22449WAT     H291602   3.933   5.324   6.482 -1.8928  0.1297 -4.0760
22449WAT    EPW91603   3.913   5.407   6.498 -0.0387  0.1032 -0.6680
22450WAT      O91604   5.098   4.617   1.099  0.1016 -0.1797  0.3392
22450WAT     H191605   5.078   4.684   1.034 -0.1301 -0.0215  0.5724
22450WAT     H291606   5.181   4.579   1.070 -0.7565 -1.1726 -0.9134
22450WAT    EPW91607   5.107   4.621   1.087 -0.0424 -0.2897  0.2047
22451WAT      O91608   4.282   4.405   2.041  0.5096  0.5068  0.0660
22451WAT     H191609   4.334   4.469   1.993  0.0345  2.2776  1.7520
22451WAT     H291610   4.343   4.335   2.062  1.0502  0.3469 -1.8319
22451WAT    EPW91611   4.297   4.404   2.038  0.5183  0.7193  0.0383
22452WAT      O91612   4.357   3.474   1.951  0.7025  0.3452  0.2462
22452WAT     H191613   4.351   3.569   1.948 -0.3404  0.2744 -0.6415
22452WAT     H291614   4.289   3.448   2.014  0.0936  0.1353 -0.4846
22452WAT    EPW91615   4.347   3.483   1.959  0.4847  0.3080  0.0327
22453WAT      O91616   2.849   7.139   2.824  0.2101  0.6023  0.0920
22453WAT     H191617   2.786   7.075   2.792 -1.2852  1.3682  1.3506
22453WAT     H291618   2.806   7.179   2.899  2.9164 -0.0934  2.1914
22453WAT    EPW91619   2.835   7.136   2.830  0.3698  0.6118  0.5349
22454WAT      O91620   3.271   4.635   5.198 -0.5687 -0.4612 -0.1150
22454WAT     H191621   3.316   4.712   5.233 -0.1906 -1.2466  1.2219
22454WAT     H291622   3.188   4.669   5.165 -0.6388  0.4554  0.9218
22454WAT    EPW91623   3.266   4.650   5.198 -0.5280 -0.4439  0.1976
22455WAT      O91624   4.744   2.365   4.015  0.2366 -0.0066  0.1944
22455WAT     H191625   4.812   2.307   3.981  0.7876  1.1200 -0.7063
22455WAT     H291626   4.681   2.307   4.057  0.3564 -1.3303 -1.3680
22455WAT    EPW91627   4.745   2.350   4.016  0.3250 -0.0325 -0.1304
22456WAT      O91628   4.001   1.781   4.672  0.1709  0.3650  0.3189
22456WAT     H191629   4.086   1.817   4.697  1.3170 -2.9435  1.8127
22456WAT     H291630   3.963   1.750   4.754 -2.4130  1.4289 -0.3627
22456WAT    EPW91631   4.007   1.782   4.686 -0.0188  0.0690  0.4261
22457WAT      O91632   5.370   5.187   4.470  0.4143 -0.0974 -0.5052
22457WAT     H191633   5.433   5.126   4.509  0.8122 -0.3278 -1.4637
22457WAT     H291634   5.300   5.131   4.436 -0.2379  0.1467  0.4090
22457WAT    EPW91635   5.369   5.171   4.471  0.3808 -0.0954 -0.5109
22458WAT      O91636   1.788   2.332   4.926  0.9084 -0.1912 -0.8522
22458WAT     H191637   1.769   2.413   4.878  0.3510 -1.0708 -2.1671
22458WAT     H291638   1.737   2.339   5.006 -1.4304 -0.4517 -2.2361
22458WAT    EPW91639   1.779   2.344   4.930  0.5263 -0.3417 -1.2078
22459WAT      O91640   2.866   6.208   6.816  0.3644  0.0374 -0.9862
22459WAT     H191641   2.904   6.135   6.865  0.0017  0.9873  0.7838
22459WAT     H291642   2.931   6.227   6.748  1.3708 -0.6801 -0.2554
22459WAT    EPW91643   2.880   6.201   6.813  0.4494  0.0679 -0.6564
22460WAT      O91644   4.681   4.272   2.739  0.1126 -0.1431  0.1043
22460WAT     H191645   4.630   4.193   2.721  1.3716 -1.4154  1.7807
22460WAT     H291646   4.638   4.341   2.689 -2.6267 -1.3443  0.6426
22460WAT    EPW91647   4.669   4.271   2.730 -0.0825 -0.4694  0.3964
22461WAT      O91648   1.521   5.593   2.944 -0.0826  0.5511  0.2876
22461WAT     H191649   1.468   5.625   2.871  2.1339  2.3426 -0.6590
22461WAT     H291650   1.510   5.658   3.013 -2.9255 -1.5971  2.1221
22461WAT    EPW91651   1.512   5.606   2.944 -0.1652  0.5043  0.4046
22462WAT      O91652   5.029   6.434   5.409 -0.6529 -0.0222  0.5373
22462WAT     H191653   5.091   6.362   5.398 -0.7150 -0.6449  3.4366
22462WAT     H291654   5.083   6.508   5.435 -0.4965  1.3631 -3.1493
22462WAT    EPW91655   5.044   6.434   5.411 -0.6404  0.0782  0.4334
22463WAT      O91656   4.679   4.227   4.386 -0.0165  0.3942 -0.3772
22463WAT     H191657   4.740   4.193   4.452 -0.7096 -0.3547 -0.1092
22463WAT     H291658   4.735   4.256   4.315  0.6844  0.1110  0.0474
22463WAT    EPW91659   4.694   4.226   4.386 -0.0153  0.2582 -0.2856
22464WAT      O91660   2.632  10.004   5.890 -0.0162 -0.2165  0.0560
22464WAT     H191661   2.702   9.953   5.931 -1.6087 -1.4648  1.3503
22464WAT     H291662   2.662  10.094   5.896  0.3057 -0.4118  3.2091
22464WAT    EPW91663   2.645  10.009   5.897 -0.1838 -0.4072  0.6428
22465WAT      O91664   5.793   5.897   3.741  0.6443  0.0362 -0.7755
22465WAT     H191665   5.770   5.816   3.696  3.4417 -0.4513 -1.5532
22465WAT     H291666   5.818   5.868   3.829 -1.6127  0.5556  0.0854
22465WAT    EPW91667   5.794   5.883   3.747  0.7155  0.0405 -0.7644
22466WAT      O91668   3.501   4.667   1.315 -0.1707  0.0033 -0.0939
22466WAT     H191669   3.576   4.714   1.351  0.6889 -1.6460  0.3470
22466WAT     H291670   3.452   4.638   1.391 -0.2917 -0.4264 -0.3314
22466WAT    EPW91671   3.505   4.670   1.330 -0.0734 -0.2708 -0.0671
22467WAT      O91672   5.355   6.746   5.679  0.3180  0.4368 -0.0990
22467WAT     H191673   5.413   6.673   5.699  3.0332  2.7326  1.1980
22467WAT     H291674   5.336   6.786   5.764 -3.1436 -0.0334 -0.4950
22467WAT    EPW91675   5.360   6.742   5.693  0.2193  0.6776  0.0200
22468WAT      O91676   5.101   5.606   4.083  0.0418 -0.1447  0.1288
22468WAT     H191677   5.089   5.640   4.171 -1.1363 -0.1823 -0.0012
22468WAT     H291678   5.112   5.511   4.095 -1.6371 -0.3585  0.1444
22468WAT    EPW91679   5.101   5.598   4.096 -0.3347 -0.1779  0.1137
22469WAT      O91680   7.399   5.600   5.179  0.1987  0.8703 -0.2531
22469WAT     H191681   7.321   5.547   5.166  1.7281 -1.3148 -1.2133
22469WAT     H291682   7.415   5.641   5.094  1.1799 -0.3638 -0.7044
22469WAT    EPW91683   7.391   5.598   5.166  0.5300  0.4196 -0.4392
22470WAT      O91684   5.029   4.218   4.331 -0.9299 -0.4774  0.2405
22470WAT     H191685   5.067   4.301   4.359 -0.2372  0.4693 -2.9693
22470WAT     H291686   4.954   4.243   4.276 -2.2113 -2.1007  1.1734
22470WAT    EPW91687   5.024   4.232   4.327 -1.0078 -0.5665 -0.0598
22471WAT      O91688   2.548   7.356   6.718  0.7884 -0.0627  0.0558
22471WAT     H191689   2.588   7.363   6.805  3.1964 -2.7190 -0.6921
22471WAT     H291690   2.616   7.319   6.663 -1.7451 -1.7919 -2.1791
22471WAT    EPW91691   2.562   7.352   6.722  0.7719 -0.6409 -0.3374
22472WAT      O91692   4.331   9.279   1.461  0.0844  0.2100  0.6422
22472WAT     H191693   4.244   9.288   1.422  0.2852  0.8377  0.3217
22472WAT     H291694   4.321   9.210   1.527  0.3044 -2.7212 -2.1584
22472WAT    EPW91695   4.318   9.271   1.465  0.1397 -0.0944  0.2305
22473WAT      O91696   4.112   5.514   5.411 -1.1149  0.0294  0.5166
22473WAT     H191697   4.121   5.419   5.413 -2.2316 -0.1758 -1.4980
22473WAT     H291698   4.050   5.531   5.340 -0.4139  2.3110  0.3577
22473WAT    EPW91699   4.105   5.504   5.402 -1.1697  0.3033  0.2298
22474WAT      O91700   4.928   7.759   4.483 -0.2150 -0.6629  0.4381
22474WAT     H191701   4.901   7.674   4.447  1.0277 -1.2990  0.9506
22474WAT     H291702   4.930   7.745   4.577  1.0820 -0.4108  0.4580
22474WAT    EPW91703   4.924   7.746   4.490  0.1199 -0.7138  0.5081
22475WAT      O91704   4.178   7.640   5.967 -0.0843  0.3776  0.1824
22475WAT     H191705   4.180   7.626   5.872 -0.8425  0.4686  0.1503
22475WAT     H291706   4.118   7.714   5.979 -0.5673 -0.1065  0.7882
22475WAT    EPW91707   4.170   7.648   5.956 -0.2477  0.3257  0.2584
22476WAT      O91708   5.809   5.907   1.682  0.5550 -0.0450 -0.4340
22476WAT     H191709   5.813   5.965   1.606 -3.2055  0.3322 -0.5108
22476WAT     H291710   5.835   5.821   1.649  1.9548  0.7044 -1.3594
22476WAT    EPW91711   5.813   5.903   1.668  0.2437  0.1035 -0.5662
22477WAT      O91712   4.717   9.014   6.339 -0.0307  0.3981  1.0324
22477WAT     H191713   4.685   9.011   6.430 -0.2564 -1.5363  0.9207
22477WAT     H291714   4.807   9.046   6.346 -0.2110  0.7463  1.8802
22477WAT    EPW91715   4.724   9.018   6.352 -0.0844  0.1888  1.1296
22478WAT      O91716   4.375   6.076   2.711 -0.0107 -0.2877 -0.2943
22478WAT     H191717   4.439   6.104   2.777  0.6077 -3.3153  0.5490
22478WAT     H291718   4.321   6.011   2.757  0.2317 -2.2674 -2.6217
22478WAT    EPW91719   4.376   6.071   2.726  0.1028 -0.9482 -0.4900
22479WAT      O91720   4.734   6.192   4.224 -0.2686  0.0365 -0.7890
22479WAT     H191721   4.711   6.167   4.314 -1.1735  0.1021 -0.9929
22479WAT     H291722   4.776   6.114   4.188  1.9794  0.6565  0.3079
22479WAT    EPW91723   4.737   6.179   4.231 -0.0913  0.1271 -0.6714
22480WAT      O91724   5.334   5.083   0.080  0.0550  0.0898 -0.5271
22480WAT     H191725   5.325   5.168   0.124  0.4573 -1.2333  2.3665
22480WAT     H291726   5.244   5.050   0.073  0.0893 -1.2640  3.0089
22480WAT    EPW91727   5.321   5.090   0.085  0.1125 -0.2632  0.3209
22481WAT      O91728   3.114   4.564   2.546 -0.1437 -0.7057  0.6502
22481WAT     H191729   3.048   4.510   2.589 -2.5061  1.1036 -0.4387
22481WAT     H291730   3.161   4.504   2.489 -1.7791 -1.8803  0.4586
22481WAT    EPW91731   3.111   4.549   2.544 -0.6710 -0.6218  0.4814
22482WAT      O91732   7.314   0.902   3.463 -0.6140  0.1753 -0.3310
22482WAT     H191733   7.269   0.895   3.379  0.6694  3.2172 -1.3875
22482WAT     H291734   7.284   0.985   3.500  1.1725  0.3840  0.7675
22482WAT    EPW91735   7.304   0.912   3.457 -0.2091  0.6041 -0.3256
22483WAT      O91736   3.616   8.610   6.428 -0.1391 -0.0171 -0.0444
22483WAT     H191737   3.643   8.659   6.506 -0.8551 -0.3944  0.4544
22483WAT     H291738   3.547   8.551   6.459 -0.2775 -0.3360 -0.9193
22483WAT    EPW91739   3.610   8.609   6.442 -0.2517 -0.1087 -0.0939
22484WAT      O91740   8.122   5.391   6.411 -0.7080  0.3790 -0.3086
22484WAT     H191741   8.059   5.394   6.483 -2.0878  3.9151 -1.4196
22484WAT     H291742   8.177   5.469   6.424 -0.1104  0.3550 -2.2939
22484WAT    EPW91743   8.121   5.402   6.422 -0.8116  0.8423 -0.7169
22485WAT      O91744   2.769   9.637   4.045  0.2994 -0.4873 -0.3646
22485WAT     H191745   2.786   9.695   3.970  1.1841  0.4591  0.5293
22485WAT     H291746   2.754   9.551   4.006  2.3348 -0.3618 -1.5734
22485WAT    EPW91747   2.769   9.633   4.030  0.6845 -0.3457 -0.4060
22486WAT      O91748   5.819   5.807   3.996  0.2391  0.9964 -0.8662
22486WAT     H191749   5.851   5.874   4.057  0.2899 -1.6416  2.2937
22486WAT     H291750   5.724   5.809   4.006  0.1722  1.1998 -1.4982
22486WAT    EPW91751   5.811   5.816   4.006  0.2370  0.6754 -0.5326
22487WAT      O91752   2.289   7.827   3.327 -0.3770  0.4733 -1.3097
22487WAT     H191753   2.238   7.794   3.401  0.8215 -1.1178 -1.1375
22487WAT     H291754   2.292   7.922   3.340  0.5395  0.1784  1.1932
22487WAT    EPW91755   2.283   7.835   3.338 -0.0980  0.2248 -0.9569
22488WAT      O91756   4.628   6.427   2.591 -1.0381  0.4325  0.9355
22488WAT     H191757   4.551   6.372   2.577  0.7308 -2.3583  1.4214
22488WAT     H291758   4.615   6.465   2.678 -0.7496 -2.0939  2.1537
22488WAT    EPW91759   4.616   6.425   2.601 -0.7670 -0.2687  1.1601
22489WAT      O91760   2.561   2.014   3.421  0.1840 -0.4255 -0.6958
22489WAT     H191761   2.629   2.071   3.385 -1.1812  1.0671 -0.9971
22489WAT     H291762   2.610   1.948   3.471  1.8400  0.8454 -0.5353
22489WAT    EPW91763   2.576   2.013   3.423  0.2224 -0.0610 -0.7144
22490WAT      O91764   4.829   8.717   2.778 -0.4106  0.0976 -0.1661
22490WAT     H191765   4.816   8.745   2.869 -0.8981 -0.1295 -0.1620
22490WAT     H291766   4.880   8.636   2.784 -0.8058 -0.1457 -0.0728
22490WAT    EPW91767   4.834   8.710   2.791 -0.5271  0.0353 -0.1532
22491WAT      O91768   3.672   7.524   4.697 -0.4105 -0.6169  0.6705
22491WAT     H191769   3.743   7.573   4.739 -0.0474 -0.5210 -0.0374
22491WAT     H291770   3.715   7.476   4.626 -0.7138 -2.1900  1.5181
22491WAT    EPW91771   3.687   7.524   4.693 -0.4027 -0.8116  0.6888
22492WAT      O91772   2.030   8.010   4.587  0.7955  0.6867  0.4787
22492WAT     H191773   2.007   7.920   4.563 -0.9889  1.7253 -2.1222
22492WAT     H291774   2.122   8.005   4.611  0.8103 -1.8000  0.1690
22492WAT    EPW91775   2.039   7.997   4.587  0.5621  0.4957  0.0949
22493WAT      O91776   2.654   5.625   3.740 -0.1448  0.3919  0.1580
22493WAT     H191777   2.590   5.605   3.671 -0.4363  1.4542  0.1064
22493WAT     H291778   2.715   5.551   3.737 -0.7248 -0.0804 -0.5578
22493WAT    EPW91779   2.654   5.613   3.730 -0.2596  0.4697  0.0569
22494WAT      O91780   4.175   5.289   3.075  0.0177 -0.3022 -0.3770
22494WAT     H191781   4.163   5.207   3.027  1.3326 -0.1513 -1.0154
22494WAT     H291782   4.243   5.335   3.026 -0.9359  1.3363 -0.2290
22494WAT    EPW91783   4.182   5.284   3.062  0.0653 -0.0665 -0.4417
22495WAT      O91784   5.203   6.166   2.624 -0.3003 -0.3275  0.0172
22495WAT     H191785   5.191   6.244   2.677 -0.5923  0.3175 -0.9770
22495WAT     H291786   5.297   6.163   2.607  0.1259 -1.6930  2.2563
22495WAT    EPW91787   5.214   6.176   2.629 -0.2828 -0.4225  0.1814
22496WAT      O91788   6.406   4.003   0.506 -0.2473  0.1121 -0.1454
22496WAT     H191789   6.404   3.983   0.600  0.5184 -1.3623 -0.4117
22496WAT     H291790   6.345   4.076   0.496 -2.7918 -1.7258  1.0261
22496WAT    EPW91791   6.398   4.010   0.517 -0.4816 -0.3245 -0.0260
22497WAT      O91792   2.229   6.006   2.092  0.0636  0.0185  0.2085
22497WAT     H191793   2.207   6.099   2.100  0.6991  0.1227  0.9215
22497WAT     H291794   2.147   5.960   2.107 -0.0088  0.4316  1.1226
22497WAT    EPW91795   2.216   6.012   2.095  0.1378  0.0865  0.4231
22498WAT      O91796   2.084   8.329   1.830 -0.3978  0.8795 -0.3051
22498WAT     H191797   2.134   8.290   1.902  0.3665  0.7103 -0.9167
22498WAT     H291798   2.093   8.424   1.843 -0.6431  0.8508  0.0805
22498WAT    EPW91799   2.091   8.337   1.841 -0.3294  0.8535 -0.3350
22499WAT      O91800   1.882   5.330   1.220 -0.8909 -0.6261  0.0733
22499WAT     H191801   1.907   5.266   1.153  1.0151 -0.9338  0.9978
22499WAT     H291802   1.883   5.281   1.302 -3.9548 -0.4433  0.3274
22499WAT    EPW91803   1.886   5.315   1.222 -1.0436 -0.6425  0.2287
22500WAT      O91804   7.257   0.275   4.659  0.4585  0.5064 -0.3816
22500WAT     H191805   7.308   0.345   4.698 -0.9225  2.3846 -1.7654
22500WAT     H291806   7.322   0.216   4.621  1.6482  1.0459  0.7487
22500WAT    EPW91807   7.272   0.276   4.659  0.4334  0.8253 -0.4148
22501WAT      O91808  10.600   5.639   6.525  0.0263  0.3727  0.0386
22501WAT     H191809  10.607   5.601   6.612 -1.7400 -2.2831 -0.8549
22501WAT     H291810  10.653   5.581   6.469 -0.9070  0.5195 -1.0296
22501WAT    EPW91811  10.608   5.626   6.529 -0.3300  0.0420 -0.2203
22502WAT      O91812   3.540   8.182   6.579 -0.2156  0.8225 -0.7414
22502WAT     H191813   3.568   8.098   6.543 -3.2481  0.2908 -2.1345
22502WAT     H291814   3.597   8.195   6.655 -0.7248 -3.3958  0.6359
22502WAT    EPW91815   3.551   8.173   6.584 -0.6827  0.1965 -0.7434
22503WAT      O91816   2.705   8.764   5.347 -0.0427  0.0803 -0.4087
22503WAT     H191817   2.704   8.700   5.276 -0.9573  1.3170 -1.5493
22503WAT     H291818   2.777   8.823   5.325  0.2004  0.0019  0.1471
22503WAT    EPW91819   2.714   8.763   5.335 -0.1312  0.2332 -0.4857
22504WAT      O91820   3.787   4.447   2.812 -0.3941  0.0016 -0.0165
22504WAT     H191821   3.827   4.514   2.757 -2.8688  2.6267  1.1801
22504WAT     H291822   3.825   4.460   2.899 -0.7100 -0.3367  0.1778
22504WAT    EPW91823   3.797   4.457   2.816 -0.7622  0.3030  0.1670
22505WAT      O91824   3.445   6.928   1.524 -0.0113  0.4990  0.4002
22505WAT     H191825   3.380   6.857   1.530 -0.2681  0.5566 -1.1133
22505WAT     H291826   3.407   6.999   1.575 -1.2857  0.6097 -0.6323
22505WAT    EPW91827   3.431   6.928   1.531 -0.2131  0.5212  0.0644
22506WAT      O91828   3.092   8.044   3.870 -0.0654  0.1657  0.1240
22506WAT     H191829   3.102   8.028   3.963 -0.1999 -0.2777  0.0626
22506WAT     H291830   2.999   8.067   3.859 -0.8849 -2.9952 -0.3491
22506WAT    EPW91831   3.081   8.045   3.881 -0.1913 -0.3099  0.0535
22507WAT      O91832   3.592   2.604   5.106 -0.6823 -0.2833 -0.3086
22507WAT     H191833   3.521   2.635   5.162  0.2547  1.3163  0.0624
22507WAT     H291834   3.632   2.684   5.071  2.8787 -0.8333  1.9389
22507WAT    EPW91835   3.588   2.619   5.108 -0.0890 -0.1448  0.0367
22508WAT      O91836   3.986   6.618   3.247  0.0919  0.3671 -0.7890
22508WAT     H191837   4.055   6.684   3.242  0.1327  0.3756 -0.1908
22508WAT     H291838   3.967   6.596   3.156  1.2426 -0.0092 -0.9668
22508WAT    EPW91839   3.993   6.623   3.235  0.2491  0.3188 -0.7336
22509WAT      O91840   3.357   4.977   1.366 -0.3581  0.7643  0.0087
22509WAT     H191841   3.426   4.953   1.427 -0.2702  1.4131  0.1766
22509WAT     H291842   3.342   5.070   1.383  1.2595  1.5935 -2.5385
22509WAT    EPW91843   3.364   4.986   1.376 -0.1332  0.9592 -0.3051
22510WAT      O91844   4.726   8.584   6.308  0.3689  0.6500 -0.2982
22510WAT     H191845   4.805   8.637   6.315  1.1566 -0.6063  1.1610
22510WAT     H291846   4.705   8.583   6.215 -0.1530  4.0763 -0.3303
22510WAT    EPW91847   4.734   8.591   6.297  0.4039  0.9360 -0.1097
22511WAT      O91848   3.891   6.029   5.461 -0.3072 -0.1336  0.2552
22511WAT     H191849   3.906   5.956   5.521 -0.2303 -0.8766 -0.6549
22511WAT     H291850   3.871   6.103   5.519 -1.7584 -1.1684  1.1503
22511WAT    EPW91851   3.891   6.029   5.477 -0.4885 -0.3681  0.2532
22512WAT      O91852   2.714   7.584   5.154 -0.5986 -0.3231  0.7212
22512WAT     H191853   2.756   7.562   5.071 -1.3127 -2.2447  0.8297
22512WAT     H291854   2.705   7.679   5.152  1.5289 -0.0982 -0.3543
22512WAT    EPW91855   2.718   7.594   5.143 -0.4122 -0.5469  0.5937
22513WAT      O91856   4.454   8.566   2.964 -0.6876  0.6032  0.0948
22513WAT     H191857   4.379   8.550   3.022 -0.9515 -1.0091 -0.6477
22513WAT     H291858   4.528   8.579   3.024 -1.2041  0.2968  0.8151
22513WAT    EPW91859   4.454   8.566   2.980 -0.7906  0.3505  0.0918
22514WAT      O91860   3.627   5.782   5.147  0.3339 -0.0972  0.4189
22514WAT     H191861   3.563   5.836   5.102 -0.4613 -2.3520 -1.3316
22514WAT     H291862   3.590   5.768   5.234  0.0295  1.2100  0.5171
22514WAT    EPW91863   3.614   5.787   5.153  0.1889 -0.2222  0.2007
22515WAT      O91864   3.963   4.475   4.609 -0.0437 -0.0174  0.0179
22515WAT     H191865   4.016   4.476   4.688  0.9422  0.2859 -0.6347
22515WAT     H291866   3.988   4.555   4.562  1.0879 -1.3062 -1.6934
22515WAT    EPW91867   3.973   4.486   4.613  0.2356 -0.1473 -0.2937
22516WAT      O91868   4.156   5.710   5.770 -0.2157  0.6590  0.1226
22516WAT     H191869   4.217   5.663   5.827 -1.8219 -0.4118  1.0510
22516WAT     H291870   4.168   5.802   5.792  1.2744  0.5047  0.0451
22516WAT    EPW91871   4.165   5.716   5.781 -0.2308  0.4976  0.2348
22517WAT      O91872   2.561   7.073   7.077 -0.0111  0.4664  0.0722
22517WAT     H191873   2.519   7.143   7.126 -0.3500  0.6845 -0.5102
22517WAT     H291874   2.498   7.001   7.077 -0.4317  0.8142 -0.8515
22517WAT    EPW91875   2.548   7.073   7.083 -0.1113  0.5410 -0.1264
22518WAT      O91876   3.799   8.267   2.963 -0.0495 -0.0619  0.2019
22518WAT     H191877   3.804   8.236   3.053  1.6566 -2.7387 -0.7166
22518WAT     H291878   3.843   8.352   2.965 -1.7179  0.8478  2.1592
22518WAT    EPW91879   3.806   8.274   2.975 -0.0446 -0.2952  0.3390
22519WAT      O91880   3.843   4.187   2.106 -0.1729 -0.7914  0.6835
22519WAT     H191881   3.846   4.092   2.094  0.1133 -0.7773  0.6418
22519WAT     H291882   3.907   4.205   2.175  0.8838 -0.4669 -0.3483
22519WAT    EPW91883   3.851   4.177   2.114  0.0043 -0.7467  0.5418
22520WAT      O91884   4.582   5.938   3.940  0.9696  0.3432 -0.1353
22520WAT     H191885   4.557   6.027   3.965 -2.0696  0.0679 -1.7416
22520WAT     H291886   4.552   5.883   4.013  2.0730  0.4878  0.4601
22520WAT    EPW91887   4.575   5.942   3.953  0.7141  0.3262 -0.2687
22521WAT      O91888   4.378   7.574   3.563 -0.0268 -0.2493 -0.2461
22521WAT     H191889   4.374   7.617   3.478 -2.0402  2.4426  1.0747
22521WAT     H291890   4.418   7.638   3.622 -3.8055  0.3749  1.9732
22521WAT    EPW91891   4.383   7.588   3.560 -0.7908  0.1881  0.2208
22522WAT      O91892   6.131   8.964   3.858 -0.5523  0.1384 -0.5775
22522WAT     H191893   6.139   9.036   3.796 -1.6140  1.2964  0.5602
22522WAT     H291894   6.218   8.924   3.860 -0.1094  0.9973 -1.6963
22522WAT    EPW91895   6.143   8.968   3.850 -0.6340  0.4039 -0.5749
22523WAT      O91896   5.728   6.789   6.381  0.3750 -0.4207  0.0809
22523WAT     H191897   5.770   6.811   6.465  1.5254  0.5473 -0.7206
22523WAT     H291898   5.667   6.718   6.403  1.3229 -0.8228  1.5714
22523WAT    EPW91899   5.726   6.782   6.395  0.6516 -0.3462  0.1717
22524WAT      O91900   1.725   6.384   1.904 -0.6867  0.7200  0.0100
22524WAT     H191901   1.794   6.334   1.947 -0.4029  1.8888  0.9496
22524WAT     H291902   1.759   6.402   1.816 -0.1444  0.5807  0.1913
22524WAT    EPW91903   1.738   6.380   1.898 -0.5778  0.8557  0.1578
22525WAT      O91904   6.295   7.609   2.655 -0.5311 -0.2073  0.4009
22525WAT     H191905   6.262   7.521   2.636 -0.7026  0.1903 -1.2349
22525WAT     H291906   6.219   7.658   2.684 -0.5082 -0.4849  0.9404
22525WAT    EPW91907   6.281   7.604   2.656 -0.5507 -0.1915  0.2563
22526WAT      O91908   4.600   7.260   2.644 -1.1016  0.0026 -0.2492
22526WAT     H191909   4.549   7.341   2.649 -0.1192  0.7643 -1.8748
22526WAT     H291910   4.570   7.218   2.563  1.1243  0.7190 -1.5267
22526WAT    EPW91911   4.589   7.265   2.634 -0.6785  0.1979 -0.6320
22527WAT      O91912   4.433   8.958   4.848  0.1548 -0.6079 -0.1900
22527WAT     H191913   4.506   8.989   4.795  0.1101  0.4390  0.3474
22527WAT     H291914   4.355   8.986   4.800  0.0825 -1.8373 -0.8308
22527WAT    EPW91915   4.432   8.966   4.834  0.1392 -0.6318 -0.2036
22528WAT      O91916   4.543   7.015   2.809 -0.0796 -0.4124 -0.3225
22528WAT     H191917   4.451   7.003   2.788 -0.0849  1.0410 -1.3234
22528WAT     H291918   4.575   7.077   2.742  1.3579 -0.0831  0.6114
22528WAT    EPW91919   4.535   7.022   2.797  0.1094 -0.1774 -0.3315
22529WAT      O91920   4.748   6.468   5.392 -0.0324  0.3851  0.1501
22529WAT     H191921   4.734   6.553   5.434  0.5204  1.7762 -2.3294
22529WAT     H291922   4.843   6.458   5.389 -0.0240 -1.7662  2.9638
22529WAT    EPW91923   4.759   6.478   5.397  0.0417  0.2847  0.1941
22530WAT      O91924   5.260   5.645   3.279 -0.2146  0.0195 -0.1901
22530WAT     H191925   5.250   5.737   3.257  0.0199  0.0946  0.0096
22530WAT     H291926   5.341   5.618   3.236 -0.7624 -0.3441 -1.0334
22530WAT    EPW91927   5.269   5.653   3.271 -0.2563 -0.0188 -0.2750
22531WAT      O91928   4.068   5.075   4.455 -0.2933  0.0559 -0.4912
22531WAT     H191929   3.995   5.090   4.515 -0.8028 -1.0981 -0.8012
22531WAT     H291930   4.138   5.039   4.510 -0.0736  0.8114 -0.2613
22531WAT    EPW91931   4.068   5.072   4.470 -0.3314  0.0031 -0.5016
22532WAT      O91932   4.724   8.205   4.627 -0.0956  0.3295  0.2535
22532WAT     H191933   4.812   8.242   4.636 -0.2889  0.4665  1.8826
22532WAT     H291934   4.667   8.269   4.671 -1.0797  0.4398 -1.1199
22532WAT    EPW91935   4.728   8.218   4.634 -0.2508  0.3619  0.2873
22533WAT      O91936   3.847   5.163   3.474 -0.5148  0.2602 -0.4647
22533WAT     H191937   3.760   5.124   3.484 -0.3292  0.0517  0.4407
22533WAT     H291938   3.855   5.225   3.547  0.1285  0.2089 -0.4803
22533WAT    EPW91939   3.837   5.166   3.485 -0.4055  0.2258 -0.3471
22534WAT      O91940   2.408   7.428   3.486 -0.2620 -0.1091 -0.1033
22534WAT     H191941   2.432   7.336   3.481 -0.0848 -0.0734  0.0809
22534WAT     H291942   2.396   7.445   3.580 -0.5497 -0.0118 -0.1569
22534WAT    EPW91943   2.410   7.418   3.498 -0.2766 -0.0916 -0.0859
22535WAT      O91944   4.765   6.052   3.274  0.6917  0.1296 -0.4551
22535WAT     H191945   4.846   6.094   3.304  0.6616 -1.2694  1.7929
22535WAT     H291946   4.697   6.116   3.294  0.9720  0.2748  0.0566
22535WAT    EPW91947   4.767   6.066   3.281  0.7250 -0.0358 -0.0912
22536WAT      O91948   3.836   7.168   1.560 -0.1296 -0.2692 -0.1182
22536WAT     H191949   3.929   7.152   1.548 -0.3130 -1.4060 -0.0705
22536WAT     H291950   3.794   7.085   1.539 -1.0565 -0.0646  0.8670
22536WAT    EPW91951   3.843   7.155   1.556 -0.2760 -0.3922  0.0180
22537WAT      O91952   5.267   9.475   6.181  0.0220  0.0391  0.0084
22537WAT     H191953   5.340   9.508   6.129  0.9415  1.8169  2.2438
22537WAT     H291954   5.190   9.520   6.146  0.4857  0.5688 -0.3386
22537WAT    EPW91955   5.266   9.485   6.170  0.2046  0.3438  0.2575
22538WAT      O91956   4.169   7.623   5.012 -0.1555  0.1942  0.9258
22538WAT     H191957   4.206   7.614   5.100 -2.5831  0.2289  2.0169
22538WAT     H291958   4.134   7.536   4.992 -1.7304  0.7782  1.0404
22538WAT    EPW91959   4.169   7.610   5.021 -0.6835  0.2759  1.0848
22539WAT      O91960   4.314   6.208   3.596  1.0803  0.1061 -0.3492
22539WAT     H191961   4.357   6.274   3.651  0.4883  1.0721 -1.0198
22539WAT     H291962   4.317   6.244   3.508  2.5063 -1.6833 -1.0742
22539WAT    EPW91963   4.320   6.221   3.592  1.1907 -0.0024 -0.5333
22540WAT      O91964   1.808   6.852   4.445 -0.4715 -0.0792 -0.1935
22540WAT     H191965   1.903   6.862   4.435 -0.3933 -1.2938 -0.7779
22540WAT     H291966   1.776   6.837   4.357 -1.5157  2.4462 -0.3083
22540WAT    EPW91967   1.816   6.851   4.432 -0.5988  0.0937 -0.2856
22541WAT      O91968   3.647   8.298   3.305 -0.0881 -0.1299 -0.3914
22541WAT     H191969   3.575   8.293   3.242  0.4550  3.0176 -1.4702
22541WAT     H291970   3.711   8.235   3.273 -0.3569  0.5178 -2.3476
22541WAT    EPW91971   3.646   8.289   3.292 -0.0519  0.3710 -0.7919
22542WAT      O91972   4.904   5.619   4.308 -1.0766  0.0879 -0.3496
22542WAT     H191973   4.837   5.680   4.275 -1.5547  0.2109  0.7820
22542WAT     H291974   4.855   5.541   4.331 -0.8554  0.2184  0.5966
22542WAT    EPW91975   4.889   5.617   4.307 -1.1108  0.1214 -0.0756
22543WAT      O91976   3.882   7.235   5.762  0.0527  0.2398  0.3600
22543WAT     H191977   3.922   7.238   5.849  0.2159  1.6810  0.2587
22543WAT     H291978   3.895   7.323   5.727  0.6349 -0.5088 -1.4272
22543WAT    EPW91979   3.889   7.247   5.769  0.1510  0.3312  0.1109
22544WAT      O91980   3.702   5.944   4.104  0.0777  0.4766 -0.6692
22544WAT     H191981   3.779   5.891   4.081  0.2908 -0.5344  1.9619
22544WAT     H291982   3.729   5.993   4.181 -1.5165  1.0885 -0.4613
22544WAT    EPW91983   3.716   5.943   4.111 -0.1045  0.4239 -0.2949
22545WAT      O91984   4.991   7.104   2.696  0.3006 -0.6244  0.1315
22545WAT     H191985   4.959   7.089   2.606 -1.0502 -1.5554  0.7321
22545WAT     H291986   5.019   7.017   2.726  3.7859  0.1894 -0.4431
22545WAT    EPW91987   4.990   7.090   2.688  0.5822 -0.6397  0.1349
22546WAT      O91988   4.578   4.491   4.292 -0.1216  0.2561 -0.0620
22546WAT     H191989   4.535   4.406   4.301  1.1889 -0.5579 -1.1049
22546WAT     H291990   4.671   4.472   4.304  0.0992  1.7749  1.0023
22546WAT    EPW91991   4.585   4.478   4.295  0.0803  0.3490 -0.0591
22547WAT      O91992   5.809   5.576   2.441  0.1659 -0.3284 -0.2636
22547WAT     H191993   5.851   5.594   2.358 -0.6827  3.4883 -0.0231
22547WAT     H291994   5.715   5.589   2.425 -0.1536 -0.7966  1.0114
22547WAT    EPW91995   5.802   5.580   2.428  0.0114  0.1135 -0.0638
22548WAT      O91996   4.808   6.654   3.686  0.6410 -0.0858  0.8090
22548WAT     H191997   4.806   6.561   3.665  2.0615 -0.3309  1.6904
22548WAT     H291998   4.861   6.661   3.765  0.7790  1.4993  0.6208
22548WAT    EPW91999   4.814   6.643   3.694  0.8466  0.0908  0.9003
22549WAT      O92000   2.898   9.353   3.974 -0.0235  0.0749  0.3344
22549WAT     H192001   2.967   9.397   3.924 -1.5253  1.6377 -0.4365
22549WAT     H292002   2.946   9.298   4.036  1.9496  1.8509  0.5066
22549WAT    EPW92003   2.914   9.351   3.975  0.0385  0.5155  0.2553
22550WAT      O92004   3.258   7.337   2.726  0.3391 -0.3770  0.0383
22550WAT     H192005   3.282   7.250   2.757  2.2275 -0.7021 -2.0188
22550WAT     H292006   3.313   7.350   2.648 -0.9829  2.0464 -0.5900
22550WAT    EPW92007   3.269   7.327   2.719  0.4138 -0.1004 -0.3158
22551WAT      O92008   6.167   3.547   2.210  0.3422 -0.2032 -0.0002
22551WAT     H192009   6.087   3.566   2.161 -0.0437 -2.1343 -0.1915
22551WAT     H292010   6.142   3.557   2.302  0.6600  1.9167 -0.1007
22551WAT    EPW92011   6.153   3.551   2.216  0.3335 -0.1782 -0.0387
22552WAT      O92012   4.528   7.735   2.397  0.2802 -0.5423  0.5073
22552WAT     H192013   4.566   7.763   2.480  2.0347 -2.2709  0.3286
22552WAT     H292014   4.598   7.747   2.333 -0.3378 -1.3011 -0.3345
22552WAT    EPW92015   4.542   7.741   2.399  0.4299 -0.8705  0.3726
22553WAT      O92016   6.066   8.178   5.124  0.5978  0.6037 -0.1793
22553WAT     H192017   6.035   8.159   5.036 -0.9186 -0.1126  0.4753
22553WAT     H292018   6.061   8.095   5.170  1.1356  1.0195  0.6568
22553WAT    EPW92019   6.061   8.165   5.119  0.4690  0.5641  0.0176
22554WAT      O92020   1.517   3.919   2.825 -0.2543  0.1807 -0.1397
22554WAT     H192021   1.611   3.898   2.830 -0.2071  0.5836  1.0780
22554WAT     H292022   1.497   3.956   2.911 -1.5470  0.0682 -0.3836
22554WAT    EPW92023   1.527   3.921   2.837 -0.4185  0.2191 -0.0112
22555WAT      O92024   1.313   7.861   2.614  0.6582  0.3543 -0.2007
22555WAT     H192025   1.328   7.767   2.628  1.1568  0.2719 -1.2114
22555WAT     H292026   1.396   7.902   2.636 -0.2508  0.8838  2.7000
22555WAT    EPW92027   1.326   7.854   2.619  0.6041  0.4132  0.0485
22556WAT      O92028   3.371   8.861   3.270 -0.0129  0.0507 -0.2199
22556WAT     H192029   3.462   8.838   3.251 -0.5795 -1.3486 -1.3724
22556WAT     H292030   3.328   8.861   3.185 -1.6304 -1.7873  0.5209
22556WAT    EPW92031   3.377   8.858   3.256 -0.3009 -0.3767 -0.2742
22557WAT      O92032   5.494   4.585   2.575  0.2790 -0.0012  0.0125
22557WAT     H192033   5.467   4.499   2.543 -1.8127  1.0932 -1.4273
22557WAT     H292034   5.570   4.608   2.521 -0.5715 -0.0256 -1.2554
22557WAT    EPW92035   5.500   4.577   2.564 -0.1090  0.1400 -0.3448
22558WAT      O92036   4.169   7.777   4.658 -0.4391 -0.7453 -0.4207
22558WAT     H192037   4.106   7.837   4.617 -2.5431 -2.5814 -0.0659
22558WAT     H292038   4.221   7.833   4.716 -3.1393  0.6200  0.8635
22558WAT    EPW92039   4.167   7.792   4.660 -1.0726 -0.8075 -0.2043
22559WAT      O92040   6.241   7.204   5.323  0.1818 -0.1559 -0.3352
22559WAT     H192041   6.255   7.293   5.291  3.6526 -0.3928  0.1542
22559WAT     H292042   6.264   7.148   5.249  3.4142 -0.6169  0.8735
22559WAT    EPW92043   6.246   7.209   5.309  1.0657 -0.2480 -0.1116
22560WAT      O92044   4.225   5.790   6.606  0.2058 -0.5205  0.2253
22560WAT     H192045   4.280   5.798   6.683  0.6505  0.1581 -0.1489
22560WAT     H292046   4.168   5.868   6.609  0.0744 -0.6053 -0.0086
22560WAT    EPW92047   4.225   5.802   6.616  0.2470 -0.4420  0.1452
22561WAT      O92048   4.825   6.800   2.620 -0.7801 -0.0606 -0.0253
22561WAT     H192049   4.731   6.801   2.636 -0.6500  0.3516  0.7720
22561WAT     H292050   4.860   6.737   2.683 -0.5333 -0.3394 -0.4314
22561WAT    EPW92051   4.817   6.792   2.630 -0.7305 -0.0432  0.0263
22562WAT      O92052   2.403   9.005   0.819  0.5268 -0.5768  0.3544
22562WAT     H192053   2.388   8.990   0.912  0.6023 -2.1660  0.1325
22562WAT     H292054   2.321   8.980   0.777  0.0824  1.2424  0.0689
22562WAT    EPW92055   2.390   9.000   0.825  0.4783 -0.5469  0.2875
22563WAT      O92056   2.334   1.348   5.850 -0.5858 -0.7673  1.0171
22563WAT     H192057   2.413   1.297   5.871 -1.8169 -2.5117  1.6102
22563WAT     H292058   2.358   1.394   5.769  1.2617 -0.7105  1.5348
22563WAT    EPW92059   2.348   1.347   5.842 -0.5046 -0.9899  1.1637
22564WAT      O92060   5.220   4.603   4.954  0.3712  0.5432  0.5247
22564WAT     H192061   5.153   4.557   5.005  0.2487  0.2573  0.1039
22564WAT     H292062   5.199   4.584   4.863  0.1509  1.6445  0.3195
22564WAT    EPW92063   5.208   4.595   4.949  0.3259  0.6509  0.4420
22565WAT      O92064   1.099   3.352   5.198 -0.0783  0.3496 -0.1193
22565WAT     H192065   1.127   3.397   5.277 -1.9694  0.2517  0.6610
22565WAT     H292066   1.169   3.367   5.135  0.2582  2.7135  0.7239
22565WAT    EPW92067   1.112   3.360   5.200 -0.2834  0.6485  0.0949
22566WAT      O92068   4.209   9.592   4.266 -0.4495 -0.5632 -0.1031
22566WAT     H192069   4.179   9.677   4.237  1.0340  0.1860  0.4508
22566WAT     H292070   4.304   9.602   4.278 -0.7182 -0.9694  4.1057
22566WAT    EPW92071   4.218   9.604   4.264 -0.2890 -0.5178  0.5250
22567WAT      O92072   3.402   7.393   4.621 -0.0211  0.5626 -0.4317
22567WAT     H192073   3.399   7.301   4.593 -0.5529  0.0202  1.2484
22567WAT     H292074   3.495   7.411   4.633  0.0684  0.0806 -0.3500
22567WAT    EPW92075   3.414   7.383   4.619 -0.0794  0.4275 -0.1993
22568WAT      O92076   5.213   2.935   1.145 -0.3311 -0.1013  0.5773
22568WAT     H192077   5.227   2.953   1.238 -4.4198  0.5158  1.2674
22568WAT     H292078   5.164   3.011   1.114  0.4578 -0.5565 -2.0156
22568WAT    EPW92079   5.209   2.948   1.153 -0.7665 -0.0801  0.3263
22569WAT      O92080   4.502   5.308   6.197  0.1435  0.1357 -0.6972
22569WAT     H192081   4.468   5.365   6.128  0.6926  1.5238  0.1186
22569WAT     H292082   4.596   5.325   6.198  0.1841 -0.0631  0.1853
22569WAT    EPW92083   4.510   5.318   6.188  0.2215  0.2925 -0.4730
22570WAT      O92084   3.123   5.846   4.334 -0.2298 -0.2441 -0.5769
22570WAT     H192085   3.142   5.781   4.267 -0.2046 -0.2740 -0.5408
22570WAT     H292086   3.186   5.916   4.318 -0.3072 -0.1942 -0.6636
22570WAT    EPW92087   3.134   5.846   4.323 -0.2366 -0.2413 -0.5836
22571WAT      O92088   5.749   7.809   5.593  0.3678  0.2761  0.1597
22571WAT     H192089   5.671   7.865   5.593 -3.5094 -4.4085 -1.1011
22571WAT     H292090   5.786   7.818   5.505 -1.3104 -0.3188 -0.6522
22571WAT    EPW92091   5.743   7.817   5.582 -0.3648 -0.4203 -0.1135
22572WAT      O92092   4.805   9.104   5.082 -0.5089  0.4797 -0.6744
22572WAT     H192093   4.808   9.018   5.125  2.0189  0.6197 -0.4446
22572WAT     H292094   4.864   9.159   5.133  2.9351  0.5933 -4.2657
22572WAT    EPW92095   4.813   9.100   5.094  0.2789  0.5140 -1.1177
22573WAT      O92096   5.581   4.162   1.505 -0.1061  0.6892  0.0056
22573WAT     H192097   5.648   4.096   1.521  0.1756  1.1514  0.7995
22573WAT     H292098   5.549   4.143   1.417  1.6142  0.9274 -0.7153
22573WAT    EPW92099   5.585   4.151   1.496  0.1581  0.7813  0.0152
22574WAT      O92100   7.463   6.674   4.489  1.0401 -0.2103 -0.2831
22574WAT     H192101   7.537   6.718   4.533  2.3241 -1.2179 -1.3336
22574WAT     H292102   7.392   6.738   4.491  1.9172  0.7752  0.8277
22574WAT    EPW92103   7.464   6.689   4.495  1.3251 -0.2129 -0.2754
22575WAT      O92104   2.953   6.058   3.138  0.2454  0.1052  0.5873
22575WAT     H192105   2.978   5.997   3.207 -5.4599  0.3856  3.4712
22575WAT     H292106   2.868   6.027   3.108 -1.4626  4.7596 -0.1627
22575WAT    EPW92107   2.945   6.046   3.143 -0.7325  0.7560  0.8687
22576WAT      O92108   5.655   5.301   4.580 -0.1071 -0.1135 -0.1148
22576WAT     H192109   5.733   5.355   4.587  1.4364 -2.2925  0.6609
22576WAT     H292110   5.689   5.211   4.578 -2.6740 -1.3429  3.0318
22576WAT    EPW92111   5.670   5.296   4.580 -0.2420 -0.5631  0.4025
22577WAT      O92112   5.139   7.173   4.807  0.0680  0.2167  0.1251
22577WAT     H192113   5.088   7.097   4.835 -1.1375  0.7722 -0.4764
22577WAT     H292114   5.097   7.247   4.852 -0.9645  0.9300 -1.8820
22577WAT    EPW92115   5.126   7.173   4.816 -0.2275  0.3841 -0.2189
22578WAT      O92116   3.902   6.767   3.694  0.0955  1.6432 -0.4529
22578WAT     H192117   3.881   6.745   3.785  1.4672  1.2291 -0.2057
22578WAT     H292118   3.914   6.682   3.652 -1.7644  1.7837 -1.3799
22578WAT    EPW92119   3.901   6.753   3.701  0.0310  1.6072 -0.5425
22579WAT      O92120   4.822   6.558   3.264 -0.2550 -0.0820  0.9841
22579WAT     H192121   4.763   6.515   3.325 -0.7311  0.2356  0.7514
22579WAT     H292122   4.843   6.642   3.306 -2.1087  0.9981 -0.1225
22579WAT    EPW92123   4.817   6.563   3.278 -0.5624  0.1025  0.8075
22580WAT      O92124   3.576   5.545   3.800 -0.4293 -0.0528  0.0044
22580WAT     H192125   3.622   5.501   3.728 -1.0076  1.5087 -1.3634
22580WAT     H292126   3.491   5.500   3.805 -0.1469 -0.5802  0.1502
22580WAT    EPW92127   3.571   5.533   3.791 -0.4683  0.0837 -0.1569
22581WAT      O92128   4.214   8.235   3.928  0.5114  0.4445 -0.1759
22581WAT     H192129   4.163   8.269   3.855 -0.6726 -0.4840  0.1704
22581WAT     H292130   4.220   8.141   3.911 -2.4483 -0.3835  2.3351
22581WAT    EPW92131   4.208   8.227   3.916 -0.0350  0.2127  0.2009
22582WAT      O92132   8.826   7.946   2.832  0.2127  0.1395 -0.5072
22582WAT     H192133   8.765   7.970   2.762 -0.5510  0.5676  0.2927
22582WAT     H292134   8.882   8.022   2.843 -1.1420  0.9942  0.8888
22582WAT    EPW92135   8.826   7.959   2.824 -0.0668  0.3090 -0.2174
22583WAT      O92136   4.676   6.202   4.501 -0.7141  0.1271  0.3512
22583WAT     H192137   4.714   6.289   4.515 -0.2454  0.0288 -0.2464
22583WAT     H292138   4.684   6.158   4.586  0.5622  0.1028  0.2451
22583WAT    EPW92139   4.682   6.207   4.514 -0.4840  0.1109  0.2584
22584WAT      O92140   3.788   6.599   5.645  1.1319 -0.9127  0.3324
22584WAT     H192141   3.869   6.606   5.595 -0.4367 -2.8523 -2.8140
22584WAT     H292142   3.784   6.508   5.673 -0.7183 -1.3798 -1.2011
22584WAT    EPW92143   3.798   6.588   5.642  0.6809 -1.2302 -0.2844
22585WAT      O92144   4.613   6.077   3.616  0.7093  0.4798 -0.2393
22585WAT     H192145   4.639   5.985   3.628  0.1577  0.2781 -0.5322
22585WAT     H292146   4.690   6.118   3.576  1.6997  0.6240  1.7182
22585WAT    EPW92147   4.627   6.070   3.612  0.7670  0.4725 -0.0197
22586WAT      O92148   5.137   9.440   4.917 -0.2488  0.2345  0.3129
22586WAT     H192149   5.044   9.448   4.898 -0.5605 -2.0605  0.6522
22586WAT     H292150   5.179   9.489   4.846 -1.6896  2.2856  0.7891
22586WAT    EPW92151   5.130   9.448   4.905 -0.4799  0.2022  0.4206
22587WAT      O92152   4.905   6.534   7.614 -1.1236  0.4550 -0.2224
22587WAT     H192153   4.974   6.583   7.571  0.3767 -0.0403  1.4812
22587WAT     H292154   4.866   6.480   7.545  0.9159 -0.0450 -1.0433
22587WAT    EPW92155   4.909   6.533   7.599 -0.6566  0.3238 -0.1059
22588WAT      O92156   4.584   3.904   4.775 -0.4668 -0.1443 -0.0761
22588WAT     H192157   4.545   3.885   4.689 -0.9767  0.8958 -0.0911
22588WAT     H292158   4.512   3.894   4.837 -0.2202 -0.3894  0.1743
22588WAT    EPW92159   4.569   3.900   4.772 -0.5019 -0.0395 -0.0448
22589WAT      O92160   2.091   7.211   4.603 -0.1244  0.2501 -0.2009
22589WAT     H192161   2.160   7.210   4.537 -0.8146  0.2195 -0.9275
22589WAT     H292162   2.010   7.196   4.554 -0.9215  2.5229  0.3220
22589WAT    EPW92163   2.089   7.209   4.588 -0.3204  0.5462 -0.2279
22590WAT      O92164   1.646   4.882   5.634 -0.5964  0.3733 -0.5728
22590WAT     H192165   1.613   4.797   5.605  0.6330 -0.1831 -0.4069
22590WAT     H292166   1.636   4.939   5.558  1.8755 -0.8679 -1.9255
22590WAT    EPW92167   1.640   4.879   5.620 -0.1083  0.1364 -0.7291
22591WAT      O92168   2.885   6.739   3.223  0.0582  0.1348  0.0414
22591WAT     H192169   2.889   6.764   3.316 -1.3062  1.6059 -0.2494
22591WAT     H292170   2.880   6.644   3.225 -1.7279  0.1889  1.5998
22591WAT    EPW92171   2.885   6.730   3.236 -0.3574  0.3359  0.2087
22592WAT      O92172   7.308   7.374   5.456  0.7698  0.4429 -0.5863
22592WAT     H192173   7.321   7.356   5.363 -1.0651  1.7831 -1.1580
22592WAT     H292174   7.244   7.309   5.485  0.3395  0.8559 -0.6018
22592WAT    EPW92175   7.301   7.363   5.447  0.4709  0.6740 -0.6638
22593WAT      O92176   3.013   9.033   4.069  0.0526 -0.0061  0.6911
22593WAT     H192177   2.941   8.971   4.083  0.8410 -0.7218  1.7848
22593WAT     H292178   3.048   9.047   4.157  0.6464  1.0775  0.2906
22593WAT    EPW92179   3.008   9.027   4.083  0.2350  0.0429  0.7823
22594WAT      O92180   2.231   5.677   4.779  0.1535 -0.2640 -0.4460
22594WAT     H192181   2.278   5.746   4.733  0.5322 -0.6546 -0.6493
22594WAT     H292182   2.178   5.635   4.712 -1.3060  0.8301 -0.0393
22594WAT    EPW92183   2.230   5.680   4.764  0.0111 -0.1714 -0.4191
22595WAT      O92184   2.576   5.268   3.279  0.1694  0.3799  0.2223
22595WAT     H192185   2.633   5.339   3.310 -0.5148  0.6663  0.8543
22595WAT     H292186   2.553   5.220   3.359 -0.4980  0.2863 -0.0223
22595WAT    EPW92187   2.580   5.271   3.294 -0.0088  0.4053  0.2735
22596WAT      O92188   4.107   4.669   4.212  0.4067  0.2142 -0.0559
22596WAT     H192189   4.044   4.741   4.203  3.0386  2.5517 -1.0700
22596WAT     H292190   4.114   4.655   4.306 -0.5381  0.9028  0.1383
22596WAT    EPW92191   4.099   4.676   4.223  0.6292  0.6132 -0.1640
22597WAT      O92192   4.324   6.081   6.806  0.2462 -0.8623 -0.5305
22597WAT     H192193   4.281   6.012   6.857 -1.2308 -0.1081 -0.6878
22597WAT     H292194   4.258   6.150   6.800  2.8123  2.1836  2.6621
22597WAT    EPW92195   4.309   6.081   6.812  0.3901 -0.3612 -0.1302
22598WAT      O92196   5.187   8.975   2.629  0.6034  0.1664  0.7041
22598WAT     H192197   5.151   9.063   2.632  0.5950  0.5917 -4.4633
22598WAT     H292198   5.279   8.987   2.607 -0.1188 -0.9112 -3.6904
22598WAT    EPW92199   5.194   8.988   2.627  0.5071  0.0801 -0.5572
22599WAT      O92200   4.431   7.147   5.647 -0.3431 -0.5468  0.1367
22599WAT     H192201   4.418   7.105   5.732 -0.3633 -1.3498 -0.2478
22599WAT     H292202   4.526   7.149   5.636 -0.2491  1.3238  1.0156
22599WAT    EPW92203   4.442   7.142   5.657 -0.3335 -0.4063  0.2017
22600WAT      O92204   5.912   8.814   4.041  0.2232  0.4460 -0.0550
22600WAT     H192205   5.950   8.750   4.102  0.8419  0.2087 -0.6857
22600WAT     H292206   5.818   8.809   4.058  0.4151  0.7953  1.2922
22600WAT    EPW92207   5.905   8.805   4.052  0.3300  0.4606  0.0396
22601WAT      O92208   4.141   3.558   2.823 -0.5013  0.2911  0.0960
22601WAT     H192209   4.048   3.539   2.820 -0.2222 -1.1468 -0.6437
22601WAT     H292210   4.179   3.504   2.753  0.5461  2.9891 -1.5542
22601WAT    EPW92211   4.134   3.548   2.813 -0.3262  0.4572 -0.2193
22602WAT      O92212   2.901   6.834   3.498  0.5280  0.9185 -0.7200
22602WAT     H192213   2.948   6.793   3.570  1.2490  1.0946 -1.0826
22602WAT     H292214   2.814   6.853   3.534  1.3852  2.5288  0.6588
22602WAT    EPW92215   2.896   6.831   3.512  0.7362  1.1539 -0.5860
22603WAT      O92216   1.881   6.447   2.578  0.3482 -0.9117 -0.0705
22603WAT     H192217   1.948   6.379   2.590  0.0237 -1.9660 -3.2917
22603WAT     H292218   1.864   6.447   2.484 -3.1239  0.3649  0.4346
22603WAT    EPW92219   1.888   6.438   2.567 -0.1526 -0.8826 -0.4288
22604WAT      O92220   8.051   0.731   7.458 -0.0479 -0.2827 -0.6064
22604WAT     H192221   8.136   0.751   7.420  1.3730 -0.7009  2.1317
22604WAT     H292222   8.038   0.637   7.441  0.0421 -0.2205 -1.0110
22604WAT    EPW92223   8.060   0.721   7.451  0.1512 -0.3296 -0.2987
22605WAT      O92224   4.377   5.427   5.230  0.1956 -0.9293 -0.1272
22605WAT     H192225   4.439   5.433   5.157 -1.9633 -0.5231 -2.0486
22605WAT     H292226   4.293   5.405   5.189 -0.9728 -1.4748  2.3475
22605WAT    EPW92227   4.374   5.425   5.215 -0.2432 -0.9480 -0.0544
22606WAT      O92228   3.105   5.168   3.207  0.2073  0.3953 -0.0817
22606WAT     H192229   3.067   5.100   3.262  0.1746  0.5896  0.1399
22606WAT     H292230   3.041   5.239   3.210  1.0262  1.1187  1.1011
22606WAT    EPW92231   3.091   5.168   3.215  0.3110  0.5159  0.1036
22607WAT      O92232   3.621   6.775   4.808 -0.1552 -0.7267  0.2507
22607WAT     H192233   3.624   6.690   4.852  0.1073 -0.6136  0.4517
22607WAT     H292234   3.529   6.788   4.787 -0.0095 -1.8051 -1.2293
22607WAT    EPW92235   3.610   6.766   4.811 -0.1013 -0.8538  0.0820
22608WAT      O92236   4.401   3.551   4.884  0.0207 -0.0187  0.0338
22608WAT     H192237   4.358   3.517   4.805 -0.3889 -2.0912  1.0939
22608WAT     H292238   4.491   3.518   4.877  0.2986  0.7313 -0.0745
22608WAT    EPW92239   4.407   3.542   4.872  0.0033 -0.1931  0.1590
22609WAT      O92240   3.170   7.848   2.585  0.2390 -0.3706 -0.0340
22609WAT     H192241   3.124   7.778   2.539  0.6231 -0.8670  0.3244
22609WAT     H292242   3.195   7.910   2.516  0.0374 -0.6634 -0.3755
22609WAT    EPW92243   3.167   7.847   2.570  0.2631 -0.4749 -0.0318
22610WAT      O92244   3.775   8.218   6.115  0.5288 -0.5079 -0.5100
22610WAT     H192245   3.802   8.292   6.169 -0.2853 -0.5634 -0.0165
22610WAT     H292246   3.772   8.144   6.175 -3.8645  0.1019  0.2957
22610WAT    EPW92247   3.778   8.218   6.130 -0.1581 -0.4344 -0.3386
22611WAT      O92248   5.710   8.004   4.589 -0.1647 -0.1088  0.4789
22611WAT     H192249   5.699   7.909   4.598  1.3656 -0.4067 -0.4728
22611WAT     H292250   5.714   8.036   4.679  1.7278 -1.2800  0.8597
22611WAT    EPW92251   5.709   7.995   4.602  0.2866 -0.3021  0.4034
22612WAT      O92252   6.057   8.821   2.403  0.1253  0.3046 -0.7991
22612WAT     H192253   6.132   8.880   2.411  0.8763 -0.7247 -0.0146
22612WAT     H292254   6.057   8.771   2.484 -1.7170  0.6080 -0.5596
22612WAT    EPW92255   6.067   8.822   2.415 -0.0184  0.2089 -0.6640
22613WAT      O92256   4.910   6.014   1.962 -0.1186  0.0831 -0.5279
22613WAT     H192257   4.860   5.969   1.893 -2.3071  0.5221  0.6673
22613WAT     H292258   4.851   6.015   2.037  1.5216  1.1701  0.8160
22613WAT    EPW92259   4.895   6.008   1.963 -0.1912  0.2844 -0.1930
22614WAT      O92260   2.964   5.709   5.449  0.4167  0.5050  0.1278
22614WAT     H192261   2.942   5.766   5.375  0.8252 -0.7914 -1.0311
22614WAT     H292262   3.047   5.743   5.482  0.3562  0.9421 -0.1617
22614WAT    EPW92263   2.972   5.721   5.444  0.4625  0.3917 -0.0632
22615WAT      O92264   5.650   4.631   5.319 -0.0502 -0.2221  0.0343
22615WAT     H192265   5.630   4.543   5.350 -0.7197 -1.1420 -2.8005
22615WAT     H292266   5.691   4.674   5.395 -0.5826 -2.6106  1.7873
22615WAT    EPW92267   5.652   4.625   5.333 -0.2089 -0.6585 -0.1082
22616WAT      O92268   5.033   6.357   1.214  0.4348  0.7799 -0.1734
22616WAT     H192269   4.995   6.420   1.275  0.4097 -0.6439  1.3514
22616WAT     H292270   5.024   6.398   1.128 -1.2815  2.0115  0.5451
22616WAT    EPW92271   5.027   6.371   1.211  0.2053  0.7546  0.1225
22617WAT      O92272   4.379   5.434   5.984  0.3899 -0.1358  0.5300
22617WAT     H192273   4.396   5.527   5.975  0.4365  0.0251  2.0847
22617WAT     H292274   4.283   5.427   5.990  0.3851 -0.1898  0.3971
22617WAT    EPW92275   4.368   5.445   5.984  0.3955 -0.1218  0.7174
22618WAT      O92276   2.983   4.882   2.707  0.6011  0.1094  0.2918
22618WAT     H192277   2.960   4.799   2.748 -0.5482 -0.5735 -1.6174
22618WAT     H292278   3.074   4.871   2.679  0.3410 -0.6559 -0.2663
22618WAT    EPW92279   2.992   4.870   2.708  0.4151 -0.0818 -0.0336
22619WAT      O92280   6.492   9.322   1.568 -0.1894  0.5001  0.3916
22619WAT     H192281   6.484   9.231   1.598  1.3703  0.4680  0.7994
22619WAT     H292282   6.408   9.341   1.526 -0.7888 -0.9063  0.8936
22619WAT    EPW92283   6.480   9.312   1.566 -0.0629  0.3099  0.5116
22620WAT      O92284   3.488   7.607   1.223  0.6203  0.7910  0.8076
22620WAT     H192285   3.409   7.575   1.179  0.4082  1.7065  0.4983
22620WAT     H292286   3.553   7.537   1.209  0.4145  0.8372 -0.5482
22620WAT    EPW92287   3.486   7.593   1.215  0.5652  0.9179  0.5880
22621WAT      O92288   4.867  10.286   6.882  1.0410  0.3921  0.7804
22621WAT     H192289   4.821  10.369   6.869  1.1609  0.8804  3.0682
22621WAT     H292290   4.798  10.222   6.895  0.9750  0.3417  0.2276
22621WAT    EPW92291   4.852  10.289   6.882  1.0481  0.4497  1.0095
22622WAT      O92292   3.681   3.048   4.004  0.2445  0.8769  0.3456
22622WAT     H192293   3.729   3.057   4.086 -0.9540  1.2114  1.0323
22622WAT     H292294   3.711   3.122   3.950 -1.4414  2.7166  1.7953
22622WAT    EPW92295   3.692   3.059   4.007 -0.1358  1.1636  0.6273
22623WAT      O92296   4.211   5.597   3.461 -0.2403  0.2808 -0.8667
22623WAT     H192297   4.230   5.632   3.374  1.2177  1.6510 -0.0614
22623WAT     H292298   4.298   5.581   3.499 -0.8535 -0.2531  0.3560
22623WAT    EPW92299   4.225   5.599   3.454 -0.1290  0.3912 -0.5993
22624WAT      O92300   3.333   5.713   6.164 -0.2994 -0.6980 -0.4890
22624WAT     H192301   3.254   5.715   6.218  1.3679  1.9670  2.1899
22624WAT     H292302   3.374   5.629   6.185 -0.2255 -0.1779  1.7531
22624WAT    EPW92303   3.328   5.702   6.174 -0.0696 -0.2780  0.1602
22625WAT      O92304   4.457   9.106   5.374  0.0676  0.2031  0.2785
22625WAT     H192305   4.547   9.091   5.404  0.6841  2.1385 -0.4619
22625WAT     H292306   4.463   9.102   5.278 -0.9942 -1.3065  0.2267
22625WAT    EPW92307   4.470   9.103   5.365  0.0086  0.2594  0.1743
22626WAT      O92308   5.520   9.334   4.701 -0.8139  0.1053  0.2357
22626WAT     H192309   5.567   9.359   4.781 -2.3514 -0.6142  1.4165
22626WAT     H292310   5.437   9.382   4.707 -1.4228 -0.8570 -0.3327
22626WAT    EPW92311   5.515   9.344   4.713 -1.0967 -0.1168  0.3164
22627WAT      O92312   8.445   8.547   4.885  0.2678 -0.3804  0.2605
22627WAT     H192313   8.429   8.626   4.936  0.6661 -0.2700  0.2227
22627WAT     H292314   8.532   8.519   4.912  0.2903 -0.5829 -0.0149
22627WAT    EPW92315   8.454   8.554   4.895  0.3233 -0.3929  0.2193
22628WAT      O92316   7.424   6.478   3.170 -0.1511  0.0045  0.1443
22628WAT     H192317   7.464   6.414   3.230  0.6404 -0.4893 -0.8819
22628WAT     H292318   7.380   6.540   3.228  0.4423 -0.5591  1.2355
22628WAT    EPW92319   7.423   6.478   3.186  0.0317 -0.1352  0.1529
22629WAT      O92320   8.852   1.042   4.438 -0.2413  0.2926  0.5960
22629WAT     H192321   8.923   1.032   4.375 -3.0079 -0.4477 -2.6993
22629WAT     H292322   8.855   1.135   4.462  0.6425  0.7303 -1.0283
22629WAT    EPW92323   8.862   1.053   4.433 -0.4897  0.2527 -0.0527
22630WAT      O92324   5.549   6.750   3.298  0.3217  0.2356  0.0780
22630WAT     H192325   5.456   6.772   3.303 -0.0413 -0.4211 -2.5028
22630WAT     H292326   5.573   6.766   3.207  2.3149 -1.2194  0.2793
22630WAT    EPW92327   5.540   6.755   3.287  0.5364 -0.0432 -0.2359
22631WAT      O92328   1.409   9.559   2.500 -0.2164  0.3354  0.2112
22631WAT     H192329   1.474   9.607   2.450 -0.8370 -0.5168 -1.4775
22631WAT     H292330   1.336   9.621   2.510 -0.6921  0.0530 -1.2661
22631WAT    EPW92331   1.408   9.574   2.495 -0.3610  0.1860 -0.2064
22632WAT      O92332   8.356   7.435   3.481  0.2908 -0.4080  0.2170
22632WAT     H192333   8.330   7.352   3.521  0.1941  1.3363  4.2013
22632WAT     H292334   8.427   7.412   3.422 -0.3377 -3.4037  0.4722
22632WAT    EPW92335   8.362   7.421   3.478  0.1950 -0.5729  0.7762
22633WAT      O92336   6.546   9.948   4.423  0.4401 -0.8419 -0.2583
22633WAT     H192337   6.527   9.866   4.467 -1.1459 -0.6304 -0.4839
22633WAT     H292338   6.466   9.969   4.375  0.2273  1.5906  0.9781
22633WAT    EPW92339   6.533   9.940   4.422  0.2029 -0.4930 -0.1249
22634WAT      O92340   9.801   1.027   3.887  1.2550  0.8308 -0.6671
22634WAT     H192341   9.726   1.063   3.934  0.8619 -1.1788  0.3360
22634WAT     H292342   9.831   0.954   3.941  0.9829 -1.3941 -3.3169
22634WAT    EPW92343   9.795   1.023   3.900  1.1673  0.2723 -0.8843
22635WAT      O92344   8.391   8.959   3.119 -0.1516  0.4981 -0.0565
22635WAT     H192345   8.305   8.973   3.080  0.2877  0.2482 -1.1280
22635WAT     H292346   8.374   8.895   3.188 -0.9138  0.8678  0.1210
22635WAT    EPW92347   8.377   8.952   3.123 -0.1936  0.5145 -0.1744
22636WAT      O92348  10.043   2.232   0.845 -0.7500  0.6698  0.2957
22636WAT     H192349  10.024   2.146   0.808  0.4291  0.8683 -0.8454
22636WAT     H292350  10.029   2.293   0.773  0.3838  1.2125  0.5079
22636WAT    EPW92351  10.038   2.229   0.831 -0.4444  0.7677  0.1732
22637WAT      O92352   6.579   8.982   3.335  0.3437 -0.5003  0.1701
22637WAT     H192353   6.644   9.043   3.301  1.5612 -2.0045 -0.3541
22637WAT     H292354   6.582   8.995   3.430  0.3757  0.4208  0.0518
22637WAT    EPW92355   6.588   8.992   3.343  0.5088 -0.5774  0.0854
22638WAT      O92356   6.978   6.590   7.273 -0.4456  0.1198  0.0244
22638WAT     H192357   6.997   6.498   7.253  2.1527  0.9007 -1.6158
22638WAT     H292358   6.991   6.597   7.367 -0.1000 -1.0642  0.0839
22638WAT    EPW92359   6.982   6.579   7.283 -0.0572  0.0665 -0.1841
22639WAT      O92360   2.981   5.924   6.887  0.1400  0.3316  0.1836
22639WAT     H192361   2.908   5.907   6.827 -1.1537  1.0404  1.5062
22639WAT     H292362   3.054   5.877   6.848 -1.6309 -2.7287  0.2059
22639WAT    EPW92363   2.981   5.916   6.874 -0.2642  0.0215  0.3607
22640WAT      O92364   6.612   8.336   5.977  0.0401 -0.3503  0.4629
22640WAT     H192365   6.541   8.328   6.041 -0.2645  3.4579  0.8331
22640WAT     H292366   6.567   8.339   5.892  0.1667 -1.8099  0.3089
22640WAT    EPW92367   6.596   8.335   5.974  0.0167 -0.0401  0.4916
22641WAT      O92368   2.602   1.327   0.395  0.7006 -0.3946 -0.1365
22641WAT     H192369   2.645   1.256   0.444 -1.3566  0.0268  2.5495
22641WAT     H292370   2.537   1.282   0.340 -1.0575 -0.7175  2.0443
22641WAT    EPW92371   2.599   1.311   0.394  0.1974 -0.3816  0.5054
22642WAT      O92372   6.078   5.310   3.078  0.5732 -0.3494  1.0841
22642WAT     H192373   6.158   5.313   3.131  0.6627  0.8717  0.8989
22642WAT     H292374   6.102   5.257   3.002  0.5139 -1.9214  2.1001
22642WAT    EPW92375   6.092   5.303   3.075  0.5770 -0.3955  1.1938
22643WAT      O92376   5.910   7.079   3.944  1.1641 -0.0273  0.1565
22643WAT     H192377   5.908   7.019   4.018  1.0434 -1.1723 -0.7546
22643WAT     H292378   5.867   7.158   3.977 -0.9059 -1.2837  0.6595
22643WAT    EPW92379   5.904   7.082   3.958  0.8750 -0.3440  0.1026
22644WAT      O92380   5.295   9.705   3.690 -0.2043 -0.1159  0.1429
22644WAT     H192381   5.337   9.718   3.606  1.2706  1.0194  1.0236
22644WAT     H292382   5.364   9.716   3.754 -1.1875 -1.4340  1.5206
22644WAT    EPW92383   5.309   9.708   3.687 -0.1395 -0.1397  0.4407
22645WAT      O92384   8.017   8.964   4.475 -0.2137  0.3744  0.3630
22645WAT     H192385   8.011   9.051   4.436 -0.2790  1.0723  1.8845
22645WAT     H292386   7.929   8.927   4.466 -0.5461  1.0125  0.9315
22645WAT    EPW92387   8.005   8.971   4.469 -0.2661  0.5503  0.6382
22646WAT      O92388   5.424   8.435   4.717  0.1173 -0.0171 -0.1950
22646WAT     H192389   5.499   8.411   4.661  0.9977  2.1155 -0.0124
22646WAT     H292390   5.401   8.524   4.690 -2.4937 -0.6466 -0.3319
22646WAT    EPW92391   5.431   8.443   4.706 -0.1109  0.1807 -0.1891
22647WAT      O92392   5.755   9.146   5.141  0.1799  0.1031 -0.3050
22647WAT     H192393   5.813   9.221   5.136  0.5921 -0.3029 -2.1366
22647WAT     H292394   5.670   9.183   5.164  0.5204  1.0418 -0.5387
22647WAT    EPW92395   5.751   9.161   5.144  0.2789  0.1740 -0.5774
22648WAT      O92396   0.725   0.713   0.908 -0.1220  0.5402 -0.2129
22648WAT     H192397   0.775   0.664   0.973 -1.2079  0.3006  0.4651
22648WAT     H292398   0.792   0.759   0.857  0.8634 -0.6993 -0.1147
22648WAT    EPW92399   0.741   0.712   0.909 -0.1352  0.3451 -0.1105
22649WAT      O92400   7.608   7.068   0.964  0.3526  0.4173  0.0509
22649WAT     H192401   7.515   7.090   0.963  0.1559 -0.3665 -1.3462
22649WAT     H292402   7.640   7.094   0.878  1.6809  1.6029  0.8572
22649WAT    EPW92403   7.600   7.074   0.952  0.5019  0.4706 -0.0271
22650WAT      O92404   2.923   9.849   3.052  0.5163  0.0405 -0.2529
22650WAT     H192405   2.842   9.804   3.029 -0.5069  1.3747  0.5551
22650WAT     H292406   2.978   9.842   2.974 -0.3851 -0.8520 -0.8330
22650WAT    EPW92407   2.919   9.842   3.039  0.2624  0.0987 -0.2228
22651WAT      O92408   5.749   7.370   1.873 -0.7018 -0.2089  0.3279
22651WAT     H192409   5.716   7.315   1.944 -0.7427 -0.2128  0.3061
22651WAT     H292410   5.840   7.345   1.862 -0.3206  0.7196  1.2779
22651WAT    EPW92411   5.756   7.360   1.881 -0.6568 -0.0868  0.4503
22652WAT      O92412   4.692   9.035   3.831 -0.1153  0.3285 -0.5012
22652WAT     H192413   4.637   9.095   3.881 -0.2481 -0.7103  0.6615
22652WAT     H292414   4.658   8.948   3.854  2.7884 -0.4621  1.3170
22652WAT    EPW92415   4.680   9.031   3.841  0.2499  0.0868 -0.1081
22653WAT      O92416   2.021   0.339   2.847 -0.2507  0.5421 -0.0613
22653WAT     H192417   1.926   0.342   2.860 -0.2016 -0.1770  0.5527
22653WAT     H292418   2.032   0.344   2.752 -1.0761 -2.0478 -0.3947
22653WAT    EPW92419   2.010   0.340   2.836 -0.3532  0.1057 -0.0242
22654WAT      O92420   2.636   7.282   6.315 -0.4484 -0.2331 -0.1132
22654WAT     H192421   2.658   7.324   6.398 -2.9227 -2.3091  1.7383
22654WAT     H292422   2.720   7.272   6.270  1.3072 -0.8151  3.0241
22654WAT    EPW92423   2.650   7.286   6.320 -0.5432 -0.5836  0.5448
22655WAT      O92424   2.422   3.161   8.932  0.1713  0.2264  0.2158
22655WAT     H192425   2.461   3.248   8.923  0.4626 -0.1215 -3.5010
22655WAT     H292426   2.487   3.110   8.981  0.5761  1.7124  1.2935
22655WAT    EPW92427   2.435   3.166   8.937  0.2632  0.3765 -0.1321
22656WAT      O92428   5.206   8.017   3.360 -0.4401  0.0608  0.3415
22656WAT     H192429   5.166   8.017   3.273  1.3293 -1.3669 -0.5507
22656WAT     H292430   5.132   8.008   3.420 -1.5043 -3.2704 -1.2412
22656WAT    EPW92431   5.191   8.016   3.356 -0.3469 -0.5670  0.0151
22657WAT      O92432   5.462   7.633   4.728  0.1624 -0.2043 -0.4297
22657WAT     H192433   5.404   7.619   4.654 -0.2386 -0.0729 -0.1440
22657WAT     H292434   5.546   7.595   4.701  0.5273  1.3311 -1.6335
22657WAT    EPW92435   5.466   7.626   4.715  0.1576  0.0157 -0.5507
22658WAT      O92436   6.465   0.425   0.774 -0.3212  0.0528  0.2251
22658WAT     H192437   6.475   0.505   0.723  2.6999 -0.3588 -0.0332
22658WAT     H292438   6.536   0.428   0.838  0.4265 -2.7140 -0.3194
22658WAT    EPW92439   6.476   0.436   0.775  0.1760 -0.3664  0.1192
22659WAT      O92440   8.819   5.800   6.137  0.2329 -0.6179 -0.1372
22659WAT     H192441   8.913   5.786   6.135  0.3233 -0.0455 -0.2799
22659WAT     H292442   8.793   5.805   6.045  0.3334  0.8244 -0.1135
22659WAT    EPW92443   8.828   5.799   6.124  0.2580 -0.3519 -0.1528
22660WAT      O92444   3.229   7.435   6.241  0.1885 -0.3927  0.3208
22660WAT     H192445   3.192   7.514   6.200  3.9657 -0.0821 -3.1243
22660WAT     H292446   3.270   7.467   6.321 -0.9334  0.5043  0.5651
22660WAT    EPW92447   3.229   7.450   6.246  0.5387 -0.2332 -0.1013
22661WAT      O92448   5.394   8.595   5.504  0.6086 -0.2364 -0.1120
22661WAT     H192449   5.404   8.666   5.567 -1.6001  0.4303 -0.4506
22661WAT     H292450   5.449   8.621   5.430 -1.1439  1.8618 -0.7896
22661WAT    EPW92451   5.403   8.608   5.503  0.0861  0.1278 -0.2458
22662WAT      O92452   8.669   7.135   5.092  0.0988 -1.1608  0.3185
22662WAT     H192453   8.637   7.171   5.009  1.2264 -0.9098 -0.0299
22662WAT     H292454   8.745   7.083   5.067  0.0951 -1.5703  1.1406
22662WAT    EPW92455   8.675   7.133   5.078  0.2470 -1.1816  0.3812
22663WAT      O92456   6.003   6.392   5.600  0.2180 -0.6154 -0.0723
22663WAT     H192457   6.015   6.474   5.647  0.8935 -1.0204  0.4919
22663WAT     H292458   5.943   6.341   5.654  1.7260 -1.4553  0.8944
22663WAT    EPW92459   5.997   6.396   5.613  0.5062 -0.7796  0.1295
22664WAT      O92460   4.546   9.468   2.713 -0.3688 -0.1237  0.1510
22664WAT     H192461   4.568   9.382   2.675  0.5315  0.6650 -1.2289
22664WAT     H292462   4.531   9.450   2.806  1.8209 -1.4980  0.3215
22664WAT    EPW92463   4.547   9.454   2.720  0.0389 -0.2012 -0.0085
22665WAT      O92464   7.323   6.641   5.612  0.5211 -0.2855 -0.4532
22665WAT     H192465   7.351   6.723   5.652  3.1337 -1.3706  0.1855
22665WAT     H292466   7.266   6.600   5.677 -0.9333  1.0146 -0.8415
22665WAT    EPW92467   7.319   6.647   5.626  0.6735 -0.2573 -0.4201
22666WAT      O92468   6.901   7.964   0.767  0.3508 -0.1084 -0.3036
22666WAT     H192469   6.946   8.046   0.787 -2.4898  2.2332 -2.5629
22666WAT     H292470   6.960   7.918   0.707  2.0009  0.1727  1.0336
22666WAT    EPW92471   6.915   7.969   0.762  0.1941  0.2377 -0.4252
22667WAT      O92472   5.461   5.249   4.750 -0.8639  0.1755  0.2991
22667WAT     H192473   5.535   5.273   4.694  0.7104 -1.3500  1.5836
22667WAT     H292474   5.462   5.153   4.749 -1.9331  0.1359  1.4784
22667WAT    EPW92475   5.471   5.239   4.743 -0.7970 -0.0310  0.6242
22668WAT      O92476   3.190   8.951   3.859 -0.7447 -0.3707  0.9812
22668WAT     H192477   3.155   8.940   3.948 -2.7610 -1.5712  0.1142
22668WAT     H292478   3.173   8.867   3.817  2.2222 -0.5939  0.0717
22668WAT    EPW92479   3.183   8.939   3.865 -0.6192 -0.5584  0.7468
22669WAT      O92480   8.794   0.888   2.294  0.6909  1.3980  0.7160
22669WAT     H192481   8.703   0.906   2.317  0.4522 -1.2583  2.3014
22669WAT     H292482   8.798   0.899   2.199 -1.6637  0.2533  0.4033
22669WAT    EPW92483   8.783   0.892   2.285  0.3486  0.8967  0.8838
22670WAT      O92484   5.044   9.023   3.158  0.0890  0.4335  0.4680
22670WAT     H192485   5.068   8.983   3.075  0.4857  1.3711  0.1195
22670WAT     H292486   5.121   9.074   3.183  0.8873 -1.6298  2.5675
22670WAT    EPW92487   5.057   9.025   3.151  0.2468  0.2851  0.6990
22671WAT      O92488   5.165   8.142   4.343 -0.2320 -0.4948  0.6988
22671WAT     H192489   5.194   8.141   4.435 -0.0766  0.2123  0.6670
22671WAT     H292490   5.073   8.116   4.346 -0.1582 -0.7168  1.0325
22671WAT    EPW92491   5.157   8.139   4.356 -0.2017 -0.4311  0.7386
22672WAT      O92492   2.061   3.284   1.934  0.6701  0.0550 -0.0756
22672WAT     H192493   2.150   3.310   1.958  0.5876 -0.4629  0.8395
22672WAT     H292494   2.016   3.273   2.017  0.3519 -1.7577 -0.4443
22672WAT    EPW92495   2.067   3.286   1.948  0.6173 -0.2524 -0.0036
22673WAT      O92496  10.806   0.827   3.955 -0.1599  0.0315  0.0699
22673WAT     H192497  10.818   0.781   4.038  0.9053 -0.0163 -0.0956
22673WAT     H292498  10.872   0.897   3.957 -0.0592 -0.0316 -0.7775
22673WAT    EPW92499  10.816   0.830   3.966 -0.0067  0.0169 -0.0638
22674WAT      O92500   3.428   5.904   8.251  0.9984  0.5646  0.5097
22674WAT     H192501   3.446   5.941   8.165  2.8313 -0.6888  0.2921
22674WAT     H292502   3.365   5.964   8.291  0.5993  1.5081 -1.4473
22674WAT    EPW92503   3.422   5.917   8.245  1.1874  0.5238  0.2227
22675WAT      O92504   9.245   0.491   2.622 -0.0637 -0.2880  0.2267
22675WAT     H192505   9.229   0.412   2.674  0.6987  0.2905  1.3766
22675WAT     H292506   9.166   0.544   2.634 -0.2345 -0.5190  0.1180
22675WAT    EPW92507   9.232   0.488   2.630  0.0148 -0.2422  0.3639
22676WAT      O92508   6.348   8.371   4.124  0.3147  0.0837 -0.5625
22676WAT     H192509   6.356   8.412   4.037  1.1823 -2.0204 -1.5498
22676WAT     H292510   6.257   8.343   4.128  0.5313 -0.7937 -1.3106
22676WAT    EPW92511   6.337   8.373   4.113  0.4575 -0.3095 -0.7913
22677WAT      O92512   3.188   9.819   5.289  0.6574  0.7677  0.9965
22677WAT     H192513   3.151   9.901   5.320 -0.3488  0.7374 -0.0297
22677WAT     H292514   3.113   9.771   5.253  1.5685  0.3699 -0.4700
22677WAT    EPW92515   3.173   9.824   5.288  0.6448  0.7114  0.6678
22678WAT      O92516   4.098   9.885   6.189 -0.0240 -0.0210  0.1743
22678WAT     H192517   4.127   9.817   6.250  0.4286 -1.4730 -1.5484
22678WAT     H292518   4.143   9.964   6.217 -2.9756  0.5492  4.2474
22678WAT    EPW92519   4.108   9.886   6.200 -0.3533 -0.1369  0.4842
22679WAT      O92520   4.026   7.049   6.068  0.1919  0.5320 -0.0313
22679WAT     H192521   3.974   6.975   6.037 -0.9350 -0.1221  3.1407
22679WAT     H292522   4.113   7.013   6.084 -0.0732  0.1339  0.5221
22679WAT    EPW92523   4.031   7.035   6.066  0.0083  0.3929  0.4601
22680WAT      O92524   5.313   6.258   7.399 -0.4820  0.2043 -0.7323
22680WAT     H192525   5.295   6.164   7.396 -1.9811  0.3861  0.8275
22680WAT     H292526   5.245   6.293   7.457  0.7966  2.0673 -0.2785
22680WAT    EPW92527   5.302   6.250   7.406 -0.5109  0.4740 -0.4668
22681WAT      O92528   3.113   6.073   2.823  0.0964 -0.1034 -0.1247
22681WAT     H192529   3.105   6.153   2.875  4.0814  0.4456 -0.0792
22681WAT     H292530   3.083   6.003   2.882  0.1812  0.9699  1.2449
22681WAT    EPW92531   3.108   6.074   2.838  0.6330  0.1104  0.0619
22682WAT      O92532   5.111   7.426   3.841 -0.1738 -0.4765  0.4591
22682WAT     H192533   5.044   7.450   3.777 -0.8024 -2.6565  0.2031
22682WAT     H292534   5.187   7.400   3.788  0.1245 -0.0787  0.6855
22682WAT    EPW92535   5.112   7.426   3.826 -0.2172 -0.7117  0.4554
22683WAT      O92536   4.269   6.406   4.870  0.1895  0.5669 -0.0275
22683WAT     H192537   4.178   6.384   4.849  0.3250 -0.1960  0.1234
22683WAT     H292538   4.282   6.493   4.835 -0.2271  0.1796 -1.1826
22683WAT    EPW92539   4.259   6.414   4.863  0.1523  0.4151 -0.1602
22684WAT      O92540   6.229   8.952   4.644  0.2345 -0.3091  0.2539
22684WAT     H192541   6.235   8.859   4.665 -2.7673 -0.3352  1.4613
22684WAT     H292542   6.163   8.958   4.576 -1.6592  1.0522  2.0682
22684WAT    EPW92543   6.221   8.941   4.638 -0.4115 -0.1330  0.6523
22685WAT      O92544  10.665   9.658   2.300  0.1949  0.0566 -0.2501
22685WAT     H192545  10.580   9.658   2.343  0.5467  0.8112  0.4685
22685WAT     H292546  10.728   9.641   2.370  0.5868 -1.6561 -0.9501
22685WAT    EPW92547  10.662   9.656   2.315  0.2928 -0.0701 -0.2477
22686WAT      O92548   5.841   8.735   1.246  0.4399  0.7744 -0.1216
22686WAT     H192549   5.852   8.767   1.156  0.7894  0.7534 -0.0889
22686WAT     H292550   5.848   8.640   1.238  1.6685  0.8305  0.0804
22686WAT    EPW92551   5.843   8.727   1.233  0.6483  0.7787 -0.0906
22687WAT      O92552   7.110   6.371   6.891  0.3755  0.0568  0.2540
22687WAT     H192553   7.063   6.297   6.929 -2.1643  0.7894 -1.2110
22687WAT     H292554   7.086   6.445   6.948  3.0521 -0.1746  1.8283
22687WAT    EPW92555   7.100   6.371   6.904  0.3934  0.1228  0.2682
22688WAT      O92556   6.560  10.208   2.981 -0.1042  0.2240  0.2668
22688WAT     H192557   6.504  10.233   3.055  1.7876  0.5600  1.6490
22688WAT     H292558   6.595  10.291   2.949 -0.7476  0.0570 -0.9042
22688WAT    EPW92559   6.557  10.222   2.987  0.0606  0.2460  0.2946
22689WAT      O92560   7.831   6.467   6.053  0.0756 -0.0844  0.3787
22689WAT     H192561   7.918   6.465   6.093  0.6962  1.2686 -0.8115
22689WAT     H292562   7.847   6.452   5.960 -1.2287 -2.0964  0.4231
22689WAT    EPW92563   7.844   6.465   6.046 -0.0148 -0.1712  0.2272
22690WAT      O92564   5.347   9.738   5.281  1.0708 -0.3872  0.4722
22690WAT     H192565   5.324   9.652   5.246  0.7301 -0.0130 -0.2461
22690WAT     H292566   5.274   9.794   5.255  1.3107  0.1265  0.9011
22690WAT    EPW92567   5.334   9.734   5.273  1.0576 -0.2704  0.4342
22691WAT      O92568   4.771   7.747   2.596 -0.3798 -0.3096 -0.4404
22691WAT     H192569   4.804   7.817   2.540 -0.8298  0.8501  0.7041
22691WAT     H292570   4.813   7.667   2.562  3.0132  0.9342  0.4349
22691WAT    EPW92571   4.781   7.745   2.584  0.0086  0.0074 -0.1740
22692WAT      O92572   3.773   8.658   5.954 -0.3158 -0.4518 -0.0164
22692WAT     H192573   3.858   8.616   5.939 -0.7407 -1.5881  0.6833
22692WAT     H292574   3.792   8.728   6.017  0.5101  0.8889 -1.6745
22692WAT    EPW92575   3.787   8.662   5.960 -0.2630 -0.4253 -0.1431
22693WAT      O92576   7.766   9.561   2.306 -0.1592  0.6007 -0.3865
22693WAT     H192577   7.817   9.636   2.277 -1.0062  1.8080  1.0661
22693WAT     H292578   7.718   9.532   2.228  1.6481  0.2815 -1.4360
22693WAT    EPW92579   7.766   9.567   2.292 -0.0322  0.7181 -0.3333
22694WAT      O92580   5.612   0.202   3.379 -0.4139 -0.3582 -1.0187
22694WAT     H192581   5.580   0.124   3.425 -0.6779 -0.2911 -1.0864
22694WAT     H292582   5.574   0.275   3.428 -2.3623 -0.3041 -2.5015
22694WAT    EPW92583   5.603   0.201   3.392 -0.7055 -0.3422 -1.2231
22695WAT      O92584   8.452   0.022   2.457  0.3590  0.5256  0.2270
22695WAT     H192585   8.533  -0.012   2.495  0.1888  2.5257  2.5489
22695WAT     H292586   8.382  -0.013   2.513 -0.6682 -2.0267 -2.3204
22695WAT    EPW92587   8.453   0.013   2.469  0.2012  0.4530  0.1972
22696WAT      O92588   3.836   8.181   4.948 -0.2265 -0.8106  0.2403
22696WAT     H192589   3.899   8.233   4.898  1.0867 -1.3187  1.3164
22696WAT     H292590   3.800   8.119   4.884 -2.2568  1.6541 -1.2292
22696WAT    EPW92591   3.839   8.180   4.933 -0.3210 -0.5527  0.1884
22697WAT      O92592   4.892   9.256   7.101 -0.4979  0.1700 -0.3156
22697WAT     H192593   4.896   9.181   7.042 -0.3917  0.2156 -0.3649
22697WAT     H292594   4.827   9.315   7.061  1.5829  1.5248 -1.9193
22697WAT    EPW92595   4.884   9.254   7.088 -0.2093  0.3548 -0.5336
22698WAT      O92596   7.276   6.640   3.338 -0.3662 -0.3771  0.1328
22698WAT     H192597   7.301   6.713   3.395 -0.6986  0.0499 -0.2681
22698WAT     H292598   7.207   6.595   3.387  1.7087 -2.1037  1.6758
22698WAT    EPW92599   7.270   6.644   3.352 -0.1364 -0.5486  0.2834
22699WAT      O92600   5.785   7.929   2.864  0.3471  1.1436  0.1313
22699WAT     H192601   5.807   7.983   2.788  3.1148 -5.0851 -4.2834
22699WAT     H292602   5.689   7.931   2.868  0.0806  2.0317 -3.4133
22699WAT    EPW92603   5.775   7.937   2.855  0.6771  0.4394 -0.9186
22700WAT      O92604   5.638   7.422   5.815  0.1463 -0.3376 -0.0708
22700WAT     H192605   5.646   7.333   5.781 -0.9988 -0.9951  1.2881
22700WAT     H292606   5.567   7.461   5.764 -0.3069 -0.6889  0.2879
22700WAT    EPW92607   5.630   7.415   5.804 -0.0646 -0.4709  0.1554
22701WAT      O92608   5.973   6.608   5.775  0.2780  0.1203 -0.5037
22701WAT     H192609   5.890   6.629   5.817 -0.7312  1.5042 -2.9767
22701WAT     H292610   6.035   6.670   5.814 -0.1787  0.1073  0.2638
22701WAT    EPW92611   5.971   6.619   5.786  0.0844  0.3011 -0.7286
22702WAT      O92612   2.949   3.097   1.979 -0.9827 -0.9380  0.4890
22702WAT     H192613   3.027   3.069   2.028 -0.1245 -0.9812 -0.8365
22702WAT     H292614   2.881   3.108   2.045  0.1198 -1.0284  1.6701
22702WAT    EPW92615   2.950   3.095   1.994 -0.7240 -0.9556  0.4699
22703WAT      O92616   6.117   9.500   1.002  0.6730  0.8428 -0.4892
22703WAT     H192617   6.038   9.514   1.054  0.2029 -0.9064 -0.6782
22703WAT     H292618   6.188   9.528   1.059  0.0023  1.3281  0.1350
22703WAT    EPW92619   6.116   9.505   1.016  0.5226  0.6762 -0.4319
22704WAT      O92620   4.824   8.135   5.312  0.1420  0.2946  0.1949
22704WAT     H192621   4.842   8.198   5.382 -1.8628 -0.0366  1.0627
22704WAT     H292622   4.767   8.070   5.353  0.9341 -1.2809 -1.1019
22704WAT    EPW92623   4.819   8.135   5.327 -0.0176  0.0429  0.1380
22705WAT      O92624   3.976   6.221   2.306  0.9503  0.3991  0.4070
22705WAT     H192625   4.058   6.172   2.316  0.3195 -0.6025  0.8615
22705WAT     H292626   3.909   6.161   2.339 -0.2269  0.3234 -1.9163
22705WAT    EPW92627   3.978   6.206   2.312  0.7119  0.2570  0.1605
22706WAT      O92628   5.659   5.702   3.610 -0.4707  0.7671  0.3804
22706WAT     H192629   5.687   5.699   3.518 -0.4553 -0.6904  0.4110
22706WAT     H292630   5.623   5.615   3.627 -2.0908  1.5822  1.2669
22706WAT    EPW92631   5.658   5.690   3.600 -0.6824  0.6824  0.5013
22707WAT      O92632   7.496   9.968   3.435 -0.1354 -0.0492  0.4899
22707WAT     H192633   7.419   9.935   3.389 -1.4047 -0.7483  2.9073
22707WAT     H292634   7.567   9.963   3.371 -2.3484  2.1979 -2.3703
22707WAT    EPW92635   7.495   9.963   3.421 -0.5949  0.1554  0.4315
22708WAT      O92636   8.060   8.202   6.007 -0.1904  0.0357  0.5211
22708WAT     H192637   8.112   8.278   6.032 -0.7815  0.7859 -0.4688
22708WAT     H292638   8.031   8.221   5.918  1.9965 -2.5940 -0.9387
22708WAT    EPW92639   8.063   8.214   5.999  0.0200 -0.2122  0.1979
22709WAT      O92640   4.054   1.048   0.976 -0.0948 -0.4126 -0.0077
22709WAT     H192641   4.079   1.031   0.885 -2.0409 -0.4908 -0.5759
22709WAT     H292642   4.005   1.129   0.972  1.2542  0.5071  1.2827
22709WAT    EPW92643   4.051   1.056   0.963 -0.1736 -0.3015  0.0876
22710WAT      O92644   7.897  10.080   3.704 -0.0784 -0.2282  0.5643
22710WAT     H192645   7.806  10.070   3.675  0.1470 -1.5448  0.2515
22710WAT     H292646   7.899  10.166   3.746 -2.6290 -1.9537  4.8678
22710WAT    EPW92647   7.885  10.090   3.705 -0.3850 -0.6294  1.0906
22711WAT      O92648   2.578   3.412   8.165 -0.3219  0.0704  0.0947
22711WAT     H192649   2.668   3.405   8.136 -0.2623 -1.3065  0.5267
22711WAT     H292650   2.541   3.484   8.113  1.1392  1.0025  0.2829
22711WAT    EPW92651   2.585   3.421   8.155 -0.1214  0.0117  0.1764
22712WAT      O92652   2.649   8.440   3.950 -0.0705  0.0695  0.0715
22712WAT     H192653   2.729   8.446   3.898  0.1956  0.2487  0.4941
22712WAT     H292654   2.617   8.351   3.935 -0.4317  0.3717 -1.0246
22712WAT    EPW92655   2.656   8.429   3.941 -0.0831  0.1330 -0.0172
22713WAT      O92656   9.421   3.314   4.073 -0.2012  0.6373 -0.6815
22713WAT     H192657   9.417   3.267   4.157  2.8007  0.8694 -0.2697
22713WAT     H292658   9.374   3.258   4.012  1.8104 -2.1994  0.1472
22713WAT    EPW92659   9.414   3.300   4.076  0.4597  0.2937 -0.5178
22714WAT      O92660   6.382   1.341   5.932 -0.0110  0.1417  0.1774
22714WAT     H192661   6.371   1.251   5.964  0.1297  0.0662  0.0145
22714WAT     H292662   6.425   1.387   6.004 -1.5934  0.5076  0.9322
22714WAT    EPW92663   6.387   1.335   5.946 -0.2010  0.1799  0.2553
22715WAT      O92664   4.299  10.002   3.361  0.3671  0.2746 -0.1898
22715WAT     H192665   4.273   9.919   3.402  1.0207 -0.3202 -0.9681
22715WAT     H292666   4.221  10.030   3.313  0.5434 -0.5554 -0.9842
22715WAT    EPW92667   4.285   9.995   3.360  0.4766  0.0863 -0.3973
22716WAT      O92668   5.289   7.782   1.578  0.2774  0.5594 -0.0307
22716WAT     H192669   5.289   7.733   1.661  0.5551  1.1801  0.3459
22716WAT     H292670   5.210   7.752   1.533  0.3325 -0.0786  0.2864
22716WAT    EPW92671   5.278   7.772   1.583  0.3211  0.5572  0.0608
22717WAT      O92672   5.165  10.292   2.500 -0.2955  0.0062  0.5985
22717WAT     H192673   5.229  10.236   2.457 -0.2323  1.0053 -0.6507
22717WAT     H292674   5.188  10.381   2.471 -1.4734  0.4999  1.1370
22717WAT    EPW92675   5.177  10.297   2.491 -0.4425  0.2031  0.5047
22718WAT      O92676   6.213   4.376   5.195  0.1958  0.1150 -0.2763
22718WAT     H192677   6.162   4.298   5.218  0.8536 -0.5775 -1.0929
22718WAT     H292678   6.170   4.447   5.242 -0.5626 -0.6995  0.3049
22718WAT    EPW92679   6.201   4.375   5.204  0.1826 -0.0837 -0.3073
22719WAT      O92680   3.362   7.052   5.205  0.1066  0.3818  0.5009
22719WAT     H192681   3.297   7.028   5.270  1.6052 -0.7598  1.6438
22719WAT     H292682   3.341   6.998   5.129 -0.1559 -0.1446  0.9440
22719WAT    EPW92683   3.351   7.042   5.203  0.2698  0.1619  0.7100
22720WAT      O92684   5.168   7.358   3.078 -0.1467  0.3093  0.7227
22720WAT     H192685   5.246   7.305   3.064 -1.2816 -0.8065 -2.1400
22720WAT     H292686   5.095   7.297   3.062 -1.6178  1.6191  2.0782
22720WAT    EPW92687   5.168   7.343   3.074 -0.4907  0.3347  0.5239
22721WAT      O92688   6.684   6.443   6.598 -0.1711 -0.2412  0.2410
22721WAT     H192689   6.705   6.383   6.670 -1.4650  2.9687  3.6768
22721WAT     H292690   6.768   6.484   6.577 -0.1500  0.7819  2.0815
22721WAT    EPW92691   6.698   6.441   6.605 -0.3390  0.3171  0.9370
22722WAT      O92692   1.571   8.937   1.093 -0.1401  0.2413 -0.0868
22722WAT     H192693   1.590   9.024   1.126 -3.9700  0.0911  3.2599
22722WAT     H292694   1.604   8.878   1.161  1.9540 -1.0601 -2.0684
22722WAT    EPW92695   1.578   8.940   1.107 -0.3691  0.0505  0.0932
22723WAT      O92696   5.533   7.798   5.826  0.8738 -0.2856 -0.2243
22723WAT     H192697   5.526   7.800   5.730  3.7530 -2.7287 -0.6555
22723WAT     H292698   5.458   7.747   5.855 -1.7498  2.9658 -0.7313
22723WAT    EPW92699   5.522   7.792   5.817  0.9074 -0.1791 -0.3481
22724WAT      O92700   7.297   6.969   7.386 -0.9592 -0.2381 -0.0792
22724WAT     H192701   7.359   6.928   7.326  0.6033  2.5810 -0.5553
22724WAT     H292702   7.211   6.938   7.357  0.0304 -3.2712 -0.1939
22724WAT    EPW92703   7.294   6.959   7.375 -0.6225 -0.2661 -0.1574
22725WAT      O92704   1.958   8.634   4.132  0.2707 -0.4832 -0.9473
22725WAT     H192705   1.967   8.538   4.131  0.7202 -0.4965  1.1840
22725WAT     H292706   1.864   8.648   4.142  0.2130 -0.6838 -1.1699
22725WAT    EPW92707   1.947   8.623   4.133  0.3224 -0.5112 -0.6957
22726WAT      O92708   7.921   7.822   5.027 -0.0989 -0.0680 -0.2015
22726WAT     H192709   7.908   7.727   5.019  1.6195 -0.2861 -0.8061
22726WAT     H292710   7.996   7.831   5.086  0.1864  0.8913 -0.6891
22726WAT    EPW92711   7.929   7.811   5.034  0.1657  0.0298 -0.3457
22727WAT      O92712   4.344   9.490   7.577 -0.6310  0.1255 -0.1953
22727WAT     H192713   4.298   9.573   7.567 -0.1713  0.3959 -0.0834
22727WAT     H292714   4.288   9.426   7.534 -0.5410  0.6401 -1.1051
22727WAT    EPW92715   4.331   9.492   7.570 -0.5584  0.2294 -0.3004
22728WAT      O92716   3.129   7.659   6.125  0.6501  0.2708  0.0715
22728WAT     H192717   3.204   7.673   6.067  0.6108 -0.1490 -0.0853
22728WAT     H292718   3.053   7.662   6.066  0.7509 -2.7848 -0.3874
22728WAT    EPW92719   3.129   7.661   6.109  0.6584 -0.1874 -0.0098
22729WAT      O92720   5.666   9.319   7.637  0.0487 -0.4009 -0.0448
22729WAT     H192721   5.614   9.354   7.710 -0.7602 -0.4139 -0.6031
22729WAT     H292722   5.681   9.395   7.580  0.1102 -0.5263 -0.1944
22729WAT    EPW92723   5.661   9.334   7.640 -0.0496 -0.4187 -0.1383
22730WAT      O92724   4.279   7.943   6.716 -0.0724  0.0549  0.4063
22730WAT     H192725   4.280   7.848   6.700  1.0519  0.2799 -1.0181
22730WAT     H292726   4.340   7.955   6.789  2.4246 -0.0388 -1.5339
22730WAT    EPW92727   4.287   7.932   6.723  0.4053  0.0722 -0.0374
22731WAT      O92728   5.892  10.008   6.368 -0.8819  0.1748 -0.1973
22731WAT     H192729   5.861  10.028   6.280  1.6220 -0.2633 -1.2523
22731WAT     H292730   5.966  10.068   6.382  0.6738 -1.7636  0.3552
22731WAT    EPW92731   5.898  10.019   6.358 -0.3462 -0.1392 -0.2637
22732WAT      O92732   7.784   0.098   2.831  0.0900  0.0864  0.1138
22732WAT     H192733   7.721   0.135   2.893 -0.5119  1.6900 -1.3612
22732WAT     H292734   7.736   0.026   2.788 -0.0658  0.0559  0.3383
22732WAT    EPW92735   7.769   0.093   2.833 -0.0098  0.2939 -0.0511
22733WAT      O92736   5.593  10.347   6.841  0.1180 -0.9522 -0.3349
22733WAT     H192737   5.590  10.426   6.787  2.2769 -0.8314 -0.3695
22733WAT     H292738   5.507  10.306   6.828 -1.2528  1.5971  0.0801
22733WAT    EPW92739   5.581  10.352   6.832  0.2217 -0.6000 -0.2847
22734WAT      O92740   9.289   7.134   3.459 -0.6126 -0.5842  0.3491
22734WAT     H192741   9.293   7.124   3.364 -1.4749  1.5652  0.0252
22734WAT     H292742   9.195   7.136   3.478 -0.6829  3.9919  0.4963
22734WAT    EPW92743   9.277   7.133   3.449 -0.7358  0.3028  0.3259
22735WAT      O92744   7.582   6.992   2.939  0.3133 -0.0094  0.0296
22735WAT     H192745   7.557   6.976   2.848  1.1871 -0.0294 -0.2137
22735WAT     H292746   7.557   6.912   2.985 -1.6209  0.5944  0.1476
22735WAT    EPW92747   7.575   6.979   2.933  0.1736  0.0677  0.0131
22736WAT      O92748   8.665   6.360   5.651  0.3928  0.0379  0.4173
22736WAT     H192749   8.637   6.437   5.601 -1.2218 -1.5609 -1.3155
22736WAT     H292750   8.705   6.303   5.585  2.1923 -0.3810  1.7880
22736WAT    EPW92751   8.667   6.363   5.635  0.4172 -0.2282  0.3693
22737WAT      O92752   4.074   7.688   6.821 -0.1112  0.1345 -0.1385
22737WAT     H192753   4.156   7.674   6.774 -1.0278 -1.9801 -1.2469
22737WAT     H292754   4.050   7.601   6.854 -1.3201  0.9237  1.1808
22737WAT    EPW92755   4.082   7.675   6.819 -0.3917 -0.0403 -0.1106
22738WAT      O92756   4.258   7.287   3.566  0.1970  0.1107 -0.1323
22738WAT     H192757   4.250   7.377   3.534  0.2502  1.2370  2.6993
22738WAT     H292758   4.352   7.276   3.581  0.0891 -0.0744  0.4144
22738WAT    EPW92759   4.270   7.298   3.564  0.1898  0.2348  0.3133
22739WAT      O92760   8.039   7.254   4.198 -0.0643  0.2225 -0.7185
22739WAT     H192761   7.965   7.298   4.239 -0.3000  0.2364 -1.1489
22739WAT     H292762   8.012   7.241   4.107  0.5973  0.5328 -0.9660
22739WAT    EPW92763   8.026   7.258   4.191 -0.0081  0.2654 -0.8080
22740WAT      O92764   5.088   9.403   6.943 -0.4485  0.5215 -0.2404
22740WAT     H192765   5.049   9.424   6.858 -2.4760  0.3651  0.5938
22740WAT     H292766   5.052   9.317   6.966 -2.1582  1.6833  1.9323
22740WAT    EPW92767   5.078   9.394   6.935 -0.9415  0.6542  0.1564
22741WAT      O92768   6.357   8.043   6.219  0.4864 -0.3059  0.3728
22741WAT     H192769   6.416   7.996   6.161 -0.3449  0.5250 -1.2351
22741WAT     H292770   6.375   8.135   6.202 -0.4159 -0.0447  0.7522
22741WAT    EPW92771   6.367   8.049   6.209  0.2580 -0.1621  0.2108
22742WAT      O92772  10.233   2.136   5.815  0.1089  0.3634  0.3290
22742WAT     H192773  10.318   2.179   5.825 -0.1808  0.8217  0.8574
22742WAT     H292774  10.255   2.046   5.790  0.7400  0.5661  0.1217
22742WAT    EPW92775  10.247   2.130   5.813  0.1540  0.4506  0.3712
22743WAT      O92776   0.547   3.644   8.836  0.2375 -0.9996  0.3810
22743WAT     H192777   0.575   3.630   8.926  1.7513  1.4975  0.3782
22743WAT     H292778   0.485   3.718   8.841  2.0089  0.6517 -0.7848
22743WAT    EPW92779   0.542   3.652   8.849  0.6708 -0.4524  0.2270
22744WAT      O92780  10.993   0.730   5.939 -0.3724  0.2990  0.1197
22744WAT     H192781  11.022   0.754   5.851  0.4776  0.5496  0.4472
22744WAT     H292782  10.969   0.638   5.933  2.1213 -0.4351  0.1621
22744WAT    EPW92783  10.994   0.721   5.927  0.0687  0.2352  0.1683
22745WAT      O92784   6.876   9.451   5.660  0.0040  0.6281 -0.0544
22745WAT     H192785   6.858   9.542   5.634  0.3515  0.4283 -1.0150
22745WAT     H292786   6.918   9.412   5.584 -1.0433 -0.6283 -0.0169
22745WAT    EPW92787   6.879   9.458   5.647 -0.0882  0.4363 -0.1762
22746WAT      O92788   7.505   6.881   4.055 -0.2729 -0.1213 -0.1477
22746WAT     H192789   7.540   6.829   3.982 -0.7143 -1.2097  0.3981
22746WAT     H292790   7.477   6.817   4.119 -1.0319  0.7943  0.4683
22746WAT    EPW92791   7.506   6.866   4.054 -0.4313 -0.1440  0.0055
22747WAT      O92792   7.072   9.157   6.290 -0.2045 -0.0469 -0.5485
22747WAT     H192793   6.978   9.176   6.298  0.1146  0.8066  2.8128
22747WAT     H292794   7.109   9.237   6.254 -0.5184  0.6471  0.5961
22747WAT    EPW92795   7.064   9.170   6.286 -0.2036  0.1574  0.0460
22748WAT      O92796   6.160   5.221   3.618  0.0991 -0.2170  0.2591
22748WAT     H192797   6.223   5.153   3.593 -1.9997 -2.4234  0.6185
22748WAT     H292798   6.202   5.267   3.691  2.3970  0.2328 -1.2576
22748WAT    EPW92799   6.174   5.218   3.625  0.1254 -0.4487  0.1063
22749WAT      O92800   5.319   7.447   2.655  0.0976 -0.1603  0.6931
22749WAT     H192801   5.305   7.352   2.649 -0.0576 -0.2212  1.7704
22749WAT     H292802   5.248   7.478   2.712 -0.6815  0.8293 -0.7374
22749WAT    EPW92803   5.308   7.438   2.662 -0.0255 -0.0379  0.6464
22750WAT      O92804   2.261   6.376   7.202 -0.4238  0.1662 -0.1038
22750WAT     H192805   2.210   6.402   7.126  1.6553  1.3620 -1.1700
22750WAT     H292806   2.308   6.455   7.228  2.5627 -1.2953 -0.5886
22750WAT    EPW92807   2.261   6.390   7.195  0.2443  0.1314 -0.3083
22751WAT      O92808   9.337   6.605   2.595  0.9489  0.1210  0.0924
22751WAT     H192809   9.394   6.681   2.596  1.0592  0.0360  0.3276
22751WAT     H292810   9.251   6.640   2.573  1.4145  0.0094 -2.0906
22751WAT    EPW92811   9.333   6.619   2.592  1.0247  0.0951 -0.1644
22752WAT      O92812   3.944   9.570   0.420  0.5854  0.0649  0.3672
22752WAT     H192813   3.977   9.652   0.383 -0.5260  0.2063 -0.3581
22752WAT     H292814   3.935   9.512   0.344 -1.0196  0.1163  0.4847
22752WAT    EPW92815   3.947   9.573   0.405  0.2271  0.0911  0.2870
22753WAT      O92816   5.300   9.618   4.700 -0.0168  0.2177 -0.5740
22753WAT     H192817   5.262   9.614   4.612 -0.6490  1.0428 -0.3523
22753WAT     H292818   5.232   9.659   4.754  0.6926  0.5233  0.1110
22753WAT    EPW92819   5.286   9.623   4.696 -0.0064  0.3667 -0.4547
22754WAT      O92820   7.435   6.030   7.909 -0.4901  0.9468 -0.1094
22754WAT     H192821   7.527   6.011   7.923 -1.0186 -3.7087 -1.4478
22754WAT     H292822   7.430   6.064   7.819 -0.1766 -0.1762 -0.5608
22754WAT    EPW92823   7.446   6.032   7.899 -0.5186  0.1848 -0.3457
22755WAT      O92824   4.535  10.133   5.226 -0.0804 -0.8733 -0.0804
22755WAT     H192825   4.561  10.056   5.175 -0.7283 -1.0169 -0.1970
22755WAT     H292826   4.476  10.099   5.293 -0.3173 -0.4903 -0.0919
22755WAT    EPW92827   4.531  10.119   5.228 -0.1969 -0.8421 -0.0970
22756WAT      O92828   5.552   6.947   6.210 -0.2109  0.3935  0.1429
22756WAT     H192829   5.477   6.963   6.267 -0.4954 -1.8972  0.4831
22756WAT     H292830   5.623   6.922   6.270 -0.2303 -1.0464 -0.4008
22756WAT    EPW92831   5.552   6.946   6.226 -0.2511 -0.0985  0.1161
22757WAT      O92832   7.184   8.143   5.618 -0.3922  0.3172 -0.2413
22757WAT     H192833   7.155   8.213   5.559  0.1687 -0.1659 -1.1151
22757WAT     H292834   7.103   8.105   5.652 -0.7146  0.9132 -0.3254
22757WAT    EPW92835   7.169   8.148   5.614 -0.3605  0.3319 -0.3674
22758WAT      O92836   5.807   8.229   3.083 -0.3837  0.2949  0.3712
22758WAT     H192837   5.730   8.279   3.112 -0.5724  0.5146 -0.4773
22758WAT     H292838   5.773   8.173   3.013  0.0656 -0.2059  0.5522
22758WAT    EPW92839   5.792   8.228   3.078 -0.3490  0.2580  0.2831
22759WAT      O92840   6.320   6.989   7.082 -0.3071 -0.4766  0.4374
22759WAT     H192841   6.352   7.034   7.003  2.5748 -0.3986  1.5277
22759WAT     H292842   6.275   6.911   7.049 -1.5868  0.9375 -1.3300
22759WAT    EPW92843   6.318   6.984   7.067 -0.0961 -0.2799  0.3481
22760WAT      O92844   4.770   5.199   2.676  0.0199  0.1078  0.3699
22760WAT     H192845   4.765   5.286   2.636  0.8197 -0.5381 -1.2332
22760WAT     H292846   4.680   5.180   2.702 -0.2341  1.2590  0.4002
22760WAT    EPW92847   4.757   5.208   2.674  0.0920  0.1745  0.1625
22761WAT      O92848   4.310   6.825   0.591  0.1684  0.5299  0.2701
22761WAT     H192849   4.305   6.772   0.671 -0.4559 -0.0953 -0.1710
22761WAT     H292850   4.218   6.843   0.569  0.3092  4.4339  2.0995
22761WAT    EPW92851   4.297   6.820   0.599  0.1047  0.9623  0.4532
22762WAT      O92852   7.181   8.408   7.503  0.3715 -0.4381 -0.2023
22762WAT     H192853   7.267   8.389   7.466  0.2269  0.3112 -0.9558
22762WAT     H292854   7.189   8.383   7.595  1.8038  0.7866  0.0481
22762WAT    EPW92855   7.194   8.402   7.511  0.5412 -0.1779 -0.2685
22763WAT      O92856   8.977   0.119   1.632 -0.1300 -0.0050  0.1247
22763WAT     H192857   8.965   0.206   1.669  1.6895 -0.1382  1.1383
22763WAT     H292858   9.066   0.120   1.595 -0.7000 -0.9148 -1.3712
22763WAT    EPW92859   8.987   0.130   1.632  0.0348 -0.1425  0.0610
22764WAT      O92860   3.356   5.136   3.054 -0.0371 -0.3943 -0.1145
22764WAT     H192861   3.262   5.144   3.074  0.4890  0.1147  2.3931
22764WAT     H292862   3.366   5.045   3.026 -1.2026 -0.6005  0.0693
22764WAT    EPW92863   3.345   5.125   3.053 -0.1215 -0.3541  0.2404
22765WAT      O92864   5.488   8.279   3.956 -0.0834  0.5260 -0.0394
22765WAT     H192865   5.506   8.306   3.866  0.3848 -0.0253 -0.1166
22765WAT     H292866   5.420   8.212   3.948  0.1044  0.3298 -0.0009
22765WAT    EPW92867   5.481   8.274   3.943  0.0031  0.4268 -0.0445
22766WAT      O92868   4.414   7.498   4.898 -0.2294  0.2545 -1.0115
22766WAT     H192869   4.462   7.493   4.981 -1.0575 -1.3429 -0.5684
22766WAT     H292870   4.334   7.546   4.920  0.5668  1.8374 -1.4586
22766WAT    EPW92871   4.410   7.503   4.912 -0.2334  0.2525 -1.0123
22767WAT      O92872   6.267   9.911   1.545  0.1360 -0.1122 -0.2954
22767WAT     H192873   6.226   9.955   1.619  0.8022 -2.6167  1.7353
22767WAT     H292874   6.360   9.931   1.553  0.7591 -3.1022  1.8225
22767WAT    EPW92875   6.274   9.919   1.556  0.3061 -0.8368  0.2518
22768WAT      O92876   4.654  10.036   4.575  0.3896  0.0021  0.1739
22768WAT     H192877   4.560  10.024   4.559  0.4181 -1.4524  0.8759
22768WAT     H292878   4.688   9.947   4.581  1.9755  0.4992 -0.8440
22768WAT    EPW92879   4.646  10.022   4.574  0.6027 -0.1245  0.1323
22769WAT      O92880   6.927   1.414   2.916 -0.6913 -0.0281  0.1798
22769WAT     H192881   6.859   1.476   2.943 -0.5999 -0.0770  0.5306
22769WAT     H292882   6.901   1.387   2.828 -1.6997 -0.8265  0.6868
22769WAT    EPW92883   6.914   1.418   2.908 -0.8123 -0.1398  0.2929
22770WAT      O92884   3.934   7.388   6.361 -0.4885 -0.0414  0.4498
22770WAT     H192885   3.902   7.430   6.282  2.1366 -1.4938 -1.5208
22770WAT     H292886   3.880   7.309   6.370 -0.6589  0.0232  0.0120
22770WAT    EPW92887   3.922   7.383   6.352 -0.1649 -0.2246  0.1321
22771WAT      O92888   3.660   7.665   4.446  0.4128 -0.1374 -0.1002
22771WAT     H192889   3.576   7.662   4.399  1.0853 -1.2460 -1.2846
22771WAT     H292890   3.641   7.628   4.532 -0.3255 -0.2992 -0.3228
22771WAT    EPW92891   3.646   7.660   4.451  0.4040 -0.3049 -0.2856
22772WAT      O92892   6.261   7.934   3.999 -1.1334 -0.4501  0.3037
22772WAT     H192893   6.172   7.964   3.980 -1.6248 -1.4115  0.9829
22772WAT     H292894   6.254   7.839   4.005  0.2321 -0.6821 -1.0347
22772WAT    EPW92895   6.248   7.926   3.997 -1.0180 -0.6075  0.2168
22773WAT      O92896   7.839   1.145   3.141  0.0806 -0.1095  0.2539
22773WAT     H192897   7.808   1.222   3.189 -0.5911 -1.4161  2.0047
22773WAT     H292898   7.899   1.181   3.075 -0.9273  1.9787  0.4005
22773WAT    EPW92899   7.843   1.160   3.138 -0.1409 -0.0065  0.5041
22774WAT      O92900   4.541   5.442   1.988 -0.5346  0.0035 -0.4702
22774WAT     H192901   4.553   5.531   1.955  0.8810 -0.3665 -1.0084
22774WAT     H292902   4.463   5.410   1.942  0.3806  0.1234 -2.1746
22774WAT    EPW92903   4.532   5.450   1.977 -0.2272 -0.0296 -0.7660
22775WAT      O92904   6.069   6.653   2.328 -0.3433 -0.2535  0.5606
22775WAT     H192905   5.985   6.611   2.346 -1.9251  3.1617  2.1777
22775WAT     H292906   6.107   6.668   2.414 -0.0745  1.8306  0.1273
22775WAT    EPW92907   6.063   6.649   2.341 -0.5167  0.4716  0.7169
22776WAT      O92908   4.789   9.624   5.896 -0.3337  0.3123  0.1256
22776WAT     H192909   4.780   9.553   5.831 -1.4060  1.2765 -0.8321
22776WAT     H292910   4.706   9.671   5.891  0.0708  1.1891  1.2923
22776WAT    EPW92911   4.777   9.621   5.887 -0.4215  0.5550  0.1531
22777WAT      O92912   4.879   8.174   3.733  0.1158 -0.1446  0.8208
22777WAT     H192913   4.897   8.205   3.822  0.1970 -2.4320  1.6639
22777WAT     H292914   4.795   8.128   3.739  0.1069 -0.3170 -0.2998
22777WAT    EPW92915   4.870   8.172   3.745  0.1252 -0.4692  0.7842
22778WAT      O92916   9.562   0.065   6.694  0.1676 -0.0078  0.7372
22778WAT     H192917   9.478   0.023   6.672  0.5902  0.9089 -3.1395
22778WAT     H292918   9.537   0.142   6.746 -1.1389 -1.0196  1.6983
22778WAT    EPW92919   9.547   0.069   6.698  0.0510 -0.0203  0.3526
22779WAT      O92920   2.146   9.328   0.251  0.4689 -0.2598 -0.4140
22779WAT     H192921   2.132   9.269   0.325 -1.0672 -1.3943 -1.5143
22779WAT     H292922   2.110   9.412   0.279 -0.3766 -0.7610  0.0590
22779WAT    EPW92923   2.139   9.331   0.264  0.1547 -0.4754 -0.4967
22780WAT      O92924   4.106   6.774   6.286  0.4442  0.0417  0.1211
22780WAT     H192925   4.166   6.740   6.352 -0.3022  2.5918  2.2903
22780WAT     H292926   4.023   6.784   6.332 -1.1776 -1.4930 -2.2643
22780WAT    EPW92927   4.103   6.771   6.301  0.1316  0.1755  0.0927
22781WAT      O92928   9.620   3.732   8.611 -0.3396  0.5458  0.9730
22781WAT     H192929   9.551   3.697   8.554 -0.4795 -0.5020  1.7564
22781WAT     H292930   9.701   3.701   8.571 -0.4703 -0.9328  1.7865
22781WAT    EPW92931   9.621   3.723   8.598 -0.3753  0.2127  1.1830
22782WAT      O92932   5.402   8.550   4.142 -0.4233 -0.1107  0.1833
22782WAT     H192933   5.437   8.529   4.056 -0.8498 -0.0011 -0.0222
22782WAT     H292934   5.327   8.607   4.124  0.3365  1.0740  0.6941
22782WAT    EPW92935   5.397   8.555   4.128 -0.3796  0.0606  0.2236
22783WAT      O92936   4.594   8.057   3.273  0.2580 -0.4061 -0.2044
22783WAT     H192937   4.504   8.083   3.250  0.3214 -0.3889 -0.4358
22783WAT     H292938   4.632   8.029   3.190  1.2294  1.8106 -0.5746
22783WAT    EPW92939   4.587   8.057   3.259  0.3946 -0.1116 -0.2836
22784WAT      O92940   5.836   7.804   3.739  0.3073  0.2247  0.1514
22784WAT     H192941   5.844   7.848   3.824 -3.0672  0.3979  0.5002
22784WAT     H292942   5.842   7.874   3.675 -2.2224  0.9383  0.5781
22784WAT    EPW92943   5.838   7.819   3.742 -0.4711  0.3417  0.2537
22785WAT      O92944   7.546   9.798   3.096  0.3492  0.2386 -0.0551
22785WAT     H192945   7.497   9.875   3.068  2.2143  1.8849  0.9953
22785WAT     H292946   7.479   9.730   3.108 -1.1572  1.0135 -2.9620
22785WAT    EPW92947   7.531   9.799   3.094  0.3963  0.5579 -0.2999
22786WAT      O92948   7.379   5.872   5.402  0.6613  0.3062  0.5811
22786WAT     H192949   7.415   5.960   5.398  0.9006  0.1747 -0.5282
22786WAT     H292950   7.455   5.815   5.409  0.6151  0.1076 -0.3501
22786WAT    EPW92951   7.394   5.876   5.402  0.6871  0.2625  0.3119
22787WAT      O92952   4.794   6.703   4.864  0.3600 -0.1940 -0.1046
22787WAT     H192953   4.828   6.702   4.953  1.1719 -0.8306 -0.4093
22787WAT     H292954   4.755   6.616   4.853 -2.8956  1.0040  0.7767
22787WAT    EPW92955   4.793   6.691   4.874  0.0377 -0.1202 -0.0284
22788WAT      O92956   6.493   9.617   3.580  0.6314  0.7876 -0.7544
22788WAT     H192957   6.587   9.632   3.590  0.9967 -1.6646  0.1609
22788WAT     H292958   6.462   9.602   3.669 -0.4923  0.8160 -1.1296
22788WAT    EPW92959   6.501   9.617   3.593  0.5314  0.4678 -0.6832
22789WAT      O92960   2.439   8.607   4.027 -0.0311 -0.3852  1.1186
22789WAT     H192961   2.464   8.699   4.027  0.1663 -0.3842  3.3222
22789WAT     H292962   2.517   8.561   3.996  0.0469  0.1452  0.5138
22789WAT    EPW92963   2.453   8.613   4.023  0.0054 -0.3152  1.3294
22790WAT      O92964   0.732   6.926   6.878 -0.7346 -0.5976 -0.2473
22790WAT     H192965   0.719   6.983   6.954  0.3984  0.2044 -0.6352
22790WAT     H292966   0.696   6.841   6.905 -0.5489 -0.2621  1.0989
22790WAT    EPW92967   0.725   6.922   6.892 -0.5607 -0.4475 -0.1209
22791WAT      O92968   5.638   9.631   1.401  0.1416  0.4067  0.0076
22791WAT     H192969   5.679   9.636   1.315  0.7571  0.2321  0.2779
22791WAT     H292970   5.712   9.622   1.462 -0.3435 -3.0106  0.2988
22791WAT    EPW92971   5.653   9.630   1.398  0.1590 -0.0668  0.0817
22792WAT      O92972   8.735   1.205   1.554  0.1168 -0.3006 -0.8151
22792WAT     H192973   8.674   1.255   1.499  0.6306 -1.1221 -2.1861
22792WAT     H292974   8.754   1.126   1.504  2.6483  0.1210 -0.6821
22792WAT    EPW92975   8.730   1.201   1.540  0.5183 -0.3533 -0.9784
22793WAT      O92976   3.546   7.092   3.438 -0.3153  0.1860  0.1582
22793WAT     H192977   3.578   7.101   3.528 -0.5455  1.1938  0.1522
22793WAT     H292978   3.595   7.157   3.388 -1.5116  0.9422 -0.0702
22793WAT    EPW92979   3.557   7.101   3.443 -0.5034  0.4184  0.1273
22794WAT      O92980   5.496   9.297   5.194  0.2828  0.0790 -0.1504
22794WAT     H192981   5.439   9.237   5.146 -2.0036  0.3681  2.0090
22794WAT     H292982   5.445   9.378   5.202  0.8081  0.2579  2.0851
22794WAT    EPW92983   5.482   9.300   5.188  0.0503  0.1411  0.4294
22795WAT      O92984   6.003   0.880   7.535 -0.2435  0.8284  0.2578
22795WAT     H192985   5.931   0.893   7.473 -0.3954 -3.5010 -0.8440
22795WAT     H292986   5.962   0.892   7.621 -1.1475  2.6383 -0.3806
22795WAT    EPW92987   5.988   0.883   7.538 -0.3827  0.4960  0.0279
22796WAT      O92988   6.714   7.525   4.779  0.4062 -0.2292 -0.5186
22796WAT     H192989   6.632   7.575   4.774 -0.2653 -1.0144  1.5498
22796WAT     H292990   6.731   7.516   4.873  0.5862 -3.6518 -0.7494
22796WAT    EPW92991   6.705   7.530   4.791  0.3414 -0.7842 -0.2763
22797WAT      O92992   7.423   9.897   5.193 -0.0123  0.5936  0.4526
22797WAT     H192993   7.471   9.825   5.233  1.4882  1.1740 -0.2464
22797WAT     H292994   7.424   9.878   5.099 -3.7314 -0.9040  0.5253
22797WAT    EPW92995   7.429   9.885   5.185 -0.3049  0.4730  0.3698
22798WAT      O92996   5.391   7.014   4.913  0.0108 -1.0149  0.1577
22798WAT     H192997   5.408   6.984   5.003  1.6653 -0.2231  0.1544
22798WAT     H292998   5.318   7.076   4.923  1.2362  0.3357  1.2585
22798WAT    EPW92999   5.384   7.018   4.926  0.3905 -0.7322  0.3026
22799WAT      O93000   1.011   0.298   4.788 -0.5704 -0.1324  0.1707
22799WAT     H193001   1.087   0.239   4.790 -0.5923 -0.3607 -2.2803
22799WAT     H293002   0.936   0.239   4.786 -0.9087  0.0944  2.6276
22799WAT    EPW93003   1.011   0.282   4.788 -0.6179 -0.1327  0.1714
22800WAT      O93004   8.362   0.061   4.988  0.3036  0.4311  0.6452
22800WAT     H193005   8.449   0.033   5.015  0.1842 -1.6374 -0.8903
22800WAT     H293006   8.372   0.086   4.896 -1.0469 -2.0388 -0.2806
22800WAT    EPW93007   8.375   0.061   4.979  0.1092 -0.1675  0.3204
22801WAT      O93008   4.727   6.505   4.110  0.2820 -0.5614 -0.5399
22801WAT     H193009   4.737   6.599   4.128 -0.2555 -0.8684  1.5479
22801WAT     H293010   4.702   6.502   4.018  1.5059  1.2537 -1.0020
22801WAT    EPW93011   4.725   6.517   4.100  0.3724 -0.3626 -0.3257
22802WAT      O93012   4.499   8.669   4.188  0.0793 -0.3680  0.4233
22802WAT     H193013   4.559   8.594   4.198 -0.3093 -0.4292  3.4328
22802WAT     H293014   4.552   8.745   4.211  0.3714  0.3555 -2.2776
22802WAT    EPW93015   4.514   8.669   4.193  0.0665 -0.2804  0.4640
22803WAT      O93016   8.901   0.296   5.086 -0.0987  0.1533 -0.3670
22803WAT     H193017   8.944   0.212   5.072  0.2065  0.5249 -1.9041
22803WAT     H293018   8.827   0.277   5.143 -0.4944 -1.3078 -1.3275
22803WAT    EPW93019   8.897   0.283   5.092 -0.1106  0.0096 -0.6964
22804WAT      O93020   4.431   6.258   2.948 -1.1398  0.6819  0.4302
22804WAT     H193021   4.447   6.338   2.999 -0.3650 -0.2608  1.7318
22804WAT     H293022   4.417   6.190   3.014 -3.2914 -0.0079 -0.6439
22804WAT    EPW93023   4.431   6.259   2.964 -1.3216  0.4668  0.4601
22805WAT      O93024   4.800   9.476   4.322  0.1190  0.6532  0.2788
22805WAT     H193025   4.884   9.465   4.277 -0.2461 -0.1027 -0.2366
22805WAT     H293026   4.735   9.461   4.254 -0.4425 -0.2676  1.0072
22805WAT    EPW93027   4.803   9.473   4.307 -0.0031  0.4320  0.3068
22806WAT      O93028   8.565   5.281   5.740  0.4378 -0.4176  0.4933
22806WAT     H193029   8.476   5.247   5.747  0.1927  0.2773  0.9121
22806WAT     H293030   8.564   5.361   5.794  0.6961  0.8473 -1.2945
22806WAT    EPW93031   8.554   5.287   5.748  0.4396 -0.1595  0.3128
22807WAT      O93032  10.513   0.036   0.413  0.2860  0.5725 -0.5740
22807WAT     H193033  10.602   0.002   0.405 -0.0386 -0.3298 -0.4772
22807WAT     H293034  10.494   0.077   0.329  0.1134 -0.9202 -1.2780
22807WAT    EPW93035  10.522   0.037   0.401  0.2203  0.2570 -0.6541
22808WAT      O93036   9.388   1.617   4.024  0.1422  0.6164  0.6354
22808WAT     H193037   9.421   1.706   4.035  1.2224  0.2247  0.6942
22808WAT     H293038   9.421   1.590   3.938  0.1012  0.1656  0.7582
22808WAT    EPW93039   9.397   1.625   4.014  0.2789  0.5052  0.6592
22809WAT      O93040   6.805   9.682   4.023 -0.2898  0.2048  0.3133
22809WAT     H193041   6.800   9.708   3.931  2.1179  1.0289  0.3489
22809WAT     H293042   6.834   9.591   4.021 -0.2217  0.2279  0.2327
22809WAT    EPW93043   6.808   9.674   4.011  0.0367  0.3161  0.3073
22810WAT      O93044   4.921   7.500   5.788  0.4659 -0.3626 -0.4422
22810WAT     H193045   4.841   7.529   5.832  1.3516  0.4515  0.6985
22810WAT     H293046   4.891   7.443   5.718 -1.1287  0.1723 -0.2263
22810WAT    EPW93047   4.907   7.496   5.785  0.3724 -0.1848 -0.2630
22811WAT      O93048   4.775   6.342   7.395 -0.0817 -0.5994  0.0594
22811WAT     H193049   4.700   6.324   7.338 -1.8332  3.1456  0.7990
22811WAT     H293050   4.749   6.306   7.480 -1.2441  0.8148  0.3539
22811WAT    EPW93051   4.762   6.335   7.399 -0.4661  0.0811  0.1960
22812WAT      O93052   6.229   9.941   1.930  0.7562 -0.7705 -0.1612
22812WAT     H193053   6.202   9.858   1.892 -0.4545 -1.9987  3.0268
22812WAT     H293054   6.150   9.996   1.928  1.2547 -0.0560 -1.2489
22812WAT    EPW93055   6.215   9.937   1.925  0.6618 -0.8378  0.1158
22813WAT      O93056   5.147   7.084   5.140 -0.3331  0.5631  0.2543
22813WAT     H193057   5.178   7.175   5.141  0.0864  0.4583 -1.0759
22813WAT     H293058   5.074   7.084   5.079  0.4246 -0.2051 -0.6826
22813WAT    EPW93059   5.142   7.096   5.132 -0.1779  0.4480 -0.0446
22814WAT      O93060   5.417   7.895   4.783 -0.3267 -0.2800  0.4461
22814WAT     H193061   5.382   7.909   4.871 -0.1768 -0.8260  0.5959
22814WAT     H293062   5.444   7.803   4.782  0.3687 -0.0782  0.0747
22814WAT    EPW93063   5.416   7.885   4.794 -0.2155 -0.3254  0.4168
22815WAT      O93064   7.075   2.272   1.153  0.5649  0.2237  0.2379
22815WAT     H193065   7.129   2.310   1.083 -0.1756  0.4345 -0.2258
22815WAT     H293066   7.056   2.183   1.123 -0.1195  0.4608 -0.0394
22815WAT    EPW93067   7.080   2.265   1.140  0.3767  0.2828  0.1402
22816WAT      O93068   3.624   9.811   1.280  1.2254 -0.1100 -0.3475
22816WAT     H193069   3.530   9.790   1.277  0.3695  3.1812 -2.6974
22816WAT     H293070   3.627   9.892   1.332  2.9258 -0.5465  0.2804
22816WAT    EPW93071   3.612   9.819   1.287  1.3367  0.2661 -0.5746
22817WAT      O93072   4.539   7.546   2.647  0.3004  0.0998 -0.8590
22817WAT     H193073   4.494   7.592   2.576 -3.7590  1.3042  2.1326
22817WAT     H293074   4.600   7.612   2.682 -1.6073  1.4915  0.0296
22817WAT    EPW93075   4.541   7.561   2.642 -0.4869  0.4418 -0.3473
22818WAT      O93076   5.921   4.621   7.283 -0.2858  0.0324  0.3219
22818WAT     H193077   5.864   4.581   7.349 -1.6718  0.5760 -0.4970
22818WAT     H293078   5.879   4.705   7.264 -1.3720 -1.1402 -3.0513
22818WAT    EPW93079   5.908   4.627   7.289 -0.6120 -0.0505 -0.2310
22819WAT      O93080   6.212   6.798   3.862 -0.3309  0.5226  0.4235
22819WAT     H193081   6.304   6.780   3.846 -0.7018 -0.0463 -1.3232
22819WAT     H293082   6.176   6.714   3.892 -0.5911  0.2871 -0.5161
22819WAT    EPW93083   6.219   6.785   3.864 -0.4144  0.4165  0.0694
22820WAT      O93084   4.281   7.565   1.315 -0.3373 -0.2952  0.3576
22820WAT     H193085   4.376   7.559   1.318 -0.2924 -0.7595 -1.2469
22820WAT     H293086   4.252   7.531   1.400  0.9150 -0.0611  0.8992
22820WAT    EPW93087   4.290   7.560   1.327 -0.1667 -0.3257  0.2174
22821WAT      O93088   6.488   7.709   4.741  0.3505  0.2670  0.5512
22821WAT     H193089   6.409   7.690   4.690  0.4176  0.7352  0.2782
22821WAT     H293090   6.455   7.739   4.825  0.2045  2.2746 -0.1854
22821WAT    EPW93091   6.473   7.710   4.745  0.3402  0.5937  0.4179
22822WAT      O93092   6.214   9.420   4.000 -0.2449  0.7095 -0.4536
22822WAT     H193093   6.125   9.432   4.033 -0.5602  0.4376 -1.1918
22822WAT     H293094   6.205   9.363   3.923  0.3442  2.0179 -1.5507
22822WAT    EPW93095   6.201   9.414   3.994 -0.2086  0.8464 -0.6957
22823WAT      O93096   5.785   8.189   0.192  0.3313 -0.7485 -0.1872
22823WAT     H193097   5.777   8.113   0.135 -1.2202 -1.0378  0.3740
22823WAT     H293098   5.880   8.202   0.201  0.6112 -1.8473 -1.2752
22823WAT    EPW93099   5.797   8.181   0.186  0.1636 -0.9313 -0.2567
22824WAT      O93100   7.397   9.339   3.653  0.8271 -0.8801  0.2135
22824WAT     H193101   7.478   9.339   3.704  0.5519  0.3463  0.6695
22824WAT     H293102   7.414   9.400   3.581  0.2033 -0.3852  0.4816
22824WAT    EPW93103   7.410   9.347   3.650  0.7083 -0.6528  0.3089
22825WAT      O93104   8.764   4.028   0.357  0.0565  0.0759 -0.1363
22825WAT     H193105   8.800   3.960   0.301 -0.7377 -2.4995  2.2796
22825WAT     H293106   8.837   4.090   0.369  2.2379 -2.4843  0.8288
22825WAT    EPW93107   8.778   4.027   0.351  0.2398 -0.6018  0.3096
22826WAT      O93108  10.036   1.238   3.125  0.6904 -0.1235  0.3493
22826WAT     H193109   9.947   1.240   3.160  0.7636 -0.6462  0.5707
22826WAT     H293110  10.090   1.206   3.198  0.5982 -2.9746 -0.7170
22826WAT    EPW93111  10.031   1.234   3.139  0.6876 -0.5684  0.2378
22827WAT      O93112   7.343   0.995   3.832  0.2694 -0.2365  0.3203
22827WAT     H193113   7.265   1.024   3.786  1.6882 -0.3663 -2.3395
22827WAT     H293114   7.319   0.910   3.869 -0.9763 -0.0305  0.0358
22827WAT    EPW93115   7.330   0.988   3.831  0.2923 -0.2265 -0.0682
22828WAT      O93116   8.614   9.941   5.186  0.6201  0.0722 -0.3281
22828WAT     H193117   8.665   9.904   5.258  0.0961 -1.4487 -0.6963
22828WAT     H293118   8.532   9.970   5.226  0.4932 -0.4046 -0.2385
22828WAT    EPW93119   8.610   9.940   5.201  0.5345 -0.1907 -0.3650
22829WAT      O93120   6.003  10.113   1.923 -0.2906 -0.5760 -0.3258
22829WAT     H193121   6.034  10.175   1.989  0.6520  0.2697 -1.5137
22829WAT     H293122   5.915  10.144   1.901 -0.9400 -1.3434  1.0738
22829WAT    EPW93123   5.995  10.125   1.929 -0.2522 -0.5655 -0.2980
22830WAT      O93124   7.539   8.612   6.418 -0.0676 -0.1725 -0.5037
22830WAT     H193125   7.516   8.639   6.329 -0.1390 -2.2770 -1.1757
22830WAT     H293126   7.634   8.609   6.418 -0.0166  0.9805 -0.1160
22830WAT    EPW93127   7.548   8.615   6.407 -0.0703 -0.2980 -0.5412
22831WAT      O93128   8.290   8.693   2.910  0.5150 -0.9780 -0.3335
22831WAT     H193129   8.288   8.606   2.870  1.8998 -0.4577 -1.6795
22831WAT     H293130   8.379   8.700   2.946  1.1518  0.5915 -2.0701
22831WAT    EPW93131   8.302   8.682   2.909  0.7820 -0.7024 -0.7401
22832WAT      O93132   7.242  10.255   7.059 -0.5248  0.1406 -0.2249
22832WAT     H193133   7.285  10.204   6.990 -0.8365 -0.4828  0.0308
22832WAT     H293134   7.289  10.231   7.139 -1.1614 -0.3526  0.0182
22832WAT    EPW93135   7.254  10.245   7.061 -0.6499 -0.0067 -0.1590
22833WAT      O93136   5.588   9.174   2.224  0.0642  0.4624 -0.2465
22833WAT     H193137   5.548   9.115   2.160  0.1884 -1.3636  1.2710
22833WAT     H293138   5.638   9.116   2.281  1.8717  2.2770  0.1264
22833WAT    EPW93139   5.590   9.159   2.223  0.3192  0.4606  0.0027
22834WAT      O93140   7.662   7.183   3.768  0.0341 -0.4162  0.5488
22834WAT     H193141   7.748   7.168   3.807  0.3749  0.2955  0.0715
22834WAT     H293142   7.659   7.124   3.693 -0.3617 -1.2964  1.2372
22834WAT    EPW93143   7.673   7.173   3.764  0.0269 -0.4382  0.5767
22835WAT      O93144   7.292  10.173   6.642  0.5723  0.4742  0.2571
22835WAT     H193145   7.346  10.225   6.583  1.7396  0.4014  1.2119
22835WAT     H293146   7.252  10.107   6.586 -1.6381  2.8406 -1.1486
22835WAT    EPW93147   7.294  10.171   6.627  0.4346  0.7763  0.1976
22836WAT      O93148   9.881   0.484   3.359 -0.0034 -0.0530 -0.4349
22836WAT     H193149   9.794   0.447   3.343 -0.1748 -0.0946  0.5311
22836WAT     H293150   9.877   0.571   3.320 -0.1306 -0.4406 -1.3040
22836WAT    EPW93151   9.869   0.491   3.352 -0.0424 -0.1096 -0.4220
22837WAT      O93152   3.107   0.087   4.943 -0.7288  0.4731 -1.1766
22837WAT     H193153   3.161   0.140   5.002 -1.8590  1.1939 -0.7619
22837WAT     H293154   3.169   0.054   4.878  0.2764  0.9626 -0.5022
22837WAT    EPW93155   3.122   0.090   4.942 -0.7452  0.6327 -1.0328
22838WAT      O93156   8.098   0.173   4.294 -0.1736  0.3672 -0.4971
22838WAT     H193157   8.025   0.213   4.341  0.2632  0.0977  0.4368
22838WAT     H293158   8.083   0.079   4.302  0.5664  0.3023  0.1839
22838WAT    EPW93159   8.086   0.166   4.301 -0.0186  0.3231 -0.2844
22839WAT      O93160   9.484   0.260   4.645 -0.3356  0.6089  1.0283
22839WAT     H193161   9.397   0.265   4.606  0.0871 -0.0339 -0.0557
22839WAT     H293162   9.518   0.175   4.615  0.5623  0.7422  1.6415
22839WAT    EPW93163   9.477   0.249   4.636 -0.1612  0.5417  0.9663
22840WAT      O93164   2.987   8.475   4.604  0.0270  0.4585  0.0215
22840WAT     H193165   2.969   8.415   4.532  1.1487 -1.2684  1.0917
22840WAT     H293166   2.916   8.461   4.666  0.7911 -0.5706  0.7146
22840WAT    EPW93167   2.975   8.465   4.602  0.2756  0.0954  0.2542
22841WAT      O93168   7.354   8.390   3.090  0.4773 -0.2218  0.2581
22841WAT     H193169   7.324   8.393   3.181 -2.2838 -0.9460 -0.5359
22841WAT     H293170   7.295   8.448   3.043  0.8172 -1.0940 -1.3289
22841WAT    EPW93171   7.342   8.398   3.096  0.1578 -0.4320 -0.0559
22842WAT      O93172   0.772   0.293   3.024 -0.2846 -0.1346 -0.0250
22842WAT     H193173   0.713   0.268   3.095  0.0958 -2.6058 -0.4759
22842WAT     H293174   0.855   0.313   3.066  0.1079 -2.1500  0.2719
22842WAT    EPW93175   0.775   0.292   3.039 -0.1827 -0.7263 -0.0454
22843WAT      O93176   7.932   8.566   4.000 -0.1407 -0.1608 -1.1030
22843WAT     H193177   7.900   8.592   3.913  0.6171 -0.8682 -1.6111
22843WAT     H293178   8.003   8.505   3.981  0.7570  0.5106  0.0078
22843WAT    EPW93179   7.937   8.561   3.986  0.0775 -0.1655 -1.0234
22844WAT      O93180   9.454   9.201   6.454 -0.1713  0.3154  0.1852
22844WAT     H193181   9.512   9.239   6.388 -0.9410  1.6804  0.2616
22844WAT     H293182   9.422   9.276   6.504 -1.1477 -0.5131  0.8419
22844WAT    EPW93183   9.458   9.216   6.452 -0.4015  0.3867  0.2816
22845WAT      O93184   5.911   9.674   7.222 -0.3521  0.1203  0.5174
22845WAT     H193185   5.977   9.618   7.181 -1.5204 -1.1518  0.3174
22845WAT     H293186   5.930   9.669   7.316 -1.8035 -2.5311  0.7565
22845WAT    EPW93187   5.922   9.666   7.229 -0.6976 -0.3972  0.5229
22846WAT      O93188   8.456   0.541   5.284  0.2392 -0.0733  1.2461
22846WAT     H193189   8.433   0.448   5.278  1.0911 -0.4445  3.0107
22846WAT     H293190   8.551   0.542   5.295  0.1958  0.9704  1.6942
22846WAT    EPW93191   8.465   0.529   5.285  0.3457  0.0154  1.5378
22847WAT      O93192   8.174   7.868   5.677 -0.3639 -0.6568 -0.3911
22847WAT     H193193   8.206   7.922   5.748  0.2175  2.1712 -2.6292
22847WAT     H293194   8.230   7.790   5.679  0.3258 -0.1712  1.5225
22847WAT    EPW93195   8.186   7.865   5.686 -0.1965 -0.2198 -0.4339
22848WAT      O93196   5.958  10.124   3.469 -0.9767 -0.3650  0.3465
22848WAT     H193197   6.017  10.165   3.406 -0.4576 -1.1267  0.3246
22848WAT     H293198   5.994  10.037   3.483 -0.2030  0.2747  2.8337
22848WAT    EPW93199   5.970  10.118   3.462 -0.8063 -0.3810  0.6716
22849WAT      O93200   2.222   0.644   4.065 -1.1220 -0.1447 -0.8137
22849WAT     H193201   2.239   0.638   3.971  0.6260  0.1342 -0.5385
22849WAT     H293202   2.268   0.723   4.093  3.3059 -3.0349  1.2041
22849WAT    EPW93203   2.230   0.653   4.056 -0.3076 -0.4891 -0.5112
22850WAT      O93204   2.046   7.865   3.008 -0.5753 -0.4750  0.2073
22850WAT     H193205   1.969   7.828   2.966  0.8168 -1.5994 -1.5214
22850WAT     H293206   2.080   7.795   3.063 -0.0593 -0.4553 -0.0766
22850WAT    EPW93207   2.040   7.851   3.010 -0.3237 -0.6208 -0.0582
22851WAT      O93208   6.482   7.196   6.325  0.0100 -0.3412  0.0474
22851WAT     H193209   6.408   7.169   6.271 -0.2840  0.1289  0.2107
22851WAT     H293210   6.557   7.149   6.288 -0.4245 -1.0916  0.1069
22851WAT    EPW93211   6.482   7.187   6.313 -0.0861 -0.3781  0.0770
22852WAT      O93212   6.539   2.384   5.511 -0.2706 -0.0061  0.4781
22852WAT     H193213   6.573   2.410   5.597 -0.9244 -1.7444  1.3035
22852WAT     H293214   6.541   2.288   5.512 -1.1717 -0.0819 -1.0972
22852WAT    EPW93215   6.544   2.375   5.522 -0.4756 -0.2452  0.3793
22853WAT      O93216   0.119   1.697   3.833 -0.6002  1.0949 -0.1582
22853WAT     H193217   0.162   1.655   3.759 -0.8800  2.0630 -0.8972
22853WAT     H293218   0.071   1.626   3.876  0.9725  0.1810  0.1554
22853WAT    EPW93219   0.118   1.682   3.829 -0.4297  1.1020 -0.2142
22854WAT      O93220   3.308   3.092   8.344  0.1667  0.4284 -0.2258
22854WAT     H193221   3.245   3.163   8.339 -2.7884 -1.7726  2.1242
22854WAT     H293222   3.321   3.078   8.438  3.2654 -0.0627 -0.6275
22854WAT    EPW93223   3.302   3.100   8.356  0.1856  0.0733  0.0315
22855WAT      O93224  10.713   3.399   3.863 -0.9502  0.3292  0.2263
22855WAT     H193225  10.710   3.494   3.846 -0.2585  0.3715  0.2926
22855WAT     H293226  10.681   3.359   3.782 -0.1431  0.5985 -0.2441
22855WAT    EPW93227  10.708   3.407   3.850 -0.7529  0.3705  0.1730
22856WAT      O93228  10.713   9.531   2.043  0.1627 -0.5807 -0.3412
22856WAT     H193229  10.686   9.440   2.060  2.1871 -0.7998  2.4457
22856WAT     H293230  10.704   9.574   2.128  1.1104  1.3065 -1.1525
22856WAT    EPW93231  10.708   9.525   2.056  0.5546 -0.3605 -0.0805
22857WAT      O93232   6.173   7.879   3.578 -0.2998  0.0038  0.5739
22857WAT     H193233   6.249   7.830   3.608  0.4346  0.7388 -0.0299
22857WAT     H293234   6.147   7.835   3.497 -1.1875 -0.8939  1.3263
22857WAT    EPW93235   6.180   7.867   3.572 -0.3200 -0.0176  0.5934
22858WAT      O93236   0.907   8.346   3.994 -0.0675  0.6215  0.3513
22858WAT     H193237   0.991   8.362   3.952 -0.5024 -0.7995 -1.1565
22858WAT     H293238   0.854   8.304   3.926 -1.5840  0.3574  1.6489
22858WAT    EPW93239   0.911   8.343   3.979 -0.3248  0.3996  0.3238
22859WAT      O93240   7.292   0.577   3.209  0.8409  0.1555  0.0115
22859WAT     H193241   7.214   0.524   3.225  0.3598  0.8993  0.2078
22859WAT     H293242   7.350   0.558   3.283  0.7080 -0.1544  0.0360
22859WAT    EPW93243   7.290   0.568   3.221  0.7601  0.2127  0.0407
22860WAT      O93244   7.644   0.871   7.194 -0.7739 -0.0836 -0.2295
22860WAT     H193245   7.573   0.924   7.230 -1.2424  1.1111 -2.7158
22860WAT     H293246   7.718   0.889   7.251 -1.9347  0.1324  1.2936
22860WAT    EPW93247   7.644   0.881   7.206 -0.9885  0.1025 -0.3564
22861WAT      O93248   6.491   4.992   2.433  0.0878  0.5054 -0.1752
22861WAT     H193249   6.480   5.087   2.423 -1.3932  0.6795  2.2609
22861WAT     H293250   6.404   4.956   2.420  0.3272 -0.3437  0.4605
22861WAT    EPW93251   6.478   5.000   2.430 -0.0758  0.4160  0.2300
22862WAT      O93252   5.352   7.308   6.150 -0.3009 -0.2077  0.1278
22862WAT     H193253   5.419   7.325   6.216  2.0761 -2.4675 -1.5388
22862WAT     H293254   5.287   7.254   6.195 -1.6208  2.6975  2.0055
22862WAT    EPW93255   5.352   7.303   6.165 -0.1614 -0.1225  0.1559
22863WAT      O93256   8.955   1.174   4.019 -0.3762  0.5877 -0.0932
22863WAT     H193257   8.963   1.164   4.114  0.6713  0.3033 -0.2061
22863WAT     H293258   9.009   1.104   3.983 -0.2777  1.0705 -0.9025
22863WAT    EPW93259   8.963   1.164   4.027 -0.2251  0.6139 -0.2148
22864WAT      O93260   5.032   9.244   6.485 -0.7059  0.9025 -0.8444
22864WAT     H193261   5.057   9.295   6.562  1.0190 -1.1717  0.0455
22864WAT     H293262   5.042   9.306   6.412 -1.5544  2.6609  0.4668
22864WAT    EPW93263   5.037   9.259   6.486 -0.5906  0.8607 -0.5541
22865WAT      O93264   8.519   7.117   2.141  0.1213  0.7880 -0.5927
22865WAT     H193265   8.460   7.064   2.088 -1.9477  0.8008  1.5298
22865WAT     H293266   8.607   7.090   2.115 -0.8241 -0.4832 -2.6498
22865WAT    EPW93267   8.523   7.107   2.131 -0.2761  0.6220 -0.5840
22866WAT      O93268   6.104   7.977   5.475  0.5992 -0.7877 -0.2223
22866WAT     H193269   6.049   8.037   5.526  2.0473  0.8084 -0.4731
22866WAT     H293270   6.146   7.921   5.541  2.7274  1.4811  0.4864
22866WAT    EPW93271   6.102   7.977   5.490  1.0707 -0.2780 -0.1619
22867WAT      O93272   4.429  10.297   4.100 -0.0185  0.1056 -0.0849
22867WAT     H193273   4.520  10.266   4.105  0.1627  0.5177 -0.6830
22867WAT     H293274   4.378  10.219   4.080  0.4155  0.1594 -1.4798
22867WAT    EPW93275   4.434  10.283   4.098  0.0629  0.1669 -0.3479
22868WAT      O93276   4.277   9.392   5.954 -0.2533  0.4849  0.9605
22868WAT     H193277   4.206   9.456   5.956 -1.7617 -0.9891 -0.9382
22868WAT     H293278   4.299   9.385   5.861  1.7930  0.2391  1.4249
22868WAT    EPW93279   4.271   9.399   5.942 -0.1824  0.2580  0.7715
22869WAT      O93280   8.806   3.932   5.673  0.3548  0.3686  0.8436
22869WAT     H193281   8.738   3.886   5.623  0.0743  0.3475  1.2382
22869WAT     H293282   8.886   3.883   5.656  0.1617  0.0613  0.8207
22869WAT    EPW93283   8.808   3.919   5.664  0.2918  0.3252  0.8926
22870WAT      O93284   6.849   9.854   3.172 -0.2301  0.1892  0.5548
22870WAT     H193285   6.884   9.934   3.134 -0.9956  0.6687  0.8439
22870WAT     H293286   6.757   9.874   3.191 -0.1176 -0.3542  1.7586
22870WAT    EPW93287   6.841   9.867   3.169 -0.3161  0.1807  0.7517
22871WAT      O93288   6.061   9.348   3.299 -0.0588  0.4590 -0.0918
22871WAT     H193289   6.148   9.309   3.310  0.8796  2.0370 -1.5560
22871WAT     H293290   6.075   9.423   3.241 -2.4914  0.4651 -0.7682
22871WAT    EPW93291   6.075   9.353   3.293 -0.2556  0.6685 -0.3741
22872WAT      O93292   5.259   7.850   0.770  0.9058  0.4740  0.0401
22872WAT     H193293   5.296   7.782   0.826 -1.1899 -0.2192  0.6627
22872WAT     H293294   5.236   7.804   0.689 -1.9028  0.0157  1.0089
22872WAT    EPW93295   5.261   7.835   0.767  0.2594  0.3223  0.2500
22873WAT      O93296   8.428   9.738   5.075 -0.2041 -0.5487 -0.7302
22873WAT     H193297   8.478   9.820   5.074 -1.6302  0.3592 -0.1026
22873WAT     H293298   8.357   9.753   5.013 -0.4981 -1.2957 -0.5791
22873WAT    EPW93299   8.425   9.751   5.067 -0.4315 -0.5274 -0.6275
22874WAT      O93300   5.801   6.239   5.717 -0.3413 -0.3328  0.2277
22874WAT     H193301   5.760   6.280   5.793  0.6114 -1.3846  1.3469
22874WAT     H293302   5.727   6.215   5.660 -0.9742  1.9094  0.0042
22874WAT    EPW93303   5.786   6.241   5.719 -0.2992 -0.1757  0.3462
22875WAT      O93304   5.514   7.860   8.006  0.0483 -0.1791 -0.3188
22875WAT     H193305   5.515   7.938   7.950  0.3518 -0.9327 -1.3939
22875WAT     H293306   5.423   7.830   8.003  0.0774 -0.2529 -0.4482
22875WAT    EPW93307   5.502   7.867   7.998  0.0923 -0.2882 -0.4773
22876WAT      O93308   5.323   2.095   8.092  0.1835  0.1533 -0.0420
22876WAT     H193309   5.334   2.172   8.147 -1.3554 -1.1908  2.3227
22876WAT     H293310   5.247   2.115   8.037  1.6426  1.4494 -1.6821
22876WAT    EPW93311   5.315   2.107   8.092  0.1733  0.1470  0.0534
22877WAT      O93312   5.872   7.051   4.417  0.4401  0.7743  0.7174
22877WAT     H193313   5.812   7.119   4.390  0.8361  1.0551  0.5387
22877WAT     H293314   5.828   7.008   4.490  0.4091  1.5468  1.1617
22877WAT    EPW93315   5.858   7.054   4.423  0.4883  0.9134  0.7522
22878WAT      O93316   7.656   1.081   4.206  0.3163  1.0345  0.0408
22878WAT     H193317   7.653   1.016   4.136  3.5438  2.2647 -1.4235
22878WAT     H293318   7.572   1.127   4.199 -1.0036 -1.3140 -0.4743
22878WAT    EPW93319   7.644   1.079   4.196  0.5677  0.8870 -0.2203
22879WAT      O93320   1.290   1.469   4.568  0.6024  0.0786 -0.0496
22879WAT     H193321   1.369   1.508   4.606 -0.7572  2.2672  0.7742
22879WAT     H293322   1.310   1.460   4.475  1.5376  1.4532 -0.0147
22879WAT    EPW93323   1.303   1.473   4.561  0.5465  0.5486  0.0637
22880WAT      O93324   4.469   5.795   0.005 -0.2420 -0.1983 -0.0705
22880WAT     H193325   4.489   5.761  -0.082  0.5979 -3.3133  1.2096
22880WAT     H293326   4.442   5.886  -0.011  3.8621  0.7831 -3.1488
22880WAT    EPW93327   4.468   5.802  -0.009  0.4101 -0.4797 -0.3076
22881WAT      O93328   5.727   9.368   4.510  0.3561  0.2188  0.0447
22881WAT     H193329   5.661   9.320   4.559  1.6596 -1.2012  0.4996
22881WAT     H293330   5.774   9.301   4.460  0.9530  1.2728 -0.8569
22881WAT    EPW93331   5.725   9.353   4.510  0.6065  0.1707 -0.0141
22882WAT      O93332   8.464  10.066   1.187  0.0365  0.1092 -0.0463
22882WAT     H193333   8.435  10.142   1.136  0.4830  1.0697  1.0715
22882WAT     H293334   8.395  10.053   1.252 -1.1754 -1.9318 -1.6520
22882WAT    EPW93335   8.451  10.075   1.189 -0.0648 -0.0339 -0.1107
22883WAT      O93336   5.109   6.858   5.839  0.5929 -0.3284 -0.4128
22883WAT     H193337   5.105   6.899   5.926  2.0790 -0.0459 -0.4430
22883WAT     H293338   5.018   6.837   5.818  0.0932  0.5302  0.7658
22883WAT    EPW93339   5.097   6.860   5.848  0.7229 -0.1779 -0.2613
22884WAT      O93340  10.787   0.282   6.196 -0.0302  0.2682 -0.4398
22884WAT     H193341  10.795   0.316   6.285  0.8958  1.3720 -0.9277
22884WAT     H293342  10.727   0.207   6.205 -1.2841  1.3541  0.8349
22884WAT    EPW93343  10.780   0.277   6.209 -0.0734  0.5570 -0.3362
22885WAT      O93344   7.711   8.799   5.292 -0.3088 -0.3647  0.2756
22885WAT     H193345   7.780   8.737   5.316  0.4550  0.3659  0.0295
22885WAT     H293346   7.651   8.798   5.367  0.1617 -0.7415  0.6557
22885WAT    EPW93347   7.712   8.791   5.305 -0.1459 -0.3181  0.2933
22886WAT      O93348   8.795   7.653   3.969  0.0908  0.5133  0.2394
22886WAT     H193349   8.867   7.595   3.944  1.4576  1.2667  2.1674
22886WAT     H293350   8.718   7.596   3.970  1.2468 -1.1461  1.3494
22886WAT    EPW93351   8.794   7.638   3.966  0.4234  0.3939  0.6400
22887WAT      O93352   8.279  10.017   1.625 -0.3671  0.0398 -0.5051
22887WAT     H193353   8.333  10.033   1.703 -0.9546  0.3030 -0.1486
22887WAT     H293354   8.191  10.005   1.659 -0.3052 -2.0176 -0.9378
22887WAT    EPW93355   8.275  10.018   1.640 -0.4363 -0.1969 -0.5152
22888WAT      O93356   6.310   7.117   4.720 -0.6318 -0.5418 -0.1974
22888WAT     H193357   6.240   7.138   4.658 -0.4247 -2.5389 -1.1757
22888WAT     H293358   6.377   7.184   4.704 -0.4125 -1.2207 -2.4470
22888WAT    EPW93359   6.309   7.129   4.710 -0.5755 -0.8948 -0.6232
22889WAT      O93360   6.904  10.102   8.449 -0.1772  0.3483 -0.4877
22889WAT     H193361   6.874  10.019   8.411 -0.4575 -0.1801  0.8453
22889WAT     H293362   6.838  10.122   8.515 -1.0620  2.5451 -1.9291
22889WAT    EPW93363   6.891  10.093   8.453 -0.3309  0.5679 -0.5016
22890WAT      O93364   7.947   7.796   5.807 -0.2409  0.4871 -0.6653
22890WAT     H193365   8.034   7.779   5.771 -1.0835 -1.4898 -1.9546
22890WAT     H293366   7.952   7.765   5.897  0.6244  1.2252 -0.4489
22890WAT    EPW93367   7.959   7.790   5.814 -0.2379  0.3235 -0.8066
22891WAT      O93368   5.294  10.204   1.100 -0.5042  0.5501 -0.2497
22891WAT     H193369   5.273  10.264   1.171 -0.5600 -0.9923  1.1134
22891WAT     H293370   5.263  10.118   1.131  0.8729 -0.4444 -1.4620
22891WAT    EPW93371   5.287  10.200   1.114 -0.3300  0.2151 -0.2298
22892WAT      O93372   6.827   7.017   4.135 -0.7557 -0.1131  0.5469
22892WAT     H193373   6.741   7.040   4.099 -1.1315  0.1959  1.5986
22892WAT     H293374   6.817   7.029   4.230 -0.2103 -2.2018  0.9168
22892WAT    EPW93375   6.814   7.022   4.143 -0.7334 -0.3479  0.7346
22893WAT      O93376   8.538   7.364   3.245  0.7354  0.2217  0.4171
22893WAT     H193377   8.504   7.432   3.187  0.0211 -1.0231 -0.6843
22893WAT     H293378   8.571   7.296   3.186  0.2357 -0.9709  1.4516
22893WAT    EPW93379   8.538   7.364   3.230  0.5751 -0.0997  0.4083
22894WAT      O93380   0.680   7.560   5.648  0.0625  0.6006 -0.1209
22894WAT     H193381   0.758   7.506   5.660  3.2008  4.6280 -0.2691
22894WAT     H293382   0.656   7.588   5.736 -0.5564  0.3023 -0.1860
22894WAT    EPW93383   0.687   7.556   5.661  0.3948  1.0924 -0.1490
22895WAT      O93384   4.477   9.051   5.113 -0.2716  0.1025 -0.3895
22895WAT     H193385   4.437   9.032   5.028  0.9042 -2.9900 -0.3684
22895WAT     H293386   4.546   8.986   5.122  0.2763  0.9471  2.5540
22895WAT    EPW93387   4.481   9.040   5.103 -0.0443 -0.1941  0.0014
22896WAT      O93388   0.836   3.675   3.252 -0.0564  0.2143  0.2568
22896WAT     H193389   0.793   3.652   3.334 -1.0041  2.8201  0.5857
22896WAT     H293390   0.918   3.718   3.278  1.1120 -1.5784 -0.2877
22896WAT    EPW93391   0.841   3.678   3.266 -0.0272  0.3215  0.2284
22897WAT      O93392   5.400   8.007   4.217  0.1856 -0.0695 -0.4489
22897WAT     H193393   5.307   8.026   4.232 -0.0046 -1.8128  0.9259
22897WAT     H293394   5.399   7.928   4.163  0.9112  0.8660 -1.8890
22897WAT    EPW93395   5.387   7.999   4.212  0.2565 -0.1755 -0.4573
22898WAT      O93396  10.149   8.742   6.428 -0.7623 -1.3067 -0.6304
22898WAT     H193397  10.170   8.670   6.487 -0.9123 -1.2207 -0.4697
22898WAT     H293398  10.223   8.746   6.368 -0.4926 -1.2388 -0.2978
22898WAT    EPW93399  10.162   8.733   6.428 -0.7467 -1.2860 -0.5653
22899WAT      O93400   7.082   8.431   4.571  0.3805 -0.3839 -0.2704
22899WAT     H193401   7.126   8.439   4.655 -0.7338 -0.2834  0.3158
22899WAT     H293402   7.098   8.340   4.544  2.9711  0.2829 -1.2440
22899WAT    EPW93403   7.090   8.420   4.578  0.5751 -0.2828 -0.3214
22900WAT      O93404   4.481   4.767   8.960 -0.0244 -0.7616 -0.5670
22900WAT     H193405   4.559   4.778   8.905  0.1808  1.3678  0.0535
22900WAT     H293406   4.476   4.673   8.975  0.2456 -1.4031 -3.7097
22900WAT    EPW93407   4.491   4.756   8.954  0.0381 -0.5653 -0.8998
22901WAT      O93408   4.953  10.156   2.721 -0.8003 -0.1727  0.5798
22901WAT     H193409   5.029  10.206   2.692 -0.8844 -0.4762 -0.1985
22901WAT     H293410   4.949  10.082   2.661 -0.4507 -1.3441  1.9524
22901WAT    EPW93411   4.962  10.153   2.709 -0.7651 -0.3672  0.6582
22902WAT      O93412   3.220   3.393   8.776  0.1334  0.2556 -0.2792
22902WAT     H193413   3.142   3.447   8.766  0.0217 -0.1251 -1.6733
22902WAT     H293414   3.292   3.456   8.787 -0.1411  0.6710 -0.7997
22902WAT    EPW93415   3.219   3.408   8.776  0.0824  0.2602 -0.5322
22903WAT      O93416   7.918   0.112   3.975 -0.2314 -0.2018 -0.0009
22903WAT     H193417   7.873   0.051   3.917  1.7674 -0.2875 -1.5806
22903WAT     H293418   7.984   0.059   4.020  0.4332  0.4685 -0.1542
22903WAT    EPW93419   7.921   0.097   3.973  0.1197 -0.1247 -0.2295
22904WAT      O93420   8.845   3.235   4.949  0.0551  0.2127  0.0512
22904WAT     H193421   8.809   3.148   4.928  0.6224 -0.6865  2.4193
22904WAT     H293422   8.936   3.217   4.974  0.1621  1.4820  0.6224
22904WAT    EPW93423   8.852   3.221   4.950  0.1435  0.2614  0.4389
22905WAT      O93424   4.074   8.238   6.000 -0.4051  0.0001  0.5290
22905WAT     H193425   4.089   8.330   6.021 -0.1733 -0.1556  1.0751
22905WAT     H293426   3.987   8.219   6.035 -0.2662 -0.1041  0.8215
22905WAT    EPW93427   4.065   8.248   6.008 -0.3560 -0.0339  0.6394
22906WAT      O93428  10.893   0.855   2.825  0.6171  0.3979  0.1968
22906WAT     H193429  10.834   0.858   2.750  1.8719  0.1110 -0.8427
22906WAT     H293430  10.977   0.887   2.791  1.2597  0.0883  1.4269
22906WAT    EPW93431  10.897   0.859   2.810  0.8674  0.3192  0.2218
22907WAT      O93432   8.946   0.104   2.228  0.5576 -0.0714 -0.2316
22907WAT     H193433   9.008   0.121   2.298  2.6173  2.3239 -2.4227
22907WAT     H293434   8.870   0.159   2.248  1.7474  1.7735 -0.5356
22907WAT    EPW93435   8.944   0.113   2.240  0.9861  0.4878 -0.5606
22908WAT      O93436   9.123   7.822   2.519 -0.0670 -0.2545 -0.1387
22908WAT     H193437   9.216   7.834   2.498  0.3631 -3.1115 -0.2385
22908WAT     H293438   9.122   7.787   2.608 -1.1133  0.3391  0.1025
22908WAT    EPW93439   9.135   7.819   2.528 -0.1488 -0.5529 -0.1202
22909WAT      O93440   4.700  10.337   4.463 -0.2097  0.5252 -0.0263
22909WAT     H193441   4.793  10.356   4.448 -0.1700 -0.4854 -1.1989
22909WAT     H293442   4.699  10.247   4.496 -0.7278  0.7618  0.6119
22909WAT    EPW93443   4.713  10.328   4.465 -0.2730  0.4234 -0.0968
22910WAT      O93444   7.261   8.704   3.478 -0.1902  0.2815 -0.2393
22910WAT     H193445   7.272   8.762   3.554 -0.6924  2.9010 -2.0321
22910WAT     H293446   7.172   8.670   3.487 -0.2369  0.5426  0.3753
22910WAT    EPW93447   7.251   8.707   3.489 -0.2627  0.6614 -0.3947
22911WAT      O93448   9.673   0.166   6.376 -0.4354  0.0366  0.6927
22911WAT     H193449   9.684   0.169   6.281 -1.0020 -0.0982  0.6179
22911WAT     H293450   9.634   0.251   6.399 -0.6609 -0.0800  0.7495
22911WAT    EPW93451   9.669   0.178   6.367 -0.5398  0.0034  0.6905
22912WAT      O93452   5.397   8.052   2.418 -0.0921 -0.6856  0.4671
22912WAT     H193453   5.326   7.999   2.454  1.7183 -4.5970 -1.0981
22912WAT     H293454   5.477   8.011   2.452  1.4667  0.6199 -1.3929
22912WAT    EPW93455   5.398   8.040   2.427  0.3524 -1.0290  0.0153
22913WAT      O93456   9.841   0.861   7.263  0.3479  0.6512 -0.0613
22913WAT     H193457   9.805   0.826   7.344  1.2323 -2.4679 -0.8721
22913WAT     H293458   9.782   0.932   7.238 -2.5951 -1.2850  0.9612
22913WAT    EPW93459   9.829   0.866   7.271  0.0763 -0.0156 -0.0334
22914WAT      O93460  10.588   1.992   5.460  0.5137 -0.6504  0.4179
22914WAT     H193461  10.499   2.020   5.482  0.3267 -0.0279 -1.0308
22914WAT     H293462  10.641   2.071   5.473 -0.1636  1.0442 -4.6389
22914WAT    EPW93463  10.583   2.006   5.465  0.4001 -0.3449 -0.4401
22915WAT      O93464   6.827   9.958   7.231  0.0471  0.4570  0.0097
22915WAT     H193465   6.767   9.959   7.156  0.7014 -0.2480 -0.5462
22915WAT     H293466   6.910   9.988   7.194  0.1974  0.8045  0.6256
22915WAT    EPW93467   6.830   9.963   7.216  0.1531  0.4096  0.0174
22916WAT      O93468  10.617   0.747   4.966  0.4802  0.2717 -0.7762
22916WAT     H193469  10.630   0.842   4.973  1.8622  0.0557 -0.0739
22916WAT     H293470  10.598   0.732   4.873 -0.1730  1.2638 -0.8228
22916WAT    EPW93471  10.616   0.757   4.954  0.5765  0.3741 -0.6895
22917WAT      O93472   5.187   8.818   0.066 -0.3016  0.4303 -0.9105
22917WAT     H193473   5.270   8.781   0.097 -1.2865 -0.3967  0.8906
22917WAT     H293474   5.141   8.745   0.025 -0.7594  0.5090 -0.5516
22917WAT    EPW93475   5.192   8.804   0.065 -0.4921  0.3319 -0.6256
22918WAT      O93476   7.451   7.151   5.133  0.4203  0.1402 -0.3936
22918WAT     H193477   7.363   7.118   5.148  1.2603 -1.3827  1.6504
22918WAT     H293478   7.438   7.232   5.083 -2.1976  0.6550  0.9639
22918WAT    EPW93479   7.438   7.157   5.128  0.1860  0.0076  0.0548
22919WAT      O93480   7.947  10.263   4.571  0.4675 -0.0626 -0.9103
22919WAT     H193481   7.913  10.298   4.654  0.5521  1.2938 -1.4197
22919WAT     H293482   8.042  10.279   4.576  0.6698 -1.2422 -0.6974
22919WAT    EPW93483   7.955  10.270   4.583  0.5052 -0.0391 -0.9496
22920WAT      O93484  10.604   0.502   4.203 -0.3249  0.3476 -0.8346
22920WAT     H193485  10.571   0.592   4.204 -0.9970  0.1007 -0.1293
22920WAT     H293486  10.527   0.449   4.182 -0.3847 -0.2289  0.7315
22920WAT    EPW93487  10.589   0.507   4.200 -0.4215  0.2390 -0.5348
22921WAT      O93488   9.724   1.419   0.990 -0.2089  0.3792  0.0033
22921WAT     H193489   9.701   1.376   1.072  1.0466 -0.0257  0.1601
22921WAT     H293490   9.786   1.360   0.948  2.3013  2.4136  0.6441
22921WAT    EPW93491   9.729   1.405   0.995  0.2871  0.5941  0.1084
22922WAT      O93492   6.003   5.514   2.255  0.2308  0.8638  0.0693
22922WAT     H193493   5.953   5.460   2.193  4.8817 -1.2081 -2.4011
22922WAT     H293494   6.022   5.594   2.208  0.9717  0.7369  0.1449
22922WAT    EPW93495   5.999   5.517   2.241  0.9420  0.5739 -0.2466
22923WAT      O93496   8.367   8.630   5.246 -0.9554 -0.4397 -0.2798
22923WAT     H193497   8.355   8.687   5.170  0.1330  0.8166  0.4563
22923WAT     H293498   8.453   8.589   5.231 -2.1083 -2.6609 -1.2564
22923WAT    EPW93499   8.377   8.632   5.234 -0.9637 -0.5665 -0.3116
22924WAT      O93500   4.204   6.988   4.997  0.6298 -0.1571  0.1411
22924WAT     H193501   4.195   7.060   4.934  1.5002 -0.0327  0.1535
22924WAT     H293502   4.297   6.985   5.018  0.8301 -2.0645 -0.7731
22924WAT    EPW93503   4.215   6.997   4.991  0.7710 -0.3922  0.0222
22925WAT      O93504   5.448   8.909   4.102  0.9264 -0.0273 -0.4586
22925WAT     H193505   5.493   8.900   4.018  0.4521  1.6443 -0.9312
22925WAT     H293506   5.368   8.858   4.092  0.9705 -0.0025 -0.9624
22925WAT    EPW93507   5.444   8.901   4.090  0.8695  0.1969 -0.5875
22926WAT      O93508   9.530   0.807   3.582  0.5246  1.0474 -0.0607
22926WAT     H193509   9.474   0.761   3.644  1.3563  1.2863  0.9090
22926WAT     H293510   9.576   0.872   3.636  0.4989  1.9746 -1.1272
22926WAT    EPW93511   9.529   0.809   3.598  0.6309  1.2012 -0.0734
22927WAT      O93512   1.548   1.054   3.124 -0.2061  0.4740 -0.8851
22927WAT     H193513   1.478   1.114   3.153  0.8857  2.4823 -2.1874
22927WAT     H293514   1.575   1.009   3.204  0.0505  2.9639  0.5295
22927WAT    EPW93515   1.542   1.056   3.139 -0.0283  1.0673 -0.8702
22928WAT      O93516  10.814   2.468   7.372  0.3290 -0.1889  0.1235
22928WAT     H193517  10.831   2.483   7.465  0.8155 -0.7512  0.1346
22928WAT     H293518  10.744   2.402   7.370  2.5974 -2.7997  0.1716
22928WAT    EPW93519  10.807   2.461   7.384  0.6919 -0.6075  0.1314
22929WAT      O93520  10.901   9.619   5.036  0.2974 -0.0550 -0.2124
22929WAT     H193521  10.982   9.624   5.087  1.4506 -1.2578 -1.8263
22929WAT     H293522  10.898   9.702   4.988 -0.3552  0.7154  1.0938
22929WAT    EPW93523  10.911   9.631   5.036  0.3633 -0.1121 -0.2530
22930WAT      O93524   5.641   1.160   4.518  0.3333  0.8146 -0.1938
22930WAT     H193525   5.629   1.246   4.559  0.6196  0.0390  1.5984
22930WAT     H293526   5.696   1.179   4.441 -1.7583  2.5649 -1.3759
22930WAT    EPW93527   5.647   1.174   4.513  0.0956  0.9431 -0.1130
22931WAT      O93528   6.120   7.938   4.343 -0.1724 -0.2345 -1.0889
22931WAT     H193529   6.091   7.927   4.433  2.6273 -0.5263 -0.1116
22931WAT     H293530   6.051   7.988   4.301 -0.3810  2.3435  1.9606
22931WAT    EPW93531   6.107   7.943   4.349  0.1690  0.0668 -0.5577
22932WAT      O93532   5.256   5.855   2.095  0.8756 -0.0456 -0.5784
22932WAT     H193533   5.207   5.865   2.176  0.3973  0.1165 -0.8788
22932WAT     H293534   5.346   5.875   2.118  1.2682 -2.7001  0.5188
22932WAT    EPW93535   5.261   5.859   2.109  0.8643 -0.3746 -0.4733
22933WAT      O93536  10.443   9.230   6.666 -0.4237  0.0747  0.3865
22933WAT     H193537  10.453   9.213   6.572 -0.8997  1.5043  0.0495
22933WAT     H293538  10.520   9.282   6.689  0.9304 -2.1749  1.3606
22933WAT    EPW93539  10.454   9.234   6.657 -0.3080 -0.0334  0.4706
22934WAT      O93540   7.512   1.204   3.910 -0.0765 -0.0310 -0.1254
22934WAT     H193541   7.486   1.111   3.907  1.0793 -0.3708 -0.2116
22934WAT     H293542   7.439   1.248   3.952 -0.9719 -0.8673 -0.7551
22934WAT    EPW93543   7.499   1.197   3.915 -0.0422 -0.1861 -0.2198
22935WAT      O93544   5.328   7.792   3.473  0.8506 -0.5279 -0.6886
22935WAT     H193545   5.281   7.860   3.424 -0.1136  0.1779  1.1303
22935WAT     H293546   5.390   7.841   3.528  1.3961 -1.2589 -0.6395
22935WAT    EPW93547   5.330   7.808   3.474  0.7954 -0.5314 -0.4421
22936WAT      O93548   6.803   8.435   5.452 -0.5611  0.7689  0.0060
22936WAT     H193549   6.737   8.392   5.398 -0.0188 -0.5510  0.3650
22936WAT     H293550   6.785   8.404   5.541  1.4774 -0.9132 -0.0865
22936WAT    EPW93551   6.792   8.425   5.456 -0.2208  0.3734  0.0412
22937WAT      O93552   6.091   8.635   5.676  0.1767 -0.5538  0.4580
22937WAT     H193553   6.077   8.556   5.727 -0.8249 -0.6176  0.1148
22937WAT     H293554   6.022   8.633   5.609  1.0198 -0.1164 -0.4501
22937WAT    EPW93555   6.080   8.624   5.674  0.1559 -0.5045  0.2930
22938WAT      O93556   0.108   0.831   5.270  0.2611 -0.3711 -0.1980
22938WAT     H193557   0.125   0.824   5.176 -1.2233  1.0112 -0.6286
22938WAT     H293558   0.029   0.779   5.284  0.0913 -0.0258  0.1547
22938WAT    EPW93559   0.100   0.824   5.259  0.0430 -0.1432 -0.2084
22939WAT      O93560   9.230   9.152   3.016 -0.0005 -0.4591 -0.3201
22939WAT     H193561   9.166   9.154   3.087  1.4740  0.8602  1.0599
22939WAT     H293562   9.188   9.101   2.947 -3.4390  2.1488 -0.4172
22939WAT    EPW93563   9.216   9.145   3.016 -0.2594  0.0587 -0.1508
22940WAT      O93564   5.547   8.138   3.605 -0.4410 -0.0612 -0.6986
22940WAT     H193565   5.463   8.159   3.563 -0.3146  0.8369 -0.5249
22940WAT     H293566   5.612   8.148   3.536 -0.3977 -0.0423 -0.6552
22940WAT    EPW93567   5.544   8.142   3.591 -0.4184  0.0601 -0.6700
22941WAT      O93568   4.518   6.210   3.860  0.5250 -0.3226  0.2618
22941WAT     H193569   4.506   6.163   3.777  3.2708  2.0291 -1.6632
22941WAT     H293570   4.455   6.282   3.856  1.8790  0.8591 -0.7441
22941WAT    EPW93571   4.508   6.213   3.849  1.0657  0.1435 -0.1247
22942WAT      O93572  10.069   9.230   6.428 -0.5414  0.0163  0.6396
22942WAT     H193573  10.119   9.310   6.448 -2.1257  2.7911 -4.5468
22942WAT     H293574  10.133   9.160   6.436  2.6911  2.5995 -0.1300
22942WAT    EPW93575  10.084   9.231   6.432 -0.3242  0.7229 -0.1459
22943WAT      O93576   5.463   9.496   1.765 -0.0417 -0.8513 -0.5992
22943WAT     H193577   5.425   9.560   1.705 -2.0148 -2.6829 -1.4180
22943WAT     H293578   5.430   9.412   1.735  1.4062 -2.1583  1.2220
22943WAT    EPW93579   5.453   9.494   1.754 -0.1111 -1.2655 -0.4671
22944WAT      O93580   7.794   7.450   4.562  0.0780  0.0795  0.4742
22944WAT     H193581   7.733   7.460   4.489  0.9282 -0.0345 -0.2604
22944WAT     H293582   7.835   7.365   4.548  2.0515  1.0954 -0.3238
22944WAT    EPW93583   7.791   7.440   4.551  0.4501  0.1986  0.2720
22945WAT      O93584   9.238   8.337   7.753 -0.8749  0.3049 -0.4110
22945WAT     H193585   9.216   8.303   7.666  1.8363 -1.4626 -0.5091
22945WAT     H293586   9.317   8.390   7.738 -1.6420  1.8523  0.6943
22945WAT    EPW93587   9.246   8.340   7.739 -0.6180  0.2756 -0.2780
22946WAT      O93588   8.075   7.525   5.554 -0.6117 -0.0154  0.1414
22946WAT     H193589   8.058   7.589   5.485 -1.0863  0.4771  0.7071
22946WAT     H293590   8.162   7.548   5.587 -1.2154  1.0091  1.0536
22946WAT    EPW93591   8.084   7.536   5.549 -0.7539  0.1850  0.3364
22947WAT      O93592   3.625   9.734   8.691  0.1271  0.1919 -0.0034
22947WAT     H193593   3.578   9.704   8.613  0.6845  1.2700 -0.7881
22947WAT     H293594   3.591   9.823   8.707  2.1593  1.2063 -0.8990
22947WAT    EPW93595   3.614   9.742   8.683  0.4686  0.4683 -0.2251
22948WAT      O93596   7.950   7.353   5.335 -0.0404 -0.5406  0.5046
22948WAT     H193597   8.005   7.379   5.409  0.0291 -0.7567  0.5304
22948WAT     H293598   7.889   7.426   5.324 -1.4285 -1.3762  2.1217
22948WAT    EPW93599   7.949   7.366   5.343 -0.2143 -0.6795  0.7210
22949WAT      O93600   2.372   9.479   4.929 -0.3319  0.5298 -0.0731
22949WAT     H193601   2.323   9.536   4.870  1.4071  2.0347 -0.1540
22949WAT     H293602   2.388   9.400   4.877 -1.6918  0.4444 -0.4048
22949WAT    EPW93603   2.368   9.476   4.914 -0.2819  0.7172 -0.1273
22950WAT      O93604   9.446   0.215   2.948 -0.5719  0.2115 -0.4018
22950WAT     H193605   9.483   0.127   2.957 -1.0872 -0.0668 -1.0178
22950WAT     H293606   9.358   0.208   2.986 -0.8514  0.2985 -1.0279
22950WAT    EPW93607   9.439   0.202   2.954 -0.6766  0.1862 -0.5658
22951WAT      O93608   7.998   7.705   6.078  0.2031  0.2869  0.3622
22951WAT     H193609   8.031   7.770   6.139  1.7178  0.6958 -0.8223
22951WAT     H293610   7.944   7.646   6.131  1.1305  0.8538  1.9879
22951WAT    EPW93611   7.995   7.706   6.093  0.5255  0.4156  0.4206
22952WAT      O93612   7.522   9.231   7.372 -0.1522 -0.6254 -0.1516
22952WAT     H193613   7.496   9.188   7.291 -0.6313  0.0096 -0.3400
22952WAT     H293614   7.440   9.250   7.417  0.0581  0.0528 -0.0456
22952WAT    EPW93615   7.508   9.228   7.367 -0.1879 -0.4520 -0.1626
22953WAT      O93616   5.116   8.925   2.915  0.0873 -0.2217 -0.1217
22953WAT     H193617   5.188   8.975   2.878 -1.3800  1.8512 -0.3728
22953WAT     H293618   5.071   8.887   2.840 -1.5923  2.1649 -0.4502
22953WAT    EPW93619   5.119   8.926   2.900 -0.3278  0.3662 -0.1982
22954WAT      O93620  10.019   8.214   4.793 -0.1239  0.6879  0.1123
22954WAT     H193621   9.967   8.143   4.756 -0.1748 -0.0212  1.4862
22954WAT     H293622  10.046   8.182   4.879 -0.3837  2.4309  0.8880
22954WAT    EPW93623  10.016   8.201   4.799 -0.1645  0.8240  0.3958
22955WAT      O93624   5.400   9.798   6.255  0.6424  0.0740  0.6836
22955WAT     H193625   5.403   9.866   6.322 -0.6359  0.6264  0.2085
22955WAT     H293626   5.438   9.721   6.298  0.5878  0.6309  1.7734
22955WAT    EPW93627   5.406   9.797   6.269  0.4666  0.2203  0.7648
22956WAT      O93628   8.596  10.129   5.859 -0.2540 -0.3347  0.0099
22956WAT     H193629   8.529  10.155   5.796 -1.1970 -1.5753  0.4619
22956WAT     H293630   8.574  10.039   5.881 -0.2469  0.2104  2.4983
22956WAT    EPW93631   8.585  10.121   5.854 -0.3777 -0.4263  0.3977
22957WAT      O93632   7.522   9.658   5.230  0.0579  0.6669  0.7534
22957WAT     H193633   7.466   9.583   5.210 -0.2518  1.2697 -0.7703
22957WAT     H293634   7.602   9.619   5.265  0.2278 -0.4556 -0.7846
22957WAT    EPW93635   7.525   9.643   5.232  0.0393  0.5980  0.3495
22958WAT      O93636   4.668   9.118   6.907  0.6105 -0.5403  0.0992
22958WAT     H193637   4.688   9.036   6.953  0.2719 -1.4204 -1.2870
22958WAT     H293638   4.574   9.113   6.889  0.6115  0.1106 -0.0942
22958WAT    EPW93639   4.658   9.106   6.911  0.5662 -0.5708 -0.1090
22959WAT      O93640   4.113   6.755   5.994  0.0841  0.0798  0.0075
22959WAT     H193641   4.108   6.785   6.084  0.2752 -0.3594  0.1676
22959WAT     H293642   4.107   6.660   6.000 -1.5563  0.1264 -0.5659
22959WAT    EPW93643   4.112   6.746   6.006 -0.1070  0.0279 -0.0472
22960WAT      O93644   7.932   8.490   3.142 -0.4407 -0.0350  0.2543
22960WAT     H193645   7.997   8.559   3.137 -0.5200  0.0774  0.6753
22960WAT     H293646   7.871   8.508   3.071  3.0262 -3.3907 -4.1222
22960WAT    EPW93647   7.933   8.501   3.132  0.0062 -0.4630 -0.2674
22961WAT      O93648   4.984   6.605   4.338  0.4906 -0.8875  0.7146
22961WAT     H193649   5.079   6.607   4.345  0.4077 -0.2767  2.1098
22961WAT     H293650   4.953   6.605   4.429 -0.8383 -1.6817  0.2940
22961WAT    EPW93651   4.992   6.605   4.351  0.3045 -0.9120  0.8430
22962WAT      O93652   6.104   4.001   6.649 -0.1190 -0.3767  0.7575
22962WAT     H193653   6.114   4.096   6.647 -0.6598 -0.3140  0.9429
22962WAT     H293654   6.151   3.973   6.727  0.6453 -0.3382  0.3171
22962WAT    EPW93655   6.111   4.010   6.659 -0.0894 -0.3631  0.7238
22963WAT      O93656   5.200  10.359   1.305 -0.1241  0.4153 -0.1885
22963WAT     H193657   5.233  10.443   1.336  0.0685 -0.5659  2.5284
22963WAT     H293658   5.107  10.376   1.284  0.3778  1.6806 -1.6069
22963WAT    EPW93659   5.192  10.372   1.306 -0.0324  0.4530 -0.0172
22964WAT      O93660   9.940   3.539   5.143  0.3620 -0.2198  0.5544
22964WAT     H193661  10.033   3.526   5.163  0.3725 -1.1428 -0.0772
22964WAT     H293662   9.895   3.465   5.184 -0.0893  0.1363  0.7202
22964WAT    EPW93663   9.946   3.528   5.151  0.3042 -0.2946  0.4928
22965WAT      O93664   4.952   9.671   1.182 -0.5053 -0.1135  0.4861
22965WAT     H193665   4.882   9.640   1.125  1.6491 -2.8117 -0.9253
22965WAT     H293666   5.004   9.593   1.201  1.7124  1.6111  2.0937
22965WAT    EPW93667   4.950   9.657   1.177  0.0713 -0.2422  0.5120
22966WAT      O93668  10.168   0.657   2.092 -0.1173 -0.2060 -0.2073
22966WAT     H193669  10.254   0.699   2.091 -0.2193  0.0083 -0.0811
22966WAT     H293670  10.114   0.713   2.035 -0.0019 -0.7090 -0.8281
22966WAT    EPW93671  10.172   0.670   2.084 -0.1159 -0.2441 -0.2726
22967WAT      O93672   7.672   9.488   2.875 -0.4341 -0.4250  0.6102
22967WAT     H193673   7.668   9.573   2.833  1.6907 -1.3325 -1.7312
22967WAT     H293674   7.732   9.500   2.949 -0.5630  0.2200  0.6095
22967WAT    EPW93675   7.679   9.501   2.880 -0.1712 -0.4597  0.3014
22968WAT      O93676   8.603   7.324   1.846 -0.7554 -0.2325  0.0301
22968WAT     H193677   8.542   7.336   1.774  0.6695 -1.3656 -1.4492
22968WAT     H293678   8.592   7.232   1.871 -0.6358 -0.0696  0.7078
22968WAT    EPW93679   8.594   7.313   1.840 -0.5517 -0.3605 -0.0756
22969WAT      O93680   0.476   0.209   0.050 -0.3311  0.1373 -0.3707
22969WAT     H193681   0.515   0.205  -0.038  0.1312 -0.4299 -0.1458
22969WAT     H293682   0.456   0.118   0.072 -0.0973  0.2316  0.2595
22969WAT    EPW93683   0.479   0.197   0.041 -0.2393  0.0749 -0.2579
22970WAT      O93684   5.656   9.945   2.191  0.4309 -1.1369 -0.3844
22970WAT     H193685   5.577   9.896   2.214 -0.3469 -0.2654 -1.1259
22970WAT     H293686   5.725   9.878   2.185  0.0327 -1.7765  1.3812
22970WAT    EPW93687   5.655   9.929   2.193  0.2756 -1.1067 -0.2494
22971WAT      O93688   4.516   7.806   3.701  0.0421 -0.6011  0.2969
22971WAT     H193689   4.545   7.874   3.640 -2.3612  0.4900  0.2313
22971WAT     H293690   4.473   7.855   3.772  1.0365 -1.9461  1.8728
22971WAT    EPW93691   4.514   7.822   3.702 -0.1438 -0.6347  0.4960
22972WAT      O93692   8.177   8.001   3.153  0.0912  0.4401  0.3036
22972WAT     H193693   8.120   7.963   3.221  0.3563 -1.0782 -0.2910
22972WAT     H293694   8.133   7.982   3.071  1.5187 -0.9668 -0.1903
22972WAT    EPW93695   8.164   7.994   3.151  0.3147  0.0544  0.1600
22973WAT      O93696   7.169   7.295   6.122  0.1350 -0.3489 -0.9888
22973WAT     H193697   7.088   7.250   6.146 -0.9952  1.7925 -0.4362
22973WAT     H293698   7.164   7.305   6.027 -0.3166 -0.1567 -0.9478
22973WAT    EPW93699   7.158   7.291   6.113 -0.0739 -0.0412 -0.9105
22974WAT      O93700   7.519   4.364   0.271  0.2045  1.0472 -0.4552
22974WAT     H193701   7.511   4.409   0.186  0.5474  1.9900 -0.0056
22974WAT     H293702   7.531   4.272   0.248 -0.0812  1.2353 -1.4227
22974WAT    EPW93703   7.520   4.358   0.256  0.2122  1.1961 -0.5235
22975WAT      O93704   8.669   8.905   3.050  0.3358 -0.1693  0.4745
22975WAT     H193705   8.578   8.904   3.079  0.6787  0.7048  1.6592
22975WAT     H293706   8.712   8.837   3.103  0.8749  1.1341  1.7739
22975WAT    EPW93707   8.663   8.896   3.061  0.4520  0.1173  0.8020
22976WAT      O93708   9.056  10.243   1.710 -0.9264 -0.2778  0.1110
22976WAT     H193709   9.091  10.220   1.796 -1.5447 -1.1768  0.1448
22976WAT     H293710   9.127  10.223   1.648 -0.8571 -0.6860  0.3159
22976WAT    EPW93711   9.070  10.237   1.713 -0.9990 -0.4501  0.1425
22977WAT      O93712   8.323   9.649   4.691 -0.2022  0.1522  0.7004
22977WAT     H193713   8.402   9.597   4.704  1.3427  2.0627 -0.5347
22977WAT     H293714   8.280   9.608   4.616 -1.5470 -2.0975  2.5470
22977WAT    EPW93715   8.327   9.637   4.683 -0.1760  0.1073  0.7811
22978WAT      O93716   9.135   6.783   1.994 -0.3165 -0.4494 -0.2568
22978WAT     H193717   9.072   6.851   1.970 -0.0708  0.6051  1.8132
22978WAT     H293718   9.081   6.712   2.029 -0.4436 -0.1523  0.1595
22978WAT    EPW93719   9.119   6.783   1.996 -0.3009 -0.2708  0.0711
22979WAT      O93720   7.554   8.729   5.955  0.2907 -0.1468  0.2902
22979WAT     H193721   7.515   8.642   5.940 -1.6722  1.0320 -2.2495
22979WAT     H293722   7.479   8.789   5.955  1.6840  1.6694  1.0284
22979WAT    EPW93723   7.539   8.725   5.953  0.2155  0.2480  0.0525
22980WAT      O93724   5.684  10.189   3.959  0.3853  1.0486 -0.1739
22980WAT     H193725   5.736  10.269   3.949 -0.4298  1.6518  0.2609
22980WAT     H293726   5.625  10.208   4.032  0.4068 -0.0810  0.1616
22980WAT    EPW93727   5.683  10.202   3.967  0.2806  0.9789 -0.0722
22981WAT      O93728   4.526   7.558   3.044  0.1215 -0.4828 -0.7143
22981WAT     H193729   4.618   7.553   3.017 -0.0841 -0.3702 -1.4525
22981WAT     H293730   4.484   7.610   2.976 -0.1750  0.8633  0.4548
22981WAT    EPW93731   4.533   7.564   3.031  0.0553 -0.2904 -0.6574
22982WAT      O93732   7.544   7.022   1.710 -0.9784  0.2313  0.1645
22982WAT     H193733   7.555   7.056   1.799 -1.4279  3.1892 -0.7875
22982WAT     H293734   7.449   7.015   1.699 -0.9909 -4.4460  1.2399
22982WAT    EPW93735   7.533   7.026   1.721 -1.0393  0.0045  0.1808
22983WAT      O93736   3.194   5.666   4.144 -0.0853 -0.5139  0.2347
22983WAT     H193737   3.245   5.707   4.074  1.5788  0.1289  1.7553
22983WAT     H293738   3.236   5.582   4.158 -0.3782 -0.6185  0.4929
22983WAT    EPW93739   3.206   5.661   4.136  0.0956 -0.4427  0.4692
22984WAT      O93740   9.165   9.659   4.728 -0.0346 -0.2390  0.1084
22984WAT     H193741   9.097   9.697   4.673  1.6016  0.7732 -1.3304
22984WAT     H293742   9.142   9.685   4.817 -1.9087 -0.6045 -0.2288
22984WAT    EPW93743   9.153   9.667   4.732 -0.0663 -0.1535 -0.1259
22985WAT      O93744   5.399   6.960   6.443  0.0232  0.2274  0.5273
22985WAT     H193745   5.440   7.020   6.505 -0.9023  1.3345  0.1241
22985WAT     H293746   5.308   6.953   6.473 -0.3928  0.6291 -0.5472
22985WAT    EPW93747   5.392   6.967   6.455 -0.1538  0.4263  0.3326
22986WAT      O93748   8.282   6.138   5.694 -0.4976  0.5324 -0.6807
22986WAT     H193749   8.211   6.074   5.693  1.9442 -2.5073 -3.8764
22986WAT     H293750   8.241   6.219   5.724 -4.2668 -1.9673  1.7718
22986WAT    EPW93751   8.268   6.140   5.698 -0.6733 -0.1984 -0.7789
22987WAT      O93752   4.182  10.352   6.599 -0.4431  0.4399  0.2060
22987WAT     H193753   4.238  10.420   6.635  0.3143  0.5679 -1.1361
22987WAT     H293754   4.154  10.301   6.675  3.0177 -0.7899  0.8298
22987WAT    EPW93755   4.186  10.354   6.614  0.1135  0.2947  0.1111
22988WAT      O93756   9.676   0.733   5.039  0.5179  0.3832  0.1104
22988WAT     H193757   9.721   0.781   4.970 -1.4368  0.1686 -1.3835
22988WAT     H293758   9.745   0.713   5.103  1.9075  2.7315 -0.5418
22988WAT    EPW93759   9.691   0.736   5.039  0.4435  0.6646 -0.1726
22989WAT      O93760   8.569   0.260   2.395 -0.2805  0.2970 -0.2500
22989WAT     H193761   8.502   0.328   2.394  0.1722  0.7569 -1.4495
22989WAT     H293762   8.521   0.178   2.404 -0.8351  0.7623  1.2124
22989WAT    EPW93763   8.554   0.258   2.396 -0.2942  0.4191 -0.2153
22990WAT      O93764   7.759   1.165   4.732  0.1888  0.0162 -0.4003
22990WAT     H193765   7.747   1.199   4.820  0.3459  0.5302 -0.5706
22990WAT     H293766   7.777   1.243   4.679  1.5142 -0.4281 -0.6368
22990WAT    EPW93767   7.760   1.180   4.736  0.3841  0.0254 -0.4537
22991WAT      O93768   6.370   5.336   2.881 -0.0788  0.5364  0.3656
22991WAT     H193769   6.463   5.356   2.896  0.5492 -1.4841 -0.4976
22991WAT     H293770   6.364   5.241   2.889 -2.1454  0.6472  0.6199
22991WAT    EPW93771   6.382   5.326   2.884 -0.2685  0.2844  0.2854
22992WAT      O93772  10.636   8.194   4.466 -0.4129 -0.2168  0.4308
22992WAT     H193773  10.726   8.226   4.474 -0.2962 -1.0719  3.3603
22992WAT     H293774  10.583   8.273   4.455  0.6622  0.2579 -2.1201
22992WAT    EPW93775  10.641   8.209   4.465 -0.2561 -0.2666  0.4809
22993WAT      O93776   0.433   2.026   4.341 -0.2027  0.3746  0.1249
22993WAT     H193777   0.440   2.099   4.402  1.0277  0.7512 -0.4256
22993WAT     H293778   0.351   2.041   4.294 -0.3226  0.9981  0.5225
22993WAT    EPW93779   0.423   2.037   4.343 -0.0563  0.5066  0.1047
22994WAT      O93780   6.099   8.803   5.307 -0.1354 -0.5025 -0.2678
22994WAT     H193781   6.192   8.819   5.288 -0.6851  2.0802 -1.1056
22994WAT     H293782   6.056   8.813   5.222 -1.1175 -2.8755 -0.1206
22994WAT    EPW93783   6.106   8.806   5.293 -0.3376 -0.4745 -0.3588
22995WAT      O93784   5.796  10.081   4.233 -0.2082 -0.1207  0.2948
22995WAT     H193785   5.814   9.991   4.259  0.2307 -0.0789  0.1459
22995WAT     H293786   5.788  10.078   4.138 -4.3667 -0.7237  0.4865
22995WAT    EPW93787   5.797  10.069   4.224 -0.6988 -0.1945  0.3006
22996WAT      O93788   6.122   9.288   3.751  0.2035  0.0625 -0.0850
22996WAT     H193789   6.141   9.225   3.682  2.1748 -2.8156  2.7636
22996WAT     H293790   6.030   9.271   3.774  0.2659 -0.7330 -0.3962
22996WAT    EPW93791   6.112   9.277   3.745  0.4718 -0.4220  0.2496
22997WAT      O93792   9.712   1.190   6.532 -0.2009  0.2896  0.4547
22997WAT     H193793   9.694   1.097   6.516  0.3491  0.3948 -0.8140
22997WAT     H293794   9.678   1.205   6.621  0.2411 -1.2568  0.9182
22997WAT    EPW93795   9.705   1.180   6.542 -0.0696  0.0995  0.3486
22998WAT      O93796   1.846   0.618   7.356  0.0883  0.6438 -0.3161
22998WAT     H193797   1.827   0.572   7.274 -3.3772  1.4307 -0.1012
22998WAT     H293798   1.791   0.696   7.354  2.5002  2.5447  1.2934
22998WAT    EPW93799   1.836   0.622   7.345 -0.0507  0.9983 -0.0751
22999WAT      O93800   5.875   8.717   4.636 -0.0929  0.1004 -0.1373
22999WAT     H193801   5.809   8.748   4.698  1.1761  1.1671  0.7363
22999WAT     H293802   5.889   8.791   4.577  1.2384  0.3794  0.4914
22999WAT    EPW93803   5.868   8.731   4.636  0.2499  0.2775  0.0610
23000WAT      O93804   4.140   8.443   7.974 -0.6727  0.4590 -0.4256
23000WAT     H193805   4.183   8.529   7.969  1.8631 -0.7318 -0.8242
23000WAT     H293806   4.155   8.414   8.063 -1.8999  0.5657 -0.1674
23000WAT    EPW93807   4.148   8.451   7.985 -0.5000  0.3157 -0.4444
23001WAT      O93808   5.581   8.405   3.194  0.0834  0.3717  0.4188
23001WAT     H193809   5.526   8.327   3.198  2.0442 -1.0323  2.1017
23001WAT     H293810   5.521   8.476   3.171 -1.8142 -1.5638 -0.9001
23001WAT    EPW93811   5.566   8.404   3.192  0.0916 -0.0691  0.4668
23002WAT      O93812   4.398   9.723   4.068 -0.0476 -0.2967  0.4082
23002WAT     H193813   4.450   9.799   4.042 -0.3573 -1.0105 -2.6387
23002WAT     H293814   4.312   9.739   4.028 -0.0031 -2.3797 -0.6328
23002WAT    EPW93815   4.394   9.735   4.059 -0.0827 -0.6661 -0.1311
23003WAT      O93816   7.269   6.992   8.029  0.7237 -0.4682 -0.9247
23003WAT     H193817   7.358   7.025   8.012  0.5622  0.0006 -0.8549
23003WAT     H293818   7.212   7.065   8.009  0.3760 -0.6324 -0.5334
23003WAT    EPW93819   7.273   7.006   8.024  0.6564 -0.4280 -0.8636
23004WAT      O93820  10.166   0.934   5.936  0.5420 -0.2901 -0.3559
23004WAT     H193821  10.089   0.982   5.966 -0.2930 -2.5984  1.5432
23004WAT     H293822  10.146   0.911   5.845 -0.6352 -0.1344 -0.1523
23004WAT    EPW93823  10.153   0.937   5.928  0.2766 -0.5740 -0.0787
23005WAT      O93824   8.478   3.295   7.708 -0.4918 -0.3585 -0.0252
23005WAT     H193825   8.400   3.347   7.689  0.3184  2.1906  2.8762
23005WAT     H293826   8.536   3.354   7.756  1.4417 -3.3396  1.6540
23005WAT    EPW93827   8.475   3.310   7.712 -0.1297 -0.4154  0.5791
23006WAT      O93828   6.691   9.221   4.365  0.0487  0.0272  0.2014
23006WAT     H193829   6.734   9.236   4.281  1.1966  0.7512  0.8959
23006WAT     H293830   6.618   9.283   4.367  1.1796  1.3924  0.5295
23006WAT    EPW93831   6.687   9.231   4.355  0.3493  0.3028  0.3362
23007WAT      O93832   6.519   8.701   4.521 -0.1294  0.1445 -0.5886
23007WAT     H193833   6.606   8.741   4.524  0.2993 -0.3793 -3.3207
23007WAT     H293834   6.533   8.610   4.546  0.2545 -0.1121 -1.7048
23007WAT    EPW93835   6.532   8.694   4.525 -0.0224  0.0420 -1.0960
23008WAT      O93836   8.125   9.698   4.211 -0.3933 -0.2093 -0.8976
23008WAT     H193837   8.057   9.688   4.145  0.2361 -0.5594 -1.5067
23008WAT     H293838   8.083   9.747   4.282 -0.4290  2.2843 -2.5318
23008WAT    EPW93839   8.111   9.703   4.212 -0.3147  0.0730 -1.1933
23009WAT      O93840   3.040  10.164   7.588 -0.0565 -0.3979 -0.1863
23009WAT     H193841   3.086  10.221   7.527 -0.7165  1.0370  0.6025
23009WAT     H293842   3.107  10.134   7.649  0.5111 -1.4465 -1.2692
23009WAT    EPW93843   3.055  10.167   7.588 -0.0687 -0.3471 -0.2251
23010WAT      O93844   8.606   8.219   5.767  1.1345  0.0705 -0.5518
23010WAT     H193845   8.603   8.183   5.678  0.4218 -1.1281 -0.0630
23010WAT     H293846   8.600   8.143   5.824 -0.2342  0.9381  0.5348
23010WAT    EPW93847   8.605   8.205   5.763  0.8593  0.0272 -0.3438
23011WAT      O93848   4.168   5.984   4.436 -0.5420 -0.5297 -0.3195
23011WAT     H193849   4.105   5.918   4.465 -1.2348  0.1171 -0.3318
23011WAT     H293850   4.117   6.043   4.380  0.6648 -1.5211 -2.6136
23011WAT    EPW93851   4.153   5.983   4.432 -0.4742 -0.5753 -0.6239
23012WAT      O93852   5.049   7.675   5.177  0.2942 -0.4661  0.1149
23012WAT     H193853   5.082   7.682   5.267  0.9559 -2.0435  0.0392
23012WAT     H293854   5.066   7.584   5.153  0.8116  0.1023 -1.8756
23012WAT    EPW93855   5.055   7.664   5.186  0.4497 -0.5996 -0.1574
23013WAT      O93856   8.434   1.224   7.714 -0.2494 -0.3421  0.0252
23013WAT     H193857   8.392   1.208   7.799 -2.5230 -0.2664 -1.0129
23013WAT     H293858   8.521   1.257   7.737 -0.4346 -1.2213  2.3025
23013WAT    EPW93859   8.440   1.227   7.728 -0.5741 -0.4481  0.1886
23014WAT      O93860   5.077   9.983   4.010  0.4216  0.0135  0.3966
23014WAT     H193861   5.021  10.057   3.987  1.2573  0.8113  0.8792
23014WAT     H293862   5.020   9.923   4.058 -1.4893 -1.8090 -3.6035
23014WAT    EPW93863   5.062   9.985   4.013  0.2797 -0.1216 -0.0672
23015WAT      O93864   0.925   1.549   3.395  0.2075 -1.0846 -0.3279
23015WAT     H193865   0.973   1.630   3.416 -0.0383 -1.1772  0.6506
23015WAT     H293866   0.978   1.479   3.433 -0.8118 -1.1676  1.0434
23015WAT    EPW93867   0.938   1.551   3.403  0.0406 -1.1078 -0.0179
23016WAT      O93868   8.366   9.332   1.618 -0.1261  0.1968  0.8195
23016WAT     H193869   8.286   9.381   1.633 -1.1563 -1.1330 -0.0375
23016WAT     H293870   8.407   9.374   1.542  0.1830  1.0720  1.4508
23016WAT    EPW93871   8.361   9.344   1.610 -0.2213  0.1369  0.7897
23017WAT      O93872   7.248   8.919   3.295 -0.1578  0.6160  0.3819
23017WAT     H193873   7.255   8.851   3.362 -0.9433 -2.8909 -2.7760
23017WAT     H293874   7.302   8.991   3.329  1.8311 -2.0150  3.4313
23017WAT    EPW93875   7.256   8.920   3.308  0.0010 -0.1931  0.3676
23018WAT      O93876   9.419   1.591   1.616  0.5080 -0.8488  0.0966
23018WAT     H193877   9.459   1.669   1.577  1.7667 -1.2060  0.5897
23018WAT     H293878   9.447   1.595   1.708 -0.7573 -1.0510  0.5044
23018WAT    EPW93879   9.428   1.602   1.623  0.5074 -0.9225  0.2154
23019WAT      O93880   5.112  10.110   6.362  0.1316 -0.7507  0.2581
23019WAT     H193881   5.167  10.088   6.436 -1.9021 -2.9915  1.2384
23019WAT     H293882   5.033  10.148   6.401 -0.3564 -0.5774 -0.8548
23019WAT    EPW93883   5.109  10.112   6.377 -0.2012 -1.0238  0.2406
23020WAT      O93884   7.672   8.749   7.390  0.2555 -0.3906 -0.0379
23020WAT     H193885   7.716   8.780   7.468 -0.3316  1.8683 -0.5354
23020WAT     H293886   7.743   8.722   7.331  0.7134 -1.6247  1.0350
23020WAT    EPW93887   7.687   8.750   7.392  0.2384 -0.2551  0.0381
23021WAT      O93888   8.140   5.792   3.234 -0.2239  0.0612 -0.1209
23021WAT     H193889   8.135   5.779   3.329 -0.4219  0.9875  0.0082
23021WAT     H293890   8.059   5.755   3.200 -2.1607  3.2824  0.5422
23021WAT    EPW93891   8.128   5.786   3.242 -0.5059  0.6082 -0.0165
23022WAT      O93892   7.154   6.606   8.148 -0.5580 -0.7760 -0.1864
23022WAT     H193893   7.096   6.641   8.215  1.3361  1.9237  0.1490
23022WAT     H293894   7.222   6.559   8.196  0.7821  1.1316 -0.1411
23022WAT    EPW93895   7.155   6.604   8.163 -0.1314 -0.1686 -0.1369
23023WAT      O93896  10.841   0.397   1.204 -0.2946  0.1115  0.8928
23023WAT     H193897  10.918   0.363   1.250  0.7081 -2.3069 -2.2061
23023WAT     H293898  10.856   0.492   1.201  1.6721 -0.1099  1.8753
23023WAT    EPW93899  10.853   0.405   1.210  0.0968 -0.2367  0.6136
23024WAT      O93900   1.136   0.257   1.454 -1.0296  0.1975 -0.0360
23024WAT     H193901   1.103   0.252   1.543  0.3818 -1.2739  0.4464
23024WAT     H293902   1.205   0.324   1.458  0.5101 -1.3497  0.5355
23024WAT    EPW93903   1.141   0.265   1.466 -0.6403 -0.2007  0.1031
23025WAT      O93904   6.586   9.075   2.788 -0.2815  0.1565 -0.3116
23025WAT     H193905   6.492   9.063   2.784 -0.8709  3.5473  0.6137
23025WAT     H293906   6.613   9.086   2.696 -0.7739 -0.5871 -0.5548
23025WAT    EPW93907   6.577   9.075   2.775 -0.4241  0.5054 -0.2216
23026WAT      O93908   6.335   9.238   5.640 -0.5475  0.1094 -0.1669
23026WAT     H193909   6.269   9.270   5.702  0.0604  1.6604 -0.2687
23026WAT     H293910   6.331   9.143   5.647 -1.6861  0.2170  0.9863
23026WAT    EPW93911   6.325   9.230   5.649 -0.6170  0.3285 -0.0281
23027WAT      O93912   8.965   7.775   4.228 -1.2512  0.4194 -0.1463
23027WAT     H193913   9.053   7.781   4.266 -1.5438  0.8725  0.4646
23027WAT     H293914   8.964   7.690   4.184 -0.3437  0.6207 -0.5738
23027WAT    EPW93915   8.977   7.765   4.227 -1.1702  0.5057 -0.1221
23028WAT      O93916   3.915   8.615   4.835 -0.3657  0.2012  0.2127
23028WAT     H193917   3.841   8.568   4.872  0.1408 -0.4054  0.4657
23028WAT     H293918   3.882   8.704   4.821 -1.0672 -0.0011  0.5317
23028WAT    EPW93919   3.901   8.621   4.838 -0.3914  0.0949  0.2882
23029WAT      O93920   0.839   0.763   4.265  0.6418  0.2944  0.0827
23029WAT     H193921   0.934   0.748   4.270  0.6051  0.3315  1.6344
23029WAT     H293922   0.828   0.851   4.300  0.0729  0.5078 -0.6247
23029WAT    EPW93923   0.850   0.773   4.271  0.5619  0.3274  0.1938
23030WAT      O93924   5.297   2.185   1.045  0.6490 -0.0389 -0.2870
23030WAT     H193925   5.317   2.276   1.022  1.7054  0.2043  1.3737
23030WAT     H293926   5.242   2.154   0.974  1.9949  1.2349 -1.9865
23030WAT    EPW93927   5.293   2.193   1.033  0.9658  0.1611 -0.2922
23031WAT      O93928   7.918  10.155   3.325 -0.4709  0.3629 -0.8211
23031WAT     H193929   7.836  10.129   3.283 -0.9304  0.3400  0.0694
23031WAT     H293930   7.943  10.080   3.378  0.2624  0.2783 -1.2797
23031WAT    EPW93931   7.911  10.142   3.326 -0.4346  0.3486 -0.7643
23032WAT      O93932   7.725   1.649   5.934 -0.4543  0.0868 -0.6538
23032WAT     H193933   7.684   1.679   5.853 -1.9645 -1.9693 -0.7282
23032WAT     H293934   7.819   1.646   5.913 -0.8463 -0.8051 -2.5087
23032WAT    EPW93935   7.732   1.653   5.921 -0.7050 -0.3020 -0.9084
23033WAT      O93936   9.791   0.927   2.935 -0.2524 -0.2988  0.5812
23033WAT     H193937   9.721   0.963   2.879  3.8439  4.1099 -2.5126
23033WAT     H293938   9.834   0.861   2.880 -0.1478 -0.8316  1.2862
23033WAT    EPW93939   9.787   0.923   2.920  0.3014  0.2124  0.2661
23034WAT      O93940   5.171   9.155   4.958  0.6555  0.6145  0.3220
23034WAT     H193941   5.181   9.243   4.921  0.4851  1.1440  1.4803
23034WAT     H293942   5.258   9.131   4.989  0.3291  1.2169  1.7763
23034WAT    EPW93943   5.184   9.163   4.957  0.5898  0.7639  0.6666
23035WAT      O93944   8.045   7.580   4.493 -0.4390 -0.1760 -0.2505
23035WAT     H193945   8.007   7.625   4.569 -0.2979 -0.5418  0.0420
23035WAT     H293946   7.975   7.577   4.429 -0.4005  0.6096 -0.3362
23035WAT    EPW93947   8.031   7.585   4.495 -0.4153 -0.1206 -0.2229
23036WAT      O93948   9.409   0.487   7.027 -0.0298  0.7560  0.2498
23036WAT     H193949   9.398   0.564   6.971  1.1228  0.6746 -0.1045
23036WAT     H293950   9.319   0.464   7.053 -0.5986  0.8954 -1.4209
23036WAT    EPW93951   9.395   0.494   7.023  0.0477  0.7636 -0.0174
23037WAT      O93952  10.348   1.502   5.886 -0.2797  0.0627  0.3508
23037WAT     H193953  10.274   1.487   5.827 -0.2465 -0.6145  0.4764
23037WAT     H293954  10.319   1.468   5.971 -0.0046  0.2461  0.5215
23037WAT    EPW93955  10.334   1.496   5.890 -0.2389 -0.0024  0.3896
23038WAT      O93956   8.461   0.019   3.646 -0.6631 -0.1496 -0.6805
23038WAT     H193957   8.465  -0.074   3.623 -1.1793  0.1936 -2.2697
23038WAT     H293958   8.550   0.050   3.637 -0.1610 -0.7911  1.4136
23038WAT    EPW93959   8.473   0.011   3.642 -0.6642 -0.1890 -0.6139
23039WAT      O93960   2.622   3.858   1.960 -0.1157 -0.0914  0.5946
23039WAT     H193961   2.641   3.803   1.884 -3.6492  2.5581 -2.6094
23039WAT     H293962   2.645   3.804   2.035  0.7359 -4.1692 -2.2383
23039WAT    EPW93963   2.628   3.844   1.960 -0.4694 -0.2798 -0.2015
23040WAT      O93964   0.799   2.816   6.799 -0.0353  0.5492  0.0195
23040WAT     H193965   0.765   2.747   6.856  0.3070 -0.5587 -1.0801
23040WAT     H293966   0.832   2.882   6.860  0.6614 -0.7579  1.1332
23040WAT    EPW93967   0.799   2.816   6.815  0.1017  0.2307  0.0215
23041WAT      O93968   0.998   9.276   6.199  0.1763 -0.6142  0.1189
23041WAT     H193969   1.083   9.244   6.168 -0.1071  1.1159 -2.8249
23041WAT     H293970   1.011   9.370   6.211 -1.8947  0.3004 -3.2960
23041WAT    EPW93971   1.011   9.284   6.196 -0.1343 -0.2661 -0.7198
23042WAT      O93972   5.944  10.190   1.468  0.0766  0.0693 -0.3371
23042WAT     H193973   6.006  10.217   1.535  0.0499  1.8870 -0.9902
23042WAT     H293974   5.878  10.139   1.515  1.3458 -0.7709  0.5800
23042WAT    EPW93975   5.943  10.187   1.483  0.2406  0.1984 -0.3023
23043WAT      O93976   6.005   0.151   5.840  0.1665  0.3901  0.3711
23043WAT     H193977   5.938   0.213   5.811  2.3931  2.5257 -0.6046
23043WAT     H293978   6.046   0.194   5.915  0.7763 -0.6242  0.6356
23043WAT    EPW93979   6.002   0.165   5.846  0.5407  0.5380  0.2770
23044WAT      O93980   1.679   0.697   3.791 -0.4959 -0.4736  0.2676
23044WAT     H193981   1.772   0.722   3.789 -1.2727  2.8025  0.1200
23044WAT     H293982   1.666   0.659   3.878  1.3428 -3.0893 -0.4516
23044WAT    EPW93983   1.690   0.695   3.802 -0.3558 -0.3865  0.1532
23045WAT      O93984  10.300   0.184   3.740  0.2508 -0.2462  0.4449
23045WAT     H193985  10.341   0.098   3.732 -1.3151 -0.8677 -3.5341
23045WAT     H293986  10.250   0.179   3.822  1.9594 -2.2507  1.4518
23045WAT    EPW93987  10.299   0.172   3.750  0.2689 -0.5926  0.0528
23046WAT      O93988  10.140   1.318   4.909  0.2539 -0.4154  0.1129
23046WAT     H193989  10.106   1.358   4.989 -3.3485  1.7429 -2.2146
23046WAT     H293990  10.226   1.285   4.934 -1.0119 -0.7733  5.0642
23046WAT    EPW93991  10.147   1.319   4.923 -0.3881 -0.1779  0.4590
23047WAT      O93992   9.771   0.559   0.515 -0.3158 -0.5586  0.3878
23047WAT     H193993   9.797   0.470   0.489 -1.2971 -1.3446  1.9632
23047WAT     H293994   9.850   0.611   0.501 -0.0002 -1.4419 -1.5085
23047WAT    EPW93995   9.785   0.554   0.510 -0.4029 -0.7787  0.3455
23048WAT      O93996   4.425   6.075   1.101  0.1173 -0.5206  0.7812
23048WAT     H193997   4.470   6.114   1.026 -2.2142  0.7035 -0.0692
23048WAT     H293998   4.410   5.984   1.076  2.1507 -1.0201  1.1600
23048WAT    EPW93999   4.429   6.068   1.088  0.0782 -0.4251  0.7190
23049WAT      O94000   0.589   7.501   0.092  0.1955  0.0256  0.3761
23049WAT     H194001   0.639   7.423   0.065 -0.4110  0.0697 -0.9549
23049WAT     H294002   0.551   7.477   0.176 -1.0881 -1.6723 -0.6181
23049WAT    EPW94003   0.591   7.488   0.099 -0.0538 -0.1924  0.0694
23050WAT      O94004   4.384   5.629   1.479  0.6037 -0.4101  0.7387
23050WAT     H194005   4.450   5.689   1.443 -0.4140 -0.2040 -0.8366
23050WAT     H294006   4.329   5.606   1.405 -1.4729 -0.1237  2.1291
23050WAT    EPW94007   4.386   5.634   1.465  0.1955 -0.3452  0.7144
23051WAT      O94008   3.866   0.335   6.673  0.3232  0.2718 -0.4469
23051WAT     H194009   3.892   0.423   6.646  3.0880 -0.4042 -0.2875
23051WAT     H294010   3.929   0.312   6.741 -0.0097 -2.0053 -0.8501
23051WAT    EPW94011   3.878   0.344   6.678  0.6440 -0.1177 -0.4790
23052WAT      O94012   2.605   1.815   3.919  0.1306  0.0009 -0.2531
23052WAT     H194013   2.529   1.813   3.861 -0.0344  1.2269 -0.0993
23052WAT     H294014   2.592   1.893   3.973  1.0238 -0.3055  0.4264
23052WAT    EPW94015   2.593   1.825   3.918  0.2266  0.1222 -0.1433
23053WAT      O94016  10.217   1.692   0.734 -0.2642  0.1329 -0.4466
23053WAT     H194017  10.146   1.756   0.739  0.2013  0.5970  0.5644
23053WAT     H294018  10.282   1.723   0.797  1.0901  0.0167 -1.7307
23053WAT    EPW94019  10.216   1.704   0.743 -0.0238  0.1788 -0.4826
23054WAT      O94020   5.174   2.180   1.645 -0.2712  0.1299 -0.3986
23054WAT     H194021   5.218   2.247   1.698  1.8802  0.0206 -1.8912
23054WAT     H294022   5.089   2.219   1.624 -0.9320  0.4307  2.4773
23054WAT    EPW94023   5.168   2.194   1.649 -0.0746  0.1552 -0.2162
23055WAT      O94024   9.425   7.683   4.596 -0.3696  0.7286 -1.1874
23055WAT     H194025   9.492   7.732   4.644 -1.3221  1.3271 -0.4252
23055WAT     H294026   9.416   7.731   4.514 -0.0206  0.7765 -1.2003
23055WAT    EPW94027   9.433   7.696   4.592 -0.4492  0.8140 -1.0884
23056WAT      O94028   7.271  10.106   5.113 -0.0178  0.0320  0.1545
23056WAT     H194029   7.311  10.027   5.149 -1.5300  0.0930  2.1485
23056WAT     H294030   7.204  10.074   5.053  0.5939 -0.1301 -0.4587
23056WAT    EPW94031   7.268  10.092   5.110 -0.1364  0.0181  0.3369
23057WAT      O94032   1.025   0.288   0.935 -0.5115 -0.1246  0.6483
23057WAT     H194033   1.027   0.283   1.031 -0.1193 -0.7628  0.6084
23057WAT     H294034   1.076   0.213   0.906  0.9897  1.1070 -0.0468
23057WAT    EPW94035   1.032   0.278   0.944 -0.2618 -0.0464  0.5514
23058WAT      O94036   4.132   1.420   1.155 -0.2280  0.3007  0.5652
23058WAT     H194037   4.111   1.472   1.233 -0.1834  1.9642 -0.4737
23058WAT     H294038   4.168   1.484   1.093 -0.1533 -0.9938 -0.7734
23058WAT    EPW94039   4.134   1.436   1.157 -0.2122  0.3493  0.2516
23059WAT      O94040   1.515   1.117   1.744  0.5217 -0.1009  1.2969
23059WAT     H194041   1.510   1.027   1.712 -2.4243 -0.2814  1.9229
23059WAT     H294042   1.460   1.118   1.822 -2.7200  2.9342 -0.7002
23059WAT    EPW94043   1.507   1.105   1.750 -0.2945  0.2756  1.1160
23060WAT      O94044   0.086   8.626   5.224 -0.9530 -0.3579 -0.0615
23060WAT     H194045   0.113   8.714   5.198 -0.6518 -1.0528 -2.2970
23060WAT     H294046   0.036   8.639   5.305  1.0055  1.5918  0.9493
23060WAT    EPW94047   0.083   8.639   5.231 -0.6549 -0.1922 -0.2229
23061WAT      O94048   9.793   9.704   7.866 -0.4057  0.5803  0.1878
23061WAT     H194049   9.719   9.710   7.806 -2.5303  2.4731  2.7295
23061WAT     H294050   9.775   9.769   7.934  2.8964  0.1053  1.7602
23061WAT    EPW94051   9.781   9.713   7.867 -0.2499  0.7672  0.7308
23062WAT      O94052   2.614   0.891   7.287 -0.0205 -0.0829  0.3686
23062WAT     H194053   2.524   0.900   7.318 -0.2259  2.4955 -0.7333
23062WAT     H294054   2.609   0.825   7.217 -1.4576  1.2886 -0.9038
23062WAT    EPW94055   2.601   0.884   7.282 -0.2371  0.4381  0.0556
23063WAT      O94056   8.833   8.451   5.463 -0.3976 -0.2473 -0.0421
23063WAT     H194057   8.846   8.507   5.386 -2.4641  0.7264  0.2525
23063WAT     H294058   8.741   8.461   5.485  0.3079  0.2559  3.1550
23063WAT    EPW94059   8.823   8.460   5.456 -0.5770 -0.0529  0.4184
23064WAT      O94060   9.082   9.014   4.852  0.5756 -0.5112  0.2836
23064WAT     H194061   9.119   9.042   4.936  1.2105 -0.5442  0.0220
23064WAT     H294062   9.107   8.922   4.845  3.4348  0.2958 -1.4456
23064WAT    EPW94063   9.090   9.005   4.862  1.0362 -0.4091  0.0210
23065WAT      O94064   5.683   9.463   8.870 -0.0533 -0.3522  0.6389
23065WAT     H194065   5.756   9.443   8.929  0.6901  0.4149 -0.0011
23065WAT     H294066   5.620   9.392   8.885  1.7151 -2.2385 -0.3061
23065WAT    EPW94067   5.685   9.451   8.880  0.2780 -0.4997  0.4296
23066WAT      O94068   9.326   4.843   4.626  0.2407  0.2242  0.5202
23066WAT     H194069   9.399   4.904   4.621  1.0925 -0.8758 -1.4845
23066WAT     H294070   9.277   4.857   4.545 -1.7693  0.8675  1.7681
23066WAT    EPW94071   9.329   4.853   4.614  0.0877  0.1643  0.4201
23067WAT      O94072   0.285   0.210   8.493 -0.1255 -0.7124  0.8389
23067WAT     H194073   0.200   0.242   8.462  0.4609  1.7865  1.5840
23067WAT     H294074   0.309   0.142   8.431 -0.5368  1.7653 -2.2672
23067WAT    EPW94075   0.277   0.205   8.481 -0.1024 -0.0560  0.5274
23068WAT      O94076   3.491   3.515   1.978 -0.4371  0.1300  0.4554
23068WAT     H194077   3.454   3.574   2.044 -0.7790 -1.1174  1.4246
23068WAT     H294078   3.423   3.511   1.910  0.7427  3.0066 -1.0673
23068WAT    EPW94079   3.477   3.522   1.978 -0.3265  0.3450  0.3824
23069WAT      O94080   0.256   8.622   4.844 -0.7472  0.4810  0.2344
23069WAT     H194081   0.306   8.593   4.921  0.0497  1.5951  0.1612
23069WAT     H294082   0.259   8.548   4.784 -0.7859 -0.1519  1.0087
23069WAT    EPW94083   0.263   8.609   4.846 -0.6472  0.5445  0.3266
23070WAT      O94084  10.190   9.463   2.879 -0.0480  0.3935 -0.8137
23070WAT     H194085  10.153   9.379   2.906  0.1381  0.2724 -0.9311
23070WAT     H294086  10.285   9.452   2.891  0.0534  0.2734 -1.6934
23070WAT    EPW94087  10.198   9.451   2.884 -0.0100  0.3614 -0.9452
23071WAT      O94088   6.228   7.456   5.210 -0.1567  0.1277  0.2503
23071WAT     H194089   6.213   7.489   5.121 -0.8514  0.2839  0.4229
23071WAT     H294090   6.182   7.518   5.266  0.5773  0.2282  0.7481
23071WAT    EPW94091   6.220   7.469   5.205 -0.1514  0.1614  0.3388
23072WAT      O94092   9.444   2.089   3.401 -0.1777  0.3175  0.8338
23072WAT     H194093   9.512   2.061   3.340  0.3697 -0.2427  1.6696
23072WAT     H294094   9.460   2.037   3.480 -2.5992 -1.0906  0.4986
23072WAT    EPW94095   9.455   2.078   3.403 -0.4253  0.0578  0.8998
23073WAT      O94096   7.712   7.166   5.245  0.4077  0.0023 -0.0228
23073WAT     H194097   7.626   7.189   5.209  0.8764  0.2050 -1.0272
23073WAT     H294098   7.737   7.243   5.297 -0.2173 -0.2473  0.6747
23073WAT    EPW94099   7.704   7.179   5.247  0.3872 -0.0038 -0.0632
23074WAT      O94100   0.731   0.115   4.096 -0.3139  0.3762 -0.1093
23074WAT     H194101   0.773   0.089   4.178 -0.3838 -1.6932 -0.6720
23074WAT     H294102   0.666   0.180   4.123  0.6568  0.8360  1.2642
23074WAT    EPW94103   0.728   0.120   4.111 -0.1951  0.1639 -0.0024
23075WAT      O94104   1.257   1.130   4.388 -0.1124 -0.7117  0.6532
23075WAT     H194105   1.255   1.050   4.336 -0.8960 -0.8572  0.8943
23075WAT     H294106   1.218   1.105   4.472 -2.2211  0.3766  0.0598
23075WAT    EPW94107   1.252   1.116   4.392 -0.4939 -0.5873  0.6068
23076WAT      O94108   1.000   0.455   6.644 -0.6237 -0.3431  0.5482
23076WAT     H194109   1.050   0.420   6.571 -1.6064 -1.4002  0.3534
23076WAT     H294110   1.040   0.541   6.662 -0.0371 -0.3002 -0.8687
23076WAT    EPW94111   1.012   0.462   6.637 -0.6759 -0.4769  0.3357
23077WAT      O94112   1.585   9.405   0.550 -0.3151 -0.0631 -0.0822
23077WAT     H194113   1.539   9.392   0.467 -1.4490 -2.2030  0.8127
23077WAT     H294114   1.664   9.352   0.541 -1.8630 -2.7978  1.2023
23077WAT    EPW94115   1.589   9.397   0.538 -0.6689 -0.7062  0.2052
23078WAT      O94116   8.961   8.622   2.694 -0.1106 -0.5066  0.3854
23078WAT     H194117   8.874   8.612   2.732 -0.2509 -0.5459  0.0533
23078WAT     H294118   9.020   8.627   2.770 -0.3248 -1.1596  0.5950
23078WAT    EPW94119   8.957   8.622   2.709 -0.1574 -0.5980  0.3693
23079WAT      O94120  10.321   6.831   5.418  0.0334  0.1672  0.0562
23079WAT     H194121  10.348   6.882   5.494 -0.8217  0.0583  0.4393
23079WAT     H294122  10.345   6.741   5.440  0.1616  0.1895  0.0131
23079WAT    EPW94123  10.328   6.826   5.431 -0.0629  0.1559  0.1009
23080WAT      O94124   1.641   0.241   4.913 -0.3196  0.4868 -0.3833
23080WAT     H194125   1.597   0.240   4.998  0.2865 -0.6803 -0.0552
23080WAT     H294126   1.698   0.318   4.917 -1.3608  1.2873 -0.3277
23080WAT    EPW94127   1.643   0.251   4.925 -0.3770  0.4385 -0.3328
23081WAT      O94128   3.177   1.637   2.040 -0.1542 -0.1280  0.1185
23081WAT     H194129   3.192   1.644   2.135 -0.3671 -0.5313  0.1827
23081WAT     H294130   3.234   1.703   2.002  0.5459 -0.5200  0.4720
23081WAT    EPW94131   3.186   1.647   2.048 -0.0900 -0.2329  0.1736
23082WAT      O94132   8.251   9.516   4.377  0.2343  0.1942 -0.2842
23082WAT     H194133   8.212   9.569   4.307  0.8449 -0.6707 -1.2998
23082WAT     H294134   8.343   9.544   4.380  0.2979 -0.0300 -0.0662
23082WAT    EPW94135   8.258   9.527   4.368  0.3238  0.0505 -0.3896
23083WAT      O94136   9.045   9.016   6.254  0.1526  0.4414  0.2469
23083WAT     H194137   9.137   9.039   6.245  0.0116  0.1977 -3.2995
23083WAT     H294138   9.008   9.031   6.167 -3.2205  0.6458  1.5622
23083WAT    EPW94139   9.052   9.021   6.241 -0.3109  0.4363 -0.0472
23084WAT      O94140   5.367   8.834   6.347  0.3073 -0.7090 -0.3928
23084WAT     H194141   5.439   8.871   6.400  3.8165 -3.0151 -3.0785
23084WAT     H294142   5.358   8.745   6.380 -0.0921 -0.9804 -1.2210
23084WAT    EPW94143   5.376   8.827   6.359  0.7172 -1.0495 -0.8564
23085WAT      O94144   6.818   6.727   3.916  0.3592  0.6577  0.4627
23085WAT     H194145   6.902   6.704   3.957  0.6333 -1.8866 -1.3209
23085WAT     H294146   6.836   6.810   3.872  2.1559 -0.0728 -0.2956
23085WAT    EPW94147   6.832   6.735   3.916  0.6323  0.2255  0.1273
23086WAT      O94148   6.174   8.441   3.702 -0.5521  0.0509 -0.9065
23086WAT     H194149   6.082   8.459   3.685 -0.0534  0.8730 -3.0969
23086WAT     H294150   6.199   8.376   3.637  0.8900  1.4222 -1.8096
23086WAT    EPW94151   6.165   8.435   3.691 -0.2961  0.3405 -1.3144
23087WAT      O94152   8.768   7.372   7.092  0.1718 -0.3467  0.5109
23087WAT     H194153   8.722   7.348   7.172 -1.5798  0.6305 -0.1307
23087WAT     H294154   8.787   7.289   7.048 -4.8223 -0.9452 -1.1981
23087WAT    EPW94155   8.765   7.358   7.096 -0.7176 -0.2968  0.2007
23088WAT      O94156   9.537   9.606   4.866  0.4461  0.1625  0.1055
23088WAT     H194157   9.498   9.622   4.779  0.2083 -1.7030 -0.1699
23088WAT     H294158   9.497   9.673   4.922 -0.2103  0.7281 -0.9939
23088WAT    EPW94159   9.526   9.617   4.862  0.3290 -0.0091 -0.0758
23089WAT      O94160  10.374   1.127   2.656 -0.8379 -0.0812  0.2562
23089WAT     H194161  10.306   1.185   2.690  0.7270  1.4621  0.9584
23089WAT     H294162  10.408   1.174   2.579  0.3645 -0.1082  0.7512
23089WAT    EPW94163  10.369   1.141   2.650 -0.4735  0.1189  0.4141
23090WAT      O94164   4.096   7.190   5.204  0.3135  0.0635  0.1572
23090WAT     H194165   4.161   7.216   5.269 -0.2526  1.4981  0.1836
23090WAT     H294166   4.136   7.115   5.159  1.2058 -0.2084  1.3625
23090WAT    EPW94167   4.110   7.184   5.206  0.3567  0.2170  0.3197
23091WAT      O94168  10.601   1.033   7.994  0.4313 -0.1784 -0.0907
23091WAT     H194169  10.538   1.090   7.948 -0.5243  0.4638  1.9001
23091WAT     H294170  10.546   0.967   8.037  0.8737  1.1332  2.7352
23091WAT    EPW94171  10.585   1.032   7.993  0.3638  0.0793  0.5445
23092WAT      O94172   3.664   2.549   4.196  0.6419 -0.3517  0.0208
23092WAT     H194173   3.746   2.573   4.239  1.5871  1.1228 -2.4433
23092WAT     H294174   3.681   2.559   4.103 -2.8459  1.9694 -0.5874
23092WAT    EPW94175   3.677   2.554   4.190  0.3065  0.1490 -0.3846
23093WAT      O94176   2.090   2.264   4.821  0.4448  0.4336  0.2204
23093WAT     H194177   2.048   2.316   4.889 -1.0434 -0.8696  0.3379
23093WAT     H294178   2.105   2.326   4.749 -2.9642  0.7518 -0.3845
23093WAT    EPW94179   2.087   2.279   4.820 -0.2012  0.3036  0.1559
23094WAT      O94180   1.262   0.036   4.514 -0.0017 -0.0506  0.2354
23094WAT     H194181   1.256   0.129   4.493  1.6985 -0.1083 -0.6323
23094WAT     H294182   1.336   0.004   4.463  2.4955 -0.9044  3.9991
23094WAT    EPW94183   1.271   0.044   4.505  0.5518 -0.1709  0.6173
23095WAT      O94184   3.509   3.291   4.188  0.7636 -0.8642 -0.0973
23095WAT     H194185   3.537   3.318   4.101  0.4284  0.6678  0.2480
23095WAT     H294186   3.414   3.299   4.187  0.8250  0.2758  0.7399
23095WAT    EPW94187   3.500   3.295   4.177  0.7275 -0.5116  0.0589
23096WAT      O94188  10.199   9.978   1.995  0.3901  0.6218 -0.3704
23096WAT     H194189  10.211  10.025   1.912 -2.8259 -0.3479 -1.5310
23096WAT     H294190  10.144  10.036   2.047 -0.4997 -0.2469 -0.3251
23096WAT    EPW94191  10.194   9.992   1.991 -0.1516  0.3796 -0.5175
23097WAT      O94192   1.395   1.316   4.256  0.5948  0.2210 -0.0274
23097WAT     H194193   1.344   1.245   4.295  0.4238  0.1908 -0.2985
23097WAT     H294194   1.477   1.273   4.229 -0.8754 -0.7720 -3.4802
23097WAT    EPW94195   1.399   1.301   4.257  0.3783  0.0860 -0.5186
23098WAT      O94196   9.748   8.895   1.313  0.3431 -0.5620  0.3845
23098WAT     H194197   9.811   8.960   1.344 -1.7845  1.4761  0.7326
23098WAT     H294198   9.736   8.915   1.220  0.3852 -1.0863  0.2662
23098WAT    EPW94199   9.754   8.906   1.305  0.0682 -0.3624  0.4148
23099WAT      O94200   0.513   0.206   3.700 -0.5131  0.3408  0.0159
23099WAT     H194201   0.498   0.137   3.765 -0.2514 -0.7775 -1.0775
23099WAT     H294202   0.450   0.274   3.723  0.6951  0.7685  2.4762
23099WAT    EPW94203   0.503   0.206   3.712 -0.3193  0.2497  0.1961
23100WAT      O94204  10.830   0.932   8.299 -0.3333 -0.4593 -0.3202
23100WAT     H194205  10.903   0.908   8.356 -0.1446 -0.1319 -0.4271
23100WAT     H294206  10.752   0.912   8.352 -0.1581  0.3227  0.2637
23100WAT    EPW94207  10.829   0.926   8.314 -0.2856 -0.3130 -0.2580
23101WAT      O94208   8.006  10.006   2.734  0.5766 -0.5315  0.0896
23101WAT     H194209   7.956   9.980   2.657  0.1001  1.9815 -0.5425
23101WAT     H294210   8.093  10.026   2.701  0.3349  0.6832  0.1445
23101WAT    EPW94211   8.011  10.005   2.720  0.4821 -0.0396  0.0136
23102WAT      O94212   0.023   2.281   0.165 -0.2055 -0.3316 -0.6533
23102WAT     H194213   0.031   2.296   0.070  1.1764 -3.9650 -1.2848
23102WAT     H294214  -0.069   2.260   0.178 -0.8566  2.1245 -0.7228
23102WAT    EPW94215   0.012   2.280   0.154 -0.1091 -0.4870 -0.7457
23103WAT      O94216   5.315   6.199   4.081 -0.1516  0.3112 -0.2038
23103WAT     H194217   5.407   6.202   4.107 -0.5503  0.9337  1.3021
23103WAT     H294218   5.287   6.110   4.104  0.2243 -0.1211 -1.3365
23103WAT    EPW94219   5.323   6.188   4.088 -0.1545  0.3364 -0.1545
23104WAT      O94220   2.333   1.463   4.796 -0.1349 -0.3408 -0.1978
23104WAT     H194221   2.296   1.380   4.767  1.3178 -0.9797 -0.3049
23104WAT     H294222   2.303   1.471   4.887 -1.6704 -0.1249 -0.6877
23104WAT    EPW94223   2.324   1.453   4.804 -0.1458 -0.3967 -0.2768
23105WAT      O94224   1.939   1.104   3.441  0.5272  0.3896  0.4218
23105WAT     H194225   1.898   1.187   3.417 -1.3443 -0.6476 -0.1680
23105WAT     H294226   1.943   1.105   3.536  1.1333  1.4030  0.4015
23105WAT    EPW94227   1.934   1.115   3.450  0.3604  0.3865  0.3414
23106WAT      O94228   5.908   8.413   5.169  0.8646 -0.2734 -0.0677
23106WAT     H194229   5.951   8.329   5.188  2.1453  0.7496  1.9262
23106WAT     H294230   5.909   8.460   5.252 -1.5313  1.0189 -0.6850
23106WAT    EPW94231   5.914   8.408   5.182  0.7176  0.0315  0.1137
23107WAT      O94232   3.161   2.063   2.827 -0.9372  0.3274  0.5020
23107WAT     H194233   3.088   2.039   2.884 -0.5938 -1.1969  0.3224
23107WAT     H294234   3.196   1.980   2.795  1.0872  0.9865  0.8436
23107WAT    EPW94235   3.156   2.049   2.830 -0.6249  0.2134  0.5233
23108WAT      O94236  10.436   2.822   3.268  0.2427 -0.0671 -0.5576
23108WAT     H194237  10.395   2.863   3.344 -0.4953 -0.9382 -0.4782
23108WAT     H294238  10.484   2.748   3.304  2.7207  1.4265 -0.5133
23108WAT    EPW94239  10.437   2.818   3.283  0.4721  0.0151 -0.5412
23109WAT      O94240   0.447   1.300   3.614  0.4939  0.1803  0.0107
23109WAT     H194241   0.363   1.288   3.659  0.2606 -2.6625 -0.9620
23109WAT     H294242   0.510   1.252   3.668  0.5978 -1.4876 -1.5029
23109WAT    EPW94243   0.444   1.292   3.627  0.4768 -0.4146 -0.3172
23110WAT      O94244   1.651   3.873   5.150  0.3170  0.1047 -0.1978
23110WAT     H194245   1.691   3.932   5.086 -0.5680  0.4588 -0.4407
23110WAT     H294246   1.706   3.882   5.228  1.7929 -0.8211 -1.0765
23110WAT    EPW94247   1.664   3.882   5.152  0.3949  0.0292 -0.3457
23111WAT      O94248  10.192   9.999   1.569 -0.1022  0.0251  0.3188
23111WAT     H194249  10.100  10.023   1.564 -0.1377 -0.3100 -0.9482
23111WAT     H294250  10.238  10.071   1.526  0.3996  0.9234  2.2274
23111WAT    EPW94251  10.186  10.012   1.563 -0.0405  0.0997  0.4034
23112WAT      O94252   8.158   8.055   4.614 -0.3822  0.1253  0.1031
23112WAT     H194253   8.158   8.143   4.578 -0.6901 -0.3009 -0.9708
23112WAT     H294254   8.238   8.015   4.581  0.5403  0.4735  1.8237
23112WAT    EPW94255   8.168   8.061   4.605 -0.3018  0.1149  0.1884
23113WAT      O94256   2.874   5.189   5.527 -0.3535  0.0950  0.5457
23113WAT     H194257   2.884   5.284   5.534 -0.5770  0.0218  2.8610
23113WAT     H294258   2.953   5.153   5.567  0.1210 -0.7427 -1.0575
23113WAT    EPW94259   2.886   5.197   5.533 -0.3202 -0.0250  0.6397
23114WAT      O94260   7.273   7.120   6.282  0.0639 -0.2175 -0.0777
23114WAT     H194261   7.241   7.189   6.224 -0.7927  0.4104  1.0896
23114WAT     H294262   7.351   7.086   6.239  1.5851  2.7033  0.1141
23114WAT    EPW94263   7.279   7.125   6.269  0.1516  0.2503  0.1016
23115WAT      O94264   9.145   0.091   2.431  0.3675 -0.4451  0.3013
23115WAT     H194265   9.238   0.108   2.419  0.1496  0.0498 -0.8816
23115WAT     H294266   9.135  -0.002   2.410  0.8570 -0.9928  2.2850
23115WAT    EPW94267   9.156   0.081   2.426  0.4034 -0.4521  0.4069
23116WAT      O94268   3.612   0.898   2.547 -0.4757 -0.0598 -0.5972
23116WAT     H194269   3.588   0.984   2.580  2.7736  0.6497  0.2001
23116WAT     H294270   3.629   0.912   2.454  1.1315  0.4679 -0.2500
23116WAT    EPW94271   3.611   0.911   2.539  0.1649  0.1033 -0.4463
23117WAT      O94272   9.770   9.541   6.039  0.1164  0.1654  0.2290
23117WAT     H194273   9.687   9.562   6.083 -1.5907  0.8540 -2.9788
23117WAT     H294274   9.748   9.467   5.982  1.0526  1.6362 -2.1991
23117WAT    EPW94275   9.756   9.534   6.037  0.0153  0.4501 -0.5143
23118WAT      O94276   0.031   4.501   5.711  0.4136 -0.3221 -0.3331
23118WAT     H194277   0.023   4.596   5.703  0.6788 -0.3094 -0.4863
23118WAT     H294278  -0.042   4.475   5.766  0.4223 -0.0114 -0.1730
23118WAT    EPW94279   0.021   4.510   5.717  0.4501 -0.2792 -0.3321
23119WAT      O94280   8.519   8.852   3.953 -0.4111  0.1229 -0.0110
23119WAT     H194281   8.454   8.841   3.884 -0.3568  0.9826 -0.2158
23119WAT     H294282   8.514   8.945   3.976 -1.6079 -0.4595  2.3306
23119WAT    EPW94283   8.510   8.863   3.947 -0.5622  0.1593  0.2710
23120WAT      O94284   1.339   0.691   3.396  0.5406 -0.3239  0.0118
23120WAT     H194285   1.363   0.779   3.423  0.4464 -0.6157  1.1017
23120WAT     H294286   1.262   0.702   3.341  0.3222  0.2387  0.4283
23120WAT    EPW94287   1.332   0.704   3.392  0.4993 -0.2881  0.2105
23121WAT      O94288   6.874   5.774   6.930  0.1593  0.2000 -0.0123
23121WAT     H194289   6.819   5.849   6.906 -0.6907 -0.8502 -1.5320
23121WAT     H294290   6.961   5.811   6.940 -0.0991  1.3090 -1.4494
23121WAT    EPW94291   6.878   5.788   6.928  0.0129  0.2079 -0.4025
23122WAT      O94292   8.763  10.158   2.100  0.0899  0.6851 -0.9109
23122WAT     H194293   8.766  10.063   2.113  2.2344  0.9249  1.2255
23122WAT     H294294   8.855  10.184   2.095 -0.4022  2.7716 -0.2191
23122WAT    EPW94295   8.776  10.149   2.101  0.3076  0.9918 -0.5379
23123WAT      O94296   8.969   8.971   3.812  0.8590 -0.2329  0.1000
23123WAT     H194297   8.970   9.051   3.759  2.3410 -0.3423 -0.0945
23123WAT     H294298   9.013   8.906   3.757 -2.2139 -1.8585 -0.6577
23123WAT    EPW94299   8.975   8.973   3.798  0.6495 -0.4616 -0.0255
23124WAT      O94300   0.316   1.471   6.802 -0.1164 -0.3088  0.4017
23124WAT     H194301   0.278   1.384   6.810  0.2547 -0.3800  1.5805
23124WAT     H294302   0.314   1.490   6.708  0.8622 -2.0576 -0.0062
23124WAT    EPW94303   0.311   1.462   6.791  0.0616 -0.5488  0.5035
23125WAT      O94304   2.203   0.375   6.487 -0.0584  0.0693 -0.1301
23125WAT     H194305   2.298   0.373   6.479 -0.1210  0.7174 -1.3443
23125WAT     H294306   2.187   0.406   6.576  0.8934  1.5395 -0.4397
23125WAT    EPW94307   2.213   0.379   6.497  0.0589  0.3487 -0.3312
23126WAT      O94308   2.483   0.457   3.056  0.5261 -0.0570  0.4954
23126WAT     H194309   2.547   0.427   3.122 -1.8246  2.0215  3.9988
23126WAT     H294310   2.430   0.379   3.038  0.7442 -0.5072  1.6905
23126WAT    EPW94311   2.485   0.442   3.062  0.2447  0.1578  1.1150
23127WAT      O94312   8.422   9.703   2.857 -0.1773  0.6535 -0.5830
23127WAT     H194313   8.511   9.719   2.825 -0.0602  0.4703 -0.3485
23127WAT     H294314   8.414   9.759   2.933  0.2481 -0.3995  0.2645
23127WAT    EPW94315   8.433   9.712   2.863 -0.1054  0.4902 -0.4401
23128WAT      O94316   1.707   0.633   2.879 -0.3024  0.2756  0.2723
23128WAT     H194317   1.775   0.650   2.945  0.0167  2.0269 -0.4489
23128WAT     H294318   1.648   0.571   2.922  1.2303 -0.5843  1.2702
23128WAT    EPW94319   1.708   0.627   2.894 -0.0582  0.3932  0.3088
23129WAT      O94320  10.217   0.972   3.653  0.1134  0.2481  0.6630
23129WAT     H194321  10.166   1.030   3.710  0.9133 -0.9060  2.6481
23129WAT     H294322  10.263   0.913   3.713  3.1141  0.6528 -1.0166
23129WAT    EPW94323  10.217   0.972   3.668  0.6146  0.1493  0.7032
23130WAT      O94324   2.006   0.319   4.504 -0.1903  0.8814  0.3868
23130WAT     H194325   1.969   0.372   4.434  1.8934  1.7942 -0.0917
23130WAT     H294326   2.030   0.382   4.572 -2.4861 -0.0219  2.1385
23130WAT    EPW94327   2.005   0.334   4.504 -0.2183  0.8826  0.5550
23131WAT      O94328   6.780   6.249   7.369  0.2541 -0.1589  0.3202
23131WAT     H194329   6.771   6.158   7.342 -1.2809 -0.4223  1.5564
23131WAT     H294330   6.784   6.245   7.465 -1.0335  1.1087  0.4684
23131WAT    EPW94331   6.779   6.237   7.378 -0.1183 -0.0267  0.5028
23132WAT      O94332   7.795   9.170   3.179 -0.7455  0.1809 -0.2030
23132WAT     H194333   7.820   9.248   3.129  0.0239 -0.8051 -1.4334
23132WAT     H294334   7.878   9.124   3.193 -0.3720  1.8114  4.6458
23132WAT    EPW94335   7.809   9.174   3.174 -0.5944  0.2661  0.2743
23133WAT      O94336   9.719  10.015   5.252  0.2367  0.7117  0.0559
23133WAT     H194337   9.689  10.057   5.332 -0.2502  0.4244  0.0287
23133WAT     H294338   9.773  10.081   5.209  0.1574  1.0138  0.4186
23133WAT    EPW94339   9.722  10.029   5.257  0.1626  0.7138  0.0999
23134WAT      O94340  10.787   0.325   2.088  0.0513 -0.4542  0.0422
23134WAT     H194341  10.730   0.297   2.017  1.3917 -0.4440 -1.0908
23134WAT     H294342  10.735   0.388   2.137 -0.0591  1.7085 -2.5804
23134WAT    EPW94343  10.773   0.330   2.085  0.2136 -0.1676 -0.4530
23135WAT      O94344   1.460   2.204   4.860 -0.5585 -0.2114  0.0919
23135WAT     H194345   1.522   2.162   4.920 -0.5832 -0.4398 -0.0408
23135WAT     H294346   1.402   2.254   4.918  1.2730  2.0810  0.0505
23135WAT    EPW94347   1.460   2.205   4.876 -0.3202  0.0608  0.0689
23136WAT      O94348   7.952   8.303   6.284  0.1530 -0.5571 -0.3306
23136WAT     H194349   8.018   8.322   6.350 -0.0954 -1.6172  0.2442
23136WAT     H294350   8.002   8.269   6.210  0.5257  1.5120 -1.0853
23136WAT    EPW94351   7.967   8.301   6.283  0.1695 -0.4239 -0.3543
23137WAT      O94352   8.544  10.133   3.954 -0.2362  0.7909 -0.3431
23137WAT     H194353   8.639  10.146   3.950 -0.1946  1.4267  1.5678
23137WAT     H294354   8.509  10.221   3.970 -1.2660  0.7424 -2.1757
23137WAT    EPW94355   8.552  10.146   3.956 -0.3667  0.8683 -0.3328
23138WAT      O94356   8.819  10.196   3.326  0.5107 -0.2481  0.6514
23138WAT     H194357   8.785  10.199   3.237  0.5811 -0.4817  0.6174
23138WAT     H294358   8.818  10.288   3.355 -2.4668 -0.4432  1.5085
23138WAT    EPW94359   8.814  10.209   3.318  0.1273 -0.3052  0.7600
23139WAT      O94360   1.159   8.512   6.355  0.1612  0.0304  0.0567
23139WAT     H194361   1.204   8.535   6.436 -0.5684 -1.3736  0.9085
23139WAT     H294362   1.219   8.538   6.286 -0.5395  4.3891  0.7984
23139WAT    EPW94363   1.173   8.518   6.357 -0.0275  0.4201  0.2670
23140WAT      O94364   8.661   7.846   3.134  1.2155  0.3193  0.1319
23140WAT     H194365   8.571   7.815   3.146  1.4383  0.2354  1.7801
23140WAT     H294366   8.653   7.916   3.069 -0.3553  1.5451  1.5216
23140WAT    EPW94367   8.648   7.851   3.127  1.0371  0.4699  0.5325
23141WAT      O94368   0.047   2.133   8.008 -0.1310 -0.1640 -0.2563
23141WAT     H194369   0.100   2.147   8.087 -1.0019 -0.3080  0.3630
23141WAT     H294370   0.082   2.196   7.945  2.2739 -1.7533 -0.6420
23141WAT    EPW94371   0.059   2.143   8.010  0.0713 -0.3927 -0.2260
23142WAT      O94372   8.583   8.470   6.428 -1.0856 -0.2881 -0.4361
23142WAT     H194373   8.592   8.441   6.519 -1.3463 -0.1144 -0.3519
23142WAT     H294374   8.593   8.565   6.432 -0.5727 -0.3314 -0.6636
23142WAT    EPW94375   8.585   8.478   6.440 -1.0519 -0.2708 -0.4551
23143WAT      O94376   2.590   1.000   3.268 -0.0111  0.2535 -0.1085
23143WAT     H194377   2.503   0.983   3.232  0.8856 -0.9982 -1.8019
23143WAT     H294378   2.636   1.049   3.200  0.9689 -0.0537  0.3015
23143WAT    EPW94379   2.585   1.004   3.254  0.2364  0.0479 -0.2776
23144WAT      O94380   8.515   9.217   3.019 -0.7904 -0.1821  0.4802
23144WAT     H194381   8.477   9.176   3.097  1.9749 -2.7962  0.6364
23144WAT     H294382   8.496   9.156   2.949  0.3201  0.0708 -0.0562
23144WAT    EPW94383   8.507   9.204   3.020 -0.2794 -0.4935  0.4300
23145WAT      O94384   4.858   9.447   4.873 -0.2734 -0.0402  0.1171
23145WAT     H194385   4.852   9.519   4.810  1.5311  0.7304  0.7613
23145WAT     H294386   4.827   9.370   4.825  0.4200  0.6519 -1.5074
23145WAT    EPW94387   4.853   9.446   4.858  0.0563  0.1535 -0.0124
23146WAT      O94388   8.666   9.726   4.835 -0.6376  0.7040  0.3006
23146WAT     H194389   8.725   9.736   4.909  2.1263  2.4122 -1.9038
23146WAT     H294390   8.725   9.721   4.759 -3.2556 -1.6691 -1.7561
23146WAT    EPW94391   8.682   9.727   4.834 -0.6185  0.6166 -0.2613
23147WAT      O94392  10.356   8.524   1.887 -0.4269 -0.2073 -0.0019
23147WAT     H194393  10.276   8.491   1.928 -0.8219 -0.0953 -0.6707
23147WAT     H294394  10.328   8.605   1.844 -0.2885 -0.9348 -1.4910
23147WAT    EPW94395  10.342   8.531   1.887 -0.4611 -0.2880 -0.2866
23148WAT      O94396   8.192   9.550   6.849 -0.2200  0.4357  0.0432
23148WAT     H194397   8.128   9.524   6.783  1.0371  0.7950 -1.3693
23148WAT     H294398   8.144   9.612   6.905 -2.4615 -2.7052  1.8990
23148WAT    EPW94399   8.177   9.555   6.847 -0.3500  0.0691  0.1016
23149WAT      O94400   7.316   7.913   5.907  1.2659 -0.3131  0.2785
23149WAT     H194401   7.393   7.955   5.870  1.7719  0.7764  2.4609
23149WAT     H294402   7.258   7.986   5.931 -1.2992 -1.0794 -2.7866
23149WAT    EPW94403   7.318   7.928   5.905  0.9942 -0.2704  0.1621
23150WAT      O94404   9.278  10.196   1.051  0.2215 -0.6128 -0.2446
23150WAT     H194405   9.229  10.205   1.133  2.0818 -1.9282  1.0866
23150WAT     H294406   9.211  10.201   0.983 -1.0973  4.5242  0.9314
23150WAT    EPW94407   9.263  10.198   1.053  0.2928 -0.1092  0.0861
23151WAT      O94408  10.301   1.858   3.594  0.1249 -0.5795  0.1518
23151WAT     H194409  10.311   1.788   3.658  1.0134 -0.1200  0.5290
23151WAT     H294410  10.208   1.857   3.572 -0.1385 -0.9218  1.2450
23151WAT    EPW94411  10.290   1.849   3.599  0.2079 -0.5640  0.3457
23152WAT      O94412   8.391   9.507   3.913  0.0577 -0.2048  0.4094
23152WAT     H194413   8.313   9.457   3.936  0.2955 -1.4502 -1.3424
23152WAT     H294414   8.454   9.442   3.882  1.9291  0.7341  1.9917
23152WAT    EPW94415   8.389   9.492   3.912  0.3357 -0.2456  0.3870
23153WAT      O94416   9.877  10.333   4.228 -0.4390  0.2864 -0.3490
23153WAT     H194417   9.947  10.309   4.168  2.3111  2.6601  1.6483
23153WAT     H294418   9.875  10.429   4.225 -1.0106  0.4279  2.3843
23153WAT    EPW94419   9.886  10.342   4.220 -0.1516  0.6180  0.2749
23154WAT      O94420   0.048   2.984   6.905  0.0047 -0.2532 -0.2462
23154WAT     H194421   0.070   2.891   6.911 -1.1605 -0.4434  2.0033
23154WAT     H294422  -0.021   2.997   6.970  0.4597  2.2866 -0.1707
23154WAT    EPW94423   0.042   2.973   6.914 -0.0889  0.0567  0.0606
23155WAT      O94424   7.930   6.866   3.731 -0.1850 -0.1434 -0.0985
23155WAT     H194425   7.838   6.887   3.747 -0.4222  0.5155 -2.0785
23155WAT     H294426   7.974   6.889   3.814 -1.5212  1.3929  0.2396
23155WAT    EPW94427   7.924   6.872   3.744 -0.3924  0.1459 -0.3152
23156WAT      O94428   9.332  10.263   2.240 -0.2669 -0.4522 -0.0463
23156WAT     H194429   9.415  10.220   2.261  0.3137 -0.8018 -2.7156
23156WAT     H294430   9.282  10.197   2.193  0.1755  1.2636 -3.2168
23156WAT    EPW94431   9.336  10.249   2.236 -0.1321 -0.2723 -0.8165
23157WAT      O94432   8.182   8.430   2.151  0.1038  0.2827 -0.3720
23157WAT     H194433   8.197   8.360   2.087 -3.1171 -4.0075  2.9132
23157WAT     H294434   8.104   8.476   2.120 -1.4326 -1.7658  0.2202
23157WAT    EPW94435   8.174   8.427   2.139 -0.5236 -0.5536  0.1395
23158WAT      O94436   0.097   2.308   0.574  0.4890 -0.1620  0.5755
23158WAT     H194437   0.077   2.372   0.506  1.5026  0.7503  1.1116
23158WAT     H294438   0.145   2.238   0.528 -1.6027 -1.1531 -0.2282
23158WAT    EPW94439   0.101   2.307   0.559  0.3468 -0.1724  0.5402
23159WAT      O94440   6.698  10.132   3.762  0.1993  0.0691  0.5929
23159WAT     H194441   6.639  10.194   3.719 -0.8190 -0.1793  1.5932
23159WAT     H294442   6.669  10.131   3.854  0.6378 -1.3665  0.7364
23159WAT    EPW94443   6.686  10.140   3.769  0.1228 -0.1535  0.7436
23160WAT      O94444   5.910   8.825   3.736 -0.1714 -0.3998 -0.4215
23160WAT     H194445   5.925   8.747   3.789  0.0026  0.0610  0.2226
23160WAT     H294446   5.981   8.884   3.761 -0.8636  0.3439 -0.1574
23160WAT    EPW94447   5.921   8.823   3.747 -0.2398 -0.2413 -0.3018
23161WAT      O94448   9.003   8.898   7.613 -0.1167 -0.0231  0.3687
23161WAT     H194449   9.061   8.864   7.681  1.5060  1.3531 -0.2489
23161WAT     H294450   9.022   8.844   7.536  0.9291  0.8601 -0.0285
23161WAT    EPW94451   9.013   8.887   7.612  0.2351  0.2747  0.2344
23162WAT      O94452   7.554   7.886   2.390 -0.6513 -0.5969 -1.0314
23162WAT     H194453   7.495   7.810   2.391 -2.1560  0.5309 -0.3878
23162WAT     H294454   7.538   7.927   2.306 -0.6662 -0.3767 -0.9217
23162WAT    EPW94455   7.544   7.881   2.379 -0.8516 -0.4189 -0.9321
23163WAT      O94456   2.245  10.142   1.666 -0.0677 -0.6515 -0.4824
23163WAT     H194457   2.337  10.162   1.648 -0.0656 -0.4816 -0.2754
23163WAT     H294458   2.220  10.082   1.595 -0.4952  1.2161 -1.9869
23163WAT    EPW94459   2.254  10.137   1.654 -0.1237 -0.3824 -0.6535
23164WAT      O94460   6.115   8.317   5.860 -0.0067 -0.0065  0.1122
23164WAT     H194461   6.090   8.225   5.865 -0.2242  0.0438 -0.0412
23164WAT     H294462   6.068   8.359   5.932 -2.9112  0.6610 -2.0161
23164WAT    EPW94463   6.106   8.311   5.870 -0.4189  0.0882 -0.1886
23165WAT      O94464  10.889   1.158   5.337  0.5079  0.0829  0.4191
23165WAT     H194465  10.816   1.216   5.357  0.0168 -1.0266  2.0778
23165WAT     H294466  10.889   1.094   5.409  1.6496 -1.3535 -0.7976
23165WAT    EPW94467  10.879   1.157   5.349  0.5932 -0.2528  0.4773
23166WAT      O94468   0.791   0.386   2.610 -0.1430  0.2361 -0.6958
23166WAT     H194469   0.872   0.425   2.643 -0.2685 -2.2427  3.2396
23166WAT     H294470   0.723   0.450   2.632  0.4825  1.6463 -2.6193
23166WAT    EPW94471   0.793   0.400   2.617 -0.0771  0.0952 -0.4302
23167WAT      O94472  10.112   9.735   2.588 -0.4788  0.3647 -0.6551
23167WAT     H194473  10.096   9.703   2.499  0.3748  1.5791 -1.2720
23167WAT     H294474  10.030   9.719   2.634 -1.3815  0.9116 -2.0144
23167WAT    EPW94475  10.099   9.728   2.582 -0.4849  0.5970 -0.9156
23168WAT      O94476   5.549   8.746   5.699 -0.0899  0.5364 -0.1440
23168WAT     H194477   5.530   8.689   5.773 -0.2272  2.2963  1.2620
23168WAT     H294478   5.583   8.826   5.739 -0.4941  1.6874 -1.9747
23168WAT    EPW94479   5.551   8.749   5.714 -0.1616  0.9203 -0.2003
23169WAT      O94480   2.109   0.137   5.173  0.0209 -0.8840 -0.8133
23169WAT     H194481   2.153   0.057   5.145  0.8700 -0.5723 -0.4230
23169WAT     H294482   2.017   0.123   5.151 -0.1061 -2.5534  0.5121
23169WAT    EPW94483   2.103   0.125   5.167  0.1162 -1.0631 -0.5872
23170WAT      O94484   8.041   9.849   6.336 -0.4162  0.4884 -1.1568
23170WAT     H194485   8.007   9.937   6.317 -1.0337  0.1650 -1.5798
23170WAT     H294486   8.098   9.829   6.262 -0.6004  0.3665 -1.2658
23170WAT    EPW94487   8.044   9.858   6.324 -0.5221  0.4292 -1.2269
23171WAT      O94488   9.390   0.398   6.014 -0.2160  0.0230  0.0918
23171WAT     H194489   9.470   0.450   6.003  0.4431 -0.7839  0.9239
23171WAT     H294490   9.380   0.354   5.929  0.6580 -0.4560  0.2233
23171WAT    EPW94491   9.399   0.399   6.001 -0.0138 -0.1466  0.2189
23172WAT      O94492   0.851   2.475   4.214  0.2895 -0.2273 -0.1248
23172WAT     H194493   0.921   2.495   4.152  0.6212  0.1683  0.3668
23172WAT     H294494   0.897   2.450   4.294 -0.1022  1.2567  0.6024
23172WAT    EPW94495   0.866   2.475   4.216  0.2816  0.0207  0.0358
23173WAT      O94496   9.686   8.869   5.496 -1.0635  1.0814  0.4802
23173WAT     H194497   9.652   8.952   5.529 -2.6990  1.4783 -2.0017
23173WAT     H294498   9.753   8.893   5.433  0.3627  0.3934  1.6689
23173WAT    EPW94499   9.690   8.883   5.492 -1.0910  1.0424  0.3097
23174WAT      O94500   7.591   9.300   4.704 -0.2166  0.2276  0.2503
23174WAT     H194501   7.611   9.385   4.744 -0.7809 -1.2452  4.1168
23174WAT     H294502   7.501   9.282   4.728 -0.6837 -0.7984 -1.9900
23174WAT    EPW94503   7.582   9.309   4.713 -0.3526 -0.1016  0.4649
23175WAT      O94504   0.070   1.422   5.071 -0.1706 -0.0643  0.6503
23175WAT     H194505   0.133   1.399   5.139  0.4178 -0.0916  0.1137
23175WAT     H294506  -0.014   1.390   5.104  0.0322  0.2841  1.5301
23175WAT    EPW94507   0.067   1.414   5.084 -0.0662 -0.0219  0.6955
23176WAT      O94508  10.189   1.049   3.315 -0.4821 -0.2809 -0.6000
23176WAT     H194509  10.109   1.082   3.356  0.0295  1.7814 -1.1664
23176WAT     H294510  10.249   1.033   3.387 -0.4967  0.7489 -0.3526
23176WAT    EPW94511  10.186   1.051   3.330 -0.4168  0.1270 -0.6422
23177WAT      O94512   7.712  10.281   5.393  0.2964 -0.9388  0.5254
23177WAT     H194513   7.656  10.207   5.416  0.1492 -1.0241 -0.0909
23177WAT     H294514   7.685  10.305   5.304  0.5937 -0.3808  0.5783
23177WAT    EPW94515   7.701  10.274   5.384  0.3161 -0.8764  0.4508
23178WAT      O94516   0.738   9.595   3.711  0.3288  0.5235 -0.0275
23178WAT     H194517   0.698   9.668   3.664 -0.8593  0.2900  0.5749
23178WAT     H294518   0.666   9.556   3.761  0.8955 -1.1634 -0.4480
23178WAT    EPW94519   0.723   9.599   3.712  0.2468  0.2699 -0.0036
23179WAT      O94520   6.895   8.069   2.482 -0.1058  0.0973  0.2078
23179WAT     H194521   6.909   8.005   2.552 -1.9771 -1.1045 -0.4601
23179WAT     H294522   6.847   8.021   2.415 -1.3902  2.1259 -0.4062
23179WAT    EPW94523   6.890   8.054   2.483 -0.5224  0.2060  0.0389
23180WAT      O94524   9.529   9.447   5.103  0.6413  0.4858  0.0321
23180WAT     H194525   9.487   9.484   5.025 -0.4853  0.0819  0.4267
23180WAT     H294526   9.591   9.382   5.068 -2.0419 -1.9999 -0.5312
23180WAT    EPW94527   9.531   9.443   5.088  0.1388  0.1040  0.0098
23181WAT      O94528   0.365   2.372   2.318  0.1628  0.4269 -0.1148
23181WAT     H194529   0.390   2.459   2.348 -2.0011  1.5799 -1.4145
23181WAT     H294530   0.270   2.369   2.329  0.3147 -2.5002  1.6145
23181WAT    EPW94531   0.356   2.383   2.323 -0.1026  0.1929 -0.0581
23182WAT      O94532   6.760   8.168   5.261 -0.4889  0.5892 -0.1974
23182WAT     H194533   6.810   8.089   5.278  0.2893  1.0731 -0.2048
23182WAT     H294534   6.819   8.223   5.209 -1.0268  1.1644 -0.2100
23182WAT    EPW94535   6.774   8.165   5.256 -0.4575  0.7286 -0.2000
23183WAT      O94536   0.299   0.553   8.198  0.1947  0.2219 -0.6385
23183WAT     H194537   0.313   0.617   8.127  0.7641  1.1763  0.3037
23183WAT     H294538   0.213   0.577   8.234  0.8635  1.1837  0.4001
23183WAT    EPW94539   0.290   0.565   8.193  0.3580  0.4747 -0.3772
23184WAT      O94540   0.162   1.413   2.801 -0.3809 -0.1825 -1.1140
23184WAT     H194541   0.217   1.367   2.738 -0.8659  1.7801 -3.0956
23184WAT     H294542   0.078   1.367   2.798  0.3788 -1.7528  0.1924
23184WAT    EPW94543   0.158   1.401   2.792 -0.3446 -0.1307 -1.2029
23185WAT      O94544   9.533   9.211   5.840 -0.3720  0.7681 -0.3752
23185WAT     H194545   9.592   9.286   5.852 -1.3017  1.4450  0.0686
23185WAT     H294546   9.458   9.231   5.896 -0.1187 -1.0573  0.7001
23185WAT    EPW94547   9.531   9.224   5.849 -0.4606  0.6166 -0.1750
23186WAT      O94548   2.554   2.567   4.467 -0.1560 -0.3352  0.3225
23186WAT     H194549   2.603   2.504   4.414  2.2004  0.9672  0.8175
23186WAT     H294550   2.508   2.513   4.532  0.8538 -1.6287  0.0102
23186WAT    EPW94551   2.554   2.552   4.469  0.2879 -0.3340  0.3464
23187WAT      O94552  10.855   2.197   4.417  0.1999  0.0581  0.0459
23187WAT     H194553  10.845   2.265   4.484  0.4113  0.3092 -0.1752
23187WAT     H294554  10.921   2.138   4.452 -0.4884 -0.4314  0.5565
23187WAT    EPW94555  10.862   2.198   4.430  0.1369  0.0266  0.0839
23188WAT      O94556   0.422   1.134   1.072 -0.4777 -0.5087 -1.1277
23188WAT     H194557   0.391   1.086   1.149  1.1457 -3.0219 -1.9095
23188WAT     H294558   0.457   1.216   1.107  2.8252 -2.7113  1.3485
23188WAT    EPW94559   0.422   1.139   1.087  0.1720 -1.1307 -0.9043
23189WAT      O94560  10.214   8.292   5.422  0.3071 -0.3411 -0.1894
23189WAT     H194561  10.184   8.362   5.480 -1.1145 -1.6828  0.7962
23189WAT     H294562  10.138   8.274   5.366  1.6123  0.8413 -2.4658
23189WAT    EPW94563  10.200   8.299   5.423  0.2918 -0.3624 -0.3598
23190WAT      O94564   8.825   9.766   7.587  0.1067  0.0118 -0.2434
23190WAT     H194565   8.774   9.771   7.506  2.3030 -0.8428 -1.7764
23190WAT     H294566   8.908   9.727   7.560  1.7353  1.6544  2.0542
23190WAT    EPW94567   8.829   9.761   7.573  0.6108  0.1154 -0.1426
23191WAT      O94568   3.671   2.813   4.962 -0.9029  0.0726  0.0171
23191WAT     H194569   3.656   2.793   4.870  1.0848  1.8911 -0.7868
23191WAT     H294570   3.614   2.887   4.981  0.0576  0.9249 -0.3360
23191WAT    EPW94571   3.662   2.820   4.953 -0.5140  0.4249 -0.1359
23192WAT      O94572   9.223   9.168   5.087  0.4542 -0.3096 -0.3536
23192WAT     H194573   9.277   9.108   5.139 -0.3000 -1.7563 -1.1526
23192WAT     H294574   9.231   9.252   5.131  1.4868 -1.0146  0.8833
23192WAT    EPW94575   9.231   9.171   5.100  0.4902 -0.5937 -0.2959
23193WAT      O94576   2.181   1.832   2.279 -0.0191 -0.2761  0.2398
23193WAT     H194577   2.267   1.871   2.260  0.1183 -1.8326 -3.0525
23193WAT     H294578   2.190   1.798   2.368  2.4368  0.4561  0.3656
23193WAT    EPW94579   2.194   1.833   2.288  0.3231 -0.3849 -0.1780
23194WAT      O94580   9.657   7.489   0.491  0.0475  0.4863  0.2768
23194WAT     H194581   9.731   7.539   0.526  1.7857 -1.3341 -0.6167
23194WAT     H294582   9.694   7.403   0.471 -1.6400  0.3254 -2.6938
23194WAT    EPW94583   9.672   7.485   0.493  0.0534  0.2251 -0.2329
23195WAT      O94584   5.705   8.332   5.012 -0.9353 -0.1221  0.9684
23195WAT     H194585   5.786   8.364   5.052  0.1507  0.5332 -1.5571
23195WAT     H294586   5.648   8.409   5.010 -0.5868  0.1248  0.3135
23195WAT    EPW94587   5.709   8.347   5.017 -0.7463 -0.0024  0.5491
23196WAT      O94588   8.167   5.817   5.500 -0.1146 -0.0841 -0.4538
23196WAT     H194589   8.074   5.794   5.496 -0.5096  0.8410  1.8275
23196WAT     H294590   8.186   5.825   5.594  1.5185  2.6042 -0.9067
23196WAT    EPW94591   8.157   5.815   5.512  0.0486  0.3922 -0.2127
23197WAT      O94592   4.509   9.264   8.704  0.8008 -0.2898  0.5675
23197WAT     H194593   4.573   9.206   8.662  0.0925 -0.6794 -0.0075
23197WAT     H294594   4.424   9.235   8.669  0.4625  1.3911 -0.1105
23197WAT    EPW94595   4.506   9.253   8.694  0.6628 -0.1197  0.4015
23198WAT      O94596   7.405   9.177   7.926 -0.4009 -0.0298 -0.3202
23198WAT     H194597   7.447   9.105   7.880 -0.6658  0.0091 -0.6324
23198WAT     H294598   7.366   9.138   8.004 -1.6292 -0.4740 -1.1224
23198WAT    EPW94599   7.405   9.163   7.930 -0.5980 -0.0830 -0.4673
23199WAT      O94600   1.596   0.792   3.538 -0.4141 -0.2044 -0.2817
23199WAT     H194601   1.573   0.713   3.489 -3.0654  0.7136 -0.6939
23199WAT     H294602   1.620   0.760   3.625 -2.1912 -1.4677 -0.1979
23199WAT    EPW94603   1.596   0.777   3.543 -0.9981 -0.2499 -0.3250
23200WAT      O94604   6.070   6.043   8.971 -0.4762 -0.1211  0.0019
23200WAT     H194605   6.142   6.091   8.929  0.7402 -2.0524 -0.2372
23200WAT     H294606   6.113   5.987   9.035 -1.7327 -1.4830 -0.3011
23200WAT    EPW94607   6.085   6.042   8.974 -0.4816 -0.5555 -0.0696
23201WAT      O94608   7.749   7.959   4.240 -0.6159  0.3888  0.0223
23201WAT     H194609   7.766   8.031   4.302 -1.2646  0.3597  0.2483
23201WAT     H294610   7.835   7.927   4.217 -0.3608  0.0361  1.3586
23201WAT    EPW94611   7.762   7.965   4.245 -0.6678  0.3383  0.2284
23202WAT      O94612   8.631  10.069   4.393 -0.8966 -0.0735  0.0200
23202WAT     H194613   8.576   9.992   4.408 -0.8643  0.0913  1.0218
23202WAT     H294614   8.668  10.090   4.478 -0.1092  0.4597 -0.4357
23202WAT    EPW94615   8.629  10.062   4.406 -0.7887  0.0186  0.0918
23203WAT      O94616   1.847   0.793   8.565 -0.0962  0.4649  0.1638
23203WAT     H194617   1.855   0.860   8.497  0.4996  1.0984  0.8431
23203WAT     H294618   1.919   0.732   8.547 -0.0492  0.5309  0.1289
23203WAT    EPW94619   1.858   0.794   8.553 -0.0114  0.5572  0.2484
23204WAT      O94620   6.726   6.908   4.844  0.4480  0.4405  0.4554
23204WAT     H194621   6.791   6.976   4.864  0.2827  1.0052 -0.8598
23204WAT     H294622   6.644   6.942   4.881  0.3674  0.9641 -0.1899
23204WAT    EPW94623   6.724   6.922   4.852  0.4156  0.5841  0.1967
23205WAT      O94624   9.808   9.505   4.785 -0.3837 -0.6273  0.0823
23205WAT     H194625   9.749   9.532   4.855  1.4116 -1.4594  2.0444
23205WAT     H294626   9.833   9.416   4.808 -1.5532 -1.8674 -2.9746
23205WAT    EPW94627   9.804   9.497   4.797 -0.3009 -0.9007 -0.0625
23206WAT      O94628   2.398   1.100   5.461 -0.1546 -0.2835  0.4860
23206WAT     H194629   2.368   1.190   5.471 -0.2467 -0.4103  1.4438
23206WAT     H294630   2.358   1.070   5.379 -0.2888  0.4726  0.2647
23206WAT    EPW94631   2.389   1.108   5.452 -0.1845 -0.2005  0.5832
23207WAT      O94632   1.383   1.341   3.930  0.8197 -0.9563 -0.2578
23207WAT     H194633   1.412   1.424   3.893  1.6915 -0.5639  1.1893
23207WAT     H294634   1.336   1.365   4.010 -1.6640 -1.7251 -1.3700
23207WAT    EPW94635   1.381   1.355   3.936  0.6071 -1.0059 -0.2135
23208WAT      O94636  10.276   3.854   5.306  0.4445 -0.1843 -0.7631
23208WAT     H194637  10.370   3.862   5.321  0.4047  0.7505 -0.9682
23208WAT     H294638  10.261   3.893   5.220 -0.0479 -0.9184 -1.0261
23208WAT    EPW94639  10.286   3.860   5.297  0.3743 -0.1578 -0.8245
23209WAT      O94640   5.363   8.157   8.938 -0.2757 -0.1357  0.0408
23209WAT     H194641   5.351   8.250   8.958  1.1446  0.0778 -0.0413
23209WAT     H294642   5.457   8.142   8.946 -0.0792 -0.9201 -2.7269
23209WAT    EPW94643   5.374   8.167   8.942 -0.0625 -0.2112 -0.3357
23210WAT      O94644   9.461   9.207   3.290  0.1866 -0.9655 -0.3064
23210WAT     H194645   9.457   9.130   3.234 -0.9460  0.7699 -2.7719
23210WAT     H294646   9.372   9.242   3.290  0.7483  0.5650  0.4348
23210WAT    EPW94647   9.449   9.202   3.283  0.1116 -0.5345 -0.5338
23211WAT      O94648   9.300   8.018   4.616 -0.4622  0.2356  0.3106
23211WAT     H194649   9.209   8.042   4.599 -0.5832 -1.1990 -1.3584
23211WAT     H294650   9.314   8.042   4.708 -2.4293  0.7240  0.5362
23211WAT    EPW94651   9.290   8.024   4.626 -0.7377  0.1111  0.1202
23212WAT      O94652   9.988   0.397   2.609  0.3430 -0.4255 -0.3467
23212WAT     H194653   9.961   0.389   2.517 -0.1041 -0.8042 -0.1884
23212WAT     H294654   9.917   0.354   2.658  0.5034 -0.0833  0.1853
23212WAT    EPW94655   9.975   0.390   2.603  0.3052 -0.4303 -0.2557
23213WAT      O94656   1.486   0.878   0.797  0.3642  0.3890  0.1840
23213WAT     H194657   1.457   0.938   0.728 -1.0124 -2.7697 -2.2474
23213WAT     H294658   1.464   0.791   0.764  1.9080 -1.5161  3.6147
23213WAT    EPW94659   1.480   0.874   0.784  0.3862 -0.2789  0.3158
23214WAT      O94660   1.823   2.288   1.805  0.1140 -0.0364  0.5837
23214WAT     H194661   1.769   2.329   1.736 -1.9833 -0.3594  1.9369
23214WAT     H294662   1.901   2.257   1.759 -1.5049 -0.8796 -1.8177
23214WAT    EPW94663   1.826   2.290   1.790 -0.3760 -0.1903  0.4455
23215WAT      O94664   0.714   3.178   2.542 -0.1084  0.3179 -0.5022
23215WAT     H194665   0.711   3.139   2.629  0.7219  0.2944 -0.4823
23215WAT     H294666   0.684   3.268   2.555  0.3626  0.4205 -0.1346
23215WAT    EPW94667   0.709   3.184   2.555  0.0632  0.3282 -0.4511
23216WAT      O94668   8.178   2.524   2.882  1.3304  0.2167 -0.3966
23216WAT     H194669   8.094   2.547   2.841  1.0070  0.2018  0.2503
23216WAT     H294670   8.190   2.432   2.860  0.6808 -0.0563  0.3503
23216WAT    EPW94671   8.168   2.515   2.873  1.2021  0.1786 -0.2128
23217WAT      O94672   8.526   5.424   6.309  0.7184 -0.2535  0.0623
23217WAT     H194673   8.603   5.473   6.279  0.9925 -0.4808  0.3934
23217WAT     H294674   8.530   5.341   6.261  0.7657 -0.3300  0.1993
23217WAT    EPW94675   8.536   5.420   6.299  0.7610 -0.2933  0.1242
23218WAT      O94676   9.800   7.290   5.152 -0.1463  0.1048 -0.5257
23218WAT     H194677   9.797   7.196   5.167 -0.5027  0.3903  1.4289
23218WAT     H294678   9.890   7.315   5.173  0.3299  0.0402 -2.3409
23218WAT    EPW94679   9.811   7.281   5.156 -0.1302  0.1340 -0.5071
23219WAT      O94680   5.720  10.244   5.084  0.0917  0.2927 -0.1360
23219WAT     H194681   5.729  10.160   5.130 -1.0424  0.1085 -0.2201
23219WAT     H294682   5.749  10.225   4.995 -0.3352 -0.0664 -0.2044
23219WAT    EPW94683   5.725  10.230   5.079 -0.1142  0.2208 -0.1562
23220WAT      O94684   6.253   8.362   5.437 -0.0970 -0.1917  0.3295
23220WAT     H194685   6.268   8.282   5.387 -0.9850  0.2649 -0.6999
23220WAT     H294686   6.300   8.430   5.389  0.9349 -0.1207  1.3826
23220WAT    EPW94687   6.261   8.361   5.424 -0.0782 -0.1221  0.3324
23221WAT      O94688   5.908   8.035   5.827 -0.7093 -0.3423 -0.3422
23221WAT     H194689   5.848   7.976   5.872 -0.6807  1.8418  2.9062
23221WAT     H294690   5.856   8.113   5.809  0.3523  0.4127 -0.2544
23221WAT    EPW94691   5.893   8.037   5.831 -0.5655  0.0453  0.0975
23222WAT      O94692   1.692   1.444   2.392  0.3951 -0.1097 -0.4989
23222WAT     H194693   1.682   1.351   2.374 -2.4563  0.1040 -0.4262
23222WAT     H294694   1.670   1.453   2.485  1.0799  0.6165 -0.3885
23222WAT    EPW94695   1.688   1.433   2.402  0.1093  0.0143 -0.4747
23223WAT      O94696   2.836   2.873   2.218 -0.1766 -0.2747 -0.1927
23223WAT     H194697   2.855   2.835   2.132 -0.4486  0.1698 -0.4535
23223WAT     H294698   2.844   2.967   2.205  2.8903 -0.2617  1.0264
23223WAT    EPW94699   2.840   2.880   2.205  0.1920 -0.2143 -0.0664
23224WAT      O94700   9.398   2.848   3.316 -0.1470  0.5564 -0.3708
23224WAT     H194701   9.323   2.835   3.373 -0.6213  0.5663 -0.9831
23224WAT     H294702   9.473   2.818   3.368 -0.1784  3.0577  1.2889
23224WAT    EPW94703   9.398   2.842   3.331 -0.2131  0.8876 -0.2325
23225WAT      O94704   2.407   1.284   2.913 -0.0539 -0.1215 -0.1278
23225WAT     H194705   2.376   1.349   2.850  0.8036  0.0710 -0.3551
23225WAT     H294706   2.480   1.326   2.958  2.1148 -1.7417 -1.9364
23225WAT    EPW94707   2.412   1.298   2.911  0.3452 -0.3097 -0.3964
23226WAT      O94708   1.273   3.893   3.471  0.5629 -0.0514 -0.4703
23226WAT     H194709   1.246   3.806   3.438  0.5777  0.1708 -1.0884
23226WAT     H294710   1.351   3.876   3.523  0.2972 -0.4687 -0.1944
23226WAT    EPW94711   1.280   3.879   3.473  0.5298 -0.0771 -0.5155
23227WAT      O94712   1.967   3.202   4.820  1.2646 -0.3398  0.1210
23227WAT     H194713   1.978   3.297   4.828  1.9094 -0.1210 -2.5107
23227WAT     H294714   1.899   3.180   4.884  1.1950  1.8605  0.8778
23227WAT    EPW94715   1.959   3.212   4.829  1.3404 -0.0207 -0.1266
23228WAT      O94716   7.761   9.266   5.451  0.5187 -0.2902 -0.6763
23228WAT     H194717   7.775   9.200   5.383  0.5205 -1.8177  0.7481
23228WAT     H294718   7.668   9.287   5.444  0.6630  0.0640 -1.5852
23228WAT    EPW94719   7.750   9.260   5.441  0.5381 -0.4444 -0.6084
23229WAT      O94720   0.317  10.086   3.540  0.4889 -0.6882  0.0743
23229WAT     H194721   0.291  10.039   3.461  1.5955 -0.8957 -0.1859
23229WAT     H294722   0.357  10.018   3.595  0.1119 -0.4611  0.6295
23229WAT    EPW94723   0.319  10.071   3.537  0.5851 -0.6857  0.1131
23230WAT      O94724   9.834   9.907   4.862  0.2736  0.0691  0.6331
23230WAT     H194725   9.841   9.926   4.768  0.6455 -0.5518  0.5305
23230WAT     H294726   9.862   9.816   4.870  1.1811  0.4045  1.4785
23230WAT    EPW94727   9.839   9.898   4.851  0.4425  0.0315  0.7312
23231WAT      O94728   4.329   3.654   5.237  0.0076 -0.3093 -0.0506
23231WAT     H194729   4.316   3.597   5.162  1.3122  1.8063 -2.0277
23231WAT     H294730   4.310   3.599   5.313  1.7558 -3.5379 -1.7184
23231WAT    EPW94731   4.325   3.640   5.237  0.4103 -0.4561 -0.5314
23232WAT      O94732   2.441   1.438   2.202  0.1709 -0.6543 -0.2355
23232WAT     H194733   2.388   1.458   2.279 -2.3749 -1.9709 -1.5152
23232WAT     H294734   2.446   1.342   2.200 -1.5090 -0.8007 -2.6486
23232WAT    EPW94735   2.434   1.428   2.212 -0.3864 -0.8473 -0.7225
23233WAT      O94736   2.145   2.754   3.935 -0.0566 -0.2372  0.5152
23233WAT     H194737   2.051   2.744   3.951 -0.5673  0.9525 -1.4060
23233WAT     H294738   2.173   2.825   3.993 -1.2693  2.1513 -1.6299
23233WAT    EPW94739   2.137   2.762   3.945 -0.2838  0.2348 -0.0211
23234WAT      O94740   5.244   0.103   1.318  0.1396 -0.4868 -0.1834
23234WAT     H194741   5.238   0.062   1.405  0.5600  0.6816  0.4196
23234WAT     H294742   5.201   0.188   1.329  0.7142 -0.0841 -0.9646
23234WAT    EPW94743   5.238   0.109   1.331  0.2711 -0.2796 -0.2068
23235WAT      O94744   8.171   8.213   3.521 -0.2862 -0.5844  0.7446
23235WAT     H194745   8.097   8.227   3.462 -0.7922 -0.6459  1.3563
23235WAT     H294746   8.132   8.179   3.602  0.2470  0.6986  1.5788
23235WAT    EPW94747   8.156   8.210   3.524 -0.2823 -0.4234  0.9352
23236WAT      O94748   0.465   0.129   4.442 -0.3523 -0.2289  0.0433
23236WAT     H194749   0.527   0.060   4.466 -1.9918 -1.2386  1.5593
23236WAT     H294750   0.446   0.174   4.525 -1.3953  0.2770 -0.4582
23236WAT    EPW94751   0.471   0.126   4.456 -0.7061 -0.2954  0.1771
23237WAT      O94752   3.845   2.849   3.329  0.4816 -0.4005 -0.6248
23237WAT     H194753   3.896   2.844   3.410  2.8635 -1.7725 -2.0889
23237WAT     H294754   3.897   2.905   3.272 -0.4893 -0.5353 -1.6635
23237WAT    EPW94755   3.859   2.856   3.332  0.6677 -0.5991 -0.9549
23238WAT      O94756  10.596   3.035   5.925 -0.6248 -0.4898 -0.1915
23238WAT     H194757  10.537   3.111   5.932  0.4897  0.4741 -0.9757
23238WAT     H294758  10.684   3.072   5.932 -0.0597 -1.7313 -0.4789
23238WAT    EPW94759  10.599   3.050   5.927 -0.4034 -0.5264 -0.3328
23239WAT      O94760   9.517   9.744   0.016  0.3893 -0.7665 -0.2712
23239WAT     H194761   9.495   9.677  -0.049 -0.2418  1.7266 -2.8026
23239WAT     H294762   9.552   9.816  -0.035  1.5106  0.6914  2.3947
23239WAT    EPW94763   9.519   9.744   0.001  0.4535 -0.2451 -0.2535
23240WAT      O94764  10.125   9.717   2.009 -0.3357  0.0762 -0.0519
23240WAT     H194765  10.156   9.804   1.985 -1.2095  0.3245 -0.3060
23240WAT     H294766  10.038   9.710   1.969 -0.2307 -0.9522 -0.1232
23240WAT    EPW94767  10.117   9.728   2.001 -0.4373 -0.0267 -0.0948
23241WAT      O94768   1.137   1.259   6.260  0.4005  0.1435  0.1104
23241WAT     H194769   1.096   1.290   6.179  1.2837  2.7314  0.5772
23241WAT     H294770   1.133   1.334   6.319  1.4301 -1.1078  1.8458
23241WAT    EPW94771   1.131   1.273   6.257  0.6528  0.3197  0.4008
23242WAT      O94772   8.930   9.536   0.987 -0.3280 -0.3278  0.1398
23242WAT     H194773   8.971   9.481   0.920  1.7270 -0.6226  1.5376
23242WAT     H294774   8.856   9.484   1.018  0.3961 -1.4412  0.0652
23242WAT    EPW94775   8.926   9.522   0.982  0.0377 -0.5136  0.3143
23243WAT      O94776   2.940   0.044   1.724 -0.1139 -0.6918  0.0096
23243WAT     H194777   2.956  -0.045   1.755 -1.4639 -1.3596 -1.0818
23243WAT     H294778   2.963   0.041   1.631  1.6938  0.6553  0.3600
23243WAT    EPW94779   2.945   0.031   1.716 -0.0535 -0.6022 -0.0881
23244WAT      O94780   1.492   1.597   3.765  0.5763  0.5931 -0.0563
23244WAT     H194781   1.461   1.682   3.735  1.8245  0.8375 -0.7312
23244WAT     H294782   1.567   1.616   3.821 -0.5913  0.0327  1.7944
23244WAT    EPW94783   1.498   1.611   3.768  0.5869  0.5514  0.0988
23245WAT      O94784   1.489   2.175   5.670 -0.2314  0.0265 -0.7095
23245WAT     H194785   1.502   2.229   5.748  2.0554 -0.2511 -0.8136
23245WAT     H294786   1.514   2.087   5.699 -3.3884 -0.9917 -0.6740
23245WAT    EPW94787   1.494   2.170   5.684 -0.3462 -0.1445 -0.7186
23246WAT      O94788   1.246   9.972   4.912 -0.7638  0.7331  0.9284
23246WAT     H194789   1.239   9.877   4.916 -0.9559  0.7661  1.4191
23246WAT     H294790   1.266   9.991   4.820 -1.6578  0.2834  0.6407
23246WAT    EPW94791   1.248   9.962   4.900 -0.9069  0.6781  0.9553
23247WAT      O94792   9.367   8.624   8.783  0.1554  0.1475 -0.6849
23247WAT     H194793   9.295   8.620   8.846  0.1785 -3.7318 -0.6498
23247WAT     H294794   9.441   8.657   8.834  0.0949 -2.5868  1.4115
23247WAT    EPW94795   9.367   8.628   8.798  0.1507 -0.7248 -0.4039
23248WAT      O94796   1.216   1.673   5.859  0.4892 -0.1764  0.4511
23248WAT     H194797   1.274   1.632   5.794 -0.9247  0.7600 -1.4752
23248WAT     H294798   1.266   1.668   5.941  2.0798 -1.9687 -0.5408
23248WAT    EPW94799   1.230   1.667   5.861  0.5125 -0.2893  0.0665
23249WAT      O94800   2.203   0.549   2.844 -0.5306  0.4756 -0.2052
23249WAT     H194801   2.135   0.485   2.865 -2.5686  1.8248 -2.1544
23249WAT     H294802   2.187   0.572   2.752  1.5063  2.1410 -0.2336
23249WAT    EPW94803   2.192   0.544   2.835 -0.5307  0.8732 -0.4661
23250WAT      O94804   1.496   0.338   2.902 -0.0585  0.2185  0.0745
23250WAT     H194805   1.474   0.249   2.930  0.6596 -0.2936 -0.9331
23250WAT     H294806   1.411   0.382   2.895 -0.7455 -1.3027 -2.3813
23250WAT    EPW94807   1.482   0.332   2.905 -0.0545 -0.0497 -0.3823
23251WAT      O94808  10.758   4.064   3.721  0.0207 -0.1166 -0.3646
23251WAT     H194809  10.717   3.984   3.753 -0.9748  0.3768 -0.3769
23251WAT     H294810  10.822   4.086   3.788  1.0207 -1.4378 -0.8231
23251WAT    EPW94811  10.761   4.056   3.734  0.0210 -0.2258 -0.4268
23252WAT      O94812   7.975   9.110   3.872  0.9676  0.0581 -0.3943
23252WAT     H194813   7.980   9.205   3.856  2.9291  0.5259  2.2282
23252WAT     H294814   8.015   9.099   3.959  0.7896 -3.1995 -0.6203
23252WAT    EPW94815   7.981   9.121   3.881  1.2028 -0.3099 -0.0781
23253WAT      O94816   3.137   2.080   2.005  0.0604  0.4281 -0.6030
23253WAT     H194817   3.070   2.147   2.003 -1.4504 -0.9638  0.6972
23253WAT     H294818   3.149   2.059   2.097  2.0646  0.3944 -0.8252
23253WAT    EPW94819   3.130   2.086   2.017  0.1254  0.2401 -0.4609
23254WAT      O94820   1.504   3.124   5.725  0.3247 -0.0463  0.1607
23254WAT     H194821   1.437   3.083   5.671  0.5450  0.4739 -0.5175
23254WAT     H294822   1.586   3.090   5.690  0.5500  1.4945 -0.8794
23254WAT    EPW94823   1.506   3.114   5.713  0.3835  0.2257 -0.0658
23255WAT      O94824   2.685   0.554   2.487  0.7299  0.2795 -0.1953
23255WAT     H194825   2.677   0.595   2.574  2.7368 -0.4410  0.3663
23255WAT     H294826   2.761   0.497   2.494  2.1405  1.6456 -3.0036
23255WAT    EPW94827   2.694   0.552   2.499  1.1806  0.3647 -0.4917
23256WAT      O94828   9.465   2.358   3.512  0.4337 -0.2408 -0.4835
23256WAT     H194829   9.457   2.274   3.468  1.4256 -0.3476 -0.4991
23256WAT     H294830   9.560   2.369   3.524  0.3686  1.1849 -1.0996
23256WAT    EPW94831   9.477   2.349   3.508  0.5560 -0.0668 -0.5668
23257WAT      O94832   5.939   1.956   3.191  0.5797 -0.9366  0.1752
23257WAT     H194833   5.999   1.958   3.117 -0.3490 -0.2655 -0.5895
23257WAT     H294834   5.964   2.032   3.245 -1.2927  1.1017 -1.6076
23257WAT    EPW94835   5.950   1.967   3.189  0.2103 -0.5792 -0.1607
23258WAT      O94836   1.513   1.573   4.229  0.8208  0.1270 -0.6332
23258WAT     H194837   1.592   1.565   4.284  0.2659 -1.8999 -0.0231
23258WAT     H294838   1.466   1.491   4.245 -0.5131  0.5129 -2.3998
23258WAT    EPW94839   1.518   1.561   4.239  0.5717 -0.0894 -0.7858
23259WAT      O94840   9.076   8.477   3.205 -0.3266  0.3762 -0.2196
23259WAT     H194841   9.063   8.559   3.252 -1.1981  0.6611 -0.9304
23259WAT     H294842   9.082   8.411   3.275 -0.7052  0.9026  0.3238
23259WAT    EPW94843   9.075   8.479   3.220 -0.4916  0.4830 -0.2416
23260WAT      O94844   9.747   8.919   4.094 -0.7911 -0.0766  0.4559
23260WAT     H194845   9.730   8.997   4.041 -1.0385 -0.8133 -0.5898
23260WAT     H294846   9.838   8.929   4.122 -0.5430  0.1649 -0.4135
23260WAT    EPW94847   9.757   8.930   4.091 -0.7906 -0.1421  0.2034
23261WAT      O94848   6.113   9.580   7.052  0.6058  0.1496 -0.5648
23261WAT     H194849   6.204   9.595   7.078  0.9557 -1.2698 -0.8993
23261WAT     H294850   6.108   9.609   6.961  0.4890  1.0219 -0.2917
23261WAT    EPW94851   6.124   9.586   7.044  0.6363  0.0772 -0.5729
23262WAT      O94852   7.967   8.671   2.309 -0.1906 -0.1034  0.4619
23262WAT     H194853   7.916   8.727   2.367  0.8192  0.7383  0.5719
23262WAT     H294854   7.905   8.605   2.279 -1.6818  1.6370 -0.4536
23262WAT    EPW94855   7.952   8.669   2.313 -0.2542  0.2370  0.3557
23263WAT      O94856   1.455   0.914   2.481  0.5553  0.0908  0.8562
23263WAT     H194857   1.392   0.942   2.414  0.3144  0.3346  1.1850
23263WAT     H294858   1.503   0.843   2.439  0.2415  0.0792  0.5071
23263WAT    EPW94859   1.453   0.908   2.467  0.4821  0.1214  0.8534
23264WAT      O94860   5.068   0.625   3.169  0.2751 -0.4266  0.1495
23264WAT     H194861   5.010   0.695   3.142  0.7867  0.4214  1.1712
23264WAT     H294862   5.100   0.587   3.087  0.9543  1.3449 -0.4490
23264WAT    EPW94863   5.065   0.629   3.155  0.4320 -0.0811  0.2054
23265WAT      O94864   2.118   0.968   2.289 -0.8256 -0.3355 -0.2456
23265WAT     H194865   2.164   1.029   2.231  0.1302 -1.0736 -0.2767
23265WAT     H294866   2.124   0.883   2.245 -2.6627 -0.3882 -0.4938
23265WAT    EPW94867   2.125   0.965   2.275 -0.9418 -0.4398 -0.2824
23266WAT      O94868   7.324   5.323   8.487 -0.2322  0.1597 -0.3265
23266WAT     H194869   7.342   5.399   8.541 -1.4016 -0.5206  1.1073
23266WAT     H294870   7.241   5.343   8.445 -0.2809 -0.1051 -0.3563
23266WAT    EPW94871   7.315   5.335   8.489 -0.3927  0.0350 -0.1411
23267WAT      O94872   6.961   3.784   2.715 -0.1057  0.2943  0.2244
23267WAT     H194873   6.882   3.737   2.743 -0.0872 -0.0726 -0.3404
23267WAT     H294874   6.931   3.873   2.697 -0.0690  0.6384  1.6889
23267WAT    EPW94875   6.947   3.790   2.717 -0.0982  0.2911  0.3432
23268WAT      O94876   6.615   8.142   6.403  0.4897 -0.3249 -0.0503
23268WAT     H194877   6.572   8.210   6.351 -0.7967  0.2661  1.6960
23268WAT     H294878   6.700   8.180   6.427 -0.5050  1.0314  1.5136
23268WAT    EPW94879   6.621   8.156   6.399  0.1886 -0.0682  0.3865
23269WAT      O94880   6.507   2.758   3.689  0.3498  0.7089  0.5118
23269WAT     H194881   6.459   2.804   3.758 -0.7337 -1.2943  1.1667
23269WAT     H294882   6.446   2.756   3.615  0.0720 -0.2992  0.7511
23269WAT    EPW94883   6.493   2.764   3.688  0.1705  0.3117  0.6297
23270WAT      O94884  10.649  10.223   0.127 -0.0501  0.5039  0.5639
23270WAT     H194885  10.573  10.269   0.093  0.1530  0.3653 -0.0847
23270WAT     H294886  10.712  10.292   0.148  0.4435  0.5233 -0.8650
23270WAT    EPW94887  10.648  10.238   0.126  0.0420  0.4878  0.2899
23271WAT      O94888   3.260   3.426   2.767 -0.4941  0.1615 -0.1471
23271WAT     H194889   3.322   3.435   2.694 -0.9066 -0.8057 -0.6374
23271WAT     H294890   3.311   3.450   2.844  1.1357 -2.4557 -0.2808
23271WAT    EPW94891   3.275   3.430   2.768 -0.3335 -0.3114 -0.2294
23272WAT      O94892   1.527   3.637   7.089  0.3101  0.5558 -0.5045
23272WAT     H194893   1.619   3.624   7.067  0.3717  1.1834 -0.6406
23272WAT     H294894   1.492   3.691   7.018 -0.5557 -0.9111 -1.2480
23272WAT    EPW94895   1.535   3.643   7.077  0.2040  0.4451 -0.6204
23273WAT      O94896   2.204   4.444   2.820 -0.0446 -0.2296 -0.4966
23273WAT     H194897   2.263   4.497   2.874 -1.6412 -0.2202  1.3405
23273WAT     H294898   2.240   4.355   2.827 -0.6399 -0.3734  1.2996
23273WAT    EPW94899   2.217   4.439   2.828 -0.3337 -0.2475 -0.0173
23274WAT      O94900   4.978   1.399   0.524  0.1120 -0.0295 -0.5923
23274WAT     H194901   4.913   1.444   0.470  1.0327  3.3882  0.8457
23274WAT     H294902   4.935   1.387   0.608  1.3922  3.1452  0.6913
23274WAT    EPW94903   4.964   1.404   0.528  0.4022  0.8399 -0.2333
23275WAT      O94904   3.607   1.468   0.720 -0.3074 -0.1903  0.3208
23275WAT     H194905   3.613   1.377   0.751 -2.6582 -0.6210 -0.2476
23275WAT     H294906   3.546   1.463   0.646  1.0188  1.5951 -0.9573
23275WAT    EPW94907   3.600   1.455   0.714 -0.4426 -0.0116  0.0772
23276WAT      O94908   3.132   1.442   3.776  0.0338 -0.3870 -0.0945
23276WAT     H194909   3.168   1.421   3.862  0.7296 -1.1877 -0.5696
23276WAT     H294910   3.209   1.455   3.720 -0.2415 -4.4084 -1.7030
23276WAT    EPW94911   3.147   1.441   3.780  0.0894 -1.0231 -0.3694
23277WAT      O94912   8.182   9.154   4.051 -0.1301 -0.9027 -0.1977
23277WAT     H194913   8.183   9.248   4.036  0.4836 -0.9093 -0.2179
23277WAT     H294914   8.110   9.140   4.112  0.1226 -0.3510  0.2332
23277WAT    EPW94915   8.173   9.165   4.057 -0.0157 -0.8302 -0.1435
23278WAT      O94916   3.800   1.972   4.619 -0.1749  0.0600 -0.5952
23278WAT     H194917   3.860   1.899   4.638 -1.3827 -0.3504  2.1786
23278WAT     H294918   3.833   2.044   4.673  0.2638  1.2454 -2.3538
23278WAT    EPW94919   3.812   1.971   4.629 -0.2762  0.1622 -0.4611
23279WAT      O94920   0.546   3.789   2.792  0.3558  0.5896 -1.1356
23279WAT     H194921   0.613   3.771   2.725 -0.5499  1.1936 -2.2331
23279WAT     H294922   0.590   3.771   2.875  1.6287  0.1857 -1.8691
23279WAT    EPW94923   0.561   3.784   2.794  0.4043  0.6160 -1.3772
23280WAT      O94924   8.346   7.753   7.826 -0.5300  0.8217  0.3375
23280WAT     H194925   8.316   7.766   7.736 -1.6403  0.8282  0.6939
23280WAT     H294926   8.269   7.771   7.880 -0.0637  0.1603  1.2593
23280WAT    EPW94927   8.332   7.757   7.821 -0.6146  0.7355  0.5062
23281WAT      O94928   0.353   9.111   3.639 -0.0130 -0.2072  0.2706
23281WAT     H194929   0.445   9.115   3.664 -0.1605 -0.4919  0.8788
23281WAT     H294930   0.351   9.145   3.549  0.6225  0.2117  0.4063
23281WAT    EPW94931   0.365   9.116   3.630  0.0514 -0.1893  0.3688
23282WAT      O94932   4.220   0.892   4.186 -0.2488  0.2607 -0.6398
23282WAT     H194933   4.306   0.924   4.160 -0.1810  0.6223  0.0064
23282WAT     H294934   4.160   0.963   4.164 -0.3685  0.0664 -0.9551
23282WAT    EPW94935   4.224   0.905   4.180 -0.2556  0.2828 -0.5960
23283WAT      O94936   6.676   3.067   3.090  0.5435  0.8094 -0.1367
23283WAT     H194937   6.684   3.066   2.995 -0.6150  0.3520 -0.2422
23283WAT     H294938   6.643   2.980   3.112  0.2374  1.1110  0.6283
23283WAT    EPW94939   6.673   3.055   3.081  0.3502  0.7889 -0.0498
23284WAT      O94940   3.655   0.620   6.926  0.1935  0.2391  0.7088
23284WAT     H194941   3.715   0.652   6.858 -0.0613 -0.8133 -0.0420
23284WAT     H294942   3.710   0.565   6.981 -0.3278 -1.9994 -0.8807
23284WAT    EPW94943   3.670   0.617   6.924  0.0911 -0.1950  0.3998
23285WAT      O94944   0.219  10.086   1.358 -0.3094  0.4225  0.0155
23285WAT     H194945   0.248  10.044   1.277  0.0350  1.6780 -0.5346
23285WAT     H294946   0.190  10.014   1.413  1.1891 -0.6453 -0.5129
23285WAT    EPW94947   0.219  10.071   1.355 -0.0663  0.4473 -0.1268
23286WAT      O94948   6.303   6.130   7.622 -0.8420 -0.5379  0.5393
23286WAT     H194949   6.251   6.152   7.699 -0.3193  3.4647 -0.0360
23286WAT     H294950   6.241   6.133   7.549 -1.0458 -2.8289  0.5607
23286WAT    EPW94951   6.288   6.133   7.623 -0.8001 -0.3123  0.4663
23287WAT      O94952   2.357   0.602   3.816 -0.8278 -0.4291 -0.3209
23287WAT     H194953   2.420   0.536   3.845  0.4360  0.7084 -0.4087
23287WAT     H294954   2.309   0.560   3.745  1.6824 -0.4317 -2.1276
23287WAT    EPW94955   2.359   0.588   3.811 -0.3301 -0.2794 -0.5707
23288WAT      O94956   2.298   1.564   3.115  0.1468 -0.3874 -0.5013
23288WAT     H194957   2.302   1.652   3.153 -2.8324  0.9579 -2.8746
23288WAT     H294958   2.369   1.563   3.050  0.2159  0.2354 -0.4447
23288WAT    EPW94959   2.308   1.575   3.111 -0.2371 -0.1279 -0.8069
23289WAT      O94960   1.522   5.340   5.468 -0.4748  0.0081  0.2011
23289WAT     H194961   1.571   5.407   5.421 -1.2789  1.0318  0.7843
23289WAT     H294962   1.560   5.257   5.438  0.6399  0.7167 -0.4160
23289WAT    EPW94963   1.533   5.338   5.458 -0.4338  0.2365  0.1965
23290WAT      O94964   1.446   0.290   4.731 -0.3324  0.3268 -0.0344
23290WAT     H194965   1.366   0.257   4.771 -1.0562 -0.4634 -2.0069
23290WAT     H294966   1.515   0.265   4.792 -1.5065  0.4588  1.3962
23290WAT    EPW94967   1.445   0.282   4.744 -0.5827  0.2400 -0.1059
23291WAT      O94968   4.514   1.633   3.319 -0.0919 -0.3063  0.2996
23291WAT     H194969   4.589   1.582   3.288 -1.3622 -2.3135  0.3562
23291WAT     H294970   4.438   1.576   3.304 -1.8358  2.1411 -1.0414
23291WAT    EPW94971   4.514   1.619   3.313 -0.4895 -0.2483  0.1303
23292WAT      O94972   1.828   0.113   4.258 -0.7308  0.3551  0.0762
23292WAT     H194973   1.923   0.125   4.261 -0.6779  0.4396 -1.2892
23292WAT     H294974   1.796   0.187   4.206 -1.3765 -0.5252 -0.8193
23292WAT    EPW94975   1.836   0.125   4.251 -0.8090  0.2501 -0.2217
23293WAT      O94976   5.989   3.054   0.988  0.0775 -0.7128  0.0167
23293WAT     H194977   6.056   3.122   0.989 -1.4872  1.0691 -2.6434
23293WAT     H294978   5.923   3.087   0.927 -3.1251 -2.4939  2.2477
23293WAT    EPW94979   5.989   3.067   0.980 -0.5512 -0.7126 -0.0399
23294WAT      O94980   3.410   6.312   2.987 -0.1894  0.7792 -0.2793
23294WAT     H194981   3.486   6.344   3.036 -1.4028 -0.5170  2.6205
23294WAT     H294982   3.416   6.216   2.993 -1.3647  0.6258 -1.1844
23294WAT    EPW94983   3.421   6.303   2.994 -0.5044  0.5877 -0.0163
23295WAT      O94984   9.604   8.856   1.721 -0.4857  0.2021  0.5771
23295WAT     H194985   9.585   8.893   1.635  3.0947 -1.0829 -0.9555
23295WAT     H294986   9.692   8.888   1.742 -0.5268 -0.9875  2.9328
23295WAT    EPW94987   9.613   8.865   1.713 -0.0191 -0.1245  0.6856
23296WAT      O94988   2.341   0.216   3.059  0.1082  0.1000  0.3872
23296WAT     H194989   2.273   0.254   3.115  1.1269  1.5631  0.6687
23296WAT     H294990   2.391   0.159   3.118  0.9227  1.3159  0.9031
23296WAT    EPW94991   2.339   0.214   3.074  0.3500  0.4533  0.4922
23297WAT      O94992   6.467   9.655   6.742  0.1600 -0.8599  0.3792
23297WAT     H194993   6.423   9.671   6.658 -1.1268 -2.1917  0.7581
23297WAT     H294994   6.497   9.565   6.736 -1.6996 -1.6757  2.0332
23297WAT    EPW94995   6.465   9.645   6.730 -0.2551 -1.1435  0.6475
23298WAT      O94996   7.826   9.759   5.450 -0.4674 -0.1972 -0.8315
23298WAT     H194997   7.906   9.811   5.459 -0.4370 -0.3407 -0.2404
23298WAT     H294998   7.856   9.671   5.429 -0.4247 -0.4430  0.2057
23298WAT    EPW94999   7.840   9.754   5.449 -0.4575 -0.2489 -0.6166
23299WAT      O95000   0.109   9.828   0.610  0.3846 -0.3567  0.8125
23299WAT     H195001   0.164   9.790   0.679  1.2284  0.5041  0.6410
23299WAT     H295002   0.119   9.923   0.622  1.0843 -0.1777 -0.8786
23299WAT    EPW95003   0.118   9.836   0.621  0.5882 -0.2198  0.5668
23300WAT      O95004   5.794   4.037   2.452  0.4673 -0.1484  0.3215
23300WAT     H195005   5.818   4.120   2.410 -0.8280  0.2126  0.2380
23300WAT     H295006   5.823   4.047   2.543 -0.3832  0.7520  0.5222
23300WAT    EPW95007   5.801   4.050   2.458  0.1843  0.0179  0.3369
23301WAT      O95008   0.751   0.631   6.974 -0.4619 -0.6036  0.9666
23301WAT     H195009   0.739   0.619   7.069 -3.1114 -1.2113  0.6403
23301WAT     H295010   0.664   0.658   6.943  0.2471 -0.8364 -1.3544
23301WAT    EPW95011   0.738   0.633   6.983 -0.7178 -0.7145  0.6173
23302WAT      O95012   4.569   3.172   2.261  0.1053 -0.5965 -0.1296
23302WAT     H195013   4.604   3.125   2.336 -1.1179 -3.2747 -1.1002
23302WAT     H295014   4.645   3.214   2.221  1.0432 -0.6328  1.5526
23302WAT    EPW95015   4.584   3.172   2.265  0.0677 -0.9545 -0.0358
23303WAT      O95016   9.744   9.310   2.295 -0.1294  0.0156  0.2111
23303WAT     H195017   9.798   9.278   2.368  3.8807  1.2365 -1.9295
23303WAT     H295018   9.666   9.255   2.298  0.3810 -0.8839  4.5425
23303WAT    EPW95019   9.741   9.298   2.305  0.4668  0.0582  0.5000
23304WAT      O95020   9.541   5.223   7.301 -0.0545 -0.0260 -0.0316
23304WAT     H195021   9.578   5.277   7.371 -0.7592 -0.4444  0.6887
23304WAT     H295022   9.450   5.251   7.295 -0.5551 -1.4149  0.6709
23304WAT    EPW95023   9.534   5.234   7.310 -0.2141 -0.2646  0.1559
23305WAT      O95024   1.924   9.506   1.863  0.3018 -0.2457 -0.1951
23305WAT     H195025   1.914   9.419   1.900  1.0526  0.1061  0.8786
23305WAT     H295026   2.002   9.501   1.808 -0.2029 -0.4926 -0.8938
23305WAT    EPW95027   1.933   9.494   1.861  0.3343 -0.2317 -0.1456
23306WAT      O95028   2.346   3.339   1.935  0.5110  0.6434 -0.4251
23306WAT     H195029   2.346   3.317   1.842 -1.0009  0.9426 -0.5388
23306WAT     H295030   2.353   3.435   1.936  1.1975  0.5947 -0.1917
23306WAT    EPW95031   2.347   3.349   1.923  0.4021  0.6763 -0.4092
23307WAT      O95032   1.165   1.310   8.867  0.1848 -1.0678 -0.4184
23307WAT     H195033   1.214   1.271   8.795  1.1652  0.6113 -0.7278
23307WAT     H295034   1.133   1.236   8.918  3.8354 -2.3146  0.3339
23307WAT    EPW95035   1.167   1.295   8.864  0.7956 -1.0107 -0.3595
23308WAT      O95036   7.491   9.378   8.242  0.0559 -0.6348  0.2132
23308WAT     H195037   7.562   9.433   8.277 -0.4851 -1.6716  3.2198
23308WAT     H295038   7.504   9.380   8.147  1.8982  2.1312  0.4084
23308WAT    EPW95039   7.502   9.386   8.234  0.2275 -0.4063  0.6361
23309WAT      O95040   4.612   2.588   5.148  0.3592  0.1902  0.3397
23309WAT     H195041   4.584   2.675   5.122  0.2542  0.1403  0.2852
23309WAT     H295042   4.652   2.601   5.234  2.0605  0.5942 -0.4736
23309WAT    EPW95043   4.614   2.601   5.156  0.5696  0.2370  0.2251
23310WAT      O95044   1.998   5.236   3.604 -0.2786  0.5277 -0.1471
23310WAT     H195045   2.016   5.152   3.562 -1.7914  0.3501 -0.4837
23310WAT     H295046   2.045   5.232   3.688 -0.9036 -0.9385  0.1563
23310WAT    EPW95047   2.007   5.224   3.610 -0.5605  0.3109 -0.1515
23311WAT      O95048   8.235   9.935   1.325 -0.2958 -0.0045 -0.4760
23311WAT     H195049   8.263   9.906   1.412 -0.8651 -0.3899 -0.4163
23311WAT     H295050   8.234   9.856   1.272 -1.7782 -0.1055 -0.3318
23311WAT    EPW95051   8.239   9.921   1.330 -0.5665 -0.0687 -0.4491
23312WAT      O95052   9.081   8.441   1.783  0.3264  0.2050  0.9428
23312WAT     H195053   9.128   8.407   1.859  1.8877  1.2667  0.5150
23312WAT     H295054   9.024   8.509   1.818  1.6659  1.2852  1.1086
23312WAT    EPW95055   9.080   8.445   1.798  0.7091  0.4878  0.9083
23313WAT      O95056  10.135   9.998   5.197  0.1575 -0.6411 -0.1252
23313WAT     H195057  10.070  10.034   5.257  0.1036 -1.2285  0.1816
23313WAT     H295058  10.112   9.905   5.189 -0.2085 -0.4514 -1.5494
23313WAT    EPW95059  10.124   9.990   5.204  0.1020 -0.6933 -0.2723
23314WAT      O95060   1.420   2.783   3.789  0.3419 -0.3912 -0.0645
23314WAT     H195061   1.434   2.859   3.845 -1.6791 -0.7108  0.9877
23314WAT     H295062   1.506   2.741   3.784  1.1271  1.0350  0.6985
23314WAT    EPW95063   1.433   2.787   3.796  0.1789 -0.2451  0.1749
23315WAT      O95064  10.744   1.885   4.582  0.0331 -0.0149 -0.3448
23315WAT     H195065  10.835   1.876   4.609 -1.0126 -2.5069  3.0270
23315WAT     H295066  10.749   1.914   4.491  4.1340  0.5070 -0.1334
23315WAT    EPW95067  10.757   1.888   4.573  0.4363 -0.2747  0.1278
23316WAT      O95068   3.023   0.128   4.060  1.0701  0.7306  0.0142
23316WAT     H195069   2.947   0.070   4.062  1.4314 -0.0966 -3.2743
23316WAT     H295070   3.030   0.162   4.149 -4.2247  2.3452  0.1672
23316WAT    EPW95071   3.014   0.124   4.072  0.4195  0.8344 -0.3996
23317WAT      O95072  10.477   7.302   4.945  0.4299 -0.0243 -0.4591
23317WAT     H195073  10.483   7.388   4.987  0.4036 -0.4731  0.4884
23317WAT     H295074  10.568   7.278   4.927  0.4694  0.0218 -0.3297
23317WAT    EPW95075  10.490   7.311   4.949  0.4320 -0.0775 -0.3169
23318WAT      O95076   0.578   2.551   3.242 -1.3373 -0.1795  0.0422
23318WAT     H195077   0.568   2.464   3.203 -0.9585  0.9157 -2.7996
23318WAT     H295078   0.490   2.574   3.272 -1.6425 -1.1657 -0.0685
23318WAT    EPW95079   0.565   2.542   3.241 -1.3276 -0.1652 -0.3470
23319WAT      O95080   2.838   1.330   5.641  0.1030  0.1958 -0.2641
23319WAT     H195081   2.771   1.397   5.650  0.2078  0.1084  1.7104
23319WAT     H295082   2.915   1.367   5.685  0.4115 -0.8527  0.1137
23319WAT    EPW95083   2.839   1.343   5.648  0.1575  0.0460  0.0463
23320WAT      O95084   1.778   1.932   0.691  0.0183 -1.2567 -0.4931
23320WAT     H195085   1.841   1.963   0.756  1.3747 -1.7398 -1.5398
23320WAT     H295086   1.734   1.858   0.734  1.8720 -2.4640 -0.5696
23320WAT    EPW95087   1.781   1.926   0.706  0.4417 -1.4796 -0.6412
23321WAT      O95088   2.551   2.717   3.027  0.5466 -0.1937 -0.4515
23321WAT     H195089   2.602   2.671   2.960 -0.0699 -2.1992  0.4045
23321WAT     H295090   2.484   2.655   3.053  1.5131  0.0181  2.9513
23321WAT    EPW95091   2.549   2.703   3.021  0.5927 -0.4303  0.1103
23322WAT      O95092   4.334   4.627   6.446 -0.1949 -0.4149 -0.2306
23322WAT     H195093   4.408   4.684   6.465  0.7452 -1.2804 -1.1218
23322WAT     H295094   4.297   4.606   6.531 -0.1277  0.9603  0.1454
23322WAT    EPW95095   4.339   4.631   6.460 -0.0620 -0.3476 -0.2985
23323WAT      O95096   9.039  10.218   2.058 -0.3362 -0.5446 -0.5176
23323WAT     H195097   9.093  10.297   2.050 -1.1040  0.0537  0.0009
23323WAT     H295098   9.090  10.150   2.015  1.0485 -0.1127  0.3686
23323WAT    EPW95099   9.053  10.220   2.051 -0.2546 -0.4086 -0.3325
23324WAT      O95100   4.912   4.559   8.466  0.3124  0.1189  0.7227
23324WAT     H195101   4.819   4.582   8.456  0.0740 -0.3256  1.7811
23324WAT     H295102   4.955   4.603   8.393 -0.4002  2.2670  1.5106
23324WAT    EPW95103   4.905   4.568   8.455  0.1869  0.3436  0.9661
23325WAT      O95104   1.996   0.253   3.577 -0.3310 -0.0322  0.6651
23325WAT     H195105   1.926   0.237   3.640 -1.4070 -0.8860 -0.6683
23325WAT     H295106   2.054   0.178   3.584 -1.4788 -1.1033 -0.6048
23325WAT    EPW95107   1.994   0.241   3.586 -0.6242 -0.2861  0.3217
23326WAT      O95108   8.551   1.880   2.720 -0.2197  0.2140  0.3089
23326WAT     H195109   8.629   1.936   2.731  0.9758 -0.9347 -1.6041
23326WAT     H295110   8.481   1.942   2.699  1.1066  1.1133 -1.9441
23326WAT    EPW95111   8.552   1.896   2.719  0.1130  0.1811 -0.2407
23327WAT      O95112   2.532   0.766   1.323 -0.0680  0.1593 -0.3437
23327WAT     H195113   2.499   0.694   1.378  0.9329 -0.9259 -1.1105
23327WAT     H295114   2.475   0.764   1.246  0.3857 -0.3019 -0.6818
23327WAT    EPW95115   2.520   0.756   1.320  0.1240 -0.0447 -0.4895
23328WAT      O95116   3.802   0.737   1.365  0.3740 -0.2864 -0.3194
23328WAT     H195117   3.840   0.725   1.452 -0.7675  0.7857  0.3589
23328WAT     H295118   3.838   0.820   1.334  1.8164 -1.2819 -1.4820
23328WAT    EPW95119   3.812   0.746   1.372  0.4138 -0.2762 -0.3833
23329WAT      O95120   5.356   5.724   8.946 -0.0736 -0.6357  0.1697
23329WAT     H195121   5.322   5.657   9.005  1.9253 -0.7597  1.2686
23329WAT     H295122   5.435   5.686   8.909  0.2462  0.5416 -0.4093
23329WAT    EPW95123   5.362   5.710   8.949  0.2322 -0.4966  0.2384
23330WAT      O95124   2.674   2.560   5.902  0.6072 -0.7563 -0.4927
23330WAT     H195125   2.579   2.557   5.894  0.4197  1.7744 -0.1336
23330WAT     H295126   2.693   2.510   5.982 -0.5074 -0.5578 -0.0870
23330WAT    EPW95127   2.664   2.553   5.911  0.4354 -0.3963 -0.3917
23331WAT      O95128   2.989   2.698   4.903  0.5983  0.0117  0.1491
23331WAT     H195129   2.898   2.726   4.892  0.7935  0.4166 -0.4576
23331WAT     H295130   3.032   2.725   4.822  0.8479 -1.8040 -0.3717
23331WAT    EPW95131   2.982   2.705   4.891  0.6571 -0.1744  0.0005
23332WAT      O95132   1.704   1.688   4.954 -0.1255 -0.4236 -0.4396
23332WAT     H195133   1.661   1.615   4.997 -1.4266  0.3367 -0.3988
23332WAT     H295134   1.650   1.764   4.976  0.4694  0.3424 -1.5292
23332WAT    EPW95135   1.692   1.688   4.962 -0.2187 -0.2223 -0.5782
23333WAT      O95136   1.948   4.779   0.971 -0.8096 -0.4083 -0.2024
23333WAT     H195137   1.999   4.747   0.897  0.3952 -0.7242  0.7336
23333WAT     H295138   2.008   4.838   1.017 -1.8002  0.3928  0.1085
23333WAT    EPW95139   1.963   4.783   0.967 -0.7813 -0.3443 -0.0380
23334WAT      O95140   0.611  10.334   0.108 -0.8589  0.0717  0.2313
23334WAT     H195141   0.588  10.424   0.131 -2.3254 -0.2599  0.1908
23334WAT     H295142   0.531  10.285   0.124 -0.2327 -1.1421 -0.2538
23334WAT    EPW95143   0.597  10.340   0.113 -0.9699 -0.1321  0.1620
23335WAT      O95144   1.240   3.533   4.428  0.8171  0.3184  0.6092
23335WAT     H195145   1.169   3.573   4.477 -0.3884 -1.1154  0.0977
23335WAT     H295146   1.223   3.439   4.432  2.6478 -0.0767  0.3964
23335WAT    EPW95147   1.229   3.526   4.435  0.8995  0.0772  0.5136
23336WAT      O95148   2.425   2.861   1.665  0.6693  0.5406  0.2893
23336WAT     H195149   2.407   2.902   1.581  1.0408  2.1398  0.9587
23336WAT     H295150   2.519   2.846   1.665  0.6903  0.6692  0.4736
23336WAT    EPW95151   2.435   2.864   1.654  0.7210  0.7685  0.4019
23337WAT      O95152   6.235   8.901   7.861 -0.8570  0.1321 -0.1799
23337WAT     H195153   6.264   8.931   7.947 -0.0352  2.8558 -1.3029
23337WAT     H295154   6.140   8.913   7.863 -0.7734  0.8237  0.1389
23337WAT    EPW95155   6.226   8.906   7.873 -0.7377  0.5822 -0.2861
23338WAT      O95156   9.001   9.261   6.060 -0.3649  0.5285 -0.0331
23338WAT     H195157   9.086   9.297   6.087 -1.0435  0.6585  2.1091
23338WAT     H295158   8.937   9.306   6.116 -1.6278 -1.2069 -0.0171
23338WAT    EPW95159   9.004   9.272   6.071 -0.6208  0.3161  0.2515
23339WAT      O95160   2.668   1.887   4.829 -0.1572  0.2736  0.4795
23339WAT     H195161   2.679   1.869   4.922 -0.3176  0.1590  0.4763
23339WAT     H295162   2.611   1.965   4.827  0.3880  0.6762  0.4902
23339WAT    EPW95163   2.662   1.895   4.841 -0.1065  0.3116  0.4807
23340WAT      O95164   1.480   4.199   3.328  0.1962  0.2248 -0.1563
23340WAT     H195165   1.483   4.221   3.421 -0.5211  0.3290 -0.1526
23340WAT     H295166   1.468   4.283   3.284 -1.8525 -0.0197 -0.1834
23340WAT    EPW95167   1.479   4.213   3.335 -0.1686  0.2062 -0.1594
23341WAT      O95168   2.479   2.330   3.210  0.4122  0.1982 -0.0753
23341WAT     H195169   2.422   2.405   3.198 -0.4496 -0.3197  0.6465
23341WAT     H295170   2.558   2.351   3.161 -0.8934  0.3672 -2.2017
23341WAT    EPW95171   2.482   2.343   3.202  0.1264  0.1522 -0.2605
23342WAT      O95172   2.521   2.013   5.072 -0.3198  1.2325 -0.6551
23342WAT     H195173   2.509   2.079   5.004 -2.1194  1.2341 -0.3895
23342WAT     H295174   2.482   2.053   5.150  0.8421  0.8411  0.1573
23342WAT    EPW95175   2.514   2.027   5.073 -0.4039  1.1811 -0.5128
23343WAT      O95176   1.409   7.426   4.040 -0.1389  0.0333  0.3161
23343WAT     H195177   1.384   7.510   4.003 -0.6441 -0.3165 -0.1638
23343WAT     H295178   1.409   7.366   3.966 -2.8783 -1.0658  1.0389
23343WAT    EPW95179   1.405   7.429   4.026 -0.5668 -0.1581  0.3479
23344WAT      O95180   3.339   4.434   2.869  0.5859  0.4685  0.4456
23344WAT     H195181   3.394   4.374   2.818 -0.8742  1.5356 -2.5971
23344WAT     H295182   3.250   4.402   2.855  0.0659  1.2924  1.7336
23344WAT    EPW95183   3.334   4.422   2.861  0.3245  0.7179  0.2142
23345WAT      O95184   3.551   2.329   7.031 -0.1950 -0.5891  0.5503
23345WAT     H195185   3.505   2.378   7.100 -1.4377  0.4881 -0.9474
23345WAT     H295186   3.566   2.243   7.069 -1.2505 -0.1833  2.0048
23345WAT    EPW95187   3.547   2.324   7.045 -0.4982 -0.3935  0.5445
23346WAT      O95188   7.116   1.988   2.403  0.1166 -0.5401  0.3763
23346WAT     H195189   7.089   2.080   2.402 -2.0499 -1.1456 -0.0360
23346WAT     H295190   7.151   1.974   2.491  0.9528  0.7803  0.2842
23346WAT    EPW95191   7.117   1.999   2.414 -0.0587 -0.4458  0.3097
23347WAT      O95192   3.982   2.342   2.209  0.3784  0.2662 -0.2587
23347WAT     H195193   4.035   2.373   2.283 -1.5425 -2.2051  2.3824
23347WAT     H295194   3.915   2.409   2.198 -0.1235  0.0455  1.2327
23347WAT    EPW95195   3.980   2.355   2.218  0.0588 -0.0889  0.2865
23348WAT      O95196   0.131   4.089   1.911 -0.0245  0.6595  0.4893
23348WAT     H195197   0.045   4.053   1.936 -0.5717  0.6083 -1.3091
23348WAT     H295198   0.110   4.158   1.848  1.2686  0.7205  0.1073
23348WAT    EPW95199   0.117   4.093   1.906  0.0739  0.6607  0.2018
23349WAT      O95200   1.592   5.662   5.075  0.2359 -0.3573 -0.9101
23349WAT     H195201   1.554   5.733   5.127 -0.4274 -2.3113  1.4966
23349WAT     H295202   1.523   5.638   5.013  0.7507  1.5053 -2.2959
23349WAT    EPW95203   1.578   5.668   5.074  0.2164 -0.3693 -0.7756
23350WAT      O95204   6.043   2.877   3.460  0.1333  0.0744 -0.6090
23350WAT     H195205   5.971   2.930   3.494 -0.1139 -0.3982 -0.3843
23350WAT     H295206   6.084   2.932   3.393  3.2474  2.7694  3.0788
23350WAT    EPW95207   6.039   2.891   3.455  0.5116  0.3674 -0.0930
23351WAT      O95208   0.112   1.686   2.711  0.6017 -0.4538 -0.1944
23351WAT     H195209   0.082   1.604   2.751 -1.0247  0.9178  1.5852
23351WAT     H295210   0.032   1.733   2.689  1.3893  1.7758  1.2975
23351WAT    EPW95211   0.097   1.682   2.714  0.4910  0.0212  0.2370
23352WAT      O95212   4.351   4.297   0.844  0.0364  0.3830 -0.3905
23352WAT     H195213   4.379   4.321   0.755  1.2273 -0.8064 -0.3746
23352WAT     H295214   4.428   4.315   0.898 -0.5659  0.7672  0.3535
23352WAT    EPW95215   4.365   4.302   0.839  0.1142  0.2770 -0.2903
23353WAT      O95216   8.082  10.308   3.137  0.4681 -0.1823  0.4557
23353WAT     H195217   8.040  10.241   3.191 -1.3543 -0.5628 -1.2994
23353WAT     H295218   8.019  10.326   3.067  0.7756  3.5612  0.9218
23353WAT    EPW95219   8.068  10.301   3.135  0.2685  0.2613  0.2856
23354WAT      O95220   3.142   2.141   4.286  0.1477 -0.0675  0.5569
23354WAT     H195221   3.136   2.105   4.375 -0.8383 -1.9539 -0.2303
23354WAT     H295222   3.051   2.147   4.257  0.5324 -2.0964 -1.3078
23354WAT    EPW95223   3.129   2.137   4.294  0.0684 -0.5839  0.2072
23355WAT      O95224   0.390   3.395   2.501  0.4076 -0.4170 -0.3036
23355WAT     H195225   0.448   3.470   2.496  0.0719  0.1388  2.5108
23355WAT     H295226   0.388   3.360   2.412  1.3943  2.2548 -1.4816
23355WAT    EPW95227   0.397   3.400   2.488  0.4934  0.0086 -0.0877
23356WAT      O95228   3.789   3.707   1.645  0.1862  0.8777 -0.3216
23356WAT     H195229   3.756   3.639   1.704 -2.6931  0.1770 -2.5045
23356WAT     H295230   3.834   3.659   1.575 -0.5583  1.2971 -1.1088
23356WAT    EPW95231   3.791   3.692   1.643 -0.2917  0.8404 -0.7134
23357WAT      O95232   3.292   2.283   1.498  0.3259 -0.3542  0.3226
23357WAT     H195233   3.357   2.213   1.491  0.2762 -0.2839 -1.0876
23357WAT     H295234   3.292   2.324   1.412 -0.0388  1.0468  0.9628
23357WAT    EPW95235   3.301   2.280   1.486  0.2712 -0.1602  0.2211
23358WAT      O95236   0.329   2.659   4.088  0.2670 -0.5425  0.9323
23358WAT     H195237   0.369   2.746   4.084 -0.2572 -0.2111  2.2897
23358WAT     H295238   0.373   2.616   4.161  0.9003 -1.6495 -0.0555
23358WAT    EPW95239   0.340   2.665   4.097  0.2814 -0.6447  0.9811
23359WAT      O95240  10.425   5.078   3.049 -0.4351  0.2972 -0.7198
23359WAT     H195241  10.448   5.034   2.967 -0.6625  1.3076 -1.3492
23359WAT     H295242  10.504   5.127   3.073  1.2437 -3.2634  2.0255
23359WAT    EPW95243  10.439   5.079   3.041 -0.2441 -0.0391 -0.4407
23360WAT      O95244   1.104   0.884   4.240  0.1051  0.2893  0.5748
23360WAT     H195245   1.089   0.907   4.148 -1.5478 -1.2976  0.3870
23360WAT     H295246   1.046   0.942   4.289  3.0441  3.1846  0.9725
23360WAT    EPW95247   1.094   0.895   4.234  0.2747  0.4619  0.6022
23361WAT      O95248  10.847   9.558   2.515  0.1625  0.4278 -0.0324
23361WAT     H195249  10.917   9.587   2.573  3.4464  2.0771 -4.2261
23361WAT     H295250  10.849   9.463   2.519  1.0988  0.4845  1.5549
23361WAT    EPW95251  10.856   9.549   2.523  0.7195  0.6528 -0.3761
23362WAT      O95252   3.057   2.693   0.177  0.6500  0.0310  0.3134
23362WAT     H195253   3.146   2.660   0.162  0.4267 -0.1832 -0.6298
23362WAT     H295254   3.056   2.719   0.269  1.7868  0.3384  0.2523
23362WAT    EPW95255   3.068   2.692   0.187  0.7707  0.0433  0.1809
23363WAT      O95256   3.412   2.682   4.183 -0.1301 -0.4587 -0.2958
23363WAT     H195257   3.369   2.708   4.264  1.4775 -1.7468  1.0280
23363WAT     H295258   3.493   2.639   4.211  0.6891 -0.5552 -2.6003
23363WAT    EPW95259   3.417   2.680   4.197  0.1899 -0.6413 -0.4251
23364WAT      O95260   4.910   7.751   3.282 -0.3008  0.1514  0.3204
23364WAT     H195261   4.854   7.803   3.225  0.7372 -0.4384 -1.2918
23364WAT     H295262   4.928   7.809   3.356  1.4770  2.4856 -1.7718
23364WAT    EPW95263   4.905   7.766   3.284  0.0706  0.3812 -0.1682
23365WAT      O95264   4.707   1.919   1.245  0.6389 -0.4279  0.7480
23365WAT     H195265   4.676   1.856   1.181  2.8630 -1.1382  0.2834
23365WAT     H295266   4.793   1.886   1.273  1.1138  1.4744  1.7742
23365WAT    EPW95267   4.715   1.907   1.240  0.9949 -0.2707  0.8221
23366WAT      O95268   2.947   5.733   5.056  0.2397 -0.4120 -0.6434
23366WAT     H195269   2.908   5.798   5.114 -1.7604 -2.0494 -0.0565
23366WAT     H295270   3.032   5.772   5.031 -0.0724  1.5806  1.0871
23366WAT    EPW95271   2.953   5.747   5.061 -0.0653 -0.3648 -0.3378
23367WAT      O95272   9.402   2.346   3.781  0.1471  0.4791 -0.8196
23367WAT     H195273   9.346   2.268   3.790 -0.4832  0.9924 -0.1549
23367WAT     H295274   9.423   2.350   3.688  1.2581 -1.2096 -0.6960
23367WAT    EPW95275   9.397   2.336   3.770  0.2108  0.3241 -0.7156
23368WAT      O95276   0.686   3.081   2.833  0.2925 -0.1330  0.0093
23368WAT     H195277   0.643   3.057   2.916  1.0000 -2.1314 -0.1501
23368WAT     H295278   0.773   3.109   2.859  1.2397 -2.6713 -0.1066
23368WAT    EPW95279   0.691   3.081   2.848  0.5107 -0.7313 -0.0269
23369WAT      O95280   2.503   0.698   1.900  0.1926 -0.5218  0.4812
23369WAT     H195281   2.412   0.698   1.869  0.7510  3.7006 -1.9718
23369WAT     H295282   2.546   0.630   1.849 -0.6488  1.0049 -2.5252
23369WAT    EPW95283   2.497   0.689   1.889  0.1552  0.2365 -0.2389
23370WAT      O95284   9.689   2.071   1.538 -0.3659 -0.8311  0.5591
23370WAT     H195285   9.619   2.123   1.577  1.3207  2.1908 -0.1014
23370WAT     H295286   9.769   2.100   1.582  0.9956 -0.8205 -1.7509
23370WAT    EPW95287   9.690   2.081   1.549  0.0362 -0.4312  0.1673
23371WAT      O95288   2.545   4.186   3.471 -0.3293  0.6297  0.5925
23371WAT     H195289   2.601   4.118   3.433  0.4376  1.1306  0.8032
23371WAT     H295290   2.535   4.251   3.401  1.0376  1.5257  1.2049
23371WAT    EPW95291   2.551   4.186   3.456 -0.0478  0.8137  0.7011
23372WAT      O95292   4.592   2.585   6.359 -0.7395  0.4227 -0.0264
23372WAT     H195293   4.670   2.639   6.369 -0.2171 -0.1195 -1.0749
23372WAT     H295294   4.521   2.648   6.344 -1.0636  1.1157  3.5599
23372WAT    EPW95295   4.593   2.600   6.358 -0.7136  0.4426  0.3083
23373WAT      O95296   6.473   2.387   0.812  1.0936  0.0965  0.6048
23373WAT     H195297   6.515   2.313   0.856  3.2346 -0.6522 -2.4037
23373WAT     H295298   6.545   2.444   0.786 -0.4655  3.2033  2.4405
23373WAT    EPW95299   6.488   2.384   0.815  1.1702  0.4075  0.4501
23374WAT      O95300   4.077   3.521   4.840 -0.7856 -0.1453 -0.4183
23374WAT     H195301   4.057   3.580   4.912  0.7707 -0.3795  0.2570
23374WAT     H295302   4.013   3.450   4.847 -0.3770 -0.3939  1.0379
23374WAT    EPW95303   4.066   3.519   4.850 -0.5264 -0.2089 -0.1373
23375WAT      O95304   6.234   1.939   3.321 -0.0361 -0.3020  0.2213
23375WAT     H195305   6.139   1.941   3.314  0.0319 -0.2836 -0.8927
23375WAT     H295306   6.251   1.914   3.412 -1.0770  1.2826  0.8753
23375WAT    EPW95307   6.224   1.936   3.332 -0.1645 -0.0905  0.1606
23376WAT      O95308   1.967   3.788   3.040  0.1099  0.0206 -0.6873
23376WAT     H195309   1.940   3.716   3.098  1.7803  0.0039  0.1126
23376WAT     H295310   1.970   3.864   3.098 -0.0092  0.3887 -1.1654
23376WAT    EPW95311   1.963   3.788   3.056  0.3144  0.0669 -0.6448
23377WAT      O95312   0.455   9.732   1.836 -0.4386  0.2781 -0.2832
23377WAT     H195313   0.471   9.725   1.930 -0.2480  1.4787 -0.2155
23377WAT     H295314   0.536   9.769   1.800 -1.0076  1.1178 -0.7241
23377WAT    EPW95315   0.468   9.736   1.843 -0.4885  0.5474 -0.3324
23378WAT      O95316   2.041   0.948   2.954 -0.5984 -0.3687 -0.6583
23378WAT     H195317   2.089   0.873   2.987  0.8291  0.5171 -0.6531
23378WAT     H295318   2.108   1.011   2.929 -1.7469  0.9508 -0.5638
23378WAT    EPW95319   2.056   0.947   2.955 -0.5617 -0.0778 -0.6452
23379WAT      O95320   4.467   6.199   2.478 -0.1177  0.6160 -0.0726
23379WAT     H195321   4.434   6.146   2.551 -0.2077 -0.2228 -0.7084
23379WAT     H295322   4.426   6.161   2.400 -0.1535  1.6020 -0.5537
23379WAT    EPW95323   4.457   6.187   2.477 -0.1345  0.6359 -0.2199
23380WAT      O95324   8.653   7.820   6.974  0.2878  0.0264 -0.1967
23380WAT     H195325   8.688   7.909   6.965  1.1293 -0.0857  1.4631
23380WAT     H295326   8.730   7.763   6.967 -0.1749 -0.5479 -0.7181
23380WAT    EPW95327   8.668   7.824   6.972  0.3381 -0.0641 -0.0463
23381WAT      O95328   0.888   2.381   1.377 -0.2870 -0.1216 -0.4750
23381WAT     H195329   0.908   2.328   1.454  0.5294  1.3879  0.4185
23381WAT     H295330   0.967   2.375   1.322 -0.0620  0.4003 -0.2166
23381WAT    EPW95331   0.901   2.374   1.380 -0.1496  0.1463 -0.3231
23382WAT      O95332   7.220   1.191   4.475 -0.0162 -0.4936 -0.5684
23382WAT     H195333   7.281   1.117   4.471  0.6661 -0.1568  2.0102
23382WAT     H295334   7.179   1.184   4.561 -1.0004  1.3094 -0.8475
23382WAT    EPW95335   7.223   1.181   4.486 -0.0560 -0.2113 -0.2654
23383WAT      O95336   6.186   1.066   3.130 -0.5395 -0.8149 -0.6617
23383WAT     H195337   6.108   1.013   3.149 -0.1284 -1.5501 -0.9643
23383WAT     H295338   6.193   1.126   3.204 -2.0975  0.1151 -1.2248
23383WAT    EPW95339   6.177   1.067   3.142 -0.6907 -0.7892 -0.7759
23384WAT      O95340   2.545   4.402   2.392  0.6919 -0.0112 -0.2876
23384WAT     H195341   2.497   4.482   2.413  0.8083  0.1739 -0.7284
23384WAT     H295342   2.549   4.355   2.475 -0.2437 -0.0269 -0.2398
23384WAT    EPW95343   2.540   4.406   2.406  0.5839  0.0112 -0.3394
23385WAT      O95344   4.759   1.278   2.392  0.2322 -0.0447  0.0952
23385WAT     H195345   4.758   1.194   2.346  1.0575  0.9774 -1.9065
23385WAT     H295346   4.839   1.275   2.445  1.0152 -0.0403 -1.0330
23385WAT    EPW95347   4.770   1.267   2.393  0.4442  0.0906 -0.3176
23386WAT      O95348   9.650  10.187   5.776  0.0568 -0.3691 -0.1121
23386WAT     H195349   9.691  10.143   5.851 -3.0687 -2.2101  0.7174
23386WAT     H295350   9.653  10.280   5.799 -1.6106 -0.9199  2.8666
23386WAT    EPW95351   9.656  10.193   5.789 -0.5755 -0.6843  0.3903
23387WAT      O95352   1.421   2.158   2.790 -0.5426  0.0237  0.3302
23387WAT     H195353   1.335   2.142   2.830 -1.0828 -2.1118 -1.4651
23387WAT     H295354   1.467   2.074   2.800 -0.3217 -0.2674 -2.4858
23387WAT    EPW95355   1.416   2.145   2.797 -0.5847 -0.2964 -0.2780
23388WAT      O95356   4.767   2.704   2.770  0.3242 -0.1552 -0.0170
23388WAT     H195357   4.698   2.669   2.826  0.1020  0.1486 -0.0919
23388WAT     H295358   4.834   2.636   2.767 -0.3966 -0.8633 -0.7053
23388WAT    EPW95359   4.766   2.691   2.777  0.2000 -0.2085 -0.1177
23389WAT      O95360   4.012   3.206   2.312 -0.7865 -0.9573  0.3911
23389WAT     H195361   4.060   3.123   2.322 -1.1889 -1.6085 -2.3841
23389WAT     H295362   4.077   3.268   2.279 -1.0455 -0.8460  0.0892
23389WAT    EPW95363   4.027   3.203   2.309 -0.8736 -1.0287 -0.0147
23390WAT      O95364   3.005   4.857   4.945  0.4609 -1.0449 -0.4006
23390WAT     H195365   3.093   4.886   4.968  0.5842 -1.1589 -0.7236
23390WAT     H295366   3.010   4.834   4.853  0.2839 -1.7688 -0.2367
23390WAT    EPW95367   3.017   4.858   4.936  0.4537 -1.1551 -0.4215
23391WAT      O95368   0.468   5.102   3.112 -0.1159  0.0237  0.3446
23391WAT     H195369   0.559   5.076   3.099 -0.7846 -1.3690 -2.0666
23391WAT     H295370   0.449   5.161   3.039 -1.5522 -0.8645 -0.0352
23391WAT    EPW95371   0.478   5.107   3.101 -0.3935 -0.2773 -0.0236
23392WAT      O95372  10.749   4.027   1.213  0.3506  0.3028  0.4715
23392WAT     H195373  10.784   4.101   1.261 -1.1913  2.2759 -1.2215
23392WAT     H295374  10.739   4.060   1.123  0.7745 -2.3837 -0.6538
23392WAT    EPW95375  10.752   4.041   1.207  0.2031  0.2089  0.0998
23393WAT      O95376   9.888   6.348   0.319 -0.6563  0.5679  0.0143
23393WAT     H195377   9.952   6.355   0.249  0.0267  0.3407  0.5935
23393WAT     H295378   9.931   6.292   0.385 -1.5940  0.1034  0.2542
23393WAT    EPW95379   9.902   6.341   0.319 -0.6900  0.4764  0.1223
23394WAT      O95380   6.557   3.462   2.867 -0.1335  0.6340 -0.8283
23394WAT     H195381   6.464   3.477   2.855 -0.6780 -1.3517  0.4152
23394WAT     H295382   6.589   3.437   2.781 -1.2373 -0.7807 -0.8622
23394WAT    EPW95383   6.549   3.461   2.854 -0.3510  0.1855 -0.6688
23395WAT      O95384   5.567   4.774   2.981  0.1653  0.7886  0.0460
23395WAT     H195385   5.474   4.772   3.002  0.3196 -0.1149  0.7022
23395WAT     H295386   5.582   4.692   2.934  0.5769  1.0753 -0.3366
23395WAT    EPW95387   5.557   4.763   2.977  0.2398  0.7074  0.0821
23396WAT      O95388   5.634   1.587   2.974  0.5143  0.2598 -0.1012
23396WAT     H195389   5.679   1.639   3.041 -0.7375 -0.5704  1.4459
23396WAT     H295390   5.544   1.581   3.005 -0.5729  1.2892 -2.7670
23396WAT    EPW95391   5.628   1.593   2.987  0.2058  0.2860 -0.2487
23397WAT      O95392   5.012   2.154   2.924 -0.0782  0.1586  0.3594
23397WAT     H195393   5.084   2.212   2.899 -1.3339  0.7212 -2.2082
23397WAT     H295394   4.937   2.185   2.875 -1.2444 -2.5881  0.2152
23397WAT    EPW95395   5.012   2.166   2.915 -0.3979 -0.1295  0.0017
23398WAT      O95396   4.382   3.301   5.449 -0.3116 -0.3540  0.2313
23398WAT     H195397   4.456   3.360   5.432 -2.0835  2.1810  0.6752
23398WAT     H295398   4.379   3.243   5.373  1.5889  0.0319 -0.1847
23398WAT    EPW95399   4.392   3.301   5.437 -0.2947  0.0312  0.2348
23399WAT      O95400   2.593   3.086   4.253  0.4887  0.4547 -0.0692
23399WAT     H195401   2.643   3.065   4.174  1.0924  1.2696  0.0774
23399WAT     H295402   2.570   3.001   4.291  0.3135  0.0602 -1.0422
23399WAT    EPW95403   2.597   3.072   4.248  0.5453  0.5102 -0.1779
23400WAT      O95404   3.738   0.310   5.104  0.1205  0.6301  0.1160
23400WAT     H195405   3.789   0.391   5.112  0.3194  0.5376 -0.1897
23400WAT     H295406   3.711   0.289   5.194 -0.0075  1.0817  0.1842
23400WAT    EPW95407   3.741   0.318   5.117  0.1297  0.6775  0.0849
23401WAT      O95408   4.766   4.636   1.707 -0.4020 -0.3142  0.1141
23401WAT     H195409   4.829   4.705   1.729 -0.9570 -0.3416  1.9274
23401WAT     H295410   4.685   4.663   1.750 -0.9683 -1.4946 -0.1712
23401WAT    EPW95411   4.763   4.649   1.716 -0.5498 -0.4735  0.3155
23402WAT      O95412   5.164   4.599   3.187 -0.6908  0.0116 -0.5707
23402WAT     H195413   5.192   4.665   3.123 -0.1010  0.3532  0.0269
23402WAT     H295414   5.246   4.566   3.224 -0.9841 -1.0178 -0.8168
23402WAT    EPW95415   5.178   4.604   3.183 -0.6514 -0.0792 -0.5244
23403WAT      O95416  10.546   2.416   0.297 -0.2735  0.8209 -0.2593
23403WAT     H195417  10.591   2.477   0.356 -0.6443  0.5212  0.3478
23403WAT     H295418  10.609   2.346   0.283 -0.8354 -0.0725  1.3449
23403WAT    EPW95419  10.560   2.415   0.303 -0.3967  0.6635  0.0324
23404WAT      O95420   2.872   5.716   3.122  0.0855  0.9165  0.4442
23404WAT     H195421   2.814   5.759   3.060  0.9838  1.7957  0.1863
23404WAT     H295422   2.949   5.692   3.071  0.0503 -0.0677  0.8229
23404WAT    EPW95423   2.874   5.718   3.107  0.1993  0.9029  0.4601
23405WAT      O95424   1.398   3.285   2.463  0.3537 -0.8833  0.1387
23405WAT     H195425   1.379   3.317   2.375 -4.7020 -0.2879  1.1682
23405WAT     H295426   1.455   3.352   2.501 -2.0590  2.0179 -0.9402
23405WAT    EPW95427   1.403   3.298   2.457 -0.6313 -0.4222  0.1322
23406WAT      O95428   2.074   4.543   3.303  1.0708  0.4415 -0.3351
23406WAT     H195429   2.019   4.467   3.323  0.5791  1.1460  1.1039
23406WAT     H295430   2.015   4.605   3.260  0.1202  1.9650  2.8552
23406WAT    EPW95431   2.059   4.541   3.300  0.8807  0.7350  0.2756
23407WAT      O95432   3.728   3.503   1.830  0.3021 -0.1456 -1.4838
23407WAT     H195433   3.693   3.433   1.775 -0.7530 -1.2900  0.5293
23407WAT     H295434   3.663   3.514   1.899  1.3815  1.5175 -0.6733
23407WAT    EPW95435   3.715   3.495   1.832  0.3053 -0.0772 -1.1115
23408WAT      O95436   5.967   1.712   0.987  1.2130  0.7766  0.3602
23408WAT     H195437   5.950   1.670   1.071 -0.5213 -0.8488 -0.7434
23408WAT     H295438   5.955   1.806   1.004 -3.1843  0.2712  1.1411
23408WAT    EPW95439   5.963   1.719   1.000  0.4041  0.4955  0.3176
23409WAT      O95440   4.731   0.789   3.794  0.2334  0.9541 -0.7424
23409WAT     H195441   4.759   0.834   3.714  1.1736  3.9659  1.1032
23409WAT     H295442   4.655   0.838   3.824 -0.5942 -0.6167 -0.1456
23409WAT    EPW95443   4.725   0.801   3.787  0.2484  1.1441 -0.4205
23410WAT      O95444   0.257   0.108   0.300  0.6629 -0.0849 -0.2031
23410WAT     H195445   0.337   0.081   0.344  1.3110 -0.2965 -1.4748
23410WAT     H295446   0.280   0.110   0.207 -0.1860  1.9812 -0.4243
23410WAT    EPW95447   0.271   0.104   0.293  0.6364  0.1597 -0.4000
23411WAT      O95448   1.515   0.288   1.853  1.1805 -0.8351  0.5802
23411WAT     H195449   1.462   0.239   1.916  0.5913  1.0898  1.6936
23411WAT     H295450   1.605   0.261   1.870  1.1099  0.0684  2.7534
23411WAT    EPW95451   1.520   0.278   1.863  1.0935 -0.4621  1.0136
23412WAT      O95452   2.155   5.140   1.864 -0.5367 -0.2340 -0.5091
23412WAT     H195453   2.114   5.168   1.946  1.8810  1.6006  0.1858
23412WAT     H295454   2.101   5.179   1.795 -1.2414  0.2420  0.2950
23412WAT    EPW95455   2.143   5.149   1.866 -0.3107  0.0708 -0.3114
23413WAT      O95456   3.553   1.092   4.865  0.0477 -0.4155 -0.1327
23413WAT     H195457   3.526   1.001   4.857 -1.2112 -0.0143 -0.7984
23413WAT     H295458   3.471   1.139   4.881  0.7498  0.5352  0.8181
23413WAT    EPW95459   3.538   1.086   4.866 -0.0257 -0.2373 -0.0951
23414WAT      O95460   3.485   1.816   2.501  0.3011  0.7634 -0.1657
23414WAT     H195461   3.414   1.776   2.450  0.2589  1.3522 -0.5764
23414WAT     H295462   3.562   1.762   2.480  0.1283  0.5618 -0.2856
23414WAT    EPW95463   3.486   1.803   2.491  0.2726  0.8145 -0.2357
23415WAT      O95464   7.858  10.130   5.779 -0.3948 -0.0214  0.3057
23415WAT     H195465   7.839  10.054   5.723 -0.4824  1.5003 -1.8465
23415WAT     H295466   7.825  10.104   5.865 -0.0221 -2.5879 -0.2193
23415WAT    EPW95467   7.851  10.116   5.783 -0.3572 -0.1593 -0.0472
23416WAT      O95468   3.129   4.014   5.198 -0.4232 -0.1307  0.5687
23416WAT     H195469   3.110   3.924   5.171 -0.4590 -0.5413  1.8571
23416WAT     H295470   3.217   4.031   5.167  0.2290 -1.2265  1.7331
23416WAT    EPW95471   3.138   4.004   5.191 -0.3420 -0.3293  0.8922
23417WAT      O95472   9.465   8.739   1.935  0.1729  0.1885  0.0734
23417WAT     H195473   9.486   8.779   2.019  1.0224 -1.1344  0.5242
23417WAT     H295474   9.534   8.770   1.875  2.9528 -3.0575  1.2229
23417WAT    EPW95475   9.477   8.748   1.938  0.6514 -0.4139  0.2845
23418WAT      O95476   1.107   5.220   3.003 -0.1031  0.3865  0.0930
23418WAT     H195477   1.113   5.227   3.098 -0.6337 -0.5436  0.1997
23418WAT     H295478   1.148   5.301   2.971  1.6764 -0.0961  1.0473
23418WAT    EPW95479   1.113   5.232   3.011  0.0616  0.2000  0.2329
23419WAT      O95480   4.416   1.126   2.539 -0.3939 -0.5716  0.4632
23419WAT     H195481   4.361   1.204   2.545  0.2639  0.1020 -1.4017
23419WAT     H295482   4.356   1.053   2.553 -1.2739  0.2188  0.9464
23419WAT    EPW95483   4.401   1.126   2.541 -0.4230 -0.3785  0.2810
23420WAT      O95484   4.326   5.259   2.519  0.6240  0.3414  0.1775
23420WAT     H195485   4.422   5.261   2.521  0.6651  0.2628 -1.0786
23420WAT     H295486   4.302   5.346   2.488  0.2298  0.7242  1.4918
23420WAT    EPW95487   4.336   5.271   2.515  0.5774  0.3815  0.1851
23421WAT      O95488   4.708   3.862   3.020 -0.6818 -0.0921  0.1597
23421WAT     H195489   4.681   3.929   2.958 -2.1932 -1.1132 -0.3505
23421WAT     H295490   4.778   3.814   2.976 -0.1630  0.6108  0.2012
23421WAT    EPW95491   4.714   3.864   3.006 -0.8130 -0.1341  0.0979
23422WAT      O95492   2.767   1.011   5.440 -0.1137 -0.1432 -0.2423
23422WAT     H195493   2.765   1.104   5.462 -0.9421 -0.5803  1.6783
23422WAT     H295494   2.860   0.988   5.444 -0.1030  0.0857  1.7812
23422WAT    EPW95495   2.779   1.020   5.443 -0.2215 -0.1706  0.2775
23423WAT      O95496  10.398   0.508   1.624  0.1988  0.5811 -0.0145
23423WAT     H195497  10.401   0.597   1.658 -1.7985  2.1673 -3.5056
23423WAT     H295498  10.485   0.492   1.589  0.7588  0.8384  1.2002
23423WAT    EPW95499  10.409   0.517   1.624  0.0095  0.8243 -0.3148
23424WAT      O95500   3.344   3.106   4.911  0.1562 -0.3178  0.4469
23424WAT     H195501   3.319   3.154   4.990  2.6655 -0.1918  1.2583
23424WAT     H295502   3.377   3.173   4.851 -0.0550 -0.6105 -0.0080
23424WAT    EPW95503   3.345   3.121   4.913  0.4593 -0.3399  0.4940
23425WAT      O95504   3.747   4.251   1.032  0.0927  0.0194 -0.5791
23425WAT     H195505   3.809   4.222   0.964 -0.9672 -0.5877 -1.3139
23425WAT     H295506   3.779   4.209   1.112  1.7055  1.2180 -0.5323
23425WAT    EPW95507   3.759   4.241   1.033  0.1657  0.0975 -0.6698
23426WAT      O95508   5.254   2.291   5.187 -0.1600 -0.1621 -0.1413
23426WAT     H195509   5.165   2.300   5.153 -0.3105 -1.9376 -0.3261
23426WAT     H295510   5.255   2.343   5.268 -1.2926  0.0400 -0.2465
23426WAT    EPW95511   5.243   2.299   5.193 -0.3290 -0.3695 -0.1798
23427WAT      O95512   1.825   2.198   4.653 -0.3575 -0.2466 -0.1095
23427WAT     H195513   1.896   2.164   4.599 -0.6500  2.1754 -2.1890
23427WAT     H295514   1.869   2.229   4.733  0.6970 -0.3083 -0.6428
23427WAT    EPW95515   1.840   2.198   4.657 -0.2570  0.0648 -0.4539
23428WAT      O95516   0.519   1.996   3.330 -0.1900 -0.2442  0.2602
23428WAT     H195517   0.559   2.035   3.253 -1.0375 -1.1573 -0.6672
23428WAT     H295518   0.588   1.943   3.369  0.0809 -0.2313 -0.1962
23428WAT    EPW95519   0.533   1.995   3.325 -0.2661 -0.3630  0.0777
23429WAT      O95520   0.619   0.897   0.067  0.2981 -0.2185  0.2612
23429WAT     H195521   0.620   0.911   0.161 -0.0101 -2.1200  0.5840
23429WAT     H295522   0.665   0.814   0.054 -0.5271 -0.4905 -1.1661
23429WAT    EPW95523   0.625   0.888   0.078  0.1486 -0.5052  0.1155
23430WAT      O95524   8.545   8.310   1.676  0.1641 -0.2288  0.4962
23430WAT     H195525   8.575   8.258   1.751  0.2793  0.6696  1.0962
23430WAT     H295526   8.476   8.366   1.712  0.5653  0.5654  0.0474
23430WAT    EPW95527   8.540   8.311   1.691  0.2327 -0.0048  0.5161
23431WAT      O95528   2.813   5.958   2.596 -0.6202  0.1873 -0.4537
23431WAT     H195529   2.827   5.870   2.632  2.2158  0.0062 -1.7332
23431WAT     H295530   2.809   6.015   2.672  0.7534 -0.7123  0.3431
23431WAT    EPW95531   2.814   5.954   2.610 -0.0650  0.0446 -0.5175
23432WAT      O95532   4.759   9.300   7.892 -0.3991  0.1035  0.8227
23432WAT     H195533   4.733   9.346   7.972 -0.8736  0.7905  0.2801
23432WAT     H295534   4.825   9.237   7.922 -0.1335  0.7538  1.6620
23432WAT    EPW95535   4.764   9.298   7.907 -0.4268  0.2794  0.8616
23433WAT      O95536   2.931   2.855   3.642 -0.3846 -0.1986  0.3902
23433WAT     H195537   3.019   2.885   3.668 -0.1656  0.3231 -0.8673
23433WAT     H295538   2.935   2.850   3.547 -0.7147 -3.3681  0.4350
23433WAT    EPW95539   2.943   2.858   3.633 -0.3991 -0.5478  0.2302
23434WAT      O95540   4.943   4.963   2.676 -0.1686  0.1624  0.6761
23434WAT     H195541   4.885   4.893   2.647 -0.9869  1.0822  0.0575
23434WAT     H295542   4.887   5.040   2.681  0.4350  0.5379  2.5356
23434WAT    EPW95543   4.928   4.964   2.673 -0.1969  0.3333  0.8396
23435WAT      O95544   2.835   0.040   0.888  0.7419  0.0966  0.0055
23435WAT     H195545   2.751  -0.005   0.901 -1.1465  3.0524 -0.9462
23435WAT     H295546   2.866   0.010   0.803 -1.0252  1.2853 -1.1142
23435WAT    EPW95547   2.828   0.030   0.879  0.2598  0.6431 -0.2677
23436WAT      O95548   4.318   2.866   4.877 -0.2749  0.0725  0.4717
23436WAT     H195549   4.313   2.920   4.798 -1.6756  0.5285  0.8410
23436WAT     H295550   4.242   2.893   4.929  0.3098 -0.6152  1.7261
23436WAT    EPW95551   4.308   2.877   4.873 -0.3824  0.0420  0.6855
23437WAT      O95552   1.267   6.393   2.294  0.5711 -0.2778 -0.3469
23437WAT     H195553   1.339   6.452   2.272  0.0453  0.2546 -0.6849
23437WAT     H295554   1.195   6.421   2.237  0.0720 -0.7471  0.0415
23437WAT    EPW95555   1.267   6.404   2.284  0.4359 -0.2697 -0.3402
23438WAT      O95556   1.443   2.210   2.132  0.1980 -0.3736  0.2851
23438WAT     H195557   1.515   2.248   2.182 -0.8308  1.0236  0.7715
23438WAT     H295558   1.442   2.260   2.050  0.8802 -1.5901 -0.4970
23438WAT    EPW95559   1.452   2.222   2.127  0.1522 -0.3498  0.2462
23439WAT      O95560   3.144   0.499   5.613  0.3323  0.1678  0.3902
23439WAT     H195561   3.186   0.522   5.697 -0.5075 -0.1136  0.9041
23439WAT     H295562   3.060   0.462   5.639 -0.5970  1.4837 -0.6367
23439WAT    EPW95563   3.139   0.498   5.628  0.0989  0.3043  0.3226
23440WAT      O95564   3.368   4.639   1.864  0.2683  0.3819 -0.0651
23440WAT     H195565   3.294   4.602   1.912 -1.0476 -0.9796 -2.8739
23440WAT     H295566   3.354   4.610   1.773  1.7605  3.9498 -1.6126
23440WAT    EPW95567   3.356   4.630   1.858  0.2916  0.6726 -0.6397
23441WAT      O95568   1.427   9.963   0.735 -0.0928 -0.0400  0.5837
23441WAT     H195569   1.385  10.030   0.789 -2.4370 -0.4818 -0.5699
23441WAT     H295570   1.399   9.880   0.774 -1.5466 -0.3572 -1.0268
23441WAT    EPW95571   1.418   9.961   0.747 -0.5938 -0.1397  0.2191
23442WAT      O95572   5.084   1.480   6.174 -0.3238 -0.0538  0.0638
23442WAT     H195573   5.139   1.539   6.122  0.1660 -0.6522 -0.1073
23442WAT     H295574   5.022   1.538   6.218  1.3769  0.7997  1.4266
23442WAT    EPW95575   5.083   1.495   6.173 -0.0350 -0.0202  0.2210
23443WAT      O95576   9.587   4.734   0.479  0.1518 -0.7151  0.3912
23443WAT     H195577   9.511   4.750   0.535  1.3158  1.9577  1.3583
23443WAT     H295578   9.558   4.753   0.391 -0.4408 -0.1992  0.6945
23443WAT    EPW95579   9.573   4.738   0.475  0.2275 -0.2944  0.5587
23444WAT      O95580   2.939   0.438   2.537 -0.8094 -0.3619 -0.2071
23444WAT     H195581   3.002   0.436   2.466 -0.4462  1.0636  0.0290
23444WAT     H295582   2.975   0.503   2.598 -0.3031 -2.6162  2.0494
23444WAT    EPW95583   2.952   0.446   2.536 -0.6946 -0.4712  0.1216
23445WAT      O95584   3.976   0.233   0.707  0.5139  0.0757 -0.0597
23445WAT     H195585   4.036   0.254   0.636 -0.4772  3.1413 -0.1453
23445WAT     H295586   4.013   0.278   0.783 -0.2218 -0.3166  0.5413
23445WAT    EPW95587   3.989   0.242   0.708  0.2862  0.4283  0.0083
23446WAT      O95588   5.812   9.712   8.759  1.0406 -0.2373  0.1263
23446WAT     H195589   5.795   9.637   8.817  3.3965  0.0863  1.3680
23446WAT     H295590   5.906   9.724   8.763  0.9444  1.6110 -1.6062
23446WAT    EPW95591   5.822   9.704   8.768  1.3390  0.0491  0.0615
23447WAT      O95592   1.068   2.691   2.589  0.5690  0.2625  0.0024
23447WAT     H195593   1.005   2.673   2.659 -1.4638 -1.4309 -2.0873
23447WAT     H295594   1.059   2.617   2.528  0.9229  2.4110 -2.9188
23447WAT    EPW95595   1.058   2.679   2.590  0.3476  0.3226 -0.6585
23448WAT      O95596   0.421   6.335   1.770 -0.1513 -0.0577  0.1277
23448WAT     H195597   0.460   6.264   1.822 -1.1525  0.2954  1.4077
23448WAT     H295598   0.424   6.411   1.828 -1.4635  0.3078 -0.2660
23448WAT    EPW95599   0.427   6.336   1.785 -0.4564  0.0370  0.2445
23449WAT      O95600   0.609   4.748   4.484 -0.1463 -0.2505 -0.0861
23449WAT     H195601   0.583   4.740   4.576  2.9879 -1.5232  0.8222
23449WAT     H295602   0.692   4.796   4.487  1.1007 -2.1042 -1.9996
23449WAT    EPW95603   0.617   4.753   4.497  0.4315 -0.6628 -0.2186
23450WAT      O95604   2.988   3.800   1.436 -0.8940 -0.6056 -0.4044
23450WAT     H195605   2.928   3.729   1.460 -4.1125  2.3324  1.0719
23450WAT     H295606   3.045   3.810   1.512 -2.5341  0.3355  0.7521
23450WAT    EPW95607   2.988   3.792   1.449 -1.5347 -0.0939 -0.0572
23451WAT      O95608   0.108   5.628   2.542 -0.5347  0.6502  0.3216
23451WAT     H195609   0.116   5.591   2.630  0.2810  0.4447  0.1725
23451WAT     H295610   0.019   5.607   2.515 -0.6587  0.3577  0.9419
23451WAT    EPW95611   0.097   5.620   2.550 -0.4435  0.5844  0.3836
23452WAT      O95612   3.760   5.523   4.006 -0.7844 -0.1849 -0.6120
23452WAT     H195613   3.728   5.504   4.094  0.0201  0.3036 -0.1945
23452WAT     H295614   3.683   5.514   3.950 -1.1198 -1.4133  0.0001
23452WAT    EPW95615   3.746   5.520   4.011 -0.7225 -0.2828 -0.4759
23453WAT      O95616   2.716   3.415   2.410  0.0063 -0.6364 -0.4942
23453WAT     H195617   2.753   3.441   2.325  1.1491 -2.4200 -0.5787
23453WAT     H295618   2.659   3.341   2.390  1.5576 -2.1465  0.4612
23453WAT    EPW95619   2.713   3.409   2.396  0.3617 -1.0707 -0.3793
23454WAT      O95620   1.595   2.823   0.910  0.1258 -1.0056  0.5231
23454WAT     H195621   1.503   2.809   0.934 -0.5041  2.0840  0.3850
23454WAT     H295622   1.620   2.902   0.958  2.5329 -1.3774  0.0167
23454WAT    EPW95623   1.586   2.832   0.920  0.3602 -0.6471  0.4381
23455WAT      O95624   7.019   3.749   4.878  0.1714 -0.3100  0.0079
23455WAT     H195625   6.936   3.777   4.840 -1.0620 -1.5022  1.6897
23455WAT     H295626   7.000   3.733   4.970  1.0949 -4.9174 -0.3811
23455WAT    EPW95627   7.006   3.751   4.885  0.1309 -1.0749  0.1783
23456WAT      O95628   0.539  10.049   6.123 -0.0909  0.7366  0.1560
23456WAT     H195629   0.519  10.108   6.050 -1.6379  1.9351  1.4811
23456WAT     H295630   0.456  10.036   6.167  0.2133 -2.3920  0.0398
23456WAT    EPW95631   0.526  10.055   6.119 -0.2548  0.4816  0.3154
23457WAT      O95632  10.492  10.249   2.990 -0.1413  0.5546 -0.3402
23457WAT     H195633  10.439  10.214   2.919  0.4177  2.3175 -1.6973
23457WAT     H295634  10.494  10.344   2.975 -0.6055  1.1166  2.4469
23457WAT    EPW95635  10.485  10.257   2.979 -0.1287  0.8612 -0.1516
23458WAT      O95636   3.283   3.748   3.138 -0.2041 -0.1242  0.2699
23458WAT     H195637   3.243   3.834   3.145 -1.5190 -0.7035  0.2753
23458WAT     H295638   3.376   3.765   3.123 -0.8649  1.3323 -2.8915
23458WAT    EPW95639   3.290   3.761   3.137 -0.4647 -0.0085 -0.1465
23459WAT      O95640   7.350   2.570   4.033 -0.2080  0.1663  0.3316
23459WAT     H195641   7.275   2.630   4.037 -1.0848 -0.9356  1.2241
23459WAT     H295642   7.371   2.564   3.940 -3.5683 -2.1946 -0.4704
23459WAT    EPW95643   7.343   2.577   4.021 -0.7668 -0.2904  0.3433
23460WAT      O95644   2.817   6.138   2.351  0.5934  0.5223  0.3562
23460WAT     H195645   2.733   6.165   2.313 -0.0431 -2.7901 -0.9681
23460WAT     H295646   2.793   6.089   2.429  1.2875 -0.1646  0.1486
23460WAT    EPW95647   2.803   6.135   2.356  0.6009 -0.0052  0.1541
23461WAT      O95648   4.328   1.686   1.704 -0.0429  0.2400 -0.3813
23461WAT     H195649   4.310   1.758   1.643 -2.8477  0.9214  1.0737
23461WAT     H295650   4.361   1.729   1.783  1.6708 -0.4682 -0.6593
23461WAT    EPW95651   4.330   1.702   1.706 -0.1867  0.2365 -0.2261
23462WAT      O95652   2.944   2.964   1.668 -0.1253 -0.1479  0.0652
23462WAT     H195653   2.996   2.898   1.624  1.6070  1.2674 -0.1288
23462WAT     H295654   2.996   2.988   1.745  0.6072  2.7089 -1.1646
23462WAT    EPW95655   2.958   2.959   1.673  0.1998  0.4156 -0.1225
23463WAT      O95656   2.183   3.756   2.234  0.8173 -0.2119  0.2174
23463WAT     H195657   2.100   3.712   2.218  0.6403  0.0403  0.4547
23463WAT     H295658   2.217   3.715   2.313 -0.4545  1.6661  1.8272
23463WAT    EPW95659   2.177   3.745   2.242  0.6262  0.0691  0.4610
23464WAT      O95660   6.439   1.036   1.274  0.3508  0.3913  0.0759
23464WAT     H195661   6.398   1.090   1.206 -0.3589  0.0675  0.2321
23464WAT     H295662   6.366   1.013   1.332  0.2992 -2.0309 -0.8388
23464WAT    EPW95663   6.424   1.041   1.272  0.2506  0.0291 -0.0241
23465WAT      O95664   3.414   1.461   8.622 -0.1947  0.2333 -0.4485
23465WAT     H195665   3.375   1.543   8.653 -3.5981 -0.6865 -1.7579
23465WAT     H295666   3.426   1.474   8.528 -0.9064 -0.7795 -0.6943
23465WAT    EPW95667   3.410   1.473   8.614 -0.7375 -0.0216 -0.6533
23466WAT      O95668   3.992   3.177   3.740 -0.1605 -0.0757  0.0612
23466WAT     H195669   3.998   3.099   3.795  0.4884 -1.3352 -1.7147
23466WAT     H295670   4.010   3.249   3.800  0.4323 -1.3679  1.5279
23466WAT    EPW95671   3.995   3.176   3.755  0.0032 -0.4122  0.0204
23467WAT      O95672   3.773   2.106   3.899  0.8525 -0.0218 -0.3965
23467WAT     H195673   3.827   2.037   3.861  1.9650  0.0196  1.0546
23467WAT     H295674   3.712   2.060   3.956  0.8688  0.1081 -0.2736
23467WAT    EPW95675   3.772   2.091   3.901  1.0012  0.0007 -0.1888
23468WAT      O95676   3.430   1.255   1.963  0.2997 -0.3516  0.2715
23468WAT     H195677   3.350   1.299   1.934 -0.1717 -1.7320 -0.6074
23468WAT     H295678   3.404   1.164   1.975  1.0157 -0.2794  3.0165
23468WAT    EPW95679   3.416   1.249   1.961  0.3319 -0.5242  0.5177
23469WAT      O95680   4.045   1.853   2.862  0.0562  0.4755 -1.2235
23469WAT     H195681   3.966   1.884   2.818 -0.0642  0.8185 -0.7713
23469WAT     H295682   4.113   1.854   2.794 -0.2828  0.3622 -1.5634
23469WAT    EPW95683   4.044   1.857   2.848 -0.0043  0.5057 -1.2085
23470WAT      O95684   2.375   3.379   4.716  0.3768  0.5700 -0.2844
23470WAT     H195685   2.336   3.327   4.645  2.9236  2.2006 -3.1045
23470WAT     H295686   2.444   3.324   4.751 -0.6473 -0.0912  0.7884
23470WAT    EPW95687   2.379   3.365   4.711  0.5776  0.6979 -0.5147
23471WAT      O95688   4.397   3.344   0.978  1.6827 -0.1665 -0.1374
23471WAT     H195689   4.390   3.411   0.910  0.4136 -0.1391 -0.0068
23471WAT     H295690   4.416   3.394   1.058 -1.1147  0.3345  0.3354
23471WAT    EPW95691   4.398   3.360   0.980  1.1466 -0.0968 -0.0578
23472WAT      O95692   2.979   4.192   3.105 -0.3110 -0.3338  0.1094
23472WAT     H195693   2.906   4.134   3.083 -1.2453  1.3650 -1.5013
23472WAT     H295694   3.013   4.221   3.020  0.0026  1.5923  0.8445
23472WAT    EPW95695   2.974   4.188   3.091 -0.3928  0.1442 -0.0061
23473WAT      O95696   4.896   3.481   2.698  0.6407 -0.1914  0.3246
23473WAT     H195697   4.910   3.532   2.619  2.5689 -0.7161  0.2717
23473WAT     H295698   4.821   3.424   2.677 -0.8509  1.7922  0.0210
23473WAT    EPW95699   4.888   3.480   2.685  0.6981  0.0011  0.2778
23474WAT      O95700   8.815   6.193   6.982  0.0401 -0.0541 -0.2113
23474WAT     H195701   8.871   6.255   7.029 -0.7988  1.3797 -1.0139
23474WAT     H295702   8.738   6.183   7.039 -1.0166  1.7519 -1.2150
23474WAT    EPW95703   8.812   6.200   6.996 -0.2098  0.3731 -0.4497
23475WAT      O95704   4.469   5.414   1.270 -0.2859 -0.2780  0.0472
23475WAT     H195705   4.384   5.450   1.292 -0.9115 -0.4104 -1.9813
23475WAT     H295706   4.450   5.340   1.213  1.1408 -1.3434  0.8697
23475WAT    EPW95707   4.456   5.409   1.265 -0.1800 -0.4363 -0.1118
23476WAT      O95708   4.532   4.534   4.045 -0.7025 -0.4383  0.1774
23476WAT     H195709   4.528   4.531   4.140 -0.4665 -0.0762  0.2049
23476WAT     H295710   4.580   4.455   4.020  2.1465  1.0081  0.5906
23476WAT    EPW95711   4.538   4.523   4.054 -0.2959 -0.1996  0.2358
23477WAT      O95712   4.783   3.594   3.358  0.5472 -0.0421 -0.2702
23477WAT     H195713   4.839   3.535   3.307  2.0244  1.3261 -0.3016
23477WAT     H295714   4.788   3.561   3.447  0.4691 -0.6112 -0.4734
23477WAT    EPW95715   4.791   3.582   3.363  0.7317  0.0633 -0.3010
23478WAT      O95716   2.211   2.010   1.996  0.4595  0.5178 -0.1697
23478WAT     H195717   2.279   2.044   1.938  0.0496 -2.4117 -2.6476
23478WAT     H295718   2.259   1.967   2.067  1.2204 -0.4549 -1.2403
23478WAT    EPW95719   2.226   2.009   1.998  0.5058  0.0032 -0.6377
23479WAT      O95720   2.590   3.775   3.777  0.8597  0.3901 -0.3933
23479WAT     H195721   2.634   3.788   3.861  0.2124 -1.4133  0.2711
23479WAT     H295722   2.502   3.746   3.801  1.4144 -2.6102 -1.6354
23479WAT    EPW95723   2.584   3.773   3.791  0.8475 -0.2434 -0.4694
23480WAT      O95724   0.829   2.416   5.037  0.7868  0.6718 -0.3074
23480WAT     H195725   0.917   2.443   5.064  0.6675  1.2184 -0.4352
23480WAT     H295726   0.788   2.497   5.006 -0.3318  0.7600  1.2568
23480WAT    EPW95727   0.835   2.431   5.036  0.6235  0.7555 -0.1180
23481WAT      O95728   2.224   4.637   1.860  0.2023 -0.4424  0.4521
23481WAT     H195729   2.193   4.694   1.789 -0.0037  0.9476  1.6049
23481WAT     H295730   2.312   4.669   1.880  0.6193 -1.4255  0.2142
23481WAT    EPW95731   2.231   4.649   1.853  0.2301 -0.3889  0.5728
23482WAT      O95732   1.452  10.287   2.950 -0.2222 -0.2730  0.2306
23482WAT     H195733   1.498  10.207   2.923 -1.3510 -0.4074 -1.4702
23482WAT     H295734   1.359  10.266   2.936 -0.4910  1.6856 -1.3523
23482WAT    EPW95735   1.446  10.274   2.944 -0.4065 -0.0329 -0.2027
23483WAT      O95736   5.908   8.787   6.961  0.2780 -0.0490  0.0791
23483WAT     H195737   5.911   8.790   6.866 -1.3331  0.0577 -0.0041
23483WAT     H295738   5.910   8.879   6.988  0.6115 -0.0745  0.1427
23483WAT    EPW95739   5.908   8.799   6.952  0.1097 -0.0381  0.0765
23484WAT      O95740   5.046   3.383   3.976  0.3746  0.0220  1.0241
23484WAT     H195741   5.101   3.399   4.052 -0.6234  0.1444  1.7479
23484WAT     H295742   4.973   3.445   3.986 -0.1161 -0.4260  0.3343
23484WAT    EPW95743   5.043   3.393   3.988  0.1783 -0.0209  1.0284
23485WAT      O95744   1.869   1.279   0.966  0.1519 -0.3350 -0.0514
23485WAT     H195745   1.824   1.284   0.881 -1.2403  3.4501  0.6985
23485WAT     H295746   1.806   1.237   1.024 -0.1486 -0.1728 -0.2561
23485WAT    EPW95747   1.855   1.274   0.962 -0.0713  0.1857  0.0205
23486WAT      O95748   2.558   4.460   0.958  0.7092 -0.0772 -0.9923
23486WAT     H195749   2.484   4.413   0.921  1.6243  0.4514 -3.6857
23486WAT     H295750   2.622   4.392   0.979  0.2932 -0.3553 -0.5850
23486WAT    EPW95751   2.557   4.445   0.956  0.7751 -0.0441 -1.2938
23487WAT      O95752   5.659   3.236   1.988  0.1855  0.3902 -1.3321
23487WAT     H195753   5.581   3.248   2.042  0.9891  0.9886 -0.2664
23487WAT     H295754   5.677   3.324   1.954  1.8356  0.8033  0.4868
23487WAT    EPW95755   5.651   3.249   1.990  0.5093  0.5236 -0.9516
23488WAT      O95756   2.703   0.160   2.966  0.0353 -0.1136  0.5187
23488WAT     H195757   2.736   0.093   3.025  1.3014  1.6749  1.9124
23488WAT     H295758   2.766   0.162   2.894 -0.4039 -0.8603  0.0863
23488WAT    EPW95759   2.716   0.151   2.964  0.1444  0.0238  0.6454
23489WAT      O95760   1.224   1.617   2.571  0.4070 -0.2508  0.5939
23489WAT     H195761   1.272   1.548   2.617  2.8688  1.7436  1.2822
23489WAT     H295762   1.265   1.698   2.601 -0.2864  1.3820 -2.4387
23489WAT    EPW95763   1.236   1.619   2.581  0.6402  0.2276  0.2847
23490WAT      O95764   0.491   2.579   7.540 -0.0298 -0.1645  0.1003
23490WAT     H195765   0.469   2.670   7.562 -1.7509 -0.0327 -1.8749
23490WAT     H295766   0.576   2.585   7.496  0.3116  0.3361  0.7964
23490WAT    EPW95767   0.500   2.592   7.537 -0.2118 -0.0811 -0.0684
23491WAT      O95768   2.213   1.324   1.282  0.8280  0.4118 -0.1051
23491WAT     H195769   2.258   1.248   1.246 -0.6710  0.0517 -1.3418
23491WAT     H295770   2.124   1.294   1.298 -0.4149  2.3404 -2.5917
23491WAT    EPW95771   2.207   1.310   1.279  0.4663  0.6187 -0.5962
23492WAT      O95772   3.432   0.129   0.753 -0.4534  0.0408  0.4433
23492WAT     H195773   3.367   0.191   0.787 -0.1839  0.3768  0.3467
23492WAT     H295774   3.489   0.111   0.828 -0.2071  0.3318  0.3282
23492WAT    EPW95775   3.431   0.135   0.768 -0.3853  0.1235  0.4154
23493WAT      O95776   3.206   6.354   4.721  0.0619  0.7419 -0.3532
23493WAT     H195777   3.113   6.334   4.709 -0.8976  1.1701  4.2095
23493WAT     H295778   3.221   6.433   4.670 -2.3389  1.0842 -0.6479
23493WAT    EPW95779   3.196   6.362   4.713 -0.3815  0.8433  0.2096
23494WAT      O95780   5.401   6.924   8.329 -0.7227  0.2030 -0.2869
23494WAT     H195781   5.358   6.862   8.270 -0.6244  0.3755 -0.5386
23494WAT     H295782   5.362   6.905   8.415 -0.9906  0.0698 -0.4362
23494WAT    EPW95783   5.390   6.913   8.332 -0.7453  0.2081 -0.3390
23495WAT      O95784  10.256   8.937   2.720 -0.2758 -0.1494  0.2418
23495WAT     H195785  10.236   8.997   2.791 -1.3886  0.2490 -0.3913
23495WAT     H295786  10.175   8.930   2.670  0.9642  1.1133 -2.1315
23495WAT    EPW95787  10.243   8.944   2.723 -0.2589  0.0691 -0.1547
23496WAT      O95788   1.478   9.668   0.781 -0.2229  0.2831  0.6246
23496WAT     H195789   1.460   9.591   0.728  0.0774  1.1764 -0.8466
23496WAT     H295790   1.392   9.697   0.811 -0.4715  0.1166  0.0864
23496WAT    EPW95791   1.464   9.662   0.778 -0.2161  0.3791  0.3595
23497WAT      O95792   9.894   9.549   2.094  0.5216  0.4054 -0.4501
23497WAT     H195793   9.973   9.529   2.144 -0.3715  1.0787  1.3213
23497WAT     H295794   9.823   9.508   2.143 -0.1838 -0.9121 -2.4647
23497WAT    EPW95795   9.895   9.541   2.107  0.3109  0.3204 -0.4821
23498WAT      O95796   3.896   3.889   2.012  0.5520 -0.3395 -0.4377
23498WAT     H195797   3.802   3.879   2.000  0.5592 -1.6013  0.3007
23498WAT     H295798   3.929   3.914   1.926 -0.4086 -0.2893 -0.8032
23498WAT    EPW95799   3.888   3.891   1.999  0.4262 -0.4992 -0.3885
23499WAT      O95800   5.115   1.479   3.516  0.9713  0.0376  0.0491
23499WAT     H195801   5.151   1.527   3.441  1.9917  0.7839  0.9942
23499WAT     H295802   5.157   1.393   3.511  0.9713  0.0526 -0.2739
23499WAT    EPW95803   5.125   1.474   3.505  1.1060  0.1380  0.1311
23500WAT      O95804   8.901   8.783   6.562  0.1785  0.4219  0.4021
23500WAT     H195805   8.922   8.732   6.641 -0.1323 -1.4509 -0.6620
23500WAT     H295806   8.809   8.808   6.574 -0.1622 -0.6713  0.2620
23500WAT    EPW95807   8.891   8.779   6.574  0.0925  0.0310  0.2432
23501WAT      O95808   8.264   2.237   0.754 -0.6500  0.1815  0.2175
23501WAT     H195809   8.336   2.220   0.814 -0.4641 -1.2724 -0.3620
23501WAT     H295810   8.198   2.281   0.806 -0.4312 -0.9055  1.4611
23501WAT    EPW95811   8.265   2.240   0.769 -0.5965 -0.1538  0.3051
23502WAT      O95812   5.482   1.016   3.118 -0.1163 -0.0935 -0.1778
23502WAT     H195813   5.520   0.976   3.040 -1.0706 -1.6925  0.1312
23502WAT     H295814   5.479   0.945   3.183 -0.7460  0.7946  0.8120
23502WAT    EPW95815   5.486   1.002   3.117 -0.3252 -0.1872 -0.0066
23503WAT      O95816   4.792   5.867   1.767 -0.3053 -0.4132 -0.5676
23503WAT     H195817   4.728   5.936   1.750  1.9661  2.7299  2.1607
23503WAT     H295818   4.744   5.802   1.818 -1.8216  0.7638 -0.4220
23503WAT    EPW95819   4.777   5.868   1.772 -0.2058  0.1564 -0.1886
23504WAT      O95820   5.013   3.013   3.904 -0.2727 -0.0466 -0.6008
23504WAT     H195821   5.097   3.025   3.949  1.3206 -2.0294 -2.7826
23504WAT     H295822   4.988   2.923   3.925 -3.5198  1.3464  2.4112
23504WAT    EPW95823   5.021   3.003   3.913 -0.4907 -0.1245 -0.4913
23505WAT      O95824   1.612   6.461   0.931  0.4550 -0.6457 -0.4222
23505WAT     H195825   1.639   6.550   0.908 -2.0726  0.8099  1.6942
23505WAT     H295826   1.694   6.414   0.946  1.8662  1.5776 -0.6873
23505WAT    EPW95827   1.626   6.466   0.930  0.3077 -0.1605 -0.1780
23506WAT      O95828   0.993   2.377   3.509  0.3562  0.6194 -0.4153
23506WAT     H195829   0.940   2.454   3.531  1.0036  0.7317  0.8946
23506WAT     H295830   1.065   2.380   3.572 -1.1653 -2.7145  1.7604
23506WAT    EPW95831   0.996   2.388   3.520  0.2409  0.1947  0.0446
23507WAT      O95832   0.327   1.724   2.026  0.1910  0.3138  0.3996
23507WAT     H195833   0.381   1.661   2.074  0.1190 -0.5702 -0.6497
23507WAT     H295834   0.362   1.810   2.051  2.9776 -0.2259 -1.2192
23507WAT    EPW95835   0.339   1.727   2.036  0.5490  0.1261  0.0478
23508WAT      O95836   4.837   2.878   2.284  0.4935  0.1837 -0.3481
23508WAT     H195837   4.778   2.804   2.269  1.1439 -0.3291 -0.4748
23508WAT     H295838   4.886   2.886   2.202  0.4689  0.7201 -0.3124
23508WAT    EPW95839   4.836   2.869   2.271  0.5763  0.1869 -0.3601
23509WAT      O95840   2.857   1.037   1.890 -0.0770 -0.1938  0.4209
23509WAT     H195841   2.895   1.069   1.972  0.0334 -0.8129  0.6160
23509WAT     H295842   2.769   1.007   1.915  0.7231 -2.4319  0.7902
23509WAT    EPW95843   2.850   1.037   1.904  0.0430 -0.5707  0.4954
23510WAT      O95844   2.741   1.335   5.034  0.3945 -0.1221  0.1594
23510WAT     H195845   2.779   1.395   5.100 -0.9571 -1.3028  2.1026
23510WAT     H295846   2.682   1.279   5.084 -1.0064 -0.8332 -2.1741
23510WAT    EPW95847   2.738   1.336   5.049  0.0315 -0.3716  0.1080
23511WAT      O95848   3.747   7.389   5.078 -0.0960 -0.1298  0.0479
23511WAT     H195849   3.662   7.431   5.064  0.2173 -0.0646 -2.1434
23511WAT     H295850   3.806   7.461   5.102  0.6718  1.1914 -4.6571
23511WAT    EPW95851   3.744   7.404   5.079  0.0466  0.0529 -0.8616
23512WAT      O95852   0.210   3.470   1.338  0.0426 -1.0770  0.4880
23512WAT     H195853   0.174   3.415   1.269 -3.7725 -0.1567  1.5068
23512WAT     H295854   0.215   3.411   1.414 -0.5215 -0.9585  0.6283
23512WAT    EPW95855   0.206   3.455   1.339 -0.5350 -0.9400  0.6410
23513WAT      O95856   7.809   6.990   7.539 -0.5741  0.7558  0.2269
23513WAT     H195857   7.790   6.896   7.532 -1.0287  0.8382  0.3310
23513WAT     H295858   7.891   6.994   7.589 -0.2840  0.3954 -0.2195
23513WAT    EPW95859   7.817   6.978   7.545 -0.5958  0.7188  0.1819
23514WAT      O95860  10.567   2.075   5.168  0.4740 -0.4763 -0.4226
23514WAT     H195861  10.572   2.029   5.252 -0.9548 -1.1176 -0.6700
23514WAT     H295862  10.556   2.006   5.103  0.8823  0.0626 -1.0926
23514WAT    EPW95863  10.566   2.060   5.171  0.3395 -0.4900 -0.5436
23515WAT      O95864   3.119   3.621   4.664  0.7631 -0.3387  0.4139
23515WAT     H195865   3.085   3.676   4.593  0.9992  0.1279  0.6524
23515WAT     H295866   3.214   3.626   4.655  0.7876 -1.6770 -0.2805
23515WAT    EPW95867   3.127   3.629   4.654  0.7975 -0.4536  0.3538
23516WAT      O95868   0.439  10.170   2.234  0.4886 -0.3508  0.1851
23516WAT     H195869   0.460  10.211   2.151  2.1029  1.6982  1.5093
23516WAT     H295870   0.350  10.137   2.223 -0.0076  1.4578 -1.7568
23516WAT    EPW95871   0.430  10.171   2.222  0.6360  0.1583  0.1036
23517WAT      O95872   3.271   1.348   1.380 -0.5344  0.2070  0.3925
23517WAT     H195873   3.291   1.330   1.471  0.8307  1.3573  0.3571
23517WAT     H295874   3.353   1.330   1.333 -1.3911 -0.9712 -0.7148
23517WAT    EPW95875   3.284   1.343   1.386 -0.4672  0.2034  0.2418
23518WAT      O95876   3.095   0.271   1.458 -0.1557  0.2529  0.7114
23518WAT     H195877   3.114   0.305   1.546  2.6165  0.4178  0.1278
23518WAT     H295878   3.133   0.336   1.399  1.3329 -1.6124 -0.5099
23518WAT    EPW95879   3.103   0.284   1.462  0.4063  0.0286  0.4734
23519WAT      O95880  10.898   0.227   2.611 -0.1150 -0.8049  0.4008
23519WAT     H195881  10.891   0.173   2.532  1.9780 -3.4482  1.8282
23519WAT     H295882  10.980   0.198   2.652 -1.1371  0.3466  3.5849
23519WAT    EPW95883  10.908   0.216   2.606  0.0262 -1.0017  1.0091
23520WAT      O95884   5.383   0.235   0.466 -0.8511 -0.5197 -0.0357
23520WAT     H195885   5.356   0.217   0.376 -1.6466 -0.2008  0.1328
23520WAT     H295886   5.379   0.149   0.510 -1.6996 -0.4706  0.0064
23520WAT    EPW95887   5.379   0.221   0.460 -1.0679 -0.4711 -0.0079
23521WAT      O95888   2.886   2.635   1.616 -0.3858  0.1029  0.3279
23521WAT     H195889   2.846   2.614   1.532 -0.7244 -0.3638  0.6005
23521WAT     H295890   2.971   2.674   1.594 -1.1285  1.4745 -0.2885
23521WAT    EPW95891   2.892   2.638   1.602 -0.5283  0.2221  0.2825
23522WAT      O95892  10.380   8.023   8.741  0.7777 -0.5008  0.3534
23522WAT     H195893  10.300   8.063   8.774  0.5079 -1.0416  0.3696
23522WAT     H295894  10.365   7.929   8.750  1.1484 -0.6265 -0.2665
23522WAT    EPW95895  10.368   8.016   8.746  0.7915 -0.5889  0.2742
23523WAT      O95896   5.956  10.305   8.829  0.2937  0.3626  0.7505
23523WAT     H195897   5.940  10.367   8.757 -0.0474 -0.0943  0.4321
23523WAT     H295898   6.052  10.299   8.834  0.3143 -0.2744 -0.2408
23523WAT    EPW95899   5.967  10.313   8.820  0.2513  0.2184  0.5779
23524WAT      O95900   0.768   1.937   3.918 -0.1865 -0.4417 -0.2710
23524WAT     H195901   0.817   2.016   3.894  0.5832 -1.0575 -0.8022
23524WAT     H295902   0.823   1.865   3.887  0.4318 -1.3076  2.5153
23524WAT    EPW95903   0.782   1.938   3.911 -0.0034 -0.6372  0.0265
23525WAT      O95904   9.540  10.367   3.246 -0.4332  0.2380 -0.1760
23525WAT     H195905   9.635  10.380   3.251 -0.5209  0.9096 -0.1836
23525WAT     H295906   9.529  10.307   3.172  0.0701 -0.9014  0.6444
23525WAT    EPW95907   9.551  10.361   3.237 -0.3786  0.1760 -0.0689
23526WAT      O95908   0.190   2.048   4.168 -0.3227  0.3583  0.0908
23526WAT     H195909   0.148   2.132   4.146 -1.0110 -0.0543 -0.1954
23526WAT     H295910   0.178   1.995   4.089  1.8613  0.6495 -0.4941
23526WAT    EPW95911   0.183   2.052   4.154 -0.1254  0.3424 -0.0238
23527WAT      O95912   5.022   2.092   3.732  0.4262 -0.2663 -1.1767
23527WAT     H195913   5.005   2.067   3.641  0.5042  0.0452 -1.2752
23527WAT     H295914   4.973   2.027   3.784 -0.1609 -0.0428 -1.4477
23527WAT    EPW95915   5.013   2.080   3.727  0.3591 -0.1957 -1.2255
23528WAT      O95916   3.993   0.412   2.923 -0.2423 -0.4718  0.3214
23528WAT     H195917   3.932   0.476   2.887 -0.4903 -0.5787  0.5419
23528WAT     H295918   3.958   0.327   2.896 -0.0880 -0.5259  0.2904
23528WAT    EPW95919   3.981   0.409   2.915 -0.2548 -0.4930  0.3464
23529WAT      O95920   1.150   3.680   4.167  0.7498 -0.0534  0.3426
23529WAT     H195921   1.182   3.618   4.233  1.2237 -0.8334 -0.5896
23529WAT     H295922   1.057   3.689   4.186  0.6500 -1.1411  0.4426
23529WAT    EPW95923   1.142   3.673   4.178  0.7992 -0.2997  0.2325
23530WAT      O95924   1.709   1.178   5.769  0.5597 -0.7460  0.2795
23530WAT     H195925   1.680   1.107   5.712 -0.9228 -2.3377  2.8366
23530WAT     H295926   1.666   1.161   5.853 -0.0002  3.3045  0.9986
23530WAT    EPW95927   1.700   1.166   5.773  0.2904 -0.4217  0.7114
23531WAT      O95928   7.247   8.367   8.474  0.2189 -0.3819  0.0970
23531WAT     H195929   7.317   8.305   8.497  0.7751  0.5282  0.8987
23531WAT     H295930   7.232   8.417   8.554 -0.6588  0.1067 -0.3672
23531WAT    EPW95931   7.254   8.365   8.487  0.1767 -0.1974  0.1411
23532WAT      O95932   1.689   8.923   2.369  0.2598  0.3775 -0.1786
23532WAT     H195933   1.644   8.964   2.442 -1.0336 -0.7985 -0.2784
23532WAT     H295934   1.749   8.860   2.409 -0.3165 -0.1342 -0.0975
23532WAT    EPW95935   1.691   8.920   2.384  0.0132  0.1550 -0.1811
23533WAT      O95936   3.442   3.190   0.669 -0.4537  0.0014  0.8797
23533WAT     H195937   3.413   3.281   0.678 -1.1065 -0.1951  0.8594
23533WAT     H295938   3.448   3.159   0.759 -1.4921 -0.3043  0.8636
23533WAT    EPW95939   3.439   3.198   0.682 -0.6769 -0.0648  0.8749
23534WAT      O95940   8.456   8.562   0.372 -0.1122  0.4436 -0.1692
23534WAT     H195941   8.531   8.502   0.369 -0.4854 -0.3606  2.8740
23534WAT     H295942   8.384   8.512   0.335  0.0049 -0.3199  0.5991
23534WAT    EPW95943   8.457   8.548   0.367 -0.1464  0.2375  0.3336
23535WAT      O95944   0.181   7.658   2.123  0.2380 -0.2074  0.7107
23535WAT     H195945   0.248   7.598   2.090  0.6601  0.5164  0.2240
23535WAT     H295946   0.223   7.703   2.196  0.8409  1.3079 -0.5026
23535WAT    EPW95947   0.196   7.656   2.128  0.3732  0.0877  0.4864
23536WAT      O95948   5.765   2.944   3.492 -0.2462 -0.0185 -0.6051
23536WAT     H195949   5.713   3.023   3.505 -0.8116 -0.4890 -0.0029
23536WAT     H295950   5.757   2.926   3.398  2.6656  2.5466 -1.5135
23536WAT    EPW95951   5.757   2.952   3.481  0.0634  0.2577 -0.6455
23537WAT      O95952   1.370   2.320   4.395  0.2279  0.0291 -0.5840
23537WAT     H195953   1.375   2.412   4.420  1.1549 -0.4987  1.2965
23537WAT     H295954   1.445   2.279   4.437 -1.4666 -2.0237  0.6823
23537WAT    EPW95955   1.380   2.327   4.404  0.1267 -0.3113 -0.1690
23538WAT      O95956   4.265   1.375   0.879 -0.4128  0.7131 -0.6477
23538WAT     H195957   4.246   1.304   0.941 -3.3615  2.1900  0.3062
23538WAT     H295958   4.358   1.364   0.859 -0.2565 -2.1541  1.0233
23538WAT    EPW95959   4.275   1.364   0.884 -0.7813  0.5297 -0.3015
23539WAT      O95960   2.230   8.249   2.040 -0.0909  0.0092 -0.1936
23539WAT     H195961   2.159   8.284   2.093  0.6487  2.1921 -0.5509
23539WAT     H295962   2.261   8.173   2.089  1.7852  2.8959  3.6904
23539WAT    EPW95963   2.225   8.244   2.053  0.2542  0.6776  0.2714
23540WAT      O95964   0.293   3.664   0.793  0.1551  0.6184  0.2889
23540WAT     H195965   0.265   3.726   0.726 -1.7093  0.2673  0.6908
23540WAT     H295966   0.358   3.712   0.845  0.8051  1.2622 -1.0709
23540WAT    EPW95967   0.298   3.678   0.791 -0.0051  0.6571  0.1625
23541WAT      O95968   1.868   0.976   4.738 -0.1789 -0.0576 -0.1616
23541WAT     H195969   1.921   0.934   4.805 -0.3589  1.0371  0.6950
23541WAT     H295970   1.790   1.006   4.785  1.5933  4.7334  0.2890
23541WAT    EPW95971   1.864   0.974   4.753  0.0311  0.7187  0.0107
23542WAT      O95972   1.910   3.232   3.557 -0.1045 -0.5567  0.1434
23542WAT     H195973   1.846   3.285   3.509 -1.0697 -1.7087  0.0895
23542WAT     H295974   1.981   3.219   3.495  0.1441  0.6344  0.1536
23542WAT    EPW95975   1.911   3.237   3.542 -0.1991 -0.5516  0.1377
23543WAT      O95976   3.411   2.998   3.485  0.0078 -0.3698  0.5848
23543WAT     H195977   3.505   3.013   3.482 -0.1907  1.5453  1.7460
23543WAT     H295978   3.384   2.996   3.394  1.1016 -0.4682  0.2472
23543WAT    EPW95979   3.420   3.000   3.473  0.1258 -0.1302  0.6933
23544WAT      O95980   4.243   1.541   3.829  0.0241 -0.1617 -0.3097
23544WAT     H195981   4.260   1.561   3.921  0.0550  0.2925 -0.4115
23544WAT     H295982   4.310   1.590   3.781  0.6822 -1.2342 -0.5271
23544WAT    EPW95983   4.254   1.550   3.834  0.1149 -0.2433 -0.3518
23545WAT      O95984   1.099   5.278   3.298  0.5453  0.0161 -0.1433
23545WAT     H195985   1.011   5.275   3.337 -0.6938 -1.2867 -2.7980
23545WAT     H295986   1.122   5.371   3.297 -0.7941  0.3826  0.5609
23545WAT    EPW95987   1.090   5.290   3.303  0.2053 -0.1073 -0.4005
23546WAT      O95988   3.618   6.458   2.361  0.5821  0.1933  0.0089
23546WAT     H195989   3.569   6.474   2.281  0.0284  1.3585  0.5514
23546WAT     H295990   3.706   6.492   2.342 -0.2807  3.1876  0.7641
23546WAT    EPW95991   3.623   6.465   2.348  0.3953  0.7417  0.1802
23547WAT      O95992   3.774   4.329   2.552 -0.2675 -0.3869  0.4116
23547WAT     H195993   3.756   4.378   2.633  0.9666  1.1191 -0.1729
23547WAT     H295994   3.829   4.257   2.580  0.1548  0.1252  0.9350
23547WAT    EPW95995   3.779   4.326   2.567 -0.0490 -0.1206  0.4036
23548WAT      O95996   0.993   2.024   0.798  0.0264 -0.2341 -0.6734
23548WAT     H195997   0.997   1.948   0.856  0.4156 -0.4263 -0.9486
23548WAT     H295998   0.975   2.098   0.857 -0.8174 -0.5949 -0.4601
23548WAT    EPW95999   0.991   2.024   0.813 -0.0336 -0.3071 -0.6816
23549WAT      O96000   1.360   7.154   0.785  0.3184  0.0346  1.0067
23549WAT     H196001   1.363   7.221   0.853  1.0590  0.8531  0.2120
23549WAT     H296002   1.276   7.168   0.741  0.7919  0.9664  0.3637
23549WAT    EPW96003   1.349   7.165   0.788  0.4786  0.2656  0.8171
23550WAT      O96004   1.811   7.888   0.388 -0.0462 -0.0973  1.0686
23550WAT     H196005   1.841   7.851   0.305 -1.3527  4.0494 -1.5492
23550WAT     H296006   1.886   7.938   0.420 -0.5534  1.0665  0.5006
23550WAT    EPW96007   1.825   7.890   0.381 -0.2854  0.6034  0.6484
23551WAT      O96008   4.660   5.855   2.438 -0.1739 -0.0146  0.5836
23551WAT     H196009   4.661   5.871   2.532 -1.0344 -0.0327  0.5949
23551WAT     H296010   4.675   5.942   2.399 -0.2709  0.0635  0.7231
23551WAT    EPW96011   4.662   5.868   2.445 -0.3002 -0.0069  0.6034
23552WAT      O96012   1.980   1.580   4.218 -1.0265  0.5090 -0.4637
23552WAT     H196013   1.973   1.517   4.147 -1.7165 -0.7523  0.6839
23552WAT     H296014   1.892   1.584   4.256 -0.6726  1.1278  0.3376
23552WAT    EPW96015   1.968   1.573   4.214 -1.0708  0.4242 -0.2065
23553WAT      O96016   4.112   4.966   3.893  0.3936 -0.1942 -0.3314
23553WAT     H196017   4.178   4.979   3.962 -1.6054  0.3595  1.6074
23553WAT     H296018   4.150   5.008   3.816  1.5589  1.7912  1.2028
23553WAT    EPW96019   4.126   4.973   3.892  0.2835  0.1411  0.1267
23554WAT      O96020   6.581   5.554   1.323  0.7561 -0.7705  0.1569
23554WAT     H196021   6.595   5.605   1.243  0.3204 -1.9308 -0.6962
23554WAT     H296022   6.620   5.606   1.393 -1.1991  1.5577 -0.3831
23554WAT    EPW96023   6.588   5.567   1.322  0.4408 -0.6163 -0.0269
23555WAT      O96024   4.902   3.698   2.494  0.2430  0.0547 -0.7589
23555WAT     H196025   4.944   3.783   2.487  2.1438 -0.7684  0.0531
23555WAT     H296026   4.877   3.676   2.404  2.1353  0.3246 -1.3897
23555WAT    EPW96027   4.904   3.706   2.481  0.7434 -0.0184 -0.7350
23556WAT      O96028   7.162   2.529   3.109 -0.0959 -0.1815  0.0612
23556WAT     H196029   7.151   2.624   3.102  2.7413  0.1627 -1.0699
23556WAT     H296030   7.214   2.517   3.189 -0.1849 -0.7822  0.0340
23556WAT    EPW96031   7.167   2.540   3.119  0.2663 -0.2154 -0.0914
23557WAT      O96032   3.057   3.669   2.051  0.4424  0.1560  0.3573
23557WAT     H196033   3.041   3.704   1.964  1.3022 -0.4403 -0.0602
23557WAT     H296034   3.062   3.574   2.038  1.0528  0.0943  0.9634
23557WAT    EPW96035   3.056   3.661   2.038  0.6366  0.0691  0.3822
23558WAT      O96036   5.382   3.548   3.705  0.9256  0.6940  0.2043
23558WAT     H196037   5.452   3.485   3.685  1.0817  0.9921 -0.2134
23558WAT     H296038   5.382   3.555   3.801  1.8198  1.0743  0.1895
23558WAT    EPW96039   5.392   3.541   3.715  1.0641  0.7834  0.1471
23559WAT      O96040   2.908   9.610   8.441  0.0900 -0.1715  0.0789
23559WAT     H196041   2.956   9.554   8.502 -1.3163 -0.6370  0.8041
23559WAT     H296042   2.946   9.591   8.355  0.0255 -1.8333  0.3882
23559WAT    EPW96043   2.919   9.600   8.438 -0.1040 -0.4520  0.2160
23560WAT      O96044   0.769   2.193   2.799 -0.0395  0.2893 -0.2745
23560WAT     H196045   0.699   2.203   2.736  0.1320 -0.3557 -0.5838
23560WAT     H296046   0.831   2.133   2.756  0.9622  1.2697 -0.2353
23560WAT    EPW96047   0.768   2.186   2.785  0.1152  0.3335 -0.3101
23561WAT      O96048   4.418   3.797   2.025 -0.4848 -0.3433  0.4794
23561WAT     H196049   4.506   3.767   2.003 -1.5830 -2.5597 -1.2290
23561WAT     H296050   4.396   3.859   1.955 -1.0421 -1.4177 -0.3214
23561WAT    EPW96051   4.427   3.801   2.013 -0.7033 -0.7771  0.1484
23562WAT      O96052   6.683   6.262   2.171 -0.0640  0.7069  0.3703
23562WAT     H196053   6.662   6.284   2.261 -0.3380  0.3906  0.3861
23562WAT     H296054   6.622   6.192   2.148 -0.2082  0.9968 -0.1609
23562WAT    EPW96055   6.672   6.255   2.180 -0.1190  0.7036  0.3023
23563WAT      O96056   5.432   3.713   2.436  1.0589 -0.2218 -0.4545
23563WAT     H196057   5.447   3.625   2.402  0.7324 -0.1808 -0.7043
23563WAT     H296058   5.337   3.723   2.437  1.1060  0.3464 -0.9923
23563WAT    EPW96059   5.422   3.703   2.432  1.0219 -0.1414 -0.5584
23564WAT      O96060   2.179   4.410   5.390  0.0236  0.4700  0.0621
23564WAT     H196061   2.197   4.389   5.482 -0.1448  2.6319  0.6504
23564WAT     H296062   2.118   4.341   5.362 -0.3879  0.0770  1.7502
23564WAT    EPW96063   2.173   4.398   5.399 -0.0529  0.7031  0.3622
23565WAT      O96064   4.039   3.638   1.785  0.1766 -0.3031  0.1605
23565WAT     H196065   4.023   3.547   1.810 -0.2144 -0.9369 -2.1592
23565WAT     H296066   3.952   3.673   1.767  0.0213  1.4186  3.4660
23565WAT    EPW96067   4.025   3.631   1.786  0.1044 -0.1596  0.2906
23566WAT      O96068   1.230   1.767   3.042  0.0645 -0.9528 -0.1752
23566WAT     H196069   1.243   1.799   3.132  1.3544 -3.4852  0.6507
23566WAT     H296070   1.309   1.715   3.024  0.2323  0.1321 -3.1389
23566WAT    EPW96071   1.242   1.765   3.052  0.2568 -1.1438 -0.4570
23567WAT      O96072   1.160   9.788   3.340  0.0684  0.7236  0.4607
23567WAT     H196073   1.100   9.772   3.267 -0.6490  1.8979  0.7624
23567WAT     H296074   1.246   9.795   3.299 -0.1015 -0.1962 -0.0759
23567WAT    EPW96075   1.163   9.787   3.325 -0.0487  0.7577  0.4296
23568WAT      O96076   4.349   6.355   2.189 -0.1342  0.2893  0.5410
23568WAT     H196077   4.349   6.286   2.254 -0.1194 -0.7304 -0.5058
23568WAT     H296078   4.431   6.402   2.203  1.6961 -2.1754 -1.0084
23568WAT    EPW96079   4.360   6.352   2.199  0.1090 -0.1705  0.1986
23569WAT      O96080   1.865   4.034   0.002  0.2004 -0.0507  0.4134
23569WAT     H196081   1.817   4.062  -0.076 -0.3777  0.7334  1.0282
23569WAT     H296082   1.847   3.941   0.009  2.2030 -0.7102 -1.7205
23569WAT    EPW96083   1.856   4.026  -0.007  0.3884 -0.0339  0.2127
23570WAT      O96084   2.435   4.620   1.344 -0.4340 -0.4747 -0.0126
23570WAT     H196085   2.497   4.547   1.341 -0.2043 -0.2946  0.3078
23570WAT     H296086   2.434   4.653   1.254  0.9608  0.3590  0.2374
23570WAT    EPW96087   2.443   4.615   1.331 -0.2197 -0.3409  0.0626
23571WAT      O96088   0.323   3.721   1.516  0.2140  0.0853  0.2504
23571WAT     H196089   0.378   3.649   1.546 -1.2359 -2.1469 -2.0213
23571WAT     H296090   0.272   3.746   1.593  0.9766 -1.1361  1.1832
23571WAT    EPW96091   0.323   3.715   1.530  0.1234 -0.3704  0.0738
23572WAT      O96092   3.759   7.029   4.189  0.4672  0.1848  0.4881
23572WAT     H196093   3.837   6.997   4.234  1.8279  0.1039 -1.7879
23572WAT     H296094   3.762   6.986   4.104 -1.8799  0.5017  0.1983
23572WAT    EPW96095   3.770   7.019   4.184  0.3371  0.2158  0.1495
23573WAT      O96096   4.710   5.185   3.605  0.4080  0.3303 -0.1859
23573WAT     H196097   4.714   5.142   3.520  1.8704  0.6182 -0.2837
23573WAT     H296098   4.793   5.231   3.613 -0.0658  1.0290  1.0271
23573WAT    EPW96099   4.721   5.185   3.595  0.5383  0.4601 -0.0389
23574WAT      O96100  10.306   2.132   3.670 -0.8808 -0.7476 -0.4218
23574WAT     H196101  10.304   2.043   3.637 -1.5675 -0.0384 -2.4458
23574WAT     H296102  10.281   2.186   3.595  2.4176  1.4331 -0.1690
23574WAT    EPW96103  10.302   2.128   3.656 -0.5364 -0.3666 -0.6554
23575WAT      O96104   4.367   4.965   1.712  0.1912  1.0875  0.4607
23575WAT     H196105   4.431   4.975   1.642 -0.3572 -2.3922 -0.7403
23575WAT     H296106   4.282   4.977   1.669 -0.1741  4.3175  1.7648
23575WAT    EPW96107   4.364   4.968   1.697  0.0703  1.0545  0.4742
23576WAT      O96108   1.554   4.775   4.634  0.2629 -0.3759  0.6862
23576WAT     H196109   1.567   4.680   4.633 -0.7269 -0.5339  1.0980
23576WAT     H296110   1.490   4.790   4.564 -0.8259 -0.2406  1.6719
23576WAT    EPW96111   1.547   4.764   4.625 -0.0112 -0.3788  0.8707
23577WAT      O96112   0.258   4.890   0.113 -0.3725  0.0820  0.2234
23577WAT     H196113   0.170   4.871   0.079  0.2657  1.4659 -2.5126
23577WAT     H296114   0.313   4.895   0.035  1.4931  2.4706  1.5532
23577WAT    EPW96115   0.253   4.888   0.098 -0.0423  0.5798  0.0379
23578WAT      O96116   3.009   2.313   1.205  0.0492  0.0740 -0.1404
23578WAT     H196117   2.976   2.248   1.268  1.5789 -0.4794  0.1379
23578WAT     H296118   2.972   2.285   1.121 -0.7549 -0.0992  0.2589
23578WAT    EPW96119   3.000   2.300   1.203  0.1450 -0.0218 -0.0511
23579WAT      O96120   5.422   2.760   5.216 -0.0975  0.3753 -0.2002
23579WAT     H196121   5.484   2.833   5.221  1.0462 -0.5705 -0.2482
23579WAT     H296122   5.398   2.755   5.123 -0.6393  1.0396 -0.1086
23579WAT    EPW96123   5.427   2.769   5.204 -0.0181  0.3382 -0.1941
23580WAT      O96124   5.737   2.780   3.708  0.2182 -0.4398 -0.4586
23580WAT     H196125   5.693   2.842   3.766  0.0264 -1.7964  0.9052
23580WAT     H296126   5.746   2.827   3.625  0.4889  1.5704  0.6468
23580WAT    EPW96127   5.733   2.794   3.704  0.2286 -0.3536 -0.1329
23581WAT      O96128   4.176   7.345   3.115  0.3398  0.0481  0.0495
23581WAT     H196129   4.199   7.406   3.184  0.7613  1.2346 -1.0880
23581WAT     H296130   4.255   7.337   3.062  0.3155 -1.5555  0.2028
23581WAT    EPW96131   4.189   7.352   3.117  0.3920 -0.0069 -0.0803
23582WAT      O96132   5.922   3.749   1.540 -0.0896 -0.4005  0.8511
23582WAT     H196133   6.006   3.766   1.497 -0.0538  3.3156  1.9743
23582WAT     H296134   5.857   3.759   1.470  0.2622 -4.3078 -0.2526
23582WAT    EPW96135   5.924   3.753   1.525 -0.0386 -0.4258  0.8537
23583WAT      O96136   3.557   3.453   6.111  0.1433  0.0237  0.4338
23583WAT     H196137   3.616   3.527   6.119 -1.2557  1.2633 -0.3029
23583WAT     H296138   3.546   3.440   6.017 -0.8467 -0.0894  0.5471
23583WAT    EPW96139   3.563   3.461   6.100 -0.1718  0.1723  0.3517
23584WAT      O96140   6.853   2.408   2.233  0.1091  0.1600  0.3351
23584WAT     H196141   6.787   2.441   2.294  0.1871 -1.2672  1.2495
23584WAT     H296142   6.803   2.386   2.154  0.0189  2.0841 -0.1745
23584WAT    EPW96143   6.838   2.409   2.231  0.1075  0.2255  0.3885
23585WAT      O96144   3.716   4.769   0.516 -0.6392  0.8134  0.0901
23585WAT     H196145   3.632   4.810   0.497  0.5197  1.9702 -3.0797
23585WAT     H296146   3.782   4.830   0.482  1.3722 -1.4915 -0.4440
23585WAT    EPW96147   3.714   4.782   0.509 -0.2210  0.6618 -0.3984
23586WAT      O96148   1.761   4.089   3.742 -0.1189 -0.5986  0.5103
23586WAT     H196149   1.708   4.045   3.808  1.7964 -1.5304  1.5147
23586WAT     H296150   1.840   4.116   3.789  0.0969  1.2169 -0.7968
23586WAT    EPW96151   1.764   4.087   3.757  0.1621 -0.4821  0.4704
23587WAT      O96152   4.508   4.761   3.181  0.7616  0.3868  0.1075
23587WAT     H196153   4.444   4.694   3.205 -0.3601  0.6606 -1.8336
23587WAT     H296154   4.577   4.712   3.136  1.1702  0.2571  0.8771
23587WAT    EPW96155   4.509   4.745   3.178  0.6676  0.4063 -0.0470
23588WAT      O96156  10.821   2.270   4.147  0.0668  0.2287 -0.0107
23588WAT     H196157  10.819   2.245   4.239 -1.8635 -1.0367 -0.3368
23588WAT     H296158  10.874   2.202   4.105 -1.6209 -1.0206 -0.2416
23588WAT    EPW96159  10.828   2.258   4.153 -0.4106 -0.1030 -0.0842
23589WAT      O96160   3.636   4.268   0.590  0.5638 -0.0505 -0.2219
23589WAT     H196161   3.666   4.325   0.519  0.0370  1.2605  0.5929
23589WAT     H296162   3.709   4.207   0.604  1.4353  0.8841 -0.6000
23589WAT    EPW96163   3.650   4.267   0.582  0.6093  0.2458 -0.1644
23590WAT      O96164   2.194   2.185   2.253  0.2062  0.1057 -0.7123
23590WAT     H196165   2.289   2.192   2.251  0.1695  1.0958  0.3336
23590WAT     H296166   2.173   2.123   2.183  1.7195 -1.4657  0.1583
23590WAT    EPW96167   2.203   2.178   2.243  0.4009  0.0292 -0.4597
23591WAT      O96168   3.491   5.102   2.223  0.0080  0.5586  0.0750
23591WAT     H196169   3.483   5.161   2.149  0.8939 -0.5020 -0.9208
23591WAT     H296170   3.423   5.036   2.209  2.4148 -1.7356 -1.9138
23591WAT    EPW96171   3.481   5.101   2.212  0.4424  0.1163 -0.3185
23592WAT      O96172   8.802   2.283   8.768  0.3609 -0.0591  0.5605
23592WAT     H196173   8.866   2.297   8.837  0.1667 -2.5370  1.3631
23592WAT     H296174   8.840   2.325   8.691  1.8363  0.5102  1.5576
23592WAT    EPW96175   8.815   2.290   8.767  0.5302 -0.3109  0.7982
23593WAT      O96176   3.193   5.123   2.236  0.2029  0.3950 -0.2669
23593WAT     H196177   3.165   5.085   2.320  3.8549 -1.4657  0.3387
23593WAT     H296178   3.268   5.179   2.259  0.5807  0.7174 -2.1598
23593WAT    EPW96179   3.200   5.125   2.250  0.7343  0.1919 -0.4367
23594WAT      O96180   6.297   8.204   2.941  0.0643  0.3969  0.2365
23594WAT     H196181   6.252   8.272   2.890 -0.2409  0.9115  1.1750
23594WAT     H296182   6.341   8.150   2.875  0.1780  1.4102 -0.5383
23594WAT    EPW96183   6.297   8.206   2.926  0.0391  0.5984  0.2581
23595WAT      O96184   4.590   6.255   3.308  0.3533 -0.0392  0.6573
23595WAT     H196185   4.636   6.314   3.368 -0.5608 -0.2334  1.5742
23595WAT     H296186   4.499   6.285   3.309  0.1085 -0.7397  0.2359
23595WAT    EPW96187   4.584   6.266   3.316  0.2005 -0.1574  0.7226
23596WAT      O96188   5.600   8.635   7.555  0.7622  0.6862 -0.0737
23596WAT     H196189   5.583   8.713   7.502  1.0124  0.1382 -0.9771
23596WAT     H296190   5.522   8.626   7.610  1.4741  2.6050  1.3779
23596WAT    EPW96191   5.588   8.644   7.556  0.8893  0.8664 -0.0014
23597WAT      O96192   4.200   4.671   4.503  0.7299 -0.0895 -0.4789
23597WAT     H196193   4.266   4.603   4.515  0.3647 -0.5930 -1.2649
23597WAT     H296194   4.244   4.751   4.531  0.6560 -0.8159  2.0203
23597WAT    EPW96195   4.215   4.673   4.508  0.6719 -0.2518 -0.2527
23598WAT      O96196   5.625   3.597   0.497  0.1382 -0.7844  0.1082
23598WAT     H196197   5.622   3.615   0.403 -1.7353 -0.5154  0.1856
23598WAT     H296198   5.617   3.502   0.504 -1.2088 -0.6930  0.0155
23598WAT    EPW96199   5.624   3.587   0.486 -0.2863 -0.7368  0.1062
23599WAT      O96200   3.247   2.819   3.811 -1.0373 -0.2472  0.4820
23599WAT     H196201   3.203   2.735   3.823  0.7408 -1.5680 -1.4758
23599WAT     H296202   3.333   2.808   3.853 -0.2926  0.0960 -0.8726
23599WAT    EPW96203   3.253   2.807   3.818 -0.7045 -0.3761  0.0451
23600WAT      O96204   2.544   5.282   0.112 -0.5254 -0.4853 -0.8065
23600WAT     H196205   2.501   5.201   0.086  0.1187 -0.6232 -1.4734
23600WAT     H296206   2.602   5.303   0.040 -0.4897  0.4394 -0.5279
23600WAT    EPW96207   2.546   5.274   0.099 -0.4356 -0.3815 -0.8577
23601WAT      O96208   8.062   2.843   2.360  0.3291 -0.1186 -0.0641
23601WAT     H196209   8.155   2.825   2.348  0.1478  0.1344 -2.1618
23601WAT     H296210   8.059   2.903   2.435  1.5577 -2.4254  1.9638
23601WAT    EPW96211   8.074   2.848   2.368  0.4673 -0.3896 -0.0733
23602WAT      O96212   5.028   5.636   3.053  0.6256  0.7315  0.1072
23602WAT     H196213   5.105   5.604   3.100  0.1223  0.4000  0.7258
23602WAT     H296214   5.003   5.716   3.100 -0.2316  0.0806  0.7977
23602WAT    EPW96215   5.035   5.643   3.066  0.4463  0.6018  0.2798
23603WAT      O96216   4.475   2.936   0.323 -0.1731  0.1517 -0.3311
23603WAT     H196217   4.428   2.901   0.399 -2.1377  2.1565 -0.5267
23603WAT     H296218   4.465   2.868   0.256  2.5388 -2.1591  1.3909
23603WAT    EPW96219   4.467   2.922   0.324 -0.0744  0.1115 -0.1298
23604WAT      O96220   4.655   2.965   3.190  0.2453  0.0456  0.5387
23604WAT     H196221   4.593   2.896   3.215  0.8434 -1.1048 -1.0466
23604WAT     H296222   4.618   3.002   3.110  1.0074  0.1387  0.2226
23604WAT    EPW96223   4.642   2.961   3.183  0.4246 -0.0937  0.2880
23605WAT      O96224   2.681   2.394   4.281  0.5710 -0.1669  0.9289
23605WAT     H196225   2.751   2.335   4.254 -0.5641 -1.3145  0.3899
23605WAT     H296226   2.601   2.350   4.254 -0.3957  0.8897  1.9660
23605WAT    EPW96227   2.680   2.381   4.274  0.2937 -0.1791  0.9947
23606WAT      O96228   8.260   5.890   3.717 -0.1485  0.0884 -0.2017
23606WAT     H196229   8.170   5.911   3.743  0.3017  0.3565  1.2175
23606WAT     H296230   8.251   5.847   3.632 -1.9988 -3.7519  1.6909
23606WAT    EPW96231   8.247   5.887   3.709 -0.3333 -0.3827  0.2352
23607WAT      O96232   5.650   3.038   1.024 -0.3444  0.0561 -0.9329
23607WAT     H196233   5.630   3.103   1.091 -0.2209  2.9263 -3.4489
23607WAT     H296234   5.720   3.078   0.971  1.0022 -2.9358 -1.6202
23607WAT    EPW96235   5.656   3.052   1.026 -0.1502  0.0399 -1.3554
23608WAT      O96236   7.494   2.884   3.963  0.3288  0.2014  0.2813
23608WAT     H196237   7.567   2.822   3.970 -0.3891 -0.8960 -1.2706
23608WAT     H296238   7.449   2.858   3.883 -0.3885  2.3507 -0.0752
23608WAT    EPW96239   7.498   2.872   3.953  0.1395  0.3401  0.0298
23609WAT      O96240   4.823   3.640   3.659 -0.2199 -0.8058 -0.0845
23609WAT     H196241   4.914   3.649   3.686 -0.3598 -1.6527  0.7042
23609WAT     H296242   4.796   3.729   3.635  0.5172 -0.3891  0.6212
23609WAT    EPW96243   4.831   3.653   3.659 -0.1411 -0.8626  0.1127
23610WAT      O96244   8.797   3.877   0.603 -0.4822 -0.2989 -0.5413
23610WAT     H196245   8.827   3.934   0.674  0.2850 -1.8390  0.4227
23610WAT     H296246   8.825   3.922   0.523 -0.0757  0.7593  0.1696
23610WAT    EPW96247   8.804   3.891   0.602 -0.3281 -0.3625 -0.3204
23611WAT      O96248   1.172   4.305   0.542 -0.5541 -0.5856  0.0510
23611WAT     H196249   1.267   4.296   0.535 -0.7121 -1.4503 -1.2182
23611WAT     H296250   1.146   4.352   0.463 -1.4123 -2.4279 -0.8272
23611WAT    EPW96251   1.181   4.310   0.531 -0.6881 -0.9425 -0.2322
23612WAT      O96252   2.641   4.845   2.034  0.2033  0.0582 -0.0088
23612WAT     H196253   2.563   4.828   2.086  0.6782 -0.4053  0.5640
23612WAT     H296254   2.612   4.906   1.966 -0.7233 -0.3677 -0.0001
23612WAT    EPW96255   2.627   4.851   2.032  0.1436 -0.0594  0.0678
23613WAT      O96256   3.556   5.947   4.561  0.1827  0.0124 -0.6291
23613WAT     H196257   3.587   5.857   4.563  1.1053  0.3355  0.2716
23613WAT     H296258   3.619   5.993   4.506  0.7757  0.4776  0.4229
23613WAT    EPW96259   3.568   5.941   4.554  0.3827  0.1161 -0.3717
23614WAT      O96260   4.329   5.367   4.491  0.2868 -0.0213  0.2689
23614WAT     H196261   4.280   5.317   4.425 -0.4259  0.0264  0.7558
23614WAT     H296262   4.400   5.408   4.441 -1.2313  1.4304 -0.8109
23614WAT    EPW96263   4.332   5.366   4.476 -0.0074  0.1762  0.1907
23615WAT      O96264   1.670   1.890   1.954  0.8161  0.7495 -0.1040
23615WAT     H196265   1.655   1.955   2.022 -1.1827 -0.8115  1.0545
23615WAT     H296266   1.679   1.942   1.874  0.0679  2.4928  0.8734
23615WAT    EPW96267   1.669   1.906   1.952  0.4538  0.7735  0.1777
23616WAT      O96268   2.684   2.250   0.132  0.1156 -0.0708  0.4022
23616WAT     H196269   2.615   2.223   0.193 -1.6752  0.8056 -1.1339
23616WAT     H296270   2.678   2.345   0.129  2.1851  0.1329  1.0476
23616WAT    EPW96271   2.674   2.259   0.139  0.1523  0.0718  0.2848
23617WAT      O96272   0.315   4.218   2.999  0.0202  0.2991 -0.0795
23617WAT     H196273   0.328   4.138   3.050  0.3216 -0.1602 -0.8566
23617WAT     H296274   0.330   4.289   3.060  0.1910 -0.2414  0.5113
23617WAT    EPW96275   0.319   4.217   3.014  0.0825  0.1674 -0.1043
23618WAT      O96276   5.933   5.110   3.713 -0.2716 -0.1763  0.3764
23618WAT     H196277   5.946   5.104   3.808  1.9447 -4.0646  0.0412
23618WAT     H296278   6.013   5.152   3.681 -1.3644  1.8911  0.1584
23618WAT    EPW96279   5.945   5.115   3.722 -0.1233 -0.4165  0.3035
23619WAT      O96280   1.455   3.558   2.513 -0.3829  0.4949  0.1508
23619WAT     H196281   1.449   3.633   2.454 -2.8570  1.1823  1.1208
23619WAT     H296282   1.478   3.596   2.598 -0.6855  0.0336  0.4427
23619WAT    EPW96283   1.457   3.573   2.517 -0.7492  0.5246  0.3173
23620WAT      O96284   6.280   8.086   8.580 -0.0599  0.3175  0.3994
23620WAT     H196285   6.258   8.038   8.500 -0.0563  0.0310  0.5679
23620WAT     H296286   6.280   8.019   8.649 -3.7055  1.0521  1.3477
23620WAT    EPW96287   6.277   8.071   8.579 -0.5405  0.3767  0.5469
23621WAT      O96288   4.221   4.701   0.164  1.2700  0.9132 -0.2882
23621WAT     H196289   4.126   4.707   0.150  1.1198  1.7726  0.9240
23621WAT     H296290   4.254   4.654   0.087 -0.2362 -0.1133 -0.3425
23621WAT    EPW96291   4.213   4.695   0.152  1.0512  0.8912 -0.1354
23622WAT      O96292   4.969   4.575   3.514 -0.2052 -0.4900 -0.3477
23622WAT     H196293   4.962   4.646   3.450  0.0454  0.3863  0.5867
23622WAT     H296294   5.060   4.545   3.506 -0.8998 -2.3131 -2.3869
23622WAT    EPW96295   4.980   4.580   3.504 -0.2635 -0.6149 -0.4935
23623WAT      O96296   7.355   2.057   1.583  0.3872 -0.2156  0.3038
23623WAT     H196297   7.298   2.123   1.544  1.9045  1.3598  0.6503
23623WAT     H296298   7.370   1.994   1.512  0.2233  0.6938 -0.5593
23623WAT    EPW96299   7.349   2.057   1.568  0.5655  0.1121  0.2356
23624WAT      O96300   3.206   7.811   2.985 -0.1319 -0.7234 -0.0016
23624WAT     H196301   3.237   7.749   2.919  0.6462 -1.4318  0.9960
23624WAT     H296302   3.136   7.859   2.942  0.0040 -1.5323 -1.1628
23624WAT    EPW96303   3.201   7.810   2.970 -0.0114 -0.9234 -0.0232
23625WAT      O96304   4.967   6.285   5.647  0.6622 -0.4945  0.4590
23625WAT     H196305   4.904   6.341   5.694  1.6648  0.0679  1.1637
23625WAT     H296306   4.983   6.332   5.565 -0.3693 -1.0062 -0.0618
23625WAT    EPW96307   4.961   6.299   5.643  0.6583 -0.4880  0.4833
23626WAT      O96308   9.208   0.966   8.248  0.3727 -0.2092 -0.1654
23626WAT     H196309   9.113   0.968   8.237  0.4713  1.5356 -1.0010
23626WAT     H296310   9.231   1.054   8.276  1.5273 -1.2181  2.3756
23626WAT    EPW96311   9.199   0.978   8.250  0.5374 -0.1121  0.0596
23627WAT      O96312   3.709   4.103   0.067  0.2071  0.5372  0.2237
23627WAT     H196313   3.741   4.049   0.139  0.7247 -1.0222 -1.1054
23627WAT     H296314   3.788   4.122   0.015 -0.4592 -0.4177 -1.2141
23627WAT    EPW96315   3.724   4.098   0.070  0.1876  0.2053 -0.1412
23628WAT      O96316   3.899   3.953   2.832  0.2735  0.3096 -0.5367
23628WAT     H196317   3.839   3.903   2.888 -1.9590 -1.2746 -3.9847
23628WAT     H296318   3.969   3.891   2.812 -0.2937 -0.0294 -1.5023
23628WAT    EPW96319   3.900   3.938   2.837 -0.0957  0.0560 -1.1189
23629WAT      O96320   3.005   4.567   0.674 -0.6785 -0.2859 -0.1986
23629WAT     H196321   2.917   4.560   0.711  0.1382  1.5968  2.4386
23629WAT     H296322   3.043   4.643   0.718  2.3971 -1.2234 -0.9853
23629WAT    EPW96323   2.998   4.576   0.685 -0.1651 -0.1612  0.0454
23630WAT      O96324   3.891   2.336   4.024 -0.3402  0.7211 -0.0445
23630WAT     H196325   3.858   2.270   3.963  0.4518  0.8729 -0.6648
23630WAT     H296326   3.840   2.323   4.103 -0.8406 -0.0203 -0.4711
23630WAT    EPW96327   3.880   2.326   4.026 -0.3018  0.6434 -0.1826
23631WAT      O96328   3.781   2.603   5.947  0.1253 -0.5064  1.1181
23631WAT     H196329   3.813   2.532   6.001  0.6855  1.0607  2.9482
23631WAT     H296330   3.730   2.658   6.007  0.7408  1.2826  0.0805
23631WAT    EPW96331   3.778   2.601   5.962  0.2804 -0.0638  1.2226
23632WAT      O96332   1.554   4.633   5.532 -0.0554  0.1134 -0.1185
23632WAT     H196333   1.545   4.540   5.554 -1.5151  0.0862 -0.7272
23632WAT     H296334   1.465   4.667   5.538  0.7426  2.0128  2.3139
23632WAT    EPW96335   1.541   4.625   5.535 -0.1427  0.3605  0.1223
23633WAT      O96336   1.018   4.400   0.337  0.0772  0.1094  0.0906
23633WAT     H196337   0.956   4.473   0.330 -1.2577 -0.9702  0.3056
23633WAT     H296338   0.963   4.322   0.339  1.4854 -0.9238 -0.2372
23633WAT    EPW96339   1.003   4.400   0.337  0.0869 -0.1690  0.0757
23634WAT      O96340   6.090   3.592   3.693  0.1437  0.0443 -0.1288
23634WAT     H196341   6.023   3.657   3.714 -0.7338 -0.9517  0.2829
23634WAT     H296342   6.048   3.536   3.628  0.9961  0.0684 -0.7053
23634WAT    EPW96343   6.075   3.593   3.687  0.1404 -0.0839 -0.1506
23635WAT      O96344   2.104   2.287   1.952 -0.7324  0.1568 -0.5448
23635WAT     H196345   2.032   2.227   1.971 -2.5431  1.9243 -1.4073
23635WAT     H296346   2.163   2.237   1.897 -0.9969 -1.5218  0.6151
23635WAT    EPW96347   2.102   2.273   1.948 -1.0060  0.1686 -0.5055
23636WAT      O96348   2.227   3.471   1.541  0.1833 -0.2957  0.0073
23636WAT     H196349   2.136   3.500   1.536 -0.0087 -0.9327 -0.2177
23636WAT     H296350   2.278   3.553   1.539 -0.3445  0.0312 -0.6917
23636WAT    EPW96351   2.222   3.486   1.540  0.0883 -0.3365 -0.1146
23637WAT      O96352   0.498   4.622   0.685 -0.3164  0.1941 -0.6871
23637WAT     H196353   0.459   4.544   0.645 -2.3584  1.3093 -0.9835
23637WAT     H296354   0.562   4.653   0.620  0.3622 -1.0597 -0.6620
23637WAT    EPW96355   0.502   4.615   0.671 -0.4962  0.1760 -0.7229
23638WAT      O96356   4.712   7.474   1.030  0.0052 -0.9059 -0.4271
23638WAT     H196357   4.652   7.400   1.038  1.5706 -2.0820  1.1770
23638WAT     H296358   4.705   7.519   1.114 -0.1677  0.1951 -1.0137
23638WAT    EPW96359   4.703   7.470   1.042  0.1891 -0.9158 -0.2929
23639WAT      O96360   2.041   3.096   3.304 -0.4191 -0.6251 -0.3978
23639WAT     H196361   2.067   3.008   3.334 -0.8104 -0.5679  0.1164
23639WAT     H296362   1.953   3.083   3.268 -0.6424 -0.3663  0.0548
23639WAT    EPW96363   2.033   3.082   3.303 -0.5002 -0.5833 -0.2702
23640WAT      O96364   2.328   2.057   3.594 -0.2362  0.2824  0.0723
23640WAT     H196365   2.402   2.054   3.534 -0.9600  1.6699 -0.9318
23640WAT     H296366   2.325   1.969   3.633  0.8263 -0.3487 -1.2000
23640WAT    EPW96367   2.337   2.045   3.592 -0.1915  0.3822 -0.2280
23641WAT      O96368   6.273   1.934   2.252  0.4380 -0.3685 -0.6255
23641WAT     H196369   6.293   2.027   2.239 -1.7494  0.0451 -1.3937
23641WAT     H296370   6.348   1.901   2.301  1.9247  1.4838 -1.4737
23641WAT    EPW96371   6.286   1.942   2.256  0.3455 -0.0697 -0.8386
23642WAT      O96372   7.162   7.426   8.707  0.0006  0.4978  0.3612
23642WAT     H196373   7.179   7.335   8.730 -0.4014  0.1125 -0.7996
23642WAT     H296374   7.150   7.470   8.791  2.5229 -0.0224  1.0925
23642WAT    EPW96375   7.163   7.420   8.721  0.2801  0.3781  0.3037
23643WAT      O96376   1.987   4.975   3.956  0.5553  0.1541 -0.2180
23643WAT     H196377   2.027   4.959   4.042  0.2116 -1.5940 -0.3462
23643WAT     H296378   1.917   4.911   3.950 -0.1965  1.0493 -1.3361
23643WAT    EPW96379   1.983   4.965   3.967  0.4109  0.0417 -0.3823
23644WAT      O96380   5.134   6.299   3.397  0.1711  0.3800 -0.4587
23644WAT     H196381   5.186   6.373   3.428  0.3955 -0.3472  1.0237
23644WAT     H296382   5.186   6.261   3.326 -0.6543  2.4696 -2.2853
23644WAT    EPW96383   5.148   6.304   3.392  0.0918  0.5596 -0.5041
23645WAT      O96384   1.797   5.624   4.676 -0.3248  1.1731  0.5333
23645WAT     H196385   1.841   5.702   4.709  0.3014  0.7287  0.7561
23645WAT     H296386   1.720   5.658   4.630  0.9975  2.0602 -1.1297
23645WAT    EPW96387   1.792   5.639   4.675 -0.0678  1.2317  0.3436
23646WAT      O96388   5.351   2.220   4.939 -0.1151 -0.0440 -0.4961
23646WAT     H196389   5.296   2.268   4.876 -0.1759  0.4514 -0.0705
23646WAT     H296390   5.318   2.247   5.024 -2.6494 -3.5963 -0.1375
23646WAT    EPW96391   5.339   2.230   4.942 -0.4573 -0.4472 -0.3929
23647WAT      O96392   4.020   5.433   2.063 -0.1225 -0.4079 -0.3009
23647WAT     H196393   3.940   5.481   2.083 -0.2135 -1.0432  0.9380
23647WAT     H296394   4.023   5.430   1.967 -1.0407  0.4968 -0.3711
23647WAT    EPW96395   4.010   5.439   2.053 -0.2558 -0.3724 -0.1466
23648WAT      O96396   0.113   3.108   2.659  0.2228  0.2866 -0.0059
23648WAT     H196397   0.083   3.034   2.712 -7.0730  1.3509 -1.5980
23648WAT     H296398   0.112   3.074   2.569  1.5288  1.2590 -0.4143
23648WAT    EPW96399   0.109   3.093   2.654 -0.5672  0.5552 -0.2698
23649WAT      O96400   7.192   3.253   2.375  0.0604  0.5911  0.3939
23649WAT     H196401   7.269   3.211   2.413  0.0193  1.2503  1.2356
23649WAT     H296402   7.202   3.346   2.398 -0.7371  0.7588  0.0860
23649WAT    EPW96403   7.204   3.260   2.383 -0.0501  0.7000  0.4643
23650WAT      O96404   5.586   7.045   3.934 -0.2240 -0.6735 -0.1617
23650WAT     H196405   5.576   7.036   3.839 -0.7777  0.2187 -0.1907
23650WAT     H296406   5.580   7.139   3.950  1.9202 -0.5869  0.5308
23650WAT    EPW96407   5.584   7.056   3.924 -0.0141 -0.5445 -0.0741
23651WAT      O96408   1.730   2.298   4.195 -0.5221 -0.4474  0.7881
23651WAT     H196409   1.789   2.338   4.131 -0.0052 -1.1294  0.8341
23651WAT     H296410   1.646   2.294   4.150 -0.1774 -0.8779  0.1586
23651WAT    EPW96411   1.727   2.303   4.180 -0.4085 -0.5941  0.7112
23652WAT      O96412   1.183   3.515   2.607 -0.3385  0.3179 -0.4235
23652WAT     H196413   1.172   3.512   2.512 -0.5468 -0.2139 -0.3912
23652WAT     H296414   1.276   3.497   2.622 -0.1031  1.3768 -0.5624
23652WAT    EPW96415   1.194   3.512   2.596 -0.3349  0.3877 -0.4375
23653WAT      O96416   2.632   6.161   1.630  0.3658  1.0663 -0.4350
23653WAT     H196417   2.682   6.237   1.601  0.5695  1.4182  0.7774
23653WAT     H296418   2.572   6.142   1.558  0.1752  2.5028 -0.6717
23653WAT    EPW96419   2.631   6.168   1.617  0.3675  1.3022 -0.3063
23654WAT      O96420   1.834   4.513   2.468 -0.9514  0.3206 -0.1065
23654WAT     H196421   1.827   4.525   2.373  1.6006 -0.4412 -0.4704
23654WAT     H296422   1.880   4.430   2.478  1.6129  1.8138  1.6597
23654WAT    EPW96423   1.839   4.504   2.457 -0.2766  0.4172  0.0784
23655WAT      O96424   4.288   0.691   8.571  0.2153  0.3738 -0.1204
23655WAT     H196425   4.248   0.604   8.574  0.4974  0.2482  0.0922
23655WAT     H296426   4.242   0.737   8.501  0.7170 -0.2656 -0.8813
23655WAT    EPW96427   4.277   0.686   8.562  0.3190  0.2729 -0.1926
23656WAT      O96428   8.111   5.897   4.158 -0.1876 -0.0305 -0.9598
23656WAT     H196429   8.201   5.867   4.140  0.0423  0.1166 -0.0744
23656WAT     H296430   8.093   5.960   4.089  0.5876  0.3305 -0.8397
23656WAT    EPW96431   8.121   5.901   4.146 -0.0548  0.0367 -0.8273
23657WAT      O96432   0.476   3.704   3.609 -0.5249  0.3202 -0.0898
23657WAT     H196433   0.420   3.720   3.684  0.0543  2.3021 -0.0086
23657WAT     H296434   0.416   3.678   3.539 -1.2705  0.2246  0.5728
23657WAT    EPW96435   0.461   3.703   3.610 -0.5469  0.5691  0.0083
23658WAT      O96436   0.708   5.446   1.243 -0.2510 -0.2748  0.0017
23658WAT     H196437   0.714   5.354   1.271  1.3959 -0.6291 -1.3380
23658WAT     H296438   0.799   5.475   1.237 -0.7333  1.3806  0.1090
23658WAT    EPW96439   0.721   5.438   1.246 -0.0974 -0.1032 -0.1609
23659WAT      O96440   2.773   9.475   5.141  0.2226  0.6119  0.7333
23659WAT     H196441   2.749   9.497   5.051  1.1720  1.0262  0.5772
23659WAT     H296442   2.792   9.381   5.138 -0.0158  0.5668  0.5645
23659WAT    EPW96443   2.772   9.466   5.128  0.3163  0.6609  0.6902
23660WAT      O96444   1.570   4.480   2.565  0.1131 -0.0340 -0.2229
23660WAT     H196445   1.659   4.503   2.538  0.4143  0.0374  0.7649
23660WAT     H296446   1.530   4.563   2.588 -0.0946 -0.1017 -0.3419
23660WAT    EPW96447   1.576   4.494   2.565  0.1255 -0.0336 -0.1082
23661WAT      O96448   4.569   4.374   2.969 -0.3168  0.5731  0.0360
23661WAT     H196449   4.623   4.353   2.893  0.5214  4.7359 -0.7823
23661WAT     H296450   4.625   4.358   3.044  0.2528  0.1589 -0.4709
23661WAT    EPW96451   4.583   4.369   2.969 -0.1314  1.0674 -0.1388
23662WAT      O96452   2.587   6.269   4.339 -0.2856  0.2023  0.5717
23662WAT     H196453   2.558   6.229   4.421 -3.1637  1.3341  0.1968
23662WAT     H296454   2.652   6.334   4.366 -0.4954 -0.0990  1.8580
23662WAT    EPW96455   2.592   6.272   4.354 -0.6928  0.3119  0.6919
23663WAT      O96456   3.781   2.495   2.482 -0.1488  0.1816 -0.4448
23663WAT     H196457   3.712   2.432   2.504  0.6386 -0.0121  1.6077
23663WAT     H296458   3.840   2.494   2.556  3.1866 -1.0667 -2.8876
23663WAT    EPW96459   3.779   2.487   2.494  0.3949 -0.0086 -0.4964
23664WAT      O96460   3.678   3.760   2.701 -0.5664  0.1928 -0.1189
23664WAT     H196461   3.653   3.802   2.784  0.2996  1.2505 -0.3724
23664WAT     H296462   3.595   3.751   2.653 -1.1243 -0.6694  0.9391
23664WAT    EPW96463   3.663   3.764   2.706 -0.5257  0.2185 -0.0129
23665WAT      O96464   5.152   2.996   0.085  0.2167 -0.5489  0.3516
23665WAT     H196465   5.145   3.041   0.170  0.0209  0.9503 -0.4277
23665WAT     H296466   5.061   2.981   0.059  0.2737 -0.8146  0.3085
23665WAT    EPW96467   5.139   3.000   0.093  0.1981 -0.3861  0.2432
23666WAT      O96468   2.405   7.353   3.068 -0.6012 -0.8189 -0.3980
23666WAT     H196469   2.337   7.373   3.133 -0.8012 -1.8721 -0.2704
23666WAT     H296470   2.362   7.366   2.984 -0.6130 -0.3455 -0.3213
23666WAT    EPW96471   2.391   7.357   3.066 -0.6291 -0.8955 -0.3710
23667WAT      O96472   1.501   0.422   8.585 -0.2985  0.3601 -0.3469
23667WAT     H196473   1.482   0.413   8.679  1.6346 -0.3872  0.0147
23667WAT     H296474   1.481   0.513   8.566 -2.0137  0.1987  0.4540
23667WAT    EPW96475   1.496   0.433   8.595 -0.2698  0.2403 -0.1936
23668WAT      O96476   3.880   2.860   0.695  0.6913  0.5912  0.3257
23668WAT     H196477   3.796   2.872   0.649  1.1568 -1.1966 -1.1069
23668WAT     H296478   3.857   2.866   0.787 -0.5002  3.0030 -0.0394
23668WAT    EPW96479   3.866   2.862   0.701  0.5956  0.6733  0.0886
23669WAT      O96480   3.968   5.358   3.913 -0.8225 -0.0995 -0.0749
23669WAT     H196481   4.058   5.389   3.916 -0.8423  0.0028 -0.5098
23669WAT     H296482   3.915   5.435   3.931 -0.7988 -0.3368  1.0765
23669WAT    EPW96483   3.973   5.372   3.915 -0.8221 -0.1173  0.0196
23670WAT      O96484   6.015   1.196   3.339 -0.7989 -0.6236  0.5353
23670WAT     H196485   5.967   1.163   3.263  2.6563  0.0431 -2.1908
23670WAT     H296486   6.031   1.288   3.319  2.2829 -1.0055  0.7616
23670WAT    EPW96487   6.011   1.204   3.327  0.0632 -0.5860  0.2056
23671WAT      O96488   8.036   3.321   2.588  0.2092 -0.1039 -0.0140
23671WAT     H196489   8.033   3.327   2.493  0.4440 -2.0932 -0.1914
23671WAT     H296490   7.945   3.329   2.616  0.2701  2.0318 -0.2236
23671WAT    EPW96491   8.024   3.323   2.579  0.2484 -0.0846 -0.0651
23672WAT      O96492   4.788   4.137   1.275  0.0964 -0.2060 -0.6946
23672WAT     H196493   4.869   4.186   1.287  0.5559 -1.5306  2.5178
23672WAT     H296494   4.721   4.204   1.263  1.5508  0.9221 -3.4316
23672WAT    EPW96495   4.790   4.152   1.275  0.3488 -0.2320 -0.6319
23673WAT      O96496   5.103   3.314   2.794 -0.2634 -0.4610 -0.2419
23673WAT     H196497   5.136   3.353   2.875  0.0176  0.8324 -0.9455
23673WAT     H296498   5.030   3.371   2.768 -1.0863 -1.5111 -0.3222
23673WAT    EPW96499   5.098   3.327   2.801 -0.3347 -0.4290 -0.3453
23674WAT      O96500   3.999   5.046   2.947 -0.2983 -0.0387 -0.4801
23674WAT     H196501   3.910   5.049   2.912 -0.2904 -0.5661 -0.5650
23674WAT     H296502   3.997   4.975   3.011 -0.2773  0.8390  0.5184
23674WAT    EPW96503   3.987   5.037   2.951 -0.2943  0.0074 -0.3597
23675WAT      O96504   2.318   3.762   1.571 -0.0193 -0.1446 -0.1388
23675WAT     H196505   2.276   3.805   1.645 -1.3367 -0.8811 -0.4294
23675WAT     H296506   2.300   3.820   1.496  1.1765  0.5191  0.0509
23675WAT    EPW96507   2.310   3.776   1.571 -0.0354 -0.1543 -0.1521
23676WAT      O96508   3.703   4.831   1.899  0.6291 -0.8019  0.5987
23676WAT     H196509   3.673   4.915   1.864  0.7039 -0.6572  0.8809
23676WAT     H296510   3.740   4.785   1.824  1.7793 -0.0556  0.6896
23676WAT    EPW96511   3.704   4.836   1.885  0.7907 -0.6843  0.6479
23677WAT      O96512   4.412   2.018   2.240  0.0396  0.7707  0.1704
23677WAT     H196513   4.452   1.935   2.268 -0.8509  0.6790  1.2416
23677WAT     H296514   4.330   1.991   2.198  0.3315  1.0511 -0.5980
23677WAT    EPW96515   4.406   2.003   2.238 -0.0393  0.7956  0.2104
23678WAT      O96516   7.783   1.879   4.497  0.0769  0.6593  0.6317
23678WAT     H196517   7.845   1.950   4.482  0.8407 -0.0562  0.3639
23678WAT     H296518   7.800   1.816   4.427 -1.2250  0.6331  0.3177
23678WAT    EPW96519   7.793   1.880   4.486  0.0060  0.5615  0.5548
23679WAT      O96520   2.661   1.841   2.007 -0.0507  0.4325  0.3265
23679WAT     H196521   2.667   1.886   1.923  2.8327 -0.4036 -0.0199
23679WAT     H296522   2.746   1.856   2.049 -1.1188  0.1528  2.7687
23679WAT    EPW96523   2.673   1.849   2.002  0.1888  0.2853  0.6027
23680WAT      O96524   2.290   5.003   3.089 -0.6766  0.3891  0.1007
23680WAT     H196525   2.271   5.088   3.050 -1.1755 -0.4019 -1.4700
23680WAT     H296526   2.260   5.011   3.179 -0.0905  2.0773  0.1845
23680WAT    EPW96527   2.284   5.015   3.096 -0.6652  0.5074 -0.0954
23681WAT      O96528   3.580   5.834   2.716  0.9113 -0.2868 -0.3125
23681WAT     H196529   3.597   5.907   2.775 -0.3166  0.3091 -0.6581
23681WAT     H296530   3.581   5.757   2.772  1.4998  0.0684  0.1767
23681WAT    EPW96531   3.582   5.834   2.731  0.8270 -0.1614 -0.2936
23682WAT      O96532   3.055   3.317   2.518 -0.6941  0.5866 -0.5154
23682WAT     H196533   3.041   3.331   2.424 -1.7917 -0.6062 -0.5473
23682WAT     H296534   3.131   3.259   2.522 -1.2840 -0.2217 -0.7312
23682WAT    EPW96535   3.063   3.311   2.506 -0.9168  0.3226 -0.5481
23683WAT      O96536   3.447   0.477   3.398  0.2849  0.0991 -0.0336
23683WAT     H196537   3.370   0.520   3.363  1.1770  1.4179 -0.4151
23683WAT     H296538   3.465   0.523   3.480 -1.3942 -2.5137  2.0079
23683WAT    EPW96539   3.439   0.488   3.405  0.1810 -0.0715  0.1853
23684WAT      O96540   7.499   8.418   7.589  0.1145 -0.8155 -0.3823
23684WAT     H196541   7.464   8.477   7.522  0.3361 -2.0288 -1.6124
23684WAT     H296542   7.582   8.387   7.553  3.7532  3.3422  3.1810
23684WAT    EPW96543   7.505   8.422   7.575  0.6237 -0.4272 -0.0746
23685WAT      O96544   2.892   2.307   5.941 -0.0884 -0.1612  0.6731
23685WAT     H196545   2.931   2.254   6.010  2.0400  1.6875  1.0212
23685WAT     H296546   2.843   2.375   5.987  0.0594  0.1827  0.3277
23685WAT    EPW96547   2.891   2.309   5.956  0.2118  0.1280  0.6735
23686WAT      O96548   1.916   1.695   2.599 -0.2729 -0.1946  0.6450
23686WAT     H196549   1.821   1.687   2.585 -0.1042 -0.5415 -0.3682
23686WAT     H296550   1.925   1.774   2.651 -1.0535  0.4586 -0.1693
23686WAT    EPW96551   1.904   1.704   2.604 -0.3536 -0.1541  0.4040
23687WAT      O96552   3.868   3.461   2.545  0.3333  1.1003  0.7360
23687WAT     H196553   3.943   3.416   2.507 -1.5985 -0.7804 -1.2121
23687WAT     H296554   3.848   3.531   2.483  0.1038  1.1455  0.8593
23687WAT    EPW96555   3.875   3.464   2.532  0.0482  0.8582  0.4954
23688WAT      O96556   3.138   7.366   2.187  0.2832  0.0881 -0.4192
23688WAT     H196557   3.154   7.420   2.110 -0.5086  0.0729 -0.6036
23688WAT     H296558   3.187   7.409   2.257  1.7058 -0.3743 -1.1019
23688WAT    EPW96559   3.146   7.379   2.186  0.3664  0.0248 -0.5336
23689WAT      O96560   8.517   2.372   1.161 -0.1710 -0.3180 -0.1537
23689WAT     H196561   8.562   2.426   1.096  0.9586 -1.1270 -0.0770
23689WAT     H296562   8.431   2.412   1.170 -0.6093 -0.5310 -2.6098
23689WAT    EPW96563   8.512   2.384   1.154 -0.0792 -0.4529 -0.4676
23690WAT      O96564   4.197   2.833   5.550  0.1141 -0.5212  0.2513
23690WAT     H196565   4.261   2.893   5.588 -0.3471  0.1854 -0.0605
23690WAT     H296566   4.135   2.890   5.505  0.0513 -1.2693 -0.6502
23690WAT    EPW96567   4.197   2.849   5.549  0.0453 -0.5268  0.0908
23691WAT      O96568   9.659   2.517   8.816 -0.4642 -0.5801  0.5533
23691WAT     H196569   9.576   2.565   8.808  0.2265  0.3258 -3.1112
23691WAT     H296570   9.714   2.574   8.870 -0.6601  1.4275 -1.1988
23691WAT    EPW96571   9.655   2.531   8.822 -0.3991 -0.1957 -0.1616
23692WAT      O96572   5.097   9.114   3.929 -0.1998  0.2530 -0.0950
23692WAT     H196573   5.143   9.181   3.878  0.6264 -1.6697 -2.0242
23692WAT     H296574   5.145   9.111   4.012 -0.8755  2.6582  0.4823
23692WAT    EPW96575   5.109   9.123   3.933 -0.1798  0.3166 -0.2735
23693WAT      O96576   7.456   0.934   2.994  0.7049  0.1351 -0.0589
23693WAT     H196577   7.475   1.028   2.999 -1.0222  0.5398 -0.1657
23693WAT     H296578   7.510   0.903   2.922 -0.8760  1.7230 -2.0883
23693WAT    EPW96579   7.465   0.943   2.985  0.2689  0.3979 -0.3406
23694WAT      O96580   5.980   9.350   6.970  0.3406 -0.6520 -0.3174
23694WAT     H196581   6.001   9.442   6.989  0.3045  0.0175 -3.1158
23694WAT     H296582   5.891   9.338   7.004  0.8979 -0.1603  1.4457
23694WAT    EPW96583   5.971   9.361   6.977  0.4094 -0.4992 -0.4539
23695WAT      O96584   6.559   1.177   4.836  0.0410  0.1642  0.2222
23695WAT     H196585   6.571   1.114   4.764 -1.3592  1.8821 -1.6193
23695WAT     H296586   6.524   1.124   4.907 -1.2088 -1.1626 -1.2960
23695WAT    EPW96587   6.556   1.162   4.836 -0.3085  0.2158 -0.2208
23696WAT      O96588   3.158   5.206   1.758  0.3040  0.0196 -0.4256
23696WAT     H196589   3.084   5.197   1.698  0.5093 -0.8942 -0.5574
23696WAT     H296590   3.125   5.261   1.829 -0.2254  0.3490 -0.9161
23696WAT    EPW96591   3.144   5.212   1.760  0.2612 -0.0572 -0.5077
23697WAT      O96592   1.560   5.832   1.643  0.7889 -0.2149 -0.0625
23697WAT     H196593   1.544   5.759   1.703 -1.6697  0.7395  0.5800
23697WAT     H296594   1.528   5.800   1.558  1.2349 -0.4343 -0.1505
23697WAT    EPW96595   1.554   5.818   1.640  0.5235 -0.1180  0.0107
23698WAT      O96596   7.563   7.877   4.409  0.3750 -0.0795 -0.6964
23698WAT     H196597   7.489   7.837   4.364 -0.9971  1.3055  0.2554
23698WAT     H296598   7.607   7.929   4.341  1.3210 -1.9405 -1.5819
23698WAT    EPW96599   7.559   7.879   4.394  0.3188 -0.1421 -0.6878
23699WAT      O96600   5.408   6.876   2.308 -0.4710  0.5055 -0.5717
23699WAT     H196601   5.322   6.880   2.350  0.5505 -0.0700  1.7402
23699WAT     H296602   5.420   6.783   2.288 -0.8792  0.7523 -2.0954
23699WAT    EPW96603   5.398   6.864   2.311 -0.3901  0.4618 -0.4677
23700WAT      O96604   5.766   4.682   3.240  0.0391 -0.6033 -0.5672
23700WAT     H196605   5.846   4.723   3.209  0.0417  1.4068  1.7539
23700WAT     H296606   5.702   4.754   3.244 -0.5933 -1.2056  1.6089
23700WAT    EPW96607   5.768   4.697   3.237 -0.0439 -0.4177  0.0259
23701WAT      O96608   6.125   3.789   1.339  0.3246 -0.5034 -0.2613
23701WAT     H196609   6.093   3.733   1.269  0.8318  0.0142 -0.9348
23701WAT     H296610   6.132   3.876   1.298  1.3859 -0.3542  0.1929
23701WAT    EPW96611   6.122   3.793   1.324  0.5314 -0.4154 -0.2903
23702WAT      O96612   4.475   3.040   1.148  0.2061  0.2300 -0.5401
23702WAT     H196613   4.458   3.129   1.177  0.7167  0.3212 -0.5128
23702WAT     H296614   4.483   2.989   1.229  0.6526  0.3024 -0.5337
23702WAT    EPW96615   4.474   3.045   1.162  0.3326  0.2515 -0.5357
23703WAT      O96616   7.487   2.600   0.890  0.4102  0.0427 -0.5701
23703WAT     H196617   7.455   2.675   0.939  0.2530 -1.2761  1.4627
23703WAT     H296618   7.414   2.575   0.834  0.3078  1.1045 -0.9291
23703WAT    EPW96619   7.473   2.606   0.889  0.3760  0.0087 -0.3493
23704WAT      O96620   5.574   7.506   2.174  0.4304  0.2253  0.5830
23704WAT     H196621   5.500   7.513   2.114  0.2607  3.3079  1.0051
23704WAT     H296622   5.563   7.420   2.215 -2.0009 -0.0787 -0.5188
23704WAT    EPW96623   5.563   7.496   2.172  0.0875  0.5918  0.4934
23705WAT      O96624   4.651   3.478   3.096  0.2711  0.3198  0.1426
23705WAT     H196625   4.693   3.553   3.053  1.0474  0.0087  0.3433
23705WAT     H296626   4.684   3.481   3.185 -3.2073  2.4493  1.5897
23705WAT    EPW96627   4.661   3.489   3.102 -0.0854  0.5597  0.3598
23706WAT      O96628   7.318   8.273   7.730 -0.2130  0.0234  0.2800
23706WAT     H196629   7.362   8.234   7.806 -1.5539  2.0115  2.1895
23706WAT     H296630   7.380   8.340   7.699  0.1631 -0.5232 -0.1857
23706WAT    EPW96631   7.332   8.277   7.736 -0.3400  0.2136  0.4709
23707WAT      O96632   3.571   5.944   0.884 -0.3128  0.0304  0.2321
23707WAT     H196633   3.522   6.026   0.892 -0.0802  0.0154  2.0043
23707WAT     H296634   3.611   5.949   0.797 -2.9941  0.2710 -1.0879
23707WAT    EPW96635   3.570   5.955   0.873 -0.6357  0.0601  0.2918
23708WAT      O96636   3.944   4.135   2.634  0.7207  0.1952  0.1467
23708WAT     H196637   3.970   4.074   2.566  0.4790 -2.8707  2.5656
23708WAT     H296638   3.931   4.080   2.712 -0.5998  3.2204  2.2703
23708WAT    EPW96639   3.945   4.120   2.636  0.5146  0.1900  0.7459
23709WAT      O96640   5.655   1.228   2.055 -0.3010 -0.3305  0.4337
23709WAT     H196641   5.712   1.172   2.003 -0.2793 -1.2568  1.4032
23709WAT     H296642   5.609   1.167   2.114  0.1382  0.7001  1.9091
23709WAT    EPW96643   5.656   1.212   2.056 -0.2401 -0.3167  0.7560
23710WAT      O96644  10.907   0.970   1.197  0.4157  0.2216  0.0232
23710WAT     H196645  10.922   1.018   1.115  0.4779  0.5712  0.2394
23710WAT     H296646  10.978   0.998   1.254 -1.4514  2.5697  1.3758
23710WAT    EPW96647  10.918   0.980   1.193  0.1774  0.5774  0.2301
23711WAT      O96648   7.485   6.901   8.804 -0.0060  0.5814  0.4574
23711WAT     H196649   7.515   6.984   8.768 -0.4378  1.4513  1.9670
23711WAT     H296650   7.478   6.918   8.898  0.5613 -1.3906  0.8929
23711WAT    EPW96651   7.488   6.914   8.812  0.0119  0.4358  0.7138
23712WAT      O96652   3.266   4.181   4.901 -0.1913 -0.4071  0.7594
23712WAT     H196653   3.337   4.144   4.952 -0.3759  2.3899  3.3116
23712WAT     H296654   3.191   4.181   4.960 -1.8332 -1.4003 -1.1823
23712WAT    EPW96655   3.265   4.176   4.915 -0.4321 -0.1693  0.8399
23713WAT      O96656   5.213   4.532   2.768 -0.1251 -0.2220 -0.0644
23713WAT     H196657   5.298   4.573   2.780 -0.4986  0.5108  0.1245
23713WAT     H296658   5.229   4.460   2.706  0.4728  0.4193 -0.6628
23713WAT    EPW96659   5.226   4.528   2.761 -0.0956 -0.0408 -0.1185
23714WAT      O96660   5.883   6.607   3.916 -0.3858 -0.5732  0.2382
23714WAT     H196661   5.958   6.572   3.964 -0.8709  0.7595  2.0674
23714WAT     H296662   5.816   6.540   3.923 -1.6104  0.7773  4.4437
23714WAT    EPW96663   5.884   6.594   3.923 -0.6115 -0.2193  1.0343
23715WAT      O96664   5.435   5.487   3.681 -0.4517  0.2509 -0.0118
23715WAT     H196665   5.453   5.495   3.775  2.0650 -0.8814 -0.3102
23715WAT     H296666   5.395   5.570   3.657  1.8616  1.9435  1.4879
23715WAT    EPW96667   5.432   5.499   3.690  0.1853  0.3245  0.1466
23716WAT      O96668   4.042   5.848   6.332 -0.6067  0.0271  0.4770
23716WAT     H196669   4.036   5.866   6.425 -0.5668 -2.3606  1.0048
23716WAT     H296670   3.986   5.771   6.319  0.1172 -0.2472 -1.2990
23716WAT    EPW96671   4.034   5.840   6.342 -0.5062 -0.3240  0.3126
23717WAT      O96672   6.353   0.635   2.319 -0.4680  0.4815  0.4825
23717WAT     H196673   6.290   0.580   2.273 -0.9592  0.5231  1.0899
23717WAT     H296674   6.336   0.723   2.288  0.7486  0.2399 -0.9791
23717WAT    EPW96675   6.343   0.639   2.309 -0.3724  0.4551  0.3698
23718WAT      O96676   4.349   2.439   0.907  0.0677 -0.3311  0.2371
23718WAT     H196677   4.330   2.345   0.909 -1.6275 -0.0119  2.0250
23718WAT     H296678   4.348   2.466   0.998 -2.0346  1.8547 -0.3282
23718WAT    EPW96679   4.346   2.430   0.919 -0.4334 -0.0007  0.3984
23719WAT      O96680   2.793   5.426   4.946  0.4495 -0.2570  0.1107
23719WAT     H196681   2.834   5.340   4.956  0.7794  0.1030  2.3771
23719WAT     H296682   2.786   5.460   5.035  0.8039  2.3016 -0.7443
23719WAT    EPW96683   2.797   5.419   4.959  0.5398  0.1278  0.2971
23720WAT      O96684   4.365   2.252   3.140  0.3546 -0.4148 -0.4938
23720WAT     H196685   4.351   2.329   3.195  1.7725 -1.5587  1.6028
23720WAT     H296686   4.387   2.182   3.202  0.1968 -2.2469 -2.4066
23720WAT    EPW96687   4.366   2.253   3.155  0.5207 -0.8074 -0.4696
23721WAT      O96688   4.090   3.833   4.389 -0.2622 -0.0271  0.5048
23721WAT     H196689   4.005   3.848   4.347 -0.1553  0.2291  0.3750
23721WAT     H296690   4.113   3.743   4.366 -1.2930 -0.6852  1.9705
23721WAT    EPW96691   4.082   3.823   4.380 -0.3841 -0.0801  0.6809
23722WAT      O96692   5.100   3.388   2.324 -0.2433 -0.1997 -1.3797
23722WAT     H196693   5.142   3.323   2.268  1.5482  1.3586 -1.9560
23722WAT     H296694   5.169   3.418   2.382 -1.9867 -1.5915  1.6273
23722WAT    EPW96695   5.114   3.384   2.324 -0.2370 -0.1777 -1.0589
23723WAT      O96696   1.586   1.830   3.389  0.0503 -0.4163 -0.1253
23723WAT     H196697   1.510   1.773   3.382  0.1632 -0.6668  0.6312
23723WAT     H296698   1.629   1.823   3.304 -0.5887 -0.5180 -0.4474
23723WAT    EPW96699   1.582   1.822   3.377 -0.0190 -0.4628 -0.0681
23724WAT      O96700   0.326   2.008   3.758 -0.3247 -0.1543  0.4028
23724WAT     H196701   0.392   2.077   3.761  1.6945 -1.9037 -0.9519
23724WAT     H296702   0.277   2.025   3.677  0.9160 -0.9096 -0.5307
23724WAT    EPW96703   0.328   2.020   3.747  0.1053 -0.4846  0.1010
23725WAT      O96704   3.516   2.642   2.505 -0.3385 -0.4651 -0.3952
23725WAT     H196705   3.489   2.732   2.490 -0.4486  0.0201  2.2146
23725WAT     H296706   3.611   2.642   2.496 -0.4809 -0.5489 -2.2501
23725WAT    EPW96707   3.525   2.654   2.502 -0.3719 -0.4121 -0.2956
23726WAT      O96708   6.846   8.609   8.115  0.3782 -0.2913 -0.2006
23726WAT     H196709   6.882   8.568   8.037  0.2221  1.4895 -1.2666
23726WAT     H296710   6.790   8.679   8.082 -0.4345 -0.0881  1.4973
23726WAT    EPW96711   6.844   8.613   8.100  0.2506 -0.0291 -0.1173
23727WAT      O96712   4.670   9.255   5.848  0.5605 -0.0311 -0.4691
23727WAT     H196713   4.647   9.168   5.816  0.2335 -0.4636  0.8897
23727WAT     H296714   4.766   9.257   5.847  0.5607 -0.2431 -0.9193
23727WAT    EPW96715   4.680   9.244   5.844  0.5176 -0.1168 -0.3495
23728WAT      O96716   1.313   3.748   5.297 -0.5110  0.4217 -0.0031
23728WAT     H196717   1.323   3.792   5.213 -1.6270 -2.1209 -1.5666
23728WAT     H296718   1.390   3.692   5.304 -0.9403 -0.1639  0.1353
23728WAT    EPW96719   1.324   3.747   5.287 -0.7148  0.0092 -0.1910
23729WAT      O96720   3.444   4.496   0.982 -0.1011 -0.2638  0.4028
23729WAT     H196721   3.533   4.463   0.970 -0.5822 -1.3155 -0.5045
23729WAT     H296722   3.398   4.471   0.901 -1.2457  0.1402  0.9037
23729WAT    EPW96723   3.449   4.488   0.970 -0.3154 -0.3493  0.3491
23730WAT      O96724   3.794   6.922   3.184  0.3112  0.0013 -0.1765
23730WAT     H196725   3.745   6.842   3.203 -0.4892  0.1665 -1.4227
23730WAT     H296726   3.828   6.950   3.269  0.0823 -1.3108  0.3782
23730WAT    EPW96727   3.792   6.915   3.198  0.1755 -0.1500 -0.2677
23731WAT      O96728   0.522   4.577   3.751 -0.3986 -0.6262  0.1111
23731WAT     H196729   0.595   4.628   3.786 -1.0490 -0.6453  1.5414
23731WAT     H296730   0.444   4.626   3.778 -0.9560 -1.0629 -0.6661
23731WAT    EPW96731   0.521   4.590   3.759 -0.5579 -0.6866  0.1972
23732WAT      O96732   2.935   5.751   2.764 -0.2727  0.1557 -0.7007
23732WAT     H196733   3.024   5.758   2.799  0.9245  0.0953 -3.4597
23732WAT     H296734   2.926   5.659   2.740 -0.2370  0.5458 -2.3244
23732WAT    EPW96735   2.946   5.740   2.765 -0.1101  0.1993 -1.2788
23733WAT      O96736   3.594   6.509   4.937 -0.2798 -0.5511 -0.5241
23733WAT     H196737   3.617   6.556   5.018 -1.3322  0.9973 -1.0820
23733WAT     H296738   3.499   6.518   4.931 -0.2945 -1.2897 -1.5673
23733WAT    EPW96739   3.584   6.516   4.947 -0.4205 -0.4442 -0.7353
23734WAT      O96740   3.943   6.236   3.394  0.0748  0.0150 -0.9014
23734WAT     H196741   3.872   6.244   3.457 -0.1207 -0.5309 -1.0530
23734WAT     H296742   3.997   6.164   3.427  1.9016  1.8830  0.5243
23734WAT    EPW96743   3.941   6.227   3.406  0.2899  0.1893 -0.7333
23735WAT      O96744   3.339   4.839   3.061 -0.2275 -0.6441 -0.0769
23735WAT     H196745   3.258   4.796   3.035 -0.4428  0.4973 -1.4237
23735WAT     H296746   3.401   4.767   3.073 -0.8604 -1.4062 -1.1828
23735WAT    EPW96747   3.337   4.824   3.059 -0.3393 -0.5939 -0.4003
23736WAT      O96748   6.300   3.269   3.306 -0.0950 -0.1978  0.2533
23736WAT     H196749   6.387   3.278   3.269  0.4830  0.2294  1.6385
23736WAT     H296750   6.280   3.175   3.298 -0.5780  0.0479 -2.2769
23736WAT    EPW96751   6.309   3.258   3.300 -0.0825 -0.1090  0.1022
23737WAT      O96752   9.318   4.522   3.842  0.2816  0.4105 -0.4673
23737WAT     H196753   9.236   4.497   3.798 -0.4973 -0.2073  1.2143
23737WAT     H296754   9.293   4.595   3.898  0.9032  0.2646  0.0087
23737WAT    EPW96755   9.304   4.528   3.843  0.2604  0.3099 -0.1827
23738WAT      O96756   7.395   8.148   8.933  0.1362  0.3034  0.2764
23738WAT     H196757   7.354   8.177   9.015 -1.2079 -1.3988  0.2845
23738WAT     H296758   7.408   8.054   8.946  0.6914  0.1659 -1.1429
23738WAT    EPW96759   7.391   8.139   8.946  0.0322  0.0610  0.0901
23739WAT      O96760   8.931   8.225   7.219  0.9520 -0.1876 -0.5578
23739WAT     H196761   9.014   8.251   7.180  1.5211  1.2966  1.4709
23739WAT     H296762   8.898   8.305   7.260 -1.4680 -0.7582 -1.2335
23739WAT    EPW96763   8.937   8.239   7.219  0.7081 -0.0672 -0.3796
23740WAT      O96764   2.473   4.275   4.270 -0.3696 -0.3943 -0.3401
23740WAT     H196765   2.469   4.209   4.340  1.0473 -1.1456 -0.9356
23740WAT     H296766   2.414   4.241   4.203  0.0711 -0.8754 -0.4890
23740WAT    EPW96767   2.465   4.262   4.271 -0.1246 -0.5567 -0.4382
23741WAT      O96768   3.889   4.093   5.205 -0.0418 -0.3061  0.7527
23741WAT     H196769   3.910   4.126   5.118  0.6347 -0.4204  0.8693
23741WAT     H296770   3.920   4.161   5.265 -0.3302 -0.3155  0.9173
23741WAT    EPW96771   3.896   4.107   5.202  0.0094 -0.3226  0.7901
23742WAT      O96772   8.247   4.284   2.940 -0.3579  0.4953  0.2938
23742WAT     H196773   8.335   4.281   2.902  0.3369 -0.7489  1.8966
23742WAT     H296774   8.225   4.377   2.943  0.7122  0.7916 -0.5121
23742WAT    EPW96775   8.255   4.296   2.935 -0.1249  0.3705  0.3990
23743WAT      O96776   6.039   1.101   3.747  0.3174  0.0271  0.4809
23743WAT     H196777   6.061   1.047   3.670 -1.8585 -0.8264  0.3865
23743WAT     H296778   5.965   1.055   3.788  1.4134  0.4390  3.1349
23743WAT    EPW96779   6.032   1.088   3.742  0.1750 -0.0312  0.8185
23744WAT      O96780   5.873   5.110   3.180  0.1492  0.5378  0.2387
23744WAT     H196781   5.826   5.149   3.254  2.6160  3.6159  0.3826
23744WAT     H296782   5.938   5.175   3.156  1.0603 -1.3902 -3.1525
23744WAT    EPW96783   5.875   5.123   3.187  0.5944  0.6895 -0.1895
23745WAT      O96784   5.713   5.543   3.950  0.3925 -0.2223  0.1801
23745WAT     H196785   5.773   5.487   3.900  2.0569  0.8355  0.9091
23745WAT     H296786   5.758   5.628   3.955 -0.3246  0.0872  2.3301
23745WAT    EPW96787   5.727   5.547   3.944  0.5176 -0.0422  0.5599
23746WAT      O96788   3.442   5.366   2.899  0.1570 -0.3921 -0.2589
23746WAT     H196789   3.401   5.283   2.925  1.0555 -1.6951 -2.6130
23746WAT     H296790   3.426   5.371   2.805  0.9409  1.6672 -0.3238
23746WAT    EPW96791   3.435   5.356   2.890  0.3787 -0.2921 -0.5778
23747WAT      O96792   2.362   5.897   2.612 -0.4604  0.5328  0.1720
23747WAT     H196793   2.374   5.977   2.663 -1.0424 -0.1690  1.4812
23747WAT     H296794   2.438   5.894   2.554  0.4748  1.1746  1.3091
23747WAT    EPW96795   2.374   5.907   2.611 -0.4138  0.5250  0.4946
23748WAT      O96796   3.311   5.243   4.511 -0.0857  0.0109  0.2050
23748WAT     H196797   3.341   5.309   4.574  0.9769 -0.4557  0.2104
23748WAT     H296798   3.375   5.173   4.519 -2.7101 -2.4020  2.3623
23748WAT    EPW96799   3.323   5.243   4.521 -0.2916 -0.3688  0.4902
23749WAT      O96800   3.741   6.258   3.607  0.2159  0.5880 -0.2038
23749WAT     H196801   3.671   6.200   3.638 -1.4713  1.9565 -1.2388
23749WAT     H296802   3.813   6.244   3.669 -1.6852  0.5910  2.1472
23749WAT    EPW96803   3.741   6.248   3.619 -0.2574  0.7689 -0.0303
23750WAT      O96804   6.946   6.935   3.552 -0.1063  0.0944  0.6621
23750WAT     H196805   6.888   7.011   3.546  0.6819  0.6092 -1.5893
23750WAT     H296806   6.939   6.907   3.643 -1.1444  2.2799  1.3432
23750WAT    EPW96807   6.937   6.941   3.563 -0.1390  0.4506  0.4550
23751WAT      O96808   5.310   3.725   3.498 -0.4640 -0.2766 -0.1084
23751WAT     H196809   5.286   3.809   3.537 -0.5926  0.4459 -1.6507
23751WAT     H296810   5.362   3.681   3.565 -2.0712  0.1579  1.5044
23751WAT    EPW96811   5.314   3.731   3.512 -0.6926 -0.1240 -0.0989
23752WAT      O96812   2.913   5.843   1.259  0.0298  0.3698  0.2932
23752WAT     H196813   2.903   5.876   1.348  0.7360 -0.2277  0.6057
23752WAT     H296814   2.955   5.915   1.211  1.3009  0.0417  0.8950
23752WAT    EPW96815   2.917   5.857   1.264  0.2905  0.2480  0.4137
23753WAT      O96816   7.805   0.818   3.169 -0.5250  0.0440  0.6082
23753WAT     H196817   7.715   0.789   3.183  0.0901 -1.9896  0.7107
23753WAT     H296818   7.799   0.912   3.159 -2.9436 -0.2589 -1.6467
23753WAT    EPW96819   7.793   0.826   3.170 -0.7627 -0.2641  0.3241
23754WAT      O96820   6.598   6.868   3.471  0.0883 -0.3389 -0.6497
23754WAT     H196821   6.590   6.928   3.546  2.0947  0.8185 -1.2948
23754WAT     H296822   6.644   6.792   3.507 -0.3097 -0.4555 -0.3764
23754WAT    EPW96823   6.603   6.866   3.486  0.3004 -0.2017 -0.6987
23755WAT      O96824   5.270   2.380   8.545  0.3535  0.1272 -0.0427
23755WAT     H196825   5.233   2.299   8.511  0.5723  0.0376 -0.0738
23755WAT     H296826   5.276   2.438   8.469 -2.9070  1.4021  0.5355
23755WAT    EPW96827   5.266   2.377   8.530 -0.0479  0.2835  0.0296
23756WAT      O96828   3.755   7.637   0.380 -0.3290  1.0646 -0.0079
23756WAT     H196829   3.810   7.559   0.391  0.0361  1.2281 -0.5809
23756WAT     H296830   3.667   7.602   0.366  0.0917  0.6400 -2.0293
23756WAT    EPW96831   3.751   7.622   0.380 -0.2254  1.0300 -0.3501
23757WAT      O96832   7.720   7.130   3.241  0.4276  0.1749 -1.1962
23757WAT     H196833   7.729   7.199   3.307  1.2322 -1.2178  0.2197
23757WAT     H296834   7.626   7.121   3.229  0.2062 -0.1034  0.4303
23757WAT    EPW96835   7.709   7.138   3.248  0.5045 -0.0455 -0.7950
23758WAT      O96836   4.822   5.846   3.099  0.9320  0.0750 -0.1318
23758WAT     H196837   4.746   5.793   3.124  1.0100  0.1010  0.1641
23758WAT     H296838   4.809   5.929   3.143  1.8912 -0.4296  1.1673
23758WAT    EPW96839   4.810   5.850   3.108  1.0686  0.0119  0.0786
23759WAT      O96840   8.222   6.171   3.176  0.1922 -0.0551  0.2999
23759WAT     H196841   8.288   6.222   3.129 -1.1645  2.0566  0.5145
23759WAT     H296842   8.271   6.101   3.219  1.8526 -0.3164 -1.8673
23759WAT    EPW96843   8.237   6.169   3.176  0.2322  0.1891  0.0424
23760WAT      O96844   3.596   4.684   3.606 -0.1144  0.5116  0.0760
23760WAT     H196845   3.674   4.737   3.621  1.5596 -1.3535 -1.5263
23760WAT     H296846   3.607   4.609   3.665 -0.7985  0.3145 -0.0399
23760WAT    EPW96847   3.608   4.681   3.616  0.0162  0.2396 -0.1507
23761WAT      O96848   2.665   6.089   3.078 -0.4299  0.3679  0.9675
23761WAT     H196849   2.594   6.034   3.045  2.1542 -2.7661  0.1485
23761WAT     H296850   2.659   6.081   3.173  0.7396 -2.8237  0.8990
23761WAT    EPW96851   2.655   6.080   3.086  0.0651 -0.4666  0.8504
23762WAT      O96852   4.677   2.269   2.571 -0.2250 -0.1447  0.1151
23762WAT     H196853   4.696   2.201   2.507 -0.3078  0.7764 -0.9111
23762WAT     H296854   4.582   2.267   2.580 -0.2581  0.0524 -0.1704
23762WAT    EPW96855   4.667   2.259   2.564 -0.2401  0.0027 -0.0579
23763WAT      O96856   4.777   6.349   3.873  0.1664 -0.1927 -0.0707
23763WAT     H196857   4.689   6.312   3.868 -1.1148  2.4082  1.2915
23763WAT     H296858   4.819   6.302   3.945 -0.0048 -1.5961 -0.8650
23763WAT    EPW96859   4.771   6.338   3.882 -0.0250 -0.0348  0.0043
23764WAT      O96860   4.316   3.802   0.619  0.1152  0.0958 -0.0628
23764WAT     H196861   4.394   3.815   0.566 -1.0013 -0.6953 -2.0088
23764WAT     H296862   4.293   3.889   0.651  0.1660  0.8284 -1.9118
23764WAT    EPW96863   4.323   3.815   0.616 -0.0253  0.0881 -0.5634
23765WAT      O96864  10.957   1.433   6.840 -0.4069 -0.7681  0.1972
23765WAT     H196865  11.005   1.360   6.800  2.9541  1.2675  0.0937
23765WAT     H296866  10.981   1.430   6.932 -0.7067 -0.1243  0.2990
23765WAT    EPW96867  10.967   1.423   6.847 -0.0031 -0.4146  0.1974
23766WAT      O96868   7.831   6.481   3.892  0.2730 -0.3708  0.6623
23766WAT     H196869   7.748   6.440   3.918  0.1031  0.0546  0.8015
23766WAT     H296870   7.844   6.452   3.801 -1.8240  2.2979 -0.6446
23766WAT    EPW96871   7.822   6.472   3.883 -0.0262  0.0372  0.5083
23767WAT      O96872   7.593   9.609   1.680 -0.1928 -0.2713  0.2609
23767WAT     H196873   7.591   9.701   1.652  1.7142 -0.6172 -1.1997
23767WAT     H296874   7.528   9.604   1.750  1.4867  2.8059  2.2670
23767WAT    EPW96875   7.584   9.621   1.686  0.2801  0.0887  0.3328
23768WAT      O96876   4.767   5.765   2.172 -0.0956 -0.0217 -0.1617
23768WAT     H196877   4.851   5.812   2.181 -0.0258  0.2686 -1.8844
23768WAT     H296878   4.761   5.711   2.250  2.5934 -1.4077 -0.7974
23768WAT    EPW96879   4.778   5.764   2.183  0.2680 -0.1662 -0.4728
23769WAT      O96880   6.173   5.816   3.318 -0.2370 -0.5822  0.3778
23769WAT     H196881   6.111   5.791   3.250 -1.5003 -1.8639  1.9139
23769WAT     H296882   6.187   5.909   3.305  2.2200 -1.2575 -3.7037
23769WAT    EPW96883   6.167   5.825   3.307 -0.0799 -0.8404  0.0421
23770WAT      O96884   8.776   7.064   4.667  0.3082 -0.5345 -0.0606
23770WAT     H196885   8.820   6.988   4.630 -0.3842 -0.0190 -2.0337
23770WAT     H296886   8.684   7.053   4.644 -0.1352 -0.0539  1.3359
23770WAT    EPW96887   8.769   7.053   4.659  0.1578 -0.4032 -0.1371
23771WAT      O96888   4.832   4.033   4.947 -0.0774  0.1503 -0.0904
23771WAT     H196889   4.740   4.031   4.921  0.2338 -1.0334 -1.2186
23771WAT     H296890   4.831   4.050   5.041 -1.4890 -0.8370  0.0978
23771WAT    EPW96891   4.820   4.035   4.956 -0.2224 -0.1361 -0.2143
23772WAT      O96892   8.617  10.302   8.490  0.0684  0.1391  0.8283
23772WAT     H196893   8.630  10.397   8.494 -0.4797  0.4397 -2.1437
23772WAT     H296894   8.526  10.289   8.518 -0.8283  0.9344 -1.4055
23772WAT    EPW96895   8.607  10.313   8.494 -0.1221  0.2837  0.1416
23773WAT      O96896   6.008   6.652   3.132  0.0157  0.5357 -0.2185
23773WAT     H196897   5.926   6.611   3.101 -0.5430  2.5130 -1.5858
23773WAT     H296898   5.979   6.723   3.189  0.7816  0.9921 -0.3815
23773WAT    EPW96899   5.993   6.656   3.135  0.0432  0.8569 -0.4203
23774WAT      O96900   8.931   3.245   0.656 -0.3699 -0.1507  0.7181
23774WAT     H196901   8.940   3.150   0.667  0.1203 -0.1370  0.4846
23774WAT     H296902   8.972   3.281   0.735  0.3102 -0.1187  0.3605
23774WAT    EPW96903   8.938   3.237   0.668 -0.2155 -0.1447  0.6401
23775WAT      O96904   3.139   7.479   1.467  0.0471  0.4614 -0.4643
23775WAT     H196905   3.227   7.516   1.466  0.6957 -0.9552  0.5957
23775WAT     H296906   3.109   7.490   1.558  0.0417 -1.0585 -0.2616
23775WAT    EPW96907   3.146   7.485   1.479  0.1321  0.0741 -0.2978
23776WAT      O96908   0.768   6.786   5.423  0.2583  0.5242 -0.7038
23776WAT     H196909   0.705   6.756   5.358  0.2050 -2.8426  0.7096
23776WAT     H296910   0.854   6.771   5.383  0.2051 -0.3926 -0.4930
23776WAT    EPW96911   0.771   6.780   5.409  0.2442 -0.0408 -0.4895
23777WAT      O96912   3.663   5.989   6.391 -0.0407 -1.0387 -0.5672
23777WAT     H196913   3.592   6.047   6.364 -1.0645 -0.8778  2.1439
23777WAT     H296914   3.742   6.029   6.354 -1.0771  0.1500 -1.5930
23777WAT    EPW96915   3.664   6.002   6.383 -0.3123 -0.8607 -0.3448
23778WAT      O96916   7.741   6.240   3.684  0.0512  0.4834 -0.2634
23778WAT     H196917   7.802   6.252   3.611  1.2867  0.0061  0.6353
23778WAT     H296918   7.765   6.154   3.720  1.0833  1.6566  2.1013
23778WAT    EPW96919   7.753   6.230   3.679  0.3505  0.5753  0.1670
23779WAT      O96920   5.384   5.163   0.598 -0.4214  0.3966 -0.1292
23779WAT     H196921   5.310   5.155   0.538 -2.6433 -2.6857  2.6620
23779WAT     H296922   5.450   5.101   0.564 -0.1836  1.1845 -1.1560
23779WAT    EPW96923   5.383   5.154   0.586 -0.6831  0.0939  0.1036
23780WAT      O96924   4.744   5.339   3.957  0.3376 -0.2810 -0.4222
23780WAT     H196925   4.764   5.262   3.905 -0.1862  0.2949 -1.5140
23780WAT     H296926   4.740   5.411   3.893  0.5160  0.5951  0.5256
23780WAT    EPW96927   4.746   5.338   3.942  0.2918 -0.0894 -0.4413
23781WAT      O96928   5.953   6.504   3.468  0.2942 -0.2130 -0.1411
23781WAT     H196929   5.986   6.590   3.443  0.8245 -0.4633 -0.3336
23781WAT     H296930   6.020   6.469   3.527  0.0494 -0.4671 -0.0098
23781WAT    EPW96931   5.966   6.510   3.473  0.3319 -0.2794 -0.1490
23782WAT      O96932   4.010   0.499   8.082 -0.0906  0.3821  0.1290
23782WAT     H196933   3.991   0.587   8.047  0.3265  0.1886 -0.6097
23782WAT     H296934   4.105   0.493   8.079 -0.0962  0.0623  0.5882
23782WAT    EPW96935   4.020   0.510   8.077 -0.0362  0.3144  0.0920
23783WAT      O96936   5.704   6.922   4.631  0.3921 -0.5445 -0.0268
23783WAT     H196937   5.657   6.841   4.652  0.9152 -0.3188  2.2661
23783WAT     H296938   5.639   6.991   4.642  0.5192 -0.4689  0.2518
23783WAT    EPW96939   5.689   6.921   4.635  0.4778 -0.5047  0.3123
23784WAT      O96940   4.954   4.440   3.265 -0.2096 -0.6426  0.0243
23784WAT     H196941   5.029   4.480   3.220 -2.0276  1.0777 -1.6281
23784WAT     H296942   4.955   4.480   3.352 -0.3766  0.9765 -0.6847
23784WAT    EPW96943   4.964   4.450   3.270 -0.4716 -0.2022 -0.2871
23785WAT      O96944   5.218   5.338   1.298 -0.3670  0.0044  0.2383
23785WAT     H196945   5.198   5.390   1.375 -2.1629  1.0285 -0.8473
23785WAT     H296946   5.138   5.287   1.282  0.1163 -0.4902 -0.7084
23785WAT    EPW96947   5.205   5.338   1.306 -0.5400  0.0739 -0.0297
23786WAT      O96948   5.849   5.913   3.267 -0.3553 -0.2895  0.2821
23786WAT     H196949   5.870   5.967   3.191 -1.2202  0.4147  0.5301
23786WAT     H296950   5.929   5.913   3.319 -0.2386  0.4860  0.1160
23786WAT    EPW96951   5.862   5.920   3.264 -0.4537 -0.0942  0.2930
23787WAT      O96952   5.640   4.309   2.738 -0.1521  0.0716  0.1068
23787WAT     H196953   5.710   4.370   2.713  1.3535 -0.5684  2.4532
23787WAT     H296954   5.685   4.233   2.774 -1.9974 -0.0888  2.3580
23787WAT    EPW96955   5.655   4.307   2.739 -0.1969 -0.0341  0.7131
23788WAT      O96956   9.215   1.656   6.974 -0.1912 -0.0428 -0.0339
23788WAT     H196957   9.187   1.643   6.884  2.2017 -1.0325 -0.7146
23788WAT     H296958   9.190   1.575   7.018 -4.5360  1.6959  1.2533
23788WAT    EPW96959   9.208   1.644   6.968 -0.4487  0.0560  0.0463
23789WAT      O96960   3.475   4.755   1.052  0.0124 -0.5470  0.6917
23789WAT     H196961   3.457   4.668   1.018  2.1568 -0.7435 -0.0801
23789WAT     H296962   3.481   4.743   1.147 -1.1899 -0.9086  0.7459
23789WAT    EPW96963   3.473   4.742   1.060  0.1366 -0.6206  0.5971
23790WAT      O96964   5.692   6.056   2.377  0.2810  0.2704  0.4553
23790WAT     H196965   5.702   6.151   2.388  0.6735  0.5993 -2.1562
23790WAT     H296966   5.604   6.038   2.410 -0.7851  2.0020 -1.1987
23790WAT    EPW96967   5.682   6.066   2.383  0.1922  0.5422 -0.1073
23791WAT      O96968   6.257   7.090   1.237  0.4922 -0.0156  0.5815
23791WAT     H196969   6.249   7.009   1.187  1.0129  0.7453 -0.7964
23791WAT     H296970   6.345   7.122   1.216  0.7379  0.3149  2.0332
23791WAT    EPW96971   6.268   7.084   1.227  0.5932  0.1283  0.5912
23792WAT      O96972   3.497   2.810   1.448 -0.0395 -0.1451 -0.7687
23792WAT     H196973   3.531   2.805   1.359 -1.5345  0.4495 -1.4128
23792WAT     H296974   3.436   2.736   1.455  2.1038 -1.9142  0.7591
23792WAT    EPW96975   3.494   2.800   1.437  0.0460 -0.2999 -0.6522
23793WAT      O96976   4.960   5.261   2.394 -0.1671  0.3315 -0.1049
23793WAT     H196977   4.987   5.169   2.396 -1.2882 -0.0138  1.1829
23793WAT     H296978   4.889   5.264   2.330 -0.7840  0.0832  0.5554
23793WAT    EPW96979   4.954   5.249   2.386 -0.3960  0.2530  0.1519
23794WAT      O96980   5.938   6.280   1.785  0.1701  0.4796  0.3539
23794WAT     H196981   5.974   6.249   1.867  2.9144  3.4532  0.4441
23794WAT     H296982   5.886   6.357   1.808 -0.2017  0.5312 -0.5795
23794WAT    EPW96983   5.936   6.286   1.799  0.4830  0.8788  0.2427
23795WAT      O96984   1.806   4.350   3.376 -1.3494 -0.1984  0.0087
23795WAT     H196985   1.780   4.432   3.418 -1.4010  0.2445 -0.8616
23795WAT     H296986   1.783   4.362   3.284 -0.1565 -0.6770 -0.3777
23795WAT    EPW96987   1.800   4.363   3.369 -1.1988 -0.2031 -0.1569
23796WAT      O96988   6.213   6.479   3.199 -0.3155 -0.4863 -0.5043
23796WAT     H196989   6.133   6.530   3.210  0.4095  0.5506  0.1607
23796WAT     H296990   6.283   6.544   3.202  0.7060 -1.5828  1.1505
23796WAT    EPW96991   6.212   6.494   3.201 -0.0851 -0.4940 -0.1984
23797WAT      O96992   5.973   8.119   3.572 -0.4549  0.3861 -0.4869
23797WAT     H196993   6.042   8.054   3.567 -1.8058 -1.2818  1.0991
23797WAT     H296994   5.899   8.080   3.525  0.1800  3.0611 -4.1567
23797WAT    EPW96995   5.972   8.105   3.565 -0.5496  0.5188 -0.7619
23798WAT      O96996   6.770   6.480   3.800 -0.0150 -0.0020 -0.1597
23798WAT     H196997   6.820   6.415   3.849 -2.4605  0.7117  3.6828
23798WAT     H296998   6.808   6.564   3.824 -0.8553  0.3283  0.0644
23798WAT    EPW96999   6.782   6.482   3.809 -0.4487  0.1359  0.3768
23799WAT      O97000   4.164   6.941   5.780  0.1212 -0.1439  0.1880
23799WAT     H197001   4.179   6.871   5.717  0.2900 -0.8814  1.0245
23799WAT     H297002   4.191   6.904   5.864  0.8844  1.1747  0.5483
23799WAT    EPW97003   4.169   6.926   5.783  0.2439 -0.0672  0.3459
23800WAT      O97004   4.336   5.040   2.337  0.3132  0.1915 -0.4570
23800WAT     H197005   4.315   5.114   2.394 -3.5470 -1.7138  0.9039
23800WAT     H297006   4.291   5.060   2.255  0.4526 -0.0315 -0.5881
23800WAT    EPW97007   4.327   5.052   2.334 -0.1776 -0.0889 -0.2948
23801WAT      O97008   3.885   1.762   2.550  0.6171 -0.6086  0.6445
23801WAT     H197009   3.972   1.771   2.511  0.0759  1.2505 -0.2240
23801WAT     H297010   3.861   1.671   2.532  1.8504 -0.7871 -0.2395
23801WAT    EPW97011   3.893   1.751   2.542  0.7083 -0.3869  0.4133
23802WAT      O97012   2.402   4.735   2.160 -0.6894  0.1579 -0.2824
23802WAT     H197013   2.335   4.801   2.143 -1.9733 -0.4159  2.1305
23802WAT     H297014   2.387   4.708   2.250  1.3667 -1.6770 -0.4019
23802WAT    EPW97015   2.392   4.740   2.170 -0.5876 -0.1600  0.0200
23803WAT      O97016   4.746   5.171   0.979 -0.2574  0.1985  0.2307
23803WAT     H197017   4.806   5.100   0.998  0.9290  0.8408 -0.9775
23803WAT     H297018   4.663   5.143   1.018 -0.1432 -2.3555 -1.1530
23803WAT    EPW97019   4.743   5.158   0.987 -0.0861 -0.0536 -0.1112
23804WAT      O97020   9.133   4.946   1.996 -0.0697 -0.3088 -0.1592
23804WAT     H197021   9.178   4.997   2.063  2.0423  1.7879 -2.8994
23804WAT     H297022   9.040   4.957   2.015  0.4207  1.5678  1.4818
23804WAT    EPW97023   9.127   4.954   2.007  0.2732  0.2148 -0.3042
23805WAT      O97024   4.863   6.499   5.085  0.0760  0.0856  0.3749
23805WAT     H197025   4.940   6.518   5.139  1.0773 -0.1187 -0.9346
23805WAT     H297026   4.789   6.533   5.136  1.1671  1.5899  1.0252
23805WAT    EPW97027   4.863   6.506   5.099  0.3519  0.2570  0.2880
23806WAT      O97028   4.374   2.516   1.182 -0.0763  0.3312 -0.5297
23806WAT     H197029   4.442   2.567   1.225 -1.2413  2.2360 -0.8305
23806WAT     H297030   4.330   2.469   1.253 -0.3251  1.4134  0.0475
23806WAT    EPW97031   4.377   2.517   1.197 -0.2627  0.7250 -0.4932
23807WAT      O97032   4.499   5.158   4.635  0.1347  0.1604  0.1813
23807WAT     H197033   4.468   5.240   4.596  0.6952  0.1903 -0.2132
23807WAT     H297034   4.465   5.159   4.724 -0.3093  0.5737  0.0101
23807WAT    EPW97035   4.490   5.169   4.641  0.1500  0.2189  0.1068
23808WAT      O97036   3.270   3.215   3.916 -0.1978 -0.6805  0.2614
23808WAT     H197037   3.218   3.135   3.917  1.8266 -2.3033 -3.3105
23808WAT     H297038   3.215   3.278   3.870 -2.1058  0.4352  3.7404
23808WAT    EPW97039   3.256   3.213   3.910 -0.1825 -0.7473  0.2491
23809WAT      O97040   3.383   6.663   6.248  0.2772  0.4577  0.9601
23809WAT     H197041   3.316   6.626   6.306  0.7225 -0.5771  0.8521
23809WAT     H297042   3.409   6.589   6.192 -1.9505  1.9469 -2.3658
23809WAT    EPW97043   3.378   6.648   6.248  0.0418  0.5176  0.5071
23810WAT      O97044   7.188   6.338   3.205 -0.1749  0.6734  1.0143
23810WAT     H197045   7.187   6.349   3.300  0.2533 -2.1213  1.4241
23810WAT     H297046   7.257   6.398   3.175  0.4714  0.7828  2.6030
23810WAT    EPW97047   7.197   6.348   3.213 -0.0334  0.3195  1.2778
23811WAT      O97048   6.353   5.882   2.334 -0.1542  0.9474  0.8637
23811WAT     H197049   6.266   5.920   2.319 -0.1109  0.2421 -1.6441
23811WAT     H297050   6.388   5.932   2.408 -1.3183  3.6734 -0.2590
23811WAT    EPW97051   6.346   5.894   2.342 -0.3021  1.2136  0.3848
23812WAT      O97052   5.607   7.497   2.620  0.6504  0.1730  0.0400
23812WAT     H197053   5.641   7.506   2.709  3.2360  1.8541 -1.0070
23812WAT     H297054   5.512   7.495   2.632  0.8674  1.0951  2.7886
23812WAT    EPW97055   5.599   7.498   2.633  1.0202  0.5162  0.2644
23813WAT      O97056   3.663   8.226   1.067 -0.6611  0.1580  0.0859
23813WAT     H197057   3.734   8.212   1.004 -0.1400  1.2463  0.4199
23813WAT     H297058   3.583   8.213   1.016 -0.2380  0.0560 -0.5624
23813WAT    EPW97059   3.662   8.222   1.052 -0.5367  0.2875  0.0445
23814WAT      O97060   6.316   7.204   3.477  0.2204  0.2139 -0.0645
23814WAT     H197061   6.297   7.271   3.543 -0.8880  0.2433 -0.3867
23814WAT     H297062   6.230   7.167   3.456  0.6799 -0.4765 -0.7723
23814WAT    EPW97063   6.302   7.208   3.483  0.1349  0.1268 -0.2004
23815WAT      O97064   5.744   5.406   1.101  0.6394  0.1363  0.1585
23815WAT     H197065   5.739   5.501   1.108 -0.5140  0.1560 -0.6950
23815WAT     H297066   5.653   5.377   1.111  0.8043 -0.7729 -0.8475
23815WAT    EPW97067   5.731   5.415   1.103  0.5090  0.0191 -0.0867
23816WAT      O97068   4.729   5.336   2.274  0.7478 -0.6161 -0.5550
23816WAT     H197069   4.749   5.380   2.192  0.9366 -1.5978 -1.0500
23816WAT     H297070   4.713   5.407   2.336  0.4795  0.1398 -1.4630
23816WAT    EPW97071   4.729   5.351   2.272  0.7372 -0.6459 -0.7399
23817WAT      O97072   8.081   4.776   1.313 -0.1768  0.1764 -0.2061
23817WAT     H197073   8.104   4.864   1.345  1.5737  0.0431 -0.9887
23817WAT     H297074   7.987   4.780   1.297 -0.3707  1.4938  1.0148
23817WAT    EPW97075   8.072   4.788   1.315  0.0286  0.3324 -0.1483
23818WAT      O97076   2.301   6.972   2.752  0.0583 -0.2092  0.5327
23818WAT     H197077   2.292   6.929   2.837 -0.9278 -0.7009  0.1925
23818WAT     H297078   2.217   7.015   2.738  0.7007  1.0649  0.4318
23818WAT    EPW97079   2.289   6.972   2.762  0.0130 -0.1059  0.4746
23819WAT      O97080   5.992   7.016   3.684  0.6624 -0.5382  0.0087
23819WAT     H197081   5.946   6.933   3.670  0.3097 -0.2607 -0.5340
23819WAT     H297082   5.967   7.044   3.772 -2.5515  1.0169 -1.2420
23819WAT    EPW97083   5.983   7.009   3.693  0.1922 -0.2961 -0.2280
23820WAT      O97084   5.047   3.907   0.568 -0.2311 -0.1244 -0.0207
23820WAT     H197085   5.094   3.857   0.502  0.1368 -1.3750  1.1254
23820WAT     H297086   4.962   3.863   0.576 -0.3899  0.2022  0.1180
23820WAT    EPW97087   5.042   3.895   0.561 -0.2034 -0.2463  0.1487
23821WAT      O97088   4.098   4.041   3.216 -0.1351 -0.2901  0.5096
23821WAT     H197089   4.106   4.136   3.212  0.7679 -0.3798 -2.0717
23821WAT     H297090   4.007   4.025   3.240 -1.2668  1.3389 -2.1796
23821WAT    EPW97091   4.087   4.051   3.218 -0.1652 -0.0870 -0.1855
23822WAT      O97092   4.906   4.054   5.600  0.0987  0.5554  0.4735
23822WAT     H197093   4.983   4.111   5.589 -0.5006  1.3486  0.2360
23822WAT     H297094   4.847   4.082   5.530  0.6689 -1.8924 -1.1008
23822WAT    EPW97095   4.908   4.066   5.589  0.0949  0.3369  0.2346
23823WAT      O97096   2.285   5.319   4.802 -0.1556 -0.0358  0.3496
23823WAT     H197097   2.297   5.357   4.715  0.2524  1.5455  1.0547
23823WAT     H297098   2.366   5.271   4.819 -0.8069 -1.5834 -0.6875
23823WAT    EPW97099   2.297   5.318   4.793 -0.1876 -0.0315  0.3059
23824WAT      O97100   5.831   4.860   2.497  0.0398 -0.6326  0.4994
23824WAT     H197101   5.815   4.810   2.417 -1.6502  0.8535 -0.1774
23824WAT     H297102   5.800   4.804   2.568  3.2283 -2.7410  0.4207
23824WAT    EPW97103   5.824   4.846   2.496  0.2375 -0.7145  0.3997
23825WAT      O97104   6.086   7.905   2.191 -0.1776  0.5229 -0.1220
23825WAT     H197105   6.121   7.864   2.270 -0.8732 -0.8912 -0.5286
23825WAT     H297106   6.162   7.948   2.151  0.1316  1.5127  1.4378
23825WAT    EPW97107   6.101   7.905   2.196 -0.2286  0.4668  0.0302
23826WAT      O97108   2.588   5.838   2.474  0.5837 -0.0790  0.1758
23826WAT     H197109   2.653   5.876   2.532  1.0488  0.7975 -0.8695
23826WAT     H297110   2.604   5.881   2.389 -1.0538 -0.1640 -0.2156
23826WAT    EPW97111   2.598   5.849   2.470  0.4290  0.0253 -0.0137
23827WAT      O97112   5.023   4.289   1.430 -0.5802  0.5856  0.8503
23827WAT     H197113   5.066   4.321   1.350 -0.1852  1.3940  1.3705
23827WAT     H297114   4.958   4.357   1.450 -0.5909  0.4472  1.2863
23827WAT    EPW97115   5.020   4.302   1.422 -0.5298  0.6742  0.9765
23828WAT      O97116   2.331   3.205   1.692  0.3921  0.0551  0.2193
23828WAT     H197117   2.297   3.259   1.620  0.1421 -1.8605 -1.1795
23828WAT     H297118   2.257   3.153   1.720  0.4046  0.9943  2.1649
23828WAT    EPW97119   2.317   3.205   1.686  0.3608 -0.0737  0.2913
23829WAT      O97120   3.715   4.643   1.683 -0.1203 -0.3936  0.0561
23829WAT     H197121   3.671   4.595   1.753  0.2284 -1.3975 -0.3910
23829WAT     H297122   3.657   4.717   1.666  0.3185  0.4736  2.1072
23829WAT    EPW97123   3.701   4.646   1.690 -0.0165 -0.4115  0.2677
23830WAT      O97124   8.341   6.136   2.470  0.0285 -0.4170  0.9600
23830WAT     H197125   8.266   6.108   2.523  0.5671 -1.4074  1.2185
23830WAT     H297126   8.372   6.056   2.429  2.7579 -0.6370  3.1509
23830WAT    EPW97127   8.335   6.122   2.472  0.4597 -0.5765  1.2830
23831WAT      O97128   7.147   6.205   2.962 -0.2724 -0.3984 -0.0384
23831WAT     H197129   7.162   6.226   3.055 -0.5006 -1.7943  0.3334
23831WAT     H297130   7.158   6.289   2.917  3.4565 -0.2570  0.7869
23831WAT    EPW97131   7.151   6.219   2.969  0.1893 -0.5641  0.1194
23832WAT      O97132   3.471   8.160   5.621  0.6196  0.5295 -0.3367
23832WAT     H197133   3.426   8.214   5.686 -3.8993 -2.4740 -0.5505
23832WAT     H297134   3.458   8.206   5.538  1.3870  1.5607  0.0963
23832WAT    EPW97135   3.463   8.173   5.619  0.1249  0.2694 -0.3078
23833WAT      O97136   9.754   6.123   3.840 -0.6468 -0.5425 -0.1644
23833WAT     H197137   9.682   6.135   3.779 -0.2550 -1.0033 -0.7319
23833WAT     H297138   9.752   6.029   3.862 -0.5732 -0.4477  0.2537
23833WAT    EPW97139   9.744   6.112   3.835 -0.5860 -0.5908 -0.1839
23834WAT      O97140   4.340   8.037   3.123 -0.6762  0.7238  0.7614
23834WAT     H197141   4.297   7.956   3.150 -1.5431  0.8475 -0.1968
23834WAT     H297142   4.273   8.085   3.075  0.0625  1.6569  0.6348
23834WAT    EPW97143   4.325   8.032   3.120 -0.6931  0.8631  0.6183
23835WAT      O97144   5.265   5.681   3.623 -0.0034  0.1808 -0.5057
23835WAT     H197145   5.212   5.620   3.572  0.1343 -0.8316  0.5059
23835WAT     H297146   5.253   5.766   3.581 -0.3798 -0.5059 -1.8175
23835WAT    EPW97147   5.257   5.684   3.611 -0.0350 -0.0434 -0.5451
23836WAT      O97148   5.127   8.328   4.803 -0.0802 -0.0055  0.2884
23836WAT     H197149   5.195   8.361   4.744  0.8739 -0.9732  0.8085
23836WAT     H297150   5.078   8.407   4.829  0.6713  0.6776 -0.3146
23836WAT    EPW97151   5.129   8.343   4.799  0.1447 -0.0429  0.2773
23837WAT      O97152   4.773   4.656   3.078  0.1277 -0.0480 -0.1707
23837WAT     H197153   4.809   4.586   3.024  0.3716  0.6662 -0.9552
23837WAT     H297154   4.821   4.651   3.160  0.4974 -0.4734 -0.4125
23837WAT    EPW97155   4.784   4.646   3.082  0.2084 -0.0098 -0.3060
23838WAT      O97156   3.056   5.392   2.835 -0.1187  0.5149 -0.1672
23838WAT     H197157   2.986   5.443   2.794 -0.7978  0.0420  0.3994
23838WAT     H297158   3.011   5.328   2.891  0.7033 -0.7885 -0.9354
23838WAT    EPW97159   3.041   5.390   2.837 -0.0998  0.2809 -0.1938
23839WAT      O97160   4.948   3.706   6.198  0.2448 -0.9685 -0.5557
23839WAT     H197161   4.951   3.660   6.115  1.1752  0.2007 -1.1997
23839WAT     H297162   4.870   3.672   6.242 -1.1753 -0.4586 -2.5863
23839WAT    EPW97163   4.938   3.695   6.193  0.1802 -0.7471 -0.9086
23840WAT      O97164   1.820   4.577   1.148 -0.3164  0.0859 -0.1708
23840WAT     H197165   1.870   4.635   1.091 -2.3270  0.7301 -1.4193
23840WAT     H297166   1.750   4.544   1.091 -2.0834  0.2994  1.7582
23840WAT    EPW97167   1.817   4.580   1.133 -0.8147  0.1988 -0.0811
23841WAT      O97168   3.891   7.240   8.191 -1.0783  0.0079 -0.3093
23841WAT     H197169   3.924   7.302   8.256  1.2671 -4.1935  3.1014
23841WAT     H297170   3.970   7.208   8.146 -1.9466 -1.4974 -0.8429
23841WAT    EPW97171   3.906   7.244   8.194 -0.8835 -0.7448  0.0701
23842WAT      O97172   2.624   6.727   3.632  0.3836  0.7008  0.1910
23842WAT     H197173   2.621   6.717   3.727 -0.1525 -0.0378  0.0999
23842WAT     H297174   2.538   6.762   3.608  0.5962  1.1042 -0.0065
23842WAT    EPW97175   2.612   6.731   3.641  0.3408  0.6566  0.1529
23843WAT      O97176   5.052   7.180   6.991 -0.0756 -0.1076 -0.3289
23843WAT     H197177   5.130   7.193   6.936 -0.1074  0.8886 -0.1554
23843WAT     H297178   5.003   7.110   6.947  0.3082  0.1090 -1.1167
23843WAT    EPW97179   5.056   7.172   6.978 -0.0291  0.0525 -0.4101
23844WAT      O97180   5.001   4.722   1.361  0.0626 -1.1556 -0.3110
23844WAT     H197181   5.051   4.683   1.289  1.1783 -1.4279  0.5817
23844WAT     H297182   5.057   4.793   1.394  0.2572 -1.9679  1.2157
23844WAT    EPW97183   5.015   4.726   1.356  0.2353 -1.2984  0.0082
23845WAT      O97184   4.728   3.767   2.010 -0.0920  0.7923 -0.4397
23845WAT     H197185   4.818   3.798   2.021 -0.2570  0.6094  2.0284
23845WAT     H297186   4.722   3.742   1.917  2.5115  0.4360 -0.5780
23845WAT    EPW97187   4.739   3.768   1.999  0.2296  0.7213 -0.1324
23846WAT      O97188   6.179   8.895   2.058  0.6184  1.0101 -0.1033
23846WAT     H197189   6.124   8.870   1.983  1.1506  2.0414 -0.8676
23846WAT     H297190   6.235   8.819   2.072 -1.2116 -0.2296  0.9476
23846WAT    EPW97191   6.179   8.882   2.050  0.4473  0.9828 -0.0657
23847WAT      O97192   8.011   6.939   4.649 -0.6701  0.5131  0.2756
23847WAT     H197193   8.049   6.974   4.729 -0.1220  2.8564 -0.9401
23847WAT     H297194   7.926   6.982   4.642 -0.6905  0.3745 -0.4253
23847WAT    EPW97195   8.005   6.949   4.658 -0.6008  0.8039  0.0226
23848WAT      O97196   3.693   4.784   2.393  0.6521  0.1629  0.6760
23848WAT     H197197   3.770   4.832   2.363  0.0287  0.5922 -0.3034
23848WAT     H297198   3.722   4.693   2.400  0.6973 -0.0854 -1.9277
23848WAT    EPW97199   3.707   4.779   2.390  0.5759  0.1867  0.2034
23849WAT      O97200   6.323   7.008   5.516 -0.2124  0.2149  0.2315
23849WAT     H197201   6.304   7.095   5.484  0.1296  0.7874  1.5116
23849WAT     H297202   6.408   7.016   5.560  0.0276 -0.8525  0.0027
23849WAT    EPW97203   6.332   7.020   5.518 -0.1357  0.1495  0.3703
23850WAT      O97204   6.796   4.976   2.516 -0.2765 -0.3049 -0.2674
23850WAT     H197205   6.718   4.922   2.508  0.1419 -0.9141 -0.2641
23850WAT     H297206   6.773   5.042   2.582 -0.5621 -0.8682  0.2014
23850WAT    EPW97207   6.783   4.978   2.524 -0.2589 -0.4594 -0.2052
23851WAT      O97208   6.482   6.704   3.838  0.0194  0.5382 -0.0767
23851WAT     H197209   6.438   6.620   3.826  2.3743 -0.8356  0.1843
23851WAT     H297210   6.576   6.683   3.833  0.7236  2.9769  1.1004
23851WAT    EPW97211   6.489   6.691   3.836  0.4227  0.6788  0.1129
23852WAT      O97212   6.620   9.366   5.690 -0.0385  0.2261  0.5931
23852WAT     H197213   6.707   9.386   5.658 -0.1348 -1.2599 -0.7054
23852WAT     H297214   6.576   9.323   5.617 -2.4202  2.3037  0.6566
23852WAT    EPW97215   6.625   9.363   5.676 -0.3655  0.3042  0.4301
23853WAT      O97216   5.013   8.698   4.601 -0.4832 -0.0204 -0.8229
23853WAT     H197217   4.994   8.709   4.508 -2.0844  1.3378 -0.3834
23853WAT     H297218   5.015   8.787   4.636 -1.6915 -0.5611  0.7513
23853WAT    EPW97219   5.010   8.711   4.593 -0.8538  0.0877 -0.5572
23854WAT      O97220   4.886   7.068   0.880 -0.5430 -0.3168 -0.3566
23854WAT     H197221   4.947   7.126   0.926 -2.5204  0.7598  1.1302
23854WAT     H297222   4.917   6.980   0.900  1.1875  0.1826 -0.6818
23854WAT    EPW97223   4.898   7.064   0.889 -0.5755 -0.1087 -0.2034
23855WAT      O97224   4.897   4.130   2.301 -0.6468  0.2913 -0.1924
23855WAT     H197225   4.974   4.174   2.337  0.2509  0.4300 -2.2027
23855WAT     H297226   4.909   4.133   2.207 -1.9054 -1.8798 -0.4859
23855WAT    EPW97227   4.909   4.136   2.294 -0.6943  0.0234 -0.4964
23856WAT      O97228   6.607   5.514   0.767 -0.3466  0.3771  0.1789
23856WAT     H197229   6.513   5.514   0.749 -0.1785  0.4690 -0.7828
23856WAT     H297230   6.627   5.606   0.787 -0.2077  0.6650 -1.1644
23856WAT    EPW97231   6.597   5.526   0.767 -0.3061  0.4272 -0.1251
23857WAT      O97232   6.277   6.283   1.207  0.2903  0.3842 -0.4677
23857WAT     H197233   6.365   6.313   1.229 -0.0888  0.9793  0.2561
23857WAT     H297234   6.230   6.362   1.182 -0.6104  0.3871  1.0934
23857WAT    EPW97235   6.282   6.297   1.206  0.1216  0.4635 -0.1664
23858WAT      O97236   3.667   4.714   3.331  0.2766  0.1891  0.0876
23858WAT     H197237   3.737   4.761   3.375 -0.2116  1.1337 -0.1083
23858WAT     H297238   3.612   4.680   3.402  1.1116 -0.8673  0.2479
23858WAT    EPW97239   3.669   4.716   3.346  0.3225  0.1745  0.0829
23859WAT      O97240   3.840   2.040   1.351 -0.4219 -0.5135 -0.3753
23859WAT     H197241   3.889   2.006   1.426 -2.2515 -1.7931  0.3256
23859WAT     H297242   3.883   2.122   1.329  0.1595 -0.0532  2.1502
23859WAT    EPW97243   3.852   2.047   1.358 -0.5865 -0.6217  0.0503
23860WAT      O97244   4.049   3.663   3.802  0.7691  0.8458  0.5244
23860WAT     H197245   4.055   3.686   3.710 -0.8816  1.1306  0.4590
23860WAT     H297246   4.114   3.594   3.814  2.6335  2.3573 -0.3061
23860WAT    EPW97247   4.058   3.657   3.792  0.7973  1.0829  0.4061
23861WAT      O97248   6.141   9.332   4.989  0.1895 -0.0255 -0.5070
23861WAT     H197249   6.228   9.337   5.030  0.4818 -2.0199 -0.7767
23861WAT     H297250   6.118   9.423   4.971  1.8765  0.6057  0.2861
23861WAT    EPW97251   6.150   9.345   4.992  0.4506 -0.2050 -0.4380
23862WAT      O97252   4.485   3.538   1.180  0.1631 -0.1444 -0.1690
23862WAT     H197253   4.424   3.512   1.249  0.1996 -1.6924 -0.6792
23862WAT     H297254   4.572   3.522   1.218  0.2139  0.1773 -0.1467
23862WAT    EPW97255   4.489   3.533   1.194  0.1745 -0.3060 -0.2334
23863WAT      O97256   6.758   5.863   3.796  0.0367 -0.2815 -0.5292
23863WAT     H197257   6.734   5.857   3.888 -1.9962 -1.7160 -1.0955
23863WAT     H297258   6.824   5.933   3.793 -0.6068  0.5082  1.8424
23863WAT    EPW97259   6.763   5.872   3.808 -0.3161 -0.3664 -0.2912
23864WAT      O97260   2.259   6.111   0.753 -0.8233  0.3101 -0.5897
23864WAT     H197261   2.299   6.110   0.666  0.1758 -0.6151 -0.1491
23864WAT     H297262   2.168   6.134   0.738 -1.0280 -1.2610 -2.0496
23864WAT    EPW97263   2.253   6.114   0.740 -0.7185 -0.0191 -0.7241
23865WAT      O97264   8.582   6.673   1.188  0.5721  0.2029 -0.0918
23865WAT     H197265   8.509   6.612   1.179 -1.3060  2.0945  1.2690
23865WAT     H297266   8.567   6.715   1.273  2.2465  1.9211 -0.5915
23865WAT    EPW97267   8.570   6.670   1.198  0.5450  0.6788  0.0218
23866WAT      O97268   4.814   5.261   5.068  0.1267  0.4445 -0.2255
23866WAT     H197269   4.883   5.320   5.037  1.5832 -1.0552  0.0048
23866WAT     H297270   4.814   5.271   5.163 -2.1628  2.6967 -0.3547
23866WAT    EPW97271   4.823   5.270   5.076  0.0167  0.5438 -0.2122
23867WAT      O97272   5.124   6.933   2.318  0.0305 -0.1008  0.3542
23867WAT     H197273   5.086   7.019   2.338 -1.7222 -1.1894  2.0527
23867WAT     H297274   5.088   6.911   2.231  0.5141  0.8596 -0.1042
23867WAT    EPW97275   5.114   6.941   2.309 -0.1369 -0.1178  0.5176
23868WAT      O97276   4.826   5.806   2.700  0.1844  0.8343  0.3324
23868WAT     H197277   4.903   5.861   2.688 -0.4198  1.5941 -0.1998
23868WAT     H297278   4.853   5.739   2.762  0.7881  2.0692  1.4414
23868WAT    EPW97279   4.840   5.805   2.707  0.1843  1.0972  0.4085
23869WAT      O97280   2.159   9.504   0.777 -0.0274 -0.0519  0.4086
23869WAT     H197281   2.157   9.428   0.835  1.2775  0.1833  0.7898
23869WAT     H297282   2.067   9.522   0.758 -0.3685 -1.5544  0.5250
23869WAT    EPW97283   2.147   9.497   0.782  0.0997 -0.2189  0.4742
23870WAT      O97284   8.537   7.380   2.534 -0.7794  1.0475 -0.0112
23870WAT     H197285   8.603   7.318   2.504 -0.3852  0.8022  1.2771
23870WAT     H297286   8.536   7.370   2.630 -1.1869  2.5466  0.1768
23870WAT    EPW97287   8.545   7.371   2.543 -0.7811  1.2128  0.1835
23871WAT      O97288   7.938   6.112   3.115  0.0752  0.0582  0.1574
23871WAT     H197289   8.010   6.171   3.093 -0.9060  0.2260 -3.0850
23871WAT     H297290   7.956   6.084   3.205  1.7610  3.5305  1.0545
23871WAT    EPW97291   7.949   6.116   3.124  0.1681  0.5383 -0.1519
23872WAT      O97292   5.099   5.446   4.394 -0.6416 -0.0730  0.1118
23872WAT     H197293   5.173   5.496   4.429  1.1619 -1.0691 -2.0406
23872WAT     H297294   5.046   5.512   4.348 -1.8936  0.8645  2.6905
23872WAT    EPW97295   5.102   5.462   4.392 -0.5689 -0.0808  0.1678
23873WAT      O97296   2.181   5.274   2.538  0.1136 -0.0243  0.3497
23873WAT     H197297   2.200   5.255   2.630  0.7072 -0.5245  0.1321
23873WAT     H297298   2.213   5.197   2.491 -1.2754 -0.3061 -0.1712
23873WAT    EPW97299   2.188   5.261   2.544  0.0087 -0.1273  0.2522
23874WAT      O97300   7.504   3.472   1.703 -0.2070 -0.3431  0.2151
23874WAT     H197301   7.507   3.377   1.709 -0.5072 -0.3329  0.5658
23874WAT     H297302   7.496   3.490   1.609 -0.4369 -0.6711  0.1712
23874WAT    EPW97303   7.504   3.462   1.692 -0.2773 -0.3850  0.2556
23875WAT      O97304   4.111   4.372   2.664 -0.6922 -0.3526  0.1957
23875WAT     H197305   4.055   4.443   2.634  0.5855 -1.2697 -5.3806
23875WAT     H297306   4.062   4.292   2.642  0.9942 -1.1330 -0.9362
23875WAT    EPW97307   4.097   4.371   2.657 -0.3016 -0.5765 -0.6891
23876WAT      O97308   4.887   2.189   8.192  0.3870  0.3362 -0.4585
23876WAT     H197309   4.858   2.122   8.129 -1.5439  0.7011 -0.0232
23876WAT     H297310   4.809   2.208   8.244  1.5670  1.1070  1.1038
23876WAT    EPW97311   4.873   2.183   8.190  0.2880  0.4859 -0.1955
23877WAT      O97312   5.391   5.564   2.735 -0.0410 -0.3407 -0.7433
23877WAT     H197313   5.304   5.564   2.775  0.5606 -0.7616  0.6527
23877WAT     H297314   5.389   5.489   2.675 -0.6049 -0.4259 -0.6276
23877WAT    EPW97315   5.379   5.554   2.733 -0.0360 -0.4077 -0.5441
23878WAT      O97316   6.432   5.772   3.565  0.3831  0.1185  0.9281
23878WAT     H197317   6.415   5.740   3.476  2.6260  0.2424  0.4022
23878WAT     H297318   6.401   5.701   3.622 -1.5528  0.2485  0.1200
23878WAT    EPW97319   6.426   5.758   3.561  0.4237  0.1521  0.7521
23879WAT      O97320   6.478   9.126   8.561 -0.2276 -0.1865  0.4794
23879WAT     H197321   6.536   9.151   8.489  0.9366 -2.4101  0.5614
23879WAT     H297322   6.416   9.064   8.521  0.2459 -1.2080  1.2975
23879WAT    EPW97323   6.478   9.121   8.546 -0.0117 -0.6146  0.5980
23880WAT      O97324   7.087   7.213   3.455  0.6103  0.4860  0.2444
23880WAT     H197325   7.001   7.190   3.492 -1.1679  1.5606 -2.8496
23880WAT     H297326   7.125   7.273   3.519 -1.2198  0.4594  1.4465
23880WAT    EPW97327   7.081   7.218   3.469  0.1342  0.6244 -0.0050
23881WAT      O97328   4.201   3.174   1.625  0.0037  0.3329  0.4481
23881WAT     H197329   4.222   3.142   1.537 -0.9209 -2.8939  1.2599
23881WAT     H297330   4.286   3.192   1.665  0.5114  0.2932 -0.5849
23881WAT    EPW97331   4.215   3.172   1.618 -0.0515 -0.0980  0.4190
23882WAT      O97332   4.278   9.139   3.152  0.3974 -0.1633 -0.5399
23882WAT     H197333   4.249   9.208   3.093  1.2158  2.1959  1.6620
23882WAT     H297334   4.203   9.122   3.209 -1.1015 -3.8349 -3.1959
23882WAT    EPW97335   4.264   9.146   3.152  0.3078 -0.3357 -0.5999
23883WAT      O97336   4.468   3.782   2.726 -0.6011 -0.3976  0.3284
23883WAT     H197337   4.488   3.860   2.777 -2.0793 -0.5953  1.2759
23883WAT     H297338   4.536   3.719   2.749  3.8808  2.0486 -4.2910
23883WAT    EPW97339   4.480   3.784   2.735 -0.2050 -0.1010 -0.1559
23884WAT      O97340   7.915   7.294   2.892 -0.2074  0.6852 -0.5101
23884WAT     H197341   7.924   7.342   2.810  2.7033 -0.7725 -1.1506
23884WAT     H297342   7.820   7.291   2.907 -0.8063  1.5421 -3.4637
23884WAT    EPW97343   7.903   7.300   2.883  0.0975  0.6058 -0.9841
23885WAT      O97344   7.082   5.998   2.304 -0.5920  0.1436 -0.4325
23885WAT     H197345   7.027   6.008   2.381  0.2416 -0.6879  0.2901
23885WAT     H297346   7.116   5.909   2.310 -1.3937 -0.3402 -2.3624
23885WAT    EPW97347   7.079   5.988   2.315 -0.5882 -0.0300 -0.5918
23886WAT      O97348   7.840   8.003   8.721  0.2574 -0.0881  0.6445
23886WAT     H197349   7.906   7.937   8.700  2.3450  2.2368 -0.5629
23886WAT     H297350   7.889   8.074   8.761 -1.5362  1.6379 -0.0543
23886WAT    EPW97351   7.855   8.004   8.723  0.2961  0.4463  0.3924
23887WAT      O97352   5.070   6.325   3.753  0.3360  0.4977 -0.7042
23887WAT     H197353   5.014   6.343   3.828 -0.7740  0.6868 -1.5452
23887WAT     H297354   5.153   6.367   3.774  0.8427 -1.3619  1.4149
23887WAT    EPW97355   5.074   6.333   3.765  0.2563  0.2773 -0.5355
23888WAT      O97356   2.308   4.734   5.121 -0.1260 -0.3884 -0.0008
23888WAT     H197357   2.217   4.709   5.104 -0.7167  2.0382 -0.9060
23888WAT     H297358   2.317   4.728   5.216 -1.8431  0.9833  0.3048
23888WAT    EPW97359   2.297   4.730   5.132 -0.4302  0.1123 -0.0796
23889WAT      O97360   8.866   7.657   3.110  0.4386 -0.2024  0.2898
23889WAT     H197361   8.789   7.715   3.108  2.1703  2.2657  0.5981
23889WAT     H297362   8.876   7.634   3.203  1.0166  0.8953  0.5172
23889WAT    EPW97363   8.857   7.662   3.122  0.7434  0.2677  0.3605
23890WAT      O97364   6.511   9.947   7.157 -0.2436  0.0025 -0.0985
23890WAT     H197365   6.528   9.857   7.131 -3.1802  0.1064 -3.2156
23890WAT     H297366   6.568   9.999   7.101 -0.8847  0.0868 -0.6901
23890WAT    EPW97367   6.520   9.942   7.146 -0.7155  0.0272 -0.5875
23891WAT      O97368   5.869   2.477   2.813  0.3093 -0.9738 -0.3926
23891WAT     H197369   5.863   2.558   2.763 -0.6288 -2.1642 -2.3209
23891WAT     H297370   5.952   2.485   2.861 -1.8430  3.1494  3.4019
23891WAT    EPW97371   5.879   2.489   2.813 -0.0980 -0.5870 -0.1465
23892WAT      O97372   5.928   9.558   3.114  0.8000 -0.1193 -0.3171
23892WAT     H197373   6.009   9.531   3.071  1.6115 -1.1048  1.7019
23892WAT     H297374   5.860   9.506   3.072  1.1478  0.8024 -2.1244
23892WAT    EPW97375   5.930   9.548   3.103  0.9530 -0.1273 -0.2892
23893WAT      O97376   4.117   5.641   4.265 -0.6265  0.9954  0.5154
23893WAT     H197377   4.067   5.695   4.204  1.8274  1.8992 -0.8308
23893WAT     H297378   4.093   5.674   4.352 -3.3405  0.4344  0.0611
23893WAT    EPW97379   4.107   5.653   4.268 -0.6609  1.0405  0.2778
23894WAT      O97380   2.588   4.991   2.849 -0.4816  0.5343 -0.4538
23894WAT     H197381   2.580   5.079   2.886 -1.0115  0.6194 -0.7635
23894WAT     H297382   2.506   4.948   2.871  0.8453 -0.8867  2.2596
23894WAT    EPW97383   2.576   4.997   2.857 -0.3763  0.3581 -0.1367
23895WAT      O97384   6.779   8.556   3.016  0.5447  0.2502 -0.2909
23895WAT     H197385   6.775   8.613   2.939  0.8640 -1.1539 -1.3898
23895WAT     H297386   6.810   8.613   3.086 -0.2921  1.7032 -1.0488
23895WAT    EPW97387   6.782   8.571   3.015  0.4764  0.2565 -0.5358
23896WAT      O97388   4.574   6.133   0.285  0.1841 -0.8271 -0.1677
23896WAT     H197389   4.479   6.146   0.284  0.1689  1.2436  4.0790
23896WAT     H297390   4.588   6.061   0.347  1.4260 -2.1510 -1.8880
23896WAT    EPW97391   4.563   6.125   0.293  0.3457 -0.7284  0.1656
23897WAT      O97392   4.386   4.993   3.378 -0.6929  0.1312  0.0430
23897WAT     H197393   4.478   4.991   3.405 -1.0542 -0.6922  1.2920
23897WAT     H297394   4.389   5.004   3.283  0.7341 -1.1838 -0.1051
23897WAT    EPW97395   4.399   4.994   3.369 -0.5524 -0.1509  0.1881
23898WAT      O97396   5.654   5.997   4.233 -0.4417 -0.1681  0.0842
23898WAT     H197397   5.633   6.078   4.187 -0.8006  0.1751  0.8294
23898WAT     H297398   5.719   6.022   4.299  1.0603 -0.9005 -1.0657
23898WAT    EPW97399   5.660   6.011   4.236 -0.2909 -0.2191  0.0305
23899WAT      O97400   6.051   6.817   6.015  0.0626 -0.2720  0.1947
23899WAT     H197401   6.094   6.898   6.041 -2.9938  1.7027 -0.4777
23899WAT     H297402   6.122   6.753   6.010  2.2626  1.6606  3.2368
23899WAT    EPW97403   6.066   6.819   6.018 -0.0503  0.2434  0.5071
23900WAT      O97404   1.459   9.712   0.479 -0.1906 -0.4750 -0.0785
23900WAT     H197405   1.462   9.739   0.571 -0.5162  0.2299 -0.2697
23900WAT     H297406   1.545   9.673   0.463 -0.0859 -0.4897  0.4889
23900WAT    EPW97407   1.470   9.711   0.489 -0.2198 -0.3839 -0.0289
23901WAT      O97408   5.240   1.413   2.550  0.2180  0.1948 -0.6996
23901WAT     H197409   5.177   1.350   2.586  0.6556  0.3185  0.3405
23901WAT     H297410   5.217   1.420   2.458 -1.2479  0.1804 -0.3734
23901WAT    EPW97411   5.228   1.406   2.543  0.0825  0.2093 -0.5194
23902WAT      O97412   3.803   2.472   3.500 -0.3396  1.1977 -0.3066
23902WAT     H197413   3.708   2.478   3.509 -0.6780 -2.7897  0.6594
23902WAT     H297414   3.816   2.406   3.432  1.6840  0.6623  0.5287
23902WAT    EPW97415   3.792   2.464   3.492 -0.1173  0.6012 -0.0690
23903WAT      O97416   5.241   4.981   3.492 -0.4593 -0.0060 -0.2152
23903WAT     H197417   5.318   4.939   3.530 -0.7839 -0.8056 -0.4142
23903WAT     H297418   5.167   4.934   3.531 -0.8389  0.5339 -0.2775
23903WAT    EPW97419   5.242   4.969   3.502 -0.5519 -0.0401 -0.2495
23904WAT      O97420   3.843   7.776   3.523  0.3209 -0.9040 -0.4082
23904WAT     H197421   3.781   7.849   3.521  2.7517  1.3151 -0.4692
23904WAT     H297422   3.793   7.703   3.562 -2.2403  0.7287 -0.3782
23904WAT    EPW97423   3.828   7.776   3.528  0.3036 -0.3963 -0.4121
23905WAT      O97424   5.153   5.348   4.105  0.8259 -0.3068  0.1533
23905WAT     H197425   5.093   5.350   4.180  1.5682 -0.1276  0.7477
23905WAT     H297426   5.231   5.303   4.137  1.4518  0.4383 -0.2746
23905WAT    EPW97427   5.155   5.342   4.119  1.0061 -0.1848  0.1755
23906WAT      O97428   4.959   2.485   3.797  0.5323 -0.7718 -0.1358
23906WAT     H197429   4.962   2.407   3.853  1.0934  0.2301  1.2894
23906WAT     H297430   4.891   2.540   3.837  1.1579  0.1013 -0.2532
23906WAT    EPW97431   4.950   2.482   3.809  0.6888 -0.5244  0.0367
23907WAT      O97432   5.595   7.797   4.412 -0.0751  0.0107 -0.3747
23907WAT     H197433   5.534   7.724   4.396  1.1153 -0.7419 -1.7079
23907WAT     H297434   5.538   7.870   4.438 -1.2017 -1.7084  2.4110
23907WAT    EPW97435   5.579   7.797   4.413 -0.0668 -0.3152 -0.1833
23908WAT      O97436   4.520   5.584   3.483 -0.5318 -0.1555 -0.0262
23908WAT     H197437   4.552   5.645   3.550 -2.1609  1.2997 -0.4980
23908WAT     H297438   4.532   5.498   3.522  1.4468  0.4593  0.8418
23908WAT    EPW97439   4.525   5.581   3.497 -0.4857  0.1173  0.0261
23909WAT      O97440   5.533   5.167   3.259 -0.2224 -0.1596 -0.4102
23909WAT     H197441   5.494   5.238   3.310 -0.7473  0.1046 -1.1515
23909WAT     H297442   5.511   5.087   3.306 -0.5920  0.0882 -0.1585
23909WAT    EPW97443   5.525   5.166   3.272 -0.3402 -0.0918 -0.4747
23910WAT      O97444   5.168   7.751   3.706  0.2538  0.5258 -0.2396
23910WAT     H197445   5.244   7.761   3.648 -0.0315  0.2049 -0.6721
23910WAT     H297446   5.116   7.681   3.666  0.1211  0.2057  0.4823
23910WAT    EPW97447   5.171   7.743   3.693  0.1986  0.4413 -0.2015
23911WAT      O97448   5.941   9.819   4.088  0.2849  0.1002 -0.5878
23911WAT     H197449   5.912   9.825   3.997  2.8115  0.7150 -1.4352
23911WAT     H297450   5.871   9.771   4.132 -0.3774 -1.5005 -3.1391
23911WAT    EPW97451   5.928   9.814   4.082  0.5310 -0.0305 -1.0359
23912WAT      O97452   3.259   6.565   4.550 -0.4220  0.6701 -0.5350
23912WAT     H197453   3.246   6.546   4.457  0.9571 -0.0908 -0.5925
23912WAT     H297454   3.352   6.551   4.565 -0.6744  0.4525  1.0422
23912WAT    EPW97455   3.269   6.561   4.540 -0.2733  0.5410 -0.3347
23913WAT      O97456   5.288   5.623   2.402  0.6508 -0.1805 -0.5246
23913WAT     H197457   5.230   5.603   2.328  1.5188 -0.7668 -1.0649
23913WAT     H297458   5.234   5.608   2.479 -0.0364 -0.3278 -1.0178
23913WAT    EPW97459   5.273   5.618   2.402  0.6747 -0.2770 -0.6609
23914WAT      O97460   5.301   7.143   3.749 -0.0334 -0.2686 -0.2912
23914WAT     H197461   5.327   7.136   3.657  0.1203  0.2219 -0.2897
23914WAT     H297462   5.231   7.079   3.759  0.2658 -0.6585 -0.6322
23914WAT    EPW97463   5.295   7.134   3.738  0.0265 -0.2553 -0.3359
23915WAT      O97464   5.993   5.769   5.917  0.0676 -0.9077  0.4076
23915WAT     H197465   6.000   5.845   5.860 -0.0321  0.3189  1.9500
23915WAT     H297466   5.907   5.732   5.897  0.0554 -0.5330 -0.2623
23915WAT    EPW97467   5.982   5.774   5.907  0.0529 -0.6962  0.5224
23916WAT      O97468   8.187   7.447   3.215  0.1864  0.4378 -0.3983
23916WAT     H197469   8.209   7.519   3.275  0.1210  1.1344 -1.2004
23916WAT     H297470   8.249   7.377   3.238  0.5672  0.9187  0.0671
23916WAT    EPW97471   8.198   7.447   3.226  0.2284  0.5932 -0.4427
23917WAT      O97472   5.538   5.982   3.092  0.4063  0.4381  0.9055
23917WAT     H197473   5.561   5.994   3.184  1.5608 -2.6623  1.1407
23917WAT     H297474   5.443   5.995   3.089  0.4538  1.3231  2.3686
23917WAT    EPW97475   5.529   5.985   3.104  0.5646  0.1462  1.1295
23918WAT      O97476   5.757   4.695   3.578  0.2839  0.9244 -0.0591
23918WAT     H197477   5.769   4.696   3.483  0.9463  0.7286  0.0212
23918WAT     H297478   5.806   4.619   3.608 -0.4232  0.6343  0.3769
23918WAT    EPW97479   5.765   4.685   3.570  0.2780  0.8602  0.0091
23919WAT      O97480   2.824   5.454   3.966 -0.4916  0.0642 -0.0844
23919WAT     H197481   2.837   5.422   3.877 -0.0951  0.2566 -0.0953
23919WAT     H297482   2.770   5.386   4.008 -0.2215 -0.2880 -0.3055
23919WAT    EPW97483   2.818   5.441   3.960 -0.4038  0.0434 -0.1149
23920WAT      O97484   5.630   7.082   5.448 -0.2031  0.1833  0.0613
23920WAT     H197485   5.604   6.999   5.488  0.7940 -0.4077 -0.4918
23920WAT     H297486   5.549   7.132   5.441 -0.7361 -0.5532  0.8368
23920WAT    EPW97487   5.616   7.078   5.453 -0.1419  0.0083  0.0906
23921WAT      O97488   5.999   6.016   3.038  0.3395 -0.2456 -0.1728
23921WAT     H197489   6.048   6.084   3.085 -0.3107 -1.1054  1.8600
23921WAT     H297490   5.930   6.064   2.992 -1.5152  0.4210  3.0061
23921WAT    EPW97491   5.996   6.031   3.038  0.0093 -0.2713  0.5145
23922WAT      O97492   5.322   2.102   4.495 -0.0248 -0.6739  0.6530
23922WAT     H197493   5.228   2.121   4.504 -0.2733 -1.9544  1.0427
23922WAT     H297494   5.332   2.071   4.406 -0.0901 -1.0978  0.7897
23922WAT    EPW97495   5.311   2.100   4.485 -0.0663 -0.8987  0.7224
23923WAT      O97496   5.080   4.295   2.395 -0.2638 -0.2988 -0.0140
23923WAT     H197497   5.005   4.352   2.378 -0.9806 -1.3031 -0.3055
23923WAT     H297498   5.054   4.243   2.471 -0.4569 -1.6454 -0.9750
23923WAT    EPW97499   5.067   4.296   2.403 -0.3839 -0.6089 -0.1792
23924WAT      O97500   7.944   7.150   0.722  0.2800 -0.3689  0.8766
23924WAT     H197501   7.975   7.125   0.809  1.2430  1.8297  1.2240
23924WAT     H297502   7.856   7.184   0.737  0.2593 -0.4355  0.9075
23924WAT    EPW97503   7.936   7.151   0.735  0.4046 -0.0877  0.9265
23925WAT      O97504   7.373   3.355   4.480 -0.4293 -0.0043 -0.1054
23925WAT     H197505   7.283   3.321   4.472  0.7547 -3.5138 -0.2206
23925WAT     H297506   7.418   3.291   4.534  1.8653  2.1232  0.6964
23925WAT    EPW97507   7.367   3.342   4.486  0.0298 -0.1866 -0.0150
23926WAT      O97508   6.107   5.334   2.498 -0.3310  0.1124  0.6546
23926WAT     H197509   6.038   5.370   2.553 -0.1953  0.6940  0.4473
23926WAT     H297510   6.102   5.384   2.417 -0.7250 -0.9391  0.0142
23926WAT    EPW97511   6.097   5.345   2.495 -0.3653  0.0505  0.5430
23927WAT      O97512   9.699   7.630   0.931  0.1229  0.7671 -0.2459
23927WAT     H197513   9.638   7.701   0.911  0.0406  0.6705 -0.3356
23927WAT     H297514   9.645   7.551   0.930  0.4246  0.5578 -1.2969
23927WAT    EPW97515   9.684   7.629   0.928  0.1521  0.7267 -0.3964
23928WAT      O97516   7.359   6.646   3.825 -0.6955  0.0910  0.1837
23928WAT     H197517   7.273   6.648   3.784 -0.7505 -0.9204  0.2232
23928WAT     H297518   7.386   6.554   3.822 -1.5265 -0.4592  4.0243
23928WAT    EPW97519   7.352   6.634   3.820 -0.8123 -0.1152  0.6956
23929WAT      O97520   4.515   8.067   5.752 -0.0653  0.2965 -0.4262
23929WAT     H197521   4.423   8.081   5.772 -0.8425 -0.7874 -2.8977
23929WAT     H297522   4.559   8.074   5.837 -2.5519 -0.3245  1.0221
23929WAT    EPW97523   4.509   8.070   5.766 -0.4957  0.0715 -0.5612
23930WAT      O97524   5.946   8.320   3.407 -0.1461 -0.4310  0.0191
23930WAT     H197525   5.871   8.373   3.436 -0.1727 -0.5152  0.1024
23930WAT     H297526   5.960   8.257   3.477 -0.6693 -1.1114 -0.4693
23930WAT    EPW97527   5.938   8.319   3.420 -0.2186 -0.5317 -0.0345
23931WAT      O97528  10.568   5.555   2.731  0.3243  0.7851  0.4438
23931WAT     H197529  10.603   5.590   2.649 -0.1590  1.6127  0.5873
23931WAT     H297530  10.476   5.581   2.731  0.1158  0.0862  0.8733
23931WAT    EPW97531  10.560   5.563   2.720  0.2332  0.8018  0.5194
23932WAT      O97532   8.510  10.315   1.311  0.1876  0.3622 -0.1600
23932WAT     H197533   8.544  10.234   1.274  0.5535  0.7434 -0.6707
23932WAT     H297534   8.587  10.359   1.346  0.0147  0.5722 -0.0453
23932WAT    EPW97535   8.524  10.310   1.310  0.2131  0.4401 -0.2123
23933WAT      O97536   5.439   4.540   3.696 -0.3929  1.0764 -0.8018
23933WAT     H197537   5.502   4.516   3.763 -0.5477 -1.4308 -1.4596
23933WAT     H297538   5.488   4.537   3.614 -0.3807  3.4070 -0.9542
23933WAT    EPW97539   5.454   4.537   3.694 -0.4115  1.0531 -0.9087
23934WAT      O97540   7.494   8.945   4.539 -0.0893 -0.0117  0.8400
23934WAT     H197541   7.465   8.974   4.625  0.1139  1.8549  0.3253
23934WAT     H297542   7.417   8.955   4.483  0.0588 -0.2545  0.5886
23934WAT    EPW97543   7.480   8.950   4.543 -0.0432  0.2027  0.7389
23935WAT      O97544   3.170   5.563   3.051 -0.6123  0.2933  0.1126
23935WAT     H197545   3.241   5.520   3.099 -2.8843 -1.8946  1.7823
23935WAT     H297546   3.150   5.503   2.979 -0.7097  0.9284 -0.3981
23935WAT    EPW97547   3.177   5.549   3.048 -0.9248  0.0885  0.2654
23936WAT      O97548   4.896   8.724   4.314 -0.0250 -0.0298  0.3119
23936WAT     H197549   4.901   8.633   4.284 -0.6653 -0.0860  0.3742
23936WAT     H297550   4.976   8.764   4.280  0.8205 -0.8887  1.2028
23936WAT    EPW97551   4.908   8.717   4.306  0.0019 -0.1502  0.4377
23937WAT      O97552   6.115   4.397   2.774  0.3871 -0.1956  0.6884
23937WAT     H197553   6.160   4.481   2.771 -0.9514  0.5317 -0.0033
23937WAT     H297554   6.104   4.372   2.682 -2.4445  0.7116  0.6867
23937WAT    EPW97555   6.119   4.405   2.761 -0.1633  0.0200  0.5969
23938WAT      O97556   5.628   8.200   2.178  0.0130 -0.0660 -0.2617
23938WAT     H197557   5.550   8.254   2.186  0.1062  0.1114 -0.5634
23938WAT     H297558   5.690   8.239   2.240 -0.0317 -0.0205 -0.2458
23938WAT    EPW97559   5.626   8.212   2.188  0.0196 -0.0367 -0.2993
23939WAT      O97560   8.710   6.021   2.709  0.3990 -0.1939 -0.6071
23939WAT     H197561   8.648   6.008   2.637 -0.6754  0.3002  0.2101
23939WAT     H297562   8.683   6.103   2.750  2.2057  0.5617 -0.8293
23939WAT    EPW97563   8.698   6.030   2.705  0.4954 -0.0291 -0.5287
23940WAT      O97564   2.801   8.838   4.061 -0.4064  0.0559 -0.9102
23940WAT     H197565   2.798   8.791   3.978  0.7091 -2.0701  0.1818
23940WAT     H297566   2.789   8.771   4.127  2.1899  1.1206  0.7945
23940WAT    EPW97567   2.799   8.823   4.059  0.0833 -0.0844 -0.5414
23941WAT      O97568   8.890   8.148   2.165  0.2336  0.6850 -0.5741
23941WAT     H197569   8.974   8.103   2.172 -1.2254 -2.2120 -0.3362
23941WAT     H297570   8.860   8.129   2.076 -1.4994 -1.0240  0.2933
23941WAT    EPW97571   8.897   8.140   2.154 -0.1869  0.0777 -0.4286
23942WAT      O97572   4.759   6.412   1.628  1.1357  0.3751 -0.0408
23942WAT     H197573   4.818   6.337   1.631 -0.2057 -0.6920  1.5449
23942WAT     H297574   4.706   6.404   1.707 -2.0832  0.4573 -2.0012
23942WAT    EPW97575   4.760   6.401   1.639  0.5341  0.2451 -0.0902
23943WAT      O97576   5.610   1.139   8.053 -0.2652 -0.6344 -1.1433
23943WAT     H197577   5.563   1.136   7.970 -0.9466 -0.7051 -0.7601
23943WAT     H297578   5.547   1.109   8.118 -0.7624  2.2956 -0.1239
23943WAT    EPW97579   5.596   1.135   8.051 -0.4206 -0.2573 -0.9580
23944WAT      O97580   8.076   7.860   3.641  0.2392 -0.2127  0.4507
23944WAT     H197581   8.105   7.771   3.665  0.7879  0.2826  1.7163
23944WAT     H297582   7.981   7.856   3.647  0.2534 -0.7332  0.4404
23944WAT    EPW97583   8.068   7.848   3.645  0.3133 -0.2160  0.6163
23945WAT      O97584   4.575   9.595   3.242 -0.0676 -0.2630 -0.1293
23945WAT     H197585   4.480   9.597   3.251  0.0151  0.1132  0.7953
23945WAT     H297586   4.603   9.531   3.308  0.3346 -0.3187 -0.3502
23945WAT    EPW97587   4.566   9.587   3.252 -0.0036 -0.2208 -0.0366
23946WAT      O97588   9.473   6.876   2.503  0.5271 -0.0475  0.4044
23946WAT     H197589   9.449   6.968   2.495 -0.4297 -0.3550 -0.6515
23946WAT     H297590   9.548   6.875   2.561 -0.7990  1.1838  2.2305
23946WAT    EPW97591   9.480   6.888   2.509  0.2265  0.0744  0.5060
23947WAT      O97592   1.988   5.900   2.218 -0.4022  0.7754  0.3664
23947WAT     H197593   2.012   5.844   2.291 -0.9118  1.9318  1.4543
23947WAT     H297594   1.893   5.906   2.222 -0.4446  0.7971 -0.4413
23947WAT    EPW97595   1.979   5.893   2.228 -0.4750  0.9310  0.4035
23948WAT      O97596   9.707   6.168   5.819  0.5559  0.0943 -0.3707
23948WAT     H197597   9.742   6.254   5.800  2.6404 -1.0582 -2.1835
23948WAT     H297598   9.664   6.141   5.738 -0.0647 -0.5963  0.1686
23948WAT    EPW97599   9.706   6.175   5.806  0.7496 -0.1490 -0.5388
23949WAT      O97600   5.888   6.808   5.144 -0.0245  0.2215  0.7918
23949WAT     H197601   5.913   6.831   5.234 -1.2552 -1.0316  1.5028
23949WAT     H297602   5.841   6.725   5.153  2.4797 -1.5812 -1.3876
23949WAT    EPW97603   5.885   6.800   5.157  0.1433 -0.1817  0.5982
23950WAT      O97604   9.090   0.804   4.204 -0.2919 -0.4358 -0.0863
23950WAT     H197605   9.119   0.748   4.276  1.6051  2.1655  1.3751
23950WAT     H297606   8.996   0.816   4.219  0.3284  1.5517  3.3018
23950WAT    EPW97607   9.081   0.798   4.215  0.0401  0.1695  0.5531
23951WAT      O97608   8.561   8.195   0.185 -0.5919 -0.1073  0.3644
23951WAT     H197609   8.487   8.197   0.124  1.3227 -1.4908 -2.2036
23951WAT     H297610   8.607   8.114   0.164  0.7928 -0.1235  3.0153
23951WAT    EPW97611   8.557   8.185   0.174 -0.1569 -0.2923  0.3753
23952WAT      O97612   4.669   3.128   2.485  0.6997 -0.2072  0.3589
23952WAT     H197613   4.686   3.056   2.545  0.7917  0.3356  0.9894
23952WAT     H297614   4.755   3.153   2.453  0.6012 -0.9036 -0.4957
23952WAT    EPW97615   4.682   3.121   2.489  0.6986 -0.2273  0.3294
23953WAT      O97616   7.497   7.686   0.882  0.2757  0.3767  0.2733
23953WAT     H197617   7.431   7.673   0.951  0.9562  0.3542  0.9380
23953WAT     H297618   7.449   7.725   0.810 -0.8071 -1.1939  0.1006
23953WAT    EPW97619   7.482   7.690   0.882  0.2229  0.1667  0.3382
23954WAT      O97620   6.933   6.604   3.137  0.8688  0.2843  0.0017
23954WAT     H197621   6.848   6.570   3.165 -0.1071  1.0196 -1.9191
23954WAT     H297622   6.968   6.537   3.079  0.7155  0.8183 -0.7188
23954WAT    EPW97623   6.927   6.591   3.133  0.7200  0.4516 -0.3467
23955WAT      O97624   4.718   3.675   1.740  0.6148 -0.3013  0.3878
23955WAT     H197625   4.710   3.591   1.784  0.9277 -0.3045  0.4356
23955WAT     H297626   4.798   3.669   1.688  0.7149  0.0128  0.4985
23955WAT    EPW97627   4.727   3.663   1.739  0.6695 -0.2605  0.4087
23956WAT      O97628   6.622   8.495   3.314  0.3285  0.8377  0.6322
23956WAT     H197629   6.646   8.410   3.352  1.4527  0.4859 -0.7866
23956WAT     H297630   6.706   8.537   3.294 -0.1389  0.7912 -1.8184
23956WAT    EPW97631   6.636   8.489   3.316  0.4153  0.7854  0.1218
23957WAT      O97632   6.803   7.668   4.261  0.3210 -0.2350  0.6383
23957WAT     H197633   6.740   7.718   4.313  0.5306 -0.1190  0.7836
23957WAT     H297634   6.805   7.713   4.176 -0.2300 -0.5927  0.4321
23957WAT    EPW97635   6.795   7.681   4.257  0.2761 -0.2668  0.6301
23958WAT      O97636   6.374   5.620   3.320  0.0566 -0.3077  0.0662
23958WAT     H197637   6.292   5.668   3.331  0.0461 -0.1710 -0.5458
23958WAT     H297638   6.363   5.571   3.238  0.9001  0.3733 -0.4740
23958WAT    EPW97639   6.362   5.620   3.310  0.1667 -0.1998 -0.0856
23959WAT      O97640   7.491   1.370   3.690 -0.1997 -0.0841 -0.4635
23959WAT     H197641   7.538   1.308   3.635 -0.1848 -2.5170  2.0888
23959WAT     H297642   7.483   1.327   3.775  0.0761  3.5677  1.6445
23959WAT    EPW97643   7.496   1.356   3.694 -0.1616  0.0767  0.1512
23960WAT      O97644   5.857   9.730   1.532 -0.1709 -0.1696 -0.1026
23960WAT     H197645   5.938   9.698   1.493 -0.7213  0.2189 -1.6326
23960WAT     H297646   5.840   9.669   1.604  0.0753 -1.8966 -1.4313
23960WAT    EPW97647   5.865   9.717   1.537 -0.2112 -0.3457 -0.4796
23961WAT      O97648   6.612   6.772   5.176  0.1264 -0.1027 -0.9402
23961WAT     H197649   6.690   6.750   5.124  0.9790  0.8279 -0.0844
23961WAT     H297650   6.630   6.737   5.263  0.9106  2.6063  0.0801
23961WAT    EPW97651   6.625   6.764   5.180  0.3424  0.3774 -0.6926
23962WAT      O97652   0.933   6.101   1.333 -0.5054 -0.1109 -0.7948
23962WAT     H197653   0.891   6.159   1.397  0.3810  1.0109 -1.1870
23962WAT     H297654   1.022   6.136   1.325  0.7028 -2.6571  0.3292
23962WAT    EPW97655   0.940   6.113   1.341 -0.2291 -0.2992 -0.6983
23963WAT      O97656   9.599   7.025   1.524  0.0725  0.2306 -0.3888
23963WAT     H197657   9.643   7.061   1.448  0.9478  1.1863  0.5474
23963WAT     H297658   9.647   7.060   1.599 -1.9273  0.8601  0.6612
23963WAT    EPW97659   9.611   7.034   1.524 -0.0763  0.4399 -0.1268
23964WAT      O97660   5.073   5.924   2.690  0.6660 -0.5398 -0.0209
23964WAT     H197661   5.139   5.893   2.751  2.2628 -0.6056 -1.7017
23964WAT     H297662   5.099   6.013   2.669 -0.2579 -0.2731 -0.1061
23964WAT    EPW97663   5.085   5.931   2.695  0.7548 -0.5133 -0.2537
23965WAT      O97664   4.405   7.280   2.048  0.1114  0.1068 -0.5585
23965WAT     H197665   4.313   7.305   2.063  0.5994  1.3398  0.5663
23965WAT     H297666   4.430   7.327   1.969  0.8231  2.8704  1.1704
23965WAT    EPW97667   4.396   7.290   2.040  0.2697  0.6337 -0.1820
23966WAT      O97668   6.035   8.530   4.134  0.0086 -0.5034 -0.4040
23966WAT     H197669   5.999   8.512   4.047 -2.0654  1.1315  0.0229
23966WAT     H297670   6.036   8.445   4.177  2.6891 -1.6597 -2.4994
23966WAT    EPW97671   6.030   8.517   4.128  0.0887 -0.4401 -0.6239
23967WAT      O97672   8.746   0.121   4.609  0.3031 -0.6104  0.1562
23967WAT     H197673   8.810   0.139   4.678 -0.5246  0.7473  0.6249
23967WAT     H297674   8.663   0.110   4.656 -0.2482  0.2181 -0.5853
23967WAT    EPW97675   8.744   0.122   4.624  0.1211 -0.3221  0.1204
23968WAT      O97676  10.712   7.036   2.950 -0.3602  0.5333 -0.3250
23968WAT     H197677  10.638   6.977   2.955 -1.4478  1.6774 -1.8296
23968WAT     H297678  10.674   7.120   2.924  1.0679  2.0257  2.0086
23968WAT    EPW97679  10.698   7.040   2.947 -0.3147  0.8814 -0.2156
23969WAT      O97680   7.270   2.940   2.584 -0.3767  0.4555  0.2328
23969WAT     H197681   7.200   2.969   2.526 -0.8227 -2.4238 -0.8640
23969WAT     H297682   7.350   2.968   2.540 -0.7640  0.0055 -0.8082
23969WAT    EPW97683   7.271   2.947   2.570 -0.4866  0.0165 -0.0492
23970WAT      O97684   7.107   4.064   1.883 -0.1352  0.8090 -0.0678
23970WAT     H197685   7.147   4.100   1.962  2.4291  0.6263 -1.1867
23970WAT     H297686   7.026   4.114   1.872  0.6958  2.5657  1.2928
23970WAT    EPW97687   7.101   4.075   1.892  0.3123  1.0166 -0.0359
23971WAT      O97688   5.474   5.307   4.207 -0.3747  0.0374 -0.3307
23971WAT     H197689   5.440   5.266   4.286  1.9095 -2.3260 -0.4401
23971WAT     H297690   5.490   5.398   4.232 -0.7240 -0.3998  1.5855
23971WAT    EPW97691   5.472   5.314   4.221 -0.1197 -0.3316 -0.0923
23972WAT      O97692   0.951   1.540   5.879 -0.1951 -0.1180 -0.3594
23972WAT     H197693   0.973   1.466   5.935 -2.0772 -1.8466 -1.7409
23972WAT     H297694   1.031   1.592   5.875  0.5177 -0.8618  2.4294
23972WAT    EPW97695   0.964   1.537   5.886 -0.3493 -0.4441 -0.1738
23973WAT      O97696   5.098   5.999   3.486 -0.2138  0.2885 -0.7113
23973WAT     H197697   5.048   6.078   3.462 -2.3386 -1.0263 -0.9206
23973WAT     H297698   5.078   5.986   3.579  1.1616  0.6782 -0.3493
23973WAT    EPW97699   5.089   6.008   3.495 -0.3128  0.1667 -0.6911
23974WAT      O97700   8.062   6.056   3.484  0.1015  0.1907  0.5644
23974WAT     H197701   8.009   5.981   3.508  0.8930 -0.2083  1.0956
23974WAT     H297702   8.151   6.022   3.476  0.8240  1.3751  2.6456
23974WAT    EPW97703   8.067   6.042   3.486  0.3014  0.2942  0.9090
23975WAT      O97704   7.788   6.901   3.370  0.2389  0.1775 -0.3013
23975WAT     H197705   7.814   6.842   3.299  0.5620 -0.1598  0.0943
23975WAT     H297706   7.755   6.979   3.325 -1.5309 -0.8440 -0.8842
23975WAT    EPW97707   7.787   6.903   3.355  0.0482 -0.0017 -0.3260
23976WAT      O97708   6.572   6.451   4.964 -0.7249 -0.0551  0.2964
23976WAT     H197709   6.568   6.456   5.059  1.8786 -2.3652  0.6413
23976WAT     H297710   6.559   6.358   4.945  0.0398  0.1752 -1.5038
23976WAT    EPW97711   6.570   6.439   4.974 -0.2806 -0.3295  0.1047
23977WAT      O97712   8.349   7.859   4.658  0.5053 -0.3369 -0.5205
23977WAT     H197713   8.279   7.884   4.719  0.1156  1.1832 -1.5501
23977WAT     H297714   8.303   7.835   4.578  1.1076 -0.9142 -0.7028
23977WAT    EPW97715   8.333   7.859   4.656  0.5331 -0.2124 -0.6804
23978WAT      O97716   6.907   8.002   4.385  0.0511 -0.2938 -0.1827
23978WAT     H197717   6.842   7.948   4.340 -3.2399  1.7194  1.7025
23978WAT     H297718   6.909   8.084   4.334  0.7050 -0.1478  0.0761
23978WAT    EPW97719   6.898   8.006   4.372 -0.2966 -0.0091  0.0999
23979WAT      O97720   9.251   1.067   2.286 -0.2651 -0.2211  0.6079
23979WAT     H197721   9.344   1.049   2.278 -0.0834  0.0302  1.8548
23979WAT     H297722   9.241   1.159   2.260 -0.4073 -0.6341 -0.8923
23979WAT    EPW97723   9.262   1.077   2.282 -0.2599 -0.2424  0.5745
23980WAT      O97724   6.162   6.135   3.474 -0.3029  0.1090 -0.1366
23980WAT     H197725   6.129   6.153   3.387  0.9618  0.2527 -0.6133
23980WAT     H297726   6.131   6.208   3.527 -0.7511  0.2250 -0.5528
23980WAT    EPW97727   6.154   6.147   3.470 -0.1950  0.1433 -0.2544
23981WAT      O97728   7.826   6.675   4.270 -0.5063  0.2427 -0.0098
23981WAT     H197729   7.736   6.660   4.241  0.0878 -0.4945 -1.5751
23981WAT     H297730   7.833   6.770   4.278 -0.4203  0.6899 -3.6006
23981WAT    EPW97731   7.815   6.686   4.267 -0.4165  0.2041 -0.6900
23982WAT      O97732   7.672   5.132   1.813 -0.1830 -0.4791  0.9654
23982WAT     H197733   7.756   5.177   1.808 -0.7733  0.4624 -1.9358
23982WAT     H297734   7.611   5.199   1.846 -0.1483 -0.6464  1.3795
23982WAT    EPW97735   7.675   5.147   1.817 -0.2561 -0.3769  0.6374
23983WAT      O97736   7.995  10.251   5.217  0.1712  0.8372 -0.1976
23983WAT     H197737   7.997  10.236   5.123 -0.0800  2.0121 -0.4019
23983WAT     H297738   8.087  10.270   5.240  0.1724  0.9321 -0.2784
23983WAT    EPW97739   8.008  10.252   5.208  0.1383  1.0047 -0.2351
23984WAT      O97740   6.417   5.869   3.856 -0.1788  0.0137  0.0273
23984WAT     H197741   6.434   5.779   3.826 -2.7056 -0.8358  0.8682
23984WAT     H297742   6.457   5.872   3.943  3.6389  1.2006 -1.5449
23984WAT    EPW97743   6.425   5.857   3.864 -0.0086  0.0582 -0.0691
23985WAT      O97744   5.782   6.790   2.797 -0.1770 -0.0778 -0.3390
23985WAT     H197745   5.831   6.742   2.864 -1.5348 -0.5908  0.3405
23985WAT     H297746   5.824   6.765   2.715 -0.7960 -2.4698 -0.0185
23985WAT    EPW97747   5.794   6.780   2.795 -0.4377 -0.4609 -0.2072
23986WAT      O97748   6.922   8.277   7.608  0.1472  0.2425 -0.5608
23986WAT     H197749   6.859   8.229   7.555 -0.8797 -0.7048  1.4146
23986WAT     H297750   6.943   8.355   7.556 -2.1980  0.2889 -1.5446
23986WAT    EPW97751   6.916   8.281   7.594 -0.2980  0.1235 -0.4303
23987WAT      O97752   7.523   5.762   1.886 -0.0193 -0.6517  0.0880
23987WAT     H197753   7.486   5.809   1.961  1.1601  2.2320 -1.0007
23987WAT     H297754   7.616   5.752   1.908  0.5394  1.0733 -1.3099
23987WAT    EPW97755   7.530   5.767   1.899  0.2098 -0.0439 -0.2399
23988WAT      O97756  10.918   3.705   2.478  0.1516 -0.4088 -0.3574
23988WAT     H197757  10.898   3.623   2.522  0.7251 -0.0796  0.5505
23988WAT     H297758  10.917   3.770   2.548 -1.3720  0.5552 -1.2165
23988WAT    EPW97759  10.915   3.703   2.493  0.0267 -0.2382 -0.3511
23989WAT      O97760   5.771   7.605   3.182 -0.4201 -0.0749  0.4226
23989WAT     H197761   5.808   7.528   3.226 -1.0663 -0.5454  0.1602
23989WAT     H297762   5.677   7.596   3.194 -0.5218  0.4869  0.0709
23989WAT    EPW97763   5.764   7.594   3.189 -0.5188 -0.0629  0.3415
23990WAT      O97764   4.940   8.245   4.028  0.0841 -0.6849  0.1236
23990WAT     H197765   4.955   8.152   4.041  2.3660 -0.2996  0.6448
23990WAT     H297766   4.965   8.286   4.111  1.2869  0.5762 -0.8065
23990WAT    EPW97767   4.945   8.238   4.040  0.5436 -0.4673  0.0696
23991WAT      O97768   6.326   5.433   3.125 -0.8527  0.2639 -0.3829
23991WAT     H197769   6.336   5.413   3.032  1.1585  0.5742 -0.2897
23991WAT     H297770   6.384   5.372   3.170 -1.9233 -0.0026  0.7096
23991WAT    EPW97771   6.335   5.422   3.119 -0.7286  0.2697 -0.2266
23992WAT      O97772   3.433   5.465   2.216  0.0504 -0.1953  0.1503
23992WAT     H197773   3.383   5.435   2.291 -0.0203 -2.4506 -0.7187
23992WAT     H297774   3.414   5.401   2.147  2.2311  0.2314 -0.9421
23992WAT    EPW97775   3.424   5.453   2.217  0.3287 -0.4368 -0.1082
23993WAT      O97776   4.061   4.197   3.959  0.1694 -0.0303  0.9338
23993WAT     H197777   4.079   4.132   4.028  1.6471 -1.0985 -0.3741
23993WAT     H297778   4.139   4.195   3.904 -0.2661  2.0211  0.1542
23993WAT    EPW97779   4.074   4.188   3.961  0.3071  0.0997  0.6585
23994WAT      O97780   7.596   6.778   5.450 -0.0779 -0.3332  0.4424
23994WAT     H197781   7.637   6.860   5.479 -1.2138  0.3459  0.1837
23994WAT     H297782   7.541   6.804   5.376 -0.8432 -1.2473  0.6795
23994WAT    EPW97783   7.594   6.792   5.444 -0.3285 -0.3641  0.4394
23995WAT      O97784   7.390   7.789   4.184 -0.3154  0.4436 -0.2061
23995WAT     H197785   7.414   7.735   4.110  0.3763  1.7806 -0.9869
23995WAT     H297786   7.295   7.798   4.177 -0.0444  2.3261 -2.2265
23995WAT    EPW97787   7.380   7.783   4.173 -0.1886  0.8683 -0.5755
23996WAT      O97788   6.497   6.686   4.821 -0.0099  0.1034  0.4930
23996WAT     H197789   6.571   6.710   4.766  0.9189 -0.4594  1.4808
23996WAT     H297790   6.529   6.614   4.875 -1.5276 -0.7207  0.3601
23996WAT    EPW97791   6.511   6.679   4.821 -0.0875 -0.0794  0.6058
23997WAT      O97792   0.928   2.050   8.332 -0.2123  0.6330  0.1750
23997WAT     H197793   0.984   2.042   8.254  1.8734 -0.4841  1.6777
23997WAT     H297794   0.839   2.053   8.298  0.4212 -2.3764 -2.1657
23997WAT    EPW97795   0.924   2.049   8.317  0.1464  0.0887  0.0644
23998WAT      O97796   1.404   0.641   0.352 -0.5203 -0.1737  0.1252
23998WAT     H197797   1.417   0.574   0.419 -0.1692  0.4263  0.6651
23998WAT     H297798   1.387   0.592   0.272  2.5502 -1.0133 -0.1205
23998WAT    EPW97799   1.403   0.626   0.350 -0.0690 -0.2053  0.1640
23999WAT      O97800   4.145   6.196   2.604 -0.3899  0.4052  0.0969
23999WAT     H197801   4.235   6.162   2.610 -1.1028 -1.7044 -0.2857
23999WAT     H297802   4.091   6.126   2.642 -1.8391  1.9044  0.9163
23999WAT    EPW97803   4.150   6.182   2.610 -0.6747  0.3247  0.1546
24000WAT      O97804   3.985   5.955   3.042 -0.6861 -0.4427  0.3140
24000WAT     H197805   3.939   6.021   2.990 -1.3998 -1.2534 -0.1184
24000WAT     H297806   4.017   6.002   3.118 -1.4835  0.3372  0.1824
24000WAT    EPW97807   3.983   5.970   3.045 -0.8855 -0.4466  0.2395
24001WAT      O97808   6.790   7.231   5.778 -0.1276  0.5001  0.3602
24001WAT     H197809   6.779   7.138   5.761 -1.1634  0.8801 -1.3144
24001WAT     H297810   6.701   7.267   5.773  0.3400  1.6863  0.1685
24001WAT    EPW97811   6.777   7.223   5.775 -0.2024  0.7067  0.1140
24002WAT      O97812   7.268   8.176   2.741 -0.0089  0.4004 -0.6863
24002WAT     H197813   7.314   8.111   2.688 -1.2179  0.7860 -2.3028
24002WAT     H297814   7.176   8.151   2.734 -0.4047  1.7718 -0.6091
24002WAT    EPW97815   7.262   8.164   2.733 -0.2205  0.6323 -0.8893
24003WAT      O97816   5.071   6.462   2.541 -0.4189 -0.0405  0.4470
24003WAT     H197817   5.033   6.378   2.568 -2.5397  1.3067  1.9355
24003WAT     H297818   5.053   6.466   2.447 -1.3277 -0.7575  0.5710
24003WAT    EPW97819   5.063   6.451   2.532 -0.8183  0.0427  0.6597
24004WAT      O97820   8.419   0.456   4.811 -0.4631  0.3644  0.4628
24004WAT     H197821   8.359   0.387   4.839 -1.9146  0.9624 -1.0172
24004WAT     H297822   8.497   0.410   4.780 -1.2512 -0.6096 -0.1290
24004WAT    EPW97823   8.422   0.441   4.811 -0.7586  0.3148  0.1895
24005WAT      O97824   2.643   9.653   3.167  0.0788 -0.3590  0.1780
24005WAT     H197825   2.597   9.624   3.089 -1.9865 -1.0545  1.5695
24005WAT     H297826   2.638   9.749   3.164  1.2841 -0.3190 -1.2187
24005WAT    EPW97827   2.637   9.662   3.157 -0.0346 -0.4454  0.1773
24006WAT      O97828   5.180   8.476   2.564 -0.9151 -0.3761  0.1737
24006WAT     H197829   5.104   8.532   2.580  0.2278  0.9879  1.0328
24006WAT     H297830   5.255   8.529   2.592  0.4034 -1.5006 -1.0835
24006WAT    EPW97831   5.180   8.490   2.569 -0.5903 -0.3452  0.1212
24007WAT      O97832   6.817   6.239   1.768 -0.1106 -0.0321  0.1842
24007WAT     H197833   6.851   6.303   1.831  0.0746  2.1023 -1.9572
24007WAT     H297834   6.733   6.275   1.740  0.1849 -0.4757 -1.3571
24007WAT    EPW97835   6.811   6.252   1.773 -0.0472  0.1910 -0.3015
24008WAT      O97836   6.860   6.240   0.862 -0.6773  0.3090  0.2131
24008WAT     H197837   6.801   6.315   0.873 -0.7088  0.2716  0.3045
24008WAT     H297838   6.880   6.239   0.769  1.6049  2.1377  0.6043
24008WAT    EPW97839   6.855   6.250   0.851 -0.3805  0.5453  0.2768
24009WAT      O97840   5.417   6.587   7.154  0.2413  0.9379 -0.7847
24009WAT     H197841   5.487   6.583   7.219  0.0283  1.0544 -0.5485
24009WAT     H297842   5.393   6.679   7.150  0.8673  1.0817 -1.6878
24009WAT    EPW97843   5.423   6.598   7.162  0.2956  0.9725 -0.8731
24010WAT      O97844   4.724   6.938   6.049  0.2001 -1.4266 -0.3553
24010WAT     H197845   4.712   6.899   6.135 -0.1262 -0.1973  0.1768
24010WAT     H297846   4.754   7.027   6.067 -2.4906 -0.1860 -1.3783
24010WAT    EPW97847   4.726   6.945   6.062 -0.1974 -1.1008 -0.4199
24011WAT      O97848   5.118   7.494   2.839 -0.7372 -0.4425  0.0293
24011WAT     H197849   5.166   7.468   2.918 -0.2615  0.0744 -0.0808
24011WAT     H297850   5.057   7.422   2.823  0.2956 -1.3349 -0.0738
24011WAT    EPW97851   5.116   7.481   2.847 -0.5381 -0.4919  0.0011
24012WAT      O97852   6.418   5.289   1.352 -0.5874 -0.2942  0.0414
24012WAT     H197853   6.455   5.323   1.270 -2.3619 -1.1317 -1.1704
24012WAT     H297854   6.349   5.352   1.375 -0.4578 -0.3578  0.6204
24012WAT    EPW97855   6.414   5.302   1.344 -0.8044 -0.4132 -0.0420
24013WAT      O97856   6.196   6.717   2.567 -0.4172  0.2856 -0.2827
24013WAT     H197857   6.136   6.788   2.589 -0.5280  0.3470 -0.7622
24013WAT     H297858   6.283   6.756   2.572 -0.5394  0.9020 -2.0501
24013WAT    EPW97859   6.200   6.732   2.570 -0.4480  0.3750 -0.5790
24014WAT      O97860   4.181   8.808   2.969  0.0853  0.0189  0.0857
24014WAT     H197861   4.111   8.811   3.034  0.2778 -1.9116  0.4467
24014WAT     H297862   4.261   8.825   3.018  0.4676 -3.3785  0.8573
24014WAT    EPW97863   4.183   8.811   2.984  0.1612 -0.6843  0.2352
24015WAT      O97864   0.077   7.129   2.558  0.1032  0.1200  0.6786
24015WAT     H197865   0.141   7.060   2.540  2.2296  1.8854  1.1085
24015WAT     H297866   0.081   7.186   2.481  0.2386  1.0955  1.3923
24015WAT    EPW97867   0.086   7.127   2.546  0.4016  0.4814  0.8295
24016WAT      O97868   5.787   4.581   2.526 -0.4012  0.9072 -0.3347
24016WAT     H197869   5.815   4.567   2.617 -0.1497 -1.5883 -0.7197
24016WAT     H297870   5.868   4.573   2.475 -0.5284  2.3814 -0.8014
24016WAT    EPW97871   5.802   4.578   2.531 -0.3846  0.7725 -0.4473
24017WAT      O97872   6.077   7.573   4.370 -0.4370 -1.1017 -0.2152
24017WAT     H197873   6.160   7.570   4.417 -1.2176 -1.0056  1.2426
24017WAT     H297874   6.088   7.643   4.307 -0.2762  0.7749  1.7673
24017WAT    EPW97875   6.089   7.582   4.368 -0.5188 -0.8414  0.2387
24018WAT      O97876   7.860  10.188   1.156  0.0644 -0.5513 -0.2606
24018WAT     H197877   7.875  10.265   1.100  0.1720 -1.0090 -0.8699
24018WAT     H297878   7.917  10.202   1.231 -2.1616  1.5296  1.2293
24018WAT    EPW97879   7.869  10.200   1.158 -0.2151 -0.3371 -0.1445
24019WAT      O97880   6.371   8.848   5.285  0.1797  0.0907 -0.4917
24019WAT     H197881   6.390   8.941   5.299  1.5584  0.0183 -1.6728
24019WAT     H297882   6.390   8.806   5.369  1.1721  0.6458 -0.4357
24019WAT    EPW97883   6.376   8.855   5.298  0.4926  0.1545 -0.6399
24020WAT      O97884   7.795   4.956   5.357 -0.5699  0.3304 -0.3580
24020WAT     H197885   7.775   4.928   5.446 -0.6758 -2.9117 -1.3009
24020WAT     H297886   7.718   5.005   5.329 -1.8409 -1.1830  0.3634
24020WAT    EPW97887   7.782   4.959   5.365 -0.7515 -0.2968 -0.3872
24021WAT      O97888   3.586   5.726   2.463 -0.0845  0.3873 -0.0617
24021WAT     H197889   3.589   5.777   2.544  1.5586  0.7465 -0.3140
24021WAT     H297890   3.632   5.644   2.484 -0.7845 -0.0703 -0.2785
24021WAT    EPW97891   3.593   5.722   2.476  0.0399  0.3743 -0.1236
24022WAT      O97892   9.007   4.159   0.277  0.3468  0.2863 -0.4093
24022WAT     H197893   9.043   4.246   0.260  1.8995 -0.4587 -1.1165
24022WAT     H297894   9.080   4.100   0.263 -0.7942 -1.1831 -0.3643
24022WAT    EPW97895   9.021   4.163   0.273  0.4010 -0.0057 -0.4966
24023WAT      O97896   9.775   8.007   3.165 -0.4751 -0.6425  0.0162
24023WAT     H197897   9.780   7.966   3.079 -1.1885 -1.6306  0.4159
24023WAT     H297898   9.693   8.056   3.164 -0.2589 -0.2804 -0.0207
24023WAT    EPW97899   9.765   8.008   3.154 -0.5407 -0.7248  0.0640
24024WAT      O97900   9.638   6.173   2.025  0.2275 -1.0311 -0.1091
24024WAT     H197901   9.707   6.239   2.034  1.0454 -1.7638 -0.8983
24024WAT     H297902   9.592   6.175   2.109  2.4659 -1.9353  1.2194
24024WAT    EPW97903   9.641   6.182   2.037  0.6309 -1.2472 -0.0379
24025WAT      O97904   3.195   4.916   5.995  0.2824  0.6506  0.8493
24025WAT     H197905   3.264   4.957   5.943 -0.7060  2.0604  0.5726
24025WAT     H297906   3.241   4.877   6.069  1.6057 -0.4865 -0.5056
24025WAT    EPW97907   3.210   4.917   5.998  0.3265  0.6864  0.6342
24026WAT      O97908   0.668   0.291   1.279  0.0101  0.7950 -0.4267
24026WAT     H197909   0.580   0.314   1.308 -0.2456  0.4256 -0.8885
24026WAT     H297910   0.720   0.287   1.360 -0.0775  2.3096 -0.2714
24026WAT    EPW97911   0.663   0.293   1.294 -0.0352  0.9460 -0.4672
24027WAT      O97912   7.068   2.947   2.017 -0.4718  0.1394  1.1944
24027WAT     H197913   6.972   2.946   2.019 -0.4751 -0.9360  0.9871
24027WAT     H297914   7.092   2.861   1.984  0.5688  0.4857  1.0164
24027WAT    EPW97915   7.059   2.936   2.013 -0.3350  0.0433  1.1436
24028WAT      O97916   6.286   6.350   2.934 -0.1964 -0.2370  0.0816
24028WAT     H197917   6.260   6.434   2.971  0.3989  0.9576 -2.1035
24028WAT     H297918   6.221   6.332   2.866  0.1329 -1.1683 -0.0072
24028WAT    EPW97919   6.274   6.359   2.930 -0.0741 -0.2024 -0.2185
24029WAT      O97920   5.808   9.113   6.833 -0.1223  0.1578  0.2131
24029WAT     H197921   5.808   9.037   6.775 -1.2981 -0.6302  1.1958
24029WAT     H297922   5.890   9.159   6.813  0.0779 -0.7586 -1.1680
24029WAT    EPW97923   5.819   9.109   6.823 -0.2508 -0.0672  0.1602
24030WAT      O97924   3.214   1.968   8.039  0.3954  0.1176 -0.3275
24030WAT     H197925   3.276   2.011   8.098  0.9281 -1.7963  0.5905
24030WAT     H297926   3.143   2.030   8.030 -0.6167 -0.1216  3.8580
24030WAT    EPW97927   3.213   1.982   8.046  0.3322 -0.1664  0.3457
24031WAT      O97928   6.261   5.076   2.630  0.8990  0.2618  0.3276
24031WAT     H197929   6.339   5.020   2.630 -0.0704 -1.3827 -3.3651
24031WAT     H297930   6.275   5.137   2.558 -0.2983  1.4673  1.0593
24031WAT    EPW97931   6.273   5.077   2.621  0.6130  0.2038 -0.0629
24032WAT      O97932   6.736   6.269   3.459  1.1707  0.2395 -0.1096
24032WAT     H197933   6.706   6.276   3.368  1.0383 -1.1427 -0.1843
24032WAT     H297934   6.657   6.285   3.511  1.3994  1.8357 -0.1865
24032WAT    EPW97935   6.721   6.272   3.454  1.1835  0.2677 -0.1297
24033WAT      O97936   5.864   8.500   2.659 -0.3572 -0.8045  0.1926
24033WAT     H197937   5.873   8.512   2.754  0.1451  3.1618 -0.1899
24033WAT     H297938   5.776   8.530   2.640  0.1885  0.2561 -0.7592
24033WAT    EPW97939   5.854   8.505   2.669 -0.2189 -0.1411  0.0166
24034WAT      O97940   6.049   7.272   3.047  0.2928  0.8779  0.6101
24034WAT     H197941   6.055   7.315   2.962 -0.0278  0.6016  0.4395
24034WAT     H297942   6.129   7.295   3.092  0.1354  1.6270  0.5147
24034WAT    EPW97943   6.060   7.281   3.042  0.2296  0.9403  0.5749
24035WAT      O97944  10.293   4.986   1.624  0.3029  0.0770  0.6815
24035WAT     H197945  10.382   4.952   1.614  0.3745  0.1654  0.9972
24035WAT     H297946  10.246   4.953   1.548  0.4326 -0.5383  0.8553
24035WAT    EPW97947  10.299   4.977   1.613  0.3290  0.0079  0.7460
24036WAT      O97948   7.126   5.499   3.184 -0.1408  0.3203  0.4121
24036WAT     H197949   7.215   5.468   3.203 -1.0107 -1.8069  1.3163
24036WAT     H297950   7.071   5.452   3.247 -1.7088  3.1633  1.3241
24036WAT    EPW97951   7.130   5.489   3.195 -0.4623  0.4148  0.6516
24037WAT      O97952   5.967   6.086   2.584 -0.7017 -0.8394 -0.0168
24037WAT     H197953   5.916   6.067   2.505 -2.2313  1.2222  0.3812
24037WAT     H297954   6.034   6.018   2.586 -0.9507 -1.3099 -2.7751
24037WAT    EPW97955   5.969   6.075   2.574 -0.9363 -0.6294 -0.3283
24038WAT      O97956   6.280   6.764   5.007  0.4724 -0.5620 -0.0782
24038WAT     H197957   6.368   6.755   4.969  0.1176 -3.0977 -0.5225
24038WAT     H297958   6.224   6.785   4.933  0.1850 -2.8313 -0.5765
24038WAT    EPW97959   6.284   6.765   4.992  0.3877 -1.1959 -0.2027
24039WAT      O97960   8.002   5.062   0.914  0.0902  0.4676  0.7027
24039WAT     H197961   8.045   5.074   0.829  0.1200 -1.2217  0.4511
24039WAT     H297962   8.064   5.010   0.966 -2.2233 -3.8284 -0.3378
24039WAT    EPW97963   8.016   5.057   0.910 -0.2112 -0.3219  0.5323
24040WAT      O97964   6.818   1.221   6.126 -0.3324  0.1105 -0.0746
24040WAT     H197965   6.723   1.208   6.128 -0.1149 -1.7542  2.4512
24040WAT     H297966   6.843   1.230   6.217  1.9406  0.6601 -0.7041
24040WAT    EPW97967   6.809   1.220   6.138 -0.0038 -0.0630  0.1757
24041WAT      O97968   6.634   6.753   1.160  0.0655  0.8927  0.6367
24041WAT     H197969   6.689   6.725   1.086 -0.3735  1.0744  0.2337
24041WAT     H297970   6.687   6.819   1.205 -0.4100  2.1916 -0.6366
24041WAT    EPW97971   6.648   6.758   1.156 -0.0551  1.0881  0.4156
24042WAT      O97972   7.441   6.798   7.236 -0.2813  0.3128 -0.3500
24042WAT     H197973   7.404   6.808   7.148  0.5539 -0.7547 -0.8529
24042WAT     H297974   7.404   6.716   7.268 -1.7706  1.4414  0.9430
24042WAT    EPW97975   7.431   6.788   7.228 -0.3676  0.3207 -0.2458
24043WAT      O97976   6.467   9.024   3.094  0.6218  0.2350 -0.3851
24043WAT     H197977   6.495   8.985   3.176  0.3441 -1.0404 -0.8713
24043WAT     H297978   6.548   9.052   3.051  0.7579  0.9935  0.3447
24043WAT    EPW97979   6.481   9.023   3.099  0.6032  0.1669 -0.3530
24044WAT      O97980   8.568   8.789   1.168 -0.0097  0.5022  0.0609
24044WAT     H197981   8.624   8.850   1.120 -0.9850  1.2683 -0.1497
24044WAT     H297982   8.506   8.757   1.102  2.1392 -2.9638 -0.5650
24044WAT    EPW97983   8.567   8.793   1.153  0.1450  0.1459 -0.0494
24045WAT      O97984   8.457   6.370   3.129 -0.0943  0.2861  0.2649
24045WAT     H197985   8.430   6.433   3.062  1.3001  1.4453  0.7338
24045WAT     H297986   8.434   6.410   3.212 -1.0106 -0.7486  0.5313
24045WAT    EPW97987   8.451   6.383   3.131 -0.0310  0.3026  0.3619
24046WAT      O97988   4.621   8.227   3.935 -0.4293  0.1228 -0.3745
24046WAT     H197989   4.662   8.239   4.021  1.1807  0.4551 -1.1446
24046WAT     H297990   4.616   8.315   3.899 -2.2250  0.1443 -0.1800
24046WAT    EPW97991   4.626   8.240   3.942 -0.4539  0.1693 -0.4504
24047WAT      O97992   7.379   8.175   0.421  0.6541  0.1349 -0.3883
24047WAT     H197993   7.415   8.262   0.433 -2.3613  1.3833  0.5464
24047WAT     H297994   7.380   8.135   0.508 -0.0108  0.1524 -0.3614
24047WAT    EPW97995   7.384   8.181   0.434  0.1688  0.3023 -0.2614
24048WAT      O97996   7.731   0.387   3.648  0.4074 -0.6822  0.6276
24048WAT     H197997   7.688   0.376   3.732  1.0614  1.5212  1.3257
24048WAT     H297998   7.821   0.357   3.662 -0.2613 -3.3510 -0.2578
24048WAT    EPW97999   7.737   0.382   3.661  0.4053 -0.7436  0.6028
24049WAT      O98000   8.428   3.544   0.839 -0.1146  0.2224 -0.4888
24049WAT     H198001   8.333   3.547   0.851 -0.0399 -2.9122  1.8562
24049WAT     H298002   8.445   3.614   0.776 -3.8342  1.5104 -0.3377
24049WAT    EPW98003   8.418   3.554   0.832 -0.5956 -0.0212 -0.1596
24050WAT      O98004   6.009   7.791   6.546 -0.0183  0.7234 -0.7522
24050WAT     H198005   6.091   7.770   6.501  1.7099  3.0944  0.9888
24050WAT     H298006   5.948   7.815   6.476 -0.4538 -4.1133 -2.3743
24050WAT    EPW98007   6.012   7.791   6.531  0.1523  0.3979 -0.7362
24051WAT      O98008   6.059   8.587   3.346  0.3984  0.1167 -0.0828
24051WAT     H198009   6.025   8.498   3.356 -1.6750  1.0396  2.5326
24051WAT     H298010   5.990   8.635   3.301  0.8473  0.7465 -0.1261
24051WAT    EPW98011   6.046   8.582   3.342  0.1838  0.3214  0.2564
24052WAT      O98012   3.746   8.855   1.970 -0.1334  0.3420  0.0242
24052WAT     H198013   3.813   8.897   2.023  0.7860 -0.8209 -0.1757
24052WAT     H298014   3.743   8.764   2.001 -2.9202  0.7444  1.3010
24052WAT    EPW98015   3.754   8.848   1.981 -0.3796  0.2418  0.1662
24053WAT      O98016   5.253   9.237   4.532 -0.4113  0.3277  0.2282
24053WAT     H198017   5.329   9.205   4.484 -1.6361  1.0347 -2.3800
24053WAT     H298018   5.248   9.330   4.510  0.0492  1.2149  3.4009
24053WAT    EPW98019   5.262   9.245   4.523 -0.5124  0.5379  0.3026
24054WAT      O98020   5.706   1.863   8.614  0.6819 -0.1270 -0.0732
24054WAT     H198021   5.651   1.784   8.609  0.1804  0.1569  0.6812
24054WAT     H298022   5.669   1.913   8.687  1.3555  0.5357 -0.1715
24054WAT    EPW98023   5.694   1.859   8.623  0.7048 -0.0022  0.0129
24055WAT      O98024   6.017   6.711   0.154  0.2922 -0.4232  0.6796
24055WAT     H198025   5.970   6.787   0.189 -0.4778 -0.0599 -1.0350
24055WAT     H298026   5.975   6.636   0.195  1.0750  0.0410  2.4132
24055WAT    EPW98027   6.005   6.711   0.164  0.2940 -0.3142  0.6821
24056WAT      O98028   5.250   6.930   7.205 -0.6554 -0.1396 -0.3331
24056WAT     H198029   5.262   6.900   7.295 -0.0831 -0.3806 -0.4820
24056WAT     H298030   5.160   6.962   7.202 -0.9983 -1.0327  0.0642
24056WAT    EPW98031   5.240   6.930   7.216 -0.6254 -0.2892 -0.3002
24057WAT      O98032   5.141   4.828   2.831 -0.4554  0.0430  0.3113
24057WAT     H198033   5.075   4.761   2.816  0.3497 -0.5141 -0.9638
24057WAT     H298034   5.098   4.910   2.807 -1.7296  0.1633  2.7165
24057WAT    EPW98035   5.127   4.830   2.826 -0.5171 -0.0148  0.4604
24058WAT      O98036   6.544   5.351   3.823  0.5341  0.3052  0.1612
24058WAT     H198037   6.547   5.255   3.815 -0.9281  0.2626 -0.2211
24058WAT     H298038   6.635   5.379   3.816  0.8070 -0.9207 -1.7048
24058WAT    EPW98039   6.557   5.342   3.821  0.3772  0.1380 -0.1353
24059WAT      O98040   6.842   6.205   1.284 -0.1147 -1.2343  0.0550
24059WAT     H198041   6.934   6.179   1.276 -0.0040 -1.6696  2.1280
24059WAT     H298042   6.812   6.161   1.364 -1.6020  0.3569  0.4315
24059WAT    EPW98043   6.850   6.196   1.294 -0.2964 -1.0819  0.3781
24060WAT      O98044   3.497   2.375   7.507  0.5437 -0.0203 -0.2734
24060WAT     H198045   3.589   2.353   7.520  0.9427  2.2500  1.2046
24060WAT     H298046   3.489   2.390   7.413  1.7736  0.1387 -0.3656
24060WAT    EPW98047   3.508   2.374   7.496  0.7584  0.3000 -0.0908
24061WAT      O98048   6.120   5.104   2.893 -0.5250 -0.3600  0.2156
24061WAT     H198049   6.148   5.028   2.944 -0.1604  0.3458  1.0890
24061WAT     H298050   6.154   5.087   2.805 -1.0181 -1.5132  0.2304
24061WAT    EPW98051   6.128   5.092   2.888 -0.5417 -0.4189  0.3326
24062WAT      O98052   9.890   7.939   0.477 -0.6708  0.2429  0.2220
24062WAT     H198053   9.795   7.955   0.474 -1.2454 -2.4690 -3.1115
24062WAT     H298054   9.898   7.845   0.495  1.1324 -0.2466 -2.5237
24062WAT    EPW98055   9.878   7.929   0.479 -0.5088 -0.1793 -0.5798
24063WAT      O98056   9.795   0.198   1.239 -1.0198  0.1215  0.4921
24063WAT     H198057   9.786   0.183   1.333 -2.3848 -0.1241  0.3395
24063WAT     H298058   9.767   0.115   1.199 -0.8008  0.3453 -0.1354
24063WAT    EPW98059   9.790   0.185   1.246 -1.1711  0.1186  0.3892
24064WAT      O98060   4.052   7.360   6.036  0.6974 -0.1388 -0.4136
24064WAT     H198061   4.065   7.265   6.046  1.8183 -0.1589 -1.8786
24064WAT     H298062   4.123   7.388   5.979  0.1741  1.5472 -0.2696
24064WAT    EPW98063   4.063   7.351   6.030  0.7763  0.0806 -0.5875
24065WAT      O98064   6.947   5.744   3.504 -0.1307  0.4342 -0.0882
24065WAT     H198065   6.908   5.816   3.455  2.5467  1.5700 -0.7657
24065WAT     H298066   7.015   5.710   3.445  1.2301 -0.0751  1.6882
24065WAT    EPW98067   6.951   5.749   3.489  0.4020  0.5167  0.0567
24066WAT      O98068   6.127   9.663   1.740  0.3835  0.3057  0.1185
24066WAT     H198069   6.125   9.578   1.783  0.3276  0.8852  1.2936
24066WAT     H298070   6.049   9.708   1.773  2.7092  2.4771  3.0791
24066WAT    EPW98071   6.116   9.658   1.750  0.6826  0.6690  0.6639
24067WAT      O98072   4.336   8.654   3.920 -0.2203  0.4848 -0.0687
24067WAT     H198073   4.368   8.683   4.006 -0.3310  2.1690 -0.5542
24067WAT     H298074   4.253   8.611   3.938 -0.3012  0.9357  0.6586
24067WAT    EPW98075   4.330   8.652   3.934 -0.2456  0.7658 -0.0368
24068WAT      O98076   4.843   1.306   8.402 -0.3581 -1.0769  0.2038
24068WAT     H198077   4.910   1.294   8.469  0.9156  0.2504 -0.7555
24068WAT     H298078   4.837   1.221   8.358  1.1301 -1.0573 -0.0694
24068WAT    EPW98079   4.851   1.293   8.405  0.0062 -0.8993  0.0415
24069WAT      O98080   6.053   8.059   3.052 -0.8514 -0.0741 -0.8649
24069WAT     H198081   5.962   8.035   3.066 -0.1906 -1.0801  2.5871
24069WAT     H298082   6.095   7.978   3.024 -0.5396 -0.3249  0.2966
24069WAT    EPW98083   6.047   8.045   3.050 -0.7231 -0.2403 -0.2564
24070WAT      O98084   7.456   3.738   0.248  0.3490 -0.4128  0.7252
24070WAT     H198085   7.430   3.822   0.287 -1.5253  0.0757 -1.3668
24070WAT     H298086   7.416   3.672   0.305 -0.7823  0.2283  0.7008
24070WAT    EPW98087   7.447   3.740   0.261 -0.0474 -0.2638  0.4460
24071WAT      O98088   6.848   7.634   6.202 -0.3455 -0.4090 -0.2055
24071WAT     H198089   6.773   7.674   6.159 -0.3313 -1.4593 -1.2448
24071WAT     H298090   6.923   7.661   6.150 -0.4214 -2.4332 -1.4573
24071WAT    EPW98091   6.848   7.643   6.190 -0.3536 -0.8142 -0.5076
24072WAT      O98092   3.615   2.273   8.385 -0.4847  0.1107  0.2639
24072WAT     H198093   3.622   2.368   8.390 -2.5833  0.3600 -0.4876
24072WAT     H298094   3.521   2.255   8.397 -0.7359 -1.5572 -3.0450
24072WAT    EPW98095   3.603   2.283   8.387 -0.7946 -0.0764 -0.2718
24073WAT      O98096   3.762   7.357   4.487 -0.0491  0.3037 -0.4533
24073WAT     H198097   3.747   7.371   4.394  0.3107 -1.5285 -0.8164
24073WAT     H298098   3.841   7.303   4.491  0.3796  0.9823  0.9620
24073WAT    EPW98099   3.771   7.352   4.476  0.0548  0.1519 -0.3147
24074WAT      O98100   4.319   5.279   1.872  0.0336  0.8337  0.2324
24074WAT     H198101   4.391   5.225   1.838 -0.3748  1.6979 -2.2072
24074WAT     H298102   4.248   5.216   1.887 -0.4321  0.5285 -2.5508
24074WAT    EPW98103   4.319   5.263   1.869 -0.0818  0.9072 -0.4565
24075WAT      O98104   5.100   7.688   3.038  0.6768  0.0501  0.3963
24075WAT     H198105   5.187   7.693   3.076  0.3034  1.8595  1.1059
24075WAT     H298106   5.106   7.617   2.974  2.4881 -0.2603  0.8617
24075WAT    EPW98107   5.112   7.680   3.034  0.8667  0.2477  0.5513
24076WAT      O98108   7.448   5.698   2.550  0.2052 -0.2829  0.0670
24076WAT     H198109   7.520   5.658   2.599 -0.7535 -1.8146  0.2999
24076WAT     H298110   7.431   5.636   2.479 -1.9782 -0.8586  1.0139
24076WAT    EPW98111   7.455   5.684   2.547 -0.2091 -0.5612  0.2224
24077WAT      O98112   7.374   9.668   4.470 -0.2057 -0.8544  0.6137
24077WAT     H198113   7.397   9.662   4.377  0.5432  0.8014  0.6518
24077WAT     H298114   7.300   9.728   4.472  0.1974 -0.3670  1.1330
24077WAT    EPW98115   7.367   9.675   4.458 -0.0539 -0.5713  0.6871
24078WAT      O98116   6.978   4.318   4.313  0.0080  0.4962  0.1158
24078WAT     H198117   6.886   4.322   4.342 -0.0990 -0.5762 -0.0427
24078WAT     H298118   7.024   4.375   4.375  0.1263 -3.1859  3.9103
24078WAT    EPW98119   6.972   4.326   4.325  0.0093 -0.1309  0.5951
24079WAT      O98120   4.465   7.784   2.894 -0.1068 -0.8016 -0.2157
24079WAT     H198121   4.395   7.746   2.841 -0.3135 -0.5494 -0.1244
24079WAT     H298122   4.420   7.822   2.969  0.1774 -1.0671  0.0877
24079WAT    EPW98123   4.450   7.784   2.897 -0.0966 -0.8032 -0.1636
24080WAT      O98124   5.643   6.856   3.058  0.4733  0.9195 -0.5568
24080WAT     H198125   5.697   6.857   2.979  1.8043 -0.6407  0.2777
24080WAT     H298126   5.556   6.880   3.027  1.6740  4.1290 -1.8586
24080WAT    EPW98127   5.639   6.859   3.043  0.8075  1.1368 -0.6183
24081WAT      O98128  10.646   6.152   1.605  0.0118 -0.1091  0.1838
24081WAT     H198129  10.660   6.238   1.563  0.8532 -0.7265 -0.8549
24081WAT     H298130  10.566   6.119   1.564  0.5497 -0.4880 -0.5745
24081WAT    EPW98131  10.637   6.159   1.594  0.1936 -0.2408 -0.0533
24082WAT      O98132   5.728   6.502   3.131 -0.1310 -0.3915  0.2249
24082WAT     H198133   5.651   6.546   3.167 -1.5372 -1.2727 -1.5691
24082WAT     H298134   5.741   6.426   3.188 -0.2005  0.0830  0.8860
24082WAT    EPW98135   5.720   6.498   3.143 -0.3259 -0.4456  0.0755
24083WAT      O98136   8.713  10.058   8.728 -0.3578  0.1151  0.2687
24083WAT     H198137   8.782  10.051   8.663  0.5756 -1.4257  1.3607
24083WAT     H298138   8.632  10.049   8.678  0.2862  0.1512 -0.8173
24083WAT    EPW98139   8.711  10.056   8.713 -0.1497 -0.0834  0.2694
24084WAT      O98140   7.605   8.506   1.249  0.1312  0.3877 -0.2343
24084WAT     H198141   7.605   8.419   1.289 -0.2256  1.7751  3.0807
24084WAT     H298142   7.696   8.536   1.258 -0.0082  0.8238 -0.2583
24084WAT    EPW98143   7.617   8.498   1.255  0.0656  0.6285  0.1997
24085WAT      O98144   7.795   9.421   4.159  0.6860 -0.5084  0.2403
24085WAT     H198145   7.764   9.370   4.083  3.8802 -1.0286 -0.8733
24085WAT     H298146   7.744   9.387   4.233 -1.2412 -1.2923 -1.3552
24085WAT    EPW98147   7.784   9.410   4.159  0.8531 -0.6804 -0.1171
24086WAT      O98148  10.244   5.704   1.206 -0.2194  0.2725 -0.1271
24086WAT     H198149  10.200   5.620   1.193  1.1470 -0.5208  0.2001
24086WAT     H298150  10.275   5.701   1.297  3.4351 -0.7133 -1.2258
24086WAT    EPW98151  10.242   5.693   1.216  0.4425  0.0379 -0.2288
24087WAT      O98152   3.778   3.910   3.450  0.6366  0.4887  0.1586
24087WAT     H198153   3.802   3.975   3.515  3.4694 -0.5448  0.2891
24087WAT     H298154   3.772   3.828   3.499  0.1668  0.1284 -0.4820
24087WAT    EPW98155   3.781   3.908   3.465  0.9483  0.3048  0.0914
24088WAT      O98156   6.166   6.506   6.108  0.1780 -0.1248 -0.1854
24088WAT     H198157   6.229   6.437   6.129  1.0204  0.4156 -0.8622
24088WAT     H298158   6.080   6.466   6.126  0.7089 -0.7542  1.0884
24088WAT    EPW98159   6.163   6.491   6.113  0.3591 -0.1364 -0.1066
24089WAT      O98160   5.249   6.669   3.891 -0.0386 -0.8511 -0.2109
24089WAT     H198161   5.299   6.689   3.970 -3.2975 -0.6682  2.0351
24089WAT     H298162   5.272   6.578   3.871  2.2849 -0.3103 -0.3017
24089WAT    EPW98163   5.258   6.659   3.899 -0.1616 -0.7558  0.0734
24090WAT      O98164   6.661   9.599   8.004 -0.2954 -0.3287  0.1361
24090WAT     H198165   6.623   9.677   7.963  2.3847  1.1147  0.2085
24090WAT     H298166   6.643   9.529   7.941 -0.7568  0.8067 -1.0545
24090WAT    EPW98167   6.653   9.600   7.990 -0.0026  0.0119 -0.0112
24091WAT      O98168   5.044   8.087   4.713  0.1071  0.8553 -0.2091
24091WAT     H198169   4.990   8.029   4.766 -0.0651  1.0279 -0.1922
24091WAT     H298170   5.069   8.158   4.772  1.5185  0.0734  0.1723
24091WAT    EPW98171   5.040   8.089   4.728  0.2706  0.7753 -0.1564
24092WAT      O98172   8.963   2.792   0.904  0.2331  0.2887  0.7041
24092WAT     H198173   9.039   2.739   0.879 -0.8762 -1.4484  0.8696
24092WAT     H298174   8.971   2.802   0.998  2.8010  4.2942  0.2724
24092WAT    EPW98175   8.974   2.786   0.913  0.4253  0.5878  0.6690
24093WAT      O98176   7.951   6.871   1.564 -0.1488 -0.5565  0.2103
24093WAT     H198177   7.865   6.848   1.599 -0.5059  1.8182  1.0955
24093WAT     H298178   7.932   6.936   1.496  0.9176 -0.2836  0.1537
24093WAT    EPW98179   7.937   6.877   1.560 -0.0556 -0.2074  0.3195
24094WAT      O98180   6.105   9.447   4.574 -0.4811  0.0180  0.3856
24094WAT     H198181   6.119   9.358   4.607 -2.0674 -0.7557 -0.8815
24094WAT     H298182   6.092   9.500   4.653  0.3252 -0.8965  1.1547
24094WAT    EPW98183   6.105   9.442   4.589 -0.5839 -0.2046  0.3197
24095WAT      O98184   5.542   6.534   1.415 -0.2596 -0.2393 -0.4315
24095WAT     H198185   5.603   6.462   1.402  0.5497  0.0586  1.3337
24095WAT     H298186   5.506   6.552   1.328  2.5997 -0.0581 -1.6748
24095WAT    EPW98187   5.545   6.527   1.402  0.2241 -0.1760 -0.3627
24096WAT      O98188   7.684   9.378   4.406 -0.3916 -0.3631 -0.2305
24096WAT     H198189   7.748   9.360   4.474 -1.2626 -2.1383  0.1885
24096WAT     H298190   7.600   9.378   4.452 -0.7958  0.9295 -0.9261
24096WAT    EPW98191   7.681   9.375   4.421 -0.5598 -0.4268 -0.2670
24097WAT      O98192   7.710   6.674   1.323 -0.0166 -0.1035 -0.6212
24097WAT     H198193   7.737   6.752   1.274 -0.6336 -0.2968 -1.2866
24097WAT     H298194   7.704   6.605   1.256 -0.9299 -0.3616 -0.2862
24097WAT    EPW98195   7.713   6.675   1.307 -0.2182 -0.1631 -0.6648
24098WAT      O98196   9.809   6.873   0.105  0.0083 -0.4492  0.2252
24098WAT     H198197   9.799   6.852   0.012 -2.9226  1.6770 -0.1038
24098WAT     H298198   9.817   6.969   0.107  1.4037 -0.5337  2.1490
24098WAT    EPW98199   9.809   6.883   0.093 -0.1936 -0.1800  0.4356
24099WAT      O98200   2.928   8.472   5.201  0.2588 -0.6441 -0.2534
24099WAT     H198201   2.926   8.443   5.293  0.3936  0.0529 -0.0246
24099WAT     H298202   2.844   8.516   5.188  0.4438 -0.3024 -0.3125
24099WAT    EPW98203   2.917   8.474   5.212  0.3009 -0.5074 -0.2313
24100WAT      O98204   6.159   5.313   3.885  0.4299 -0.4126  0.3832
24100WAT     H198205   6.167   5.290   3.978  1.1126  0.8594  0.6684
24100WAT     H298206   6.132   5.405   3.886 -1.1074 -0.8207 -0.6882
24100WAT    EPW98207   6.157   5.322   3.898  0.3171 -0.2987  0.2794
24101WAT      O98208   7.793   7.031   2.609 -0.9500 -0.0460 -0.0579
24101WAT     H198209   7.710   6.989   2.588 -1.7462  1.9805 -1.2721
24101WAT     H298210   7.768   7.114   2.650  0.3726  1.5602 -2.2972
24101WAT    EPW98211   7.779   7.036   2.612 -0.8807  0.4332 -0.5133
24102WAT      O98212   7.921   6.697   2.017  0.0923  0.3711  0.2330
24102WAT     H198213   7.984   6.640   1.974 -0.5757  1.0698 -1.7890
24102WAT     H298214   7.900   6.653   2.099  0.4288 -1.7068 -0.7511
24102WAT    EPW98215   7.927   6.684   2.022  0.0486  0.1891 -0.1634
24103WAT      O98216   5.760   2.417   8.251 -0.8961 -0.1430 -0.4313
24103WAT     H198217   5.825   2.367   8.300 -1.9280 -1.2681 -0.1685
24103WAT     H298218   5.774   2.508   8.278 -1.8131 -0.7545  2.4506
24103WAT    EPW98219   5.770   2.422   8.261 -1.1528 -0.3721 -0.0162
24104WAT      O98220   8.942   6.863   4.592  0.0304 -0.8744 -0.1793
24104WAT     H198221   8.934   6.806   4.668  1.8400  0.8787  1.4255
24104WAT     H298222   9.025   6.908   4.603 -0.6354  1.0544 -2.0892
24104WAT    EPW98223   8.952   6.862   4.603  0.1807 -0.3889 -0.2193
24105WAT      O98224   6.125   6.472   1.773  0.1458 -0.1102  0.2898
24105WAT     H198225   6.099   6.548   1.721  1.4393  0.1233 -0.0526
24105WAT     H298226   6.053   6.410   1.763  0.4302 -0.1552 -1.9641
24105WAT    EPW98227   6.112   6.474   1.765  0.3538 -0.0856 -0.0526
24106WAT      O98228   6.455   9.412   4.730  0.3598 -0.1120  0.2549
24106WAT     H198229   6.486   9.425   4.641 -0.2230  0.2676  0.1012
24106WAT     H298230   6.397   9.335   4.725 -0.2773  0.3641  0.1467
24106WAT    EPW98231   6.451   9.403   4.718  0.1991  0.0014  0.2205
24107WAT      O98232   0.707   0.695   3.869 -0.2797 -0.0466 -0.3915
24107WAT     H198233   0.700   0.770   3.928  0.7284 -1.5432  1.7494
24107WAT     H298234   0.635   0.638   3.895  0.9687 -1.3324  0.3750
24107WAT    EPW98235   0.696   0.697   3.880  0.0179 -0.4136 -0.0079
24108WAT      O98236   7.916   6.427   4.221  0.1901  0.1238  0.3980
24108WAT     H198237   7.894   6.519   4.232 -1.9688 -0.0110 -1.9238
24108WAT     H298238   7.846   6.392   4.165  1.7006 -2.6044  0.0446
24108WAT    EPW98239   7.904   6.434   4.215  0.1047 -0.2534  0.0453
24109WAT      O98240   5.595   5.397   2.973 -0.8124 -0.3243  0.0712
24109WAT     H198241   5.661   5.460   2.944 -0.9550 -0.6303 -0.9757
24109WAT     H298242   5.643   5.315   2.984 -0.8991 -0.3961 -0.0767
24109WAT    EPW98243   5.610   5.394   2.971 -0.8426 -0.3746 -0.0864
24110WAT      O98244   7.013   7.591   4.004 -0.0436 -0.0917  0.1437
24110WAT     H198245   7.010   7.675   4.050  1.7812  0.7839 -1.2020
24110WAT     H298246   6.950   7.601   3.932 -0.9359 -0.4827  0.8410
24110WAT    EPW98247   7.004   7.604   4.001  0.0796 -0.0281  0.0582
24111WAT      O98248  10.162   5.255   1.432  0.3855 -0.4364  1.0262
24111WAT     H198249  10.219   5.293   1.498 -0.4031  0.0485  1.4480
24111WAT     H298250  10.077   5.246   1.476 -0.4803  1.0134 -0.2588
24111WAT    EPW98251  10.158   5.259   1.446  0.1674 -0.1812  0.9123
24112WAT      O98252   6.383   5.595   3.784  0.1904 -0.2510  0.7289
24112WAT     H198253   6.316   5.590   3.852  0.5338 -0.2256  1.0716
24112WAT     H298254   6.447   5.529   3.808 -1.8490 -3.5530 -2.0180
24112WAT    EPW98255   6.382   5.586   3.796 -0.0331 -0.6831  0.4119
24113WAT      O98256   5.925   7.160   6.564 -0.4005  0.0982 -0.1971
24113WAT     H198257   5.936   7.207   6.647 -0.9624  3.2916 -1.7553
24113WAT     H298258   6.004   7.107   6.555  0.0421  0.3122  1.9911
24113WAT    EPW98259   5.937   7.159   6.574 -0.4160  0.5476 -0.1142
24114WAT      O98260   8.695   4.783   1.741 -0.3485  0.1857 -0.3915
24114WAT     H198261   8.627   4.848   1.726 -2.1114 -1.3519  0.4335
24114WAT     H298262   8.681   4.717   1.673  2.2169  1.1730 -2.0217
24114WAT    EPW98263   8.684   4.783   1.730 -0.2432  0.1135 -0.4978
24115WAT      O98264   4.568   3.514   3.675  0.6703 -0.4337 -0.3978
24115WAT     H198265   4.529   3.560   3.749  0.2773 -2.6964  0.9147
24115WAT     H298266   4.643   3.568   3.650 -0.7412  1.7722 -0.1665
24115WAT    EPW98267   4.573   3.527   3.682  0.4325 -0.4411 -0.1942
24116WAT      O98268   6.653   6.080   3.652  0.0762 -0.6445  0.0921
24116WAT     H198269   6.634   6.136   3.728  0.7425  0.7597 -0.7217
24116WAT     H298270   6.683   5.998   3.690 -1.1660 -0.5563  1.3436
24116WAT    EPW98271   6.654   6.077   3.667  0.0002 -0.4475  0.1498
24117WAT      O98272   6.591   9.119   0.398  0.1265  0.1415  0.7075
24117WAT     H198273   6.565   9.209   0.413  0.2868  1.3419 -4.3693
24117WAT     H298274   6.509   9.072   0.385 -0.0043  1.0499 -2.5205
24117WAT    EPW98275   6.577   9.124   0.398  0.1302  0.4196 -0.3878
24118WAT      O98276   3.164   8.681   4.475 -0.0094 -0.3381 -0.2578
24118WAT     H198277   3.137   8.701   4.386  0.2976  1.7966  0.0785
24118WAT     H298278   3.090   8.635   4.514 -0.9451  0.4843 -1.0309
24118WAT    EPW98279   3.151   8.678   4.469 -0.0923  0.0525 -0.3152
24119WAT      O98280   4.082   9.422   7.050 -0.2456 -0.4076 -0.0507
24119WAT     H198281   4.052   9.375   6.972  1.1145 -0.8139 -0.3625
24119WAT     H298282   4.018   9.491   7.063 -0.9946 -0.9057 -0.9900
24119WAT    EPW98283   4.070   9.425   7.041 -0.1650 -0.5274 -0.2155
24120WAT      O98284   7.565   6.619   4.231 -0.1764  0.2223 -0.4753
24120WAT     H198285   7.537   6.610   4.322 -1.4015 -1.6522 -0.9684
24120WAT     H298286   7.581   6.529   4.202 -0.2565  0.7364 -2.2308
24120WAT    EPW98287   7.563   6.606   4.239 -0.3486  0.0427 -0.7718
24121WAT      O98288   8.084   3.414   4.502  0.8788 -0.8039 -0.1480
24121WAT     H198289   8.119   3.495   4.466  0.6557 -0.8875 -0.5586
24121WAT     H298290   7.992   3.434   4.522  1.5890  0.0335  2.7982
24121WAT    EPW98291   8.076   3.427   4.500  0.9427 -0.7045  0.1864
24122WAT      O98292   5.792   0.407   7.416 -0.3197 -0.0138  0.5563
24122WAT     H198293   5.861   0.345   7.396 -0.7020  0.0801 -1.2334
24122WAT     H298294   5.718   0.379   7.363 -0.4833  1.9678 -0.3769
24122WAT    EPW98295   5.791   0.395   7.406 -0.3917  0.2600  0.1972
24123WAT      O98296   8.746   8.018   4.232 -0.4395  0.4077  0.2486
24123WAT     H198297   8.840   8.005   4.221 -0.4845 -2.1356  1.9907
24123WAT     H298298   8.738   8.075   4.308 -0.2984  0.3613  0.2994
24123WAT    EPW98299   8.757   8.024   4.240 -0.4268  0.0658  0.4849
24124WAT      O98300   6.568   7.876   4.991  0.4408 -0.8480 -0.2273
24124WAT     H198301   6.643   7.907   4.939  0.6454 -0.3834  0.3371
24124WAT     H298302   6.560   7.939   5.062 -0.4212 -0.9619 -0.2100
24124WAT    EPW98303   6.577   7.888   4.993  0.3538 -0.8018 -0.1507
24125WAT      O98304   5.980   7.182   0.684 -0.0795 -0.0888 -0.3548
24125WAT     H198305   5.891   7.156   0.709 -0.0969 -0.3580 -0.6916
24125WAT     H298306   6.026   7.189   0.768 -0.0998 -1.1330 -0.2426
24125WAT    EPW98307   5.974   7.179   0.699 -0.0846 -0.2623 -0.3844
24126WAT      O98308   0.869   0.502   3.972 -0.2135  0.5634  0.0144
24126WAT     H198309   0.884   0.439   3.901  2.3149  2.3875 -1.2335
24126WAT     H298310   0.814   0.570   3.932 -0.5441  0.5625  0.4642
24126WAT    EPW98311   0.864   0.503   3.957  0.0764  0.8039 -0.0908
24127WAT      O98312   1.483   0.491   3.203  0.0113 -0.1753 -0.3725
24127WAT     H198313   1.430   0.557   3.248  0.2459  0.6783 -1.3171
24127WAT     H298314   1.432   0.411   3.210 -0.8011  0.3471 -0.1576
24127WAT    EPW98315   1.469   0.489   3.210 -0.0650  0.0062 -0.4687
24128WAT      O98316  10.816  10.236   1.969  0.0324  0.0959 -0.6939
24128WAT     H198317  10.771  10.189   2.039 -1.6923 -0.5918 -2.1663
24128WAT     H298318  10.896  10.186   1.953  1.3889  1.2662  1.8965
24128WAT    EPW98319  10.821  10.223   1.976 -0.0162  0.1583 -0.5465
24129WAT      O98320   5.002   4.997   2.341  0.0796  0.2090  0.2492
24129WAT     H198321   4.933   4.937   2.369 -0.9029  0.8226 -0.7768
24129WAT     H298322   4.997   4.996   2.245  0.9133  0.9456  0.1843
24129WAT    EPW98323   4.992   4.989   2.332  0.0601  0.3870  0.1053
24130WAT      O98324   8.113   7.475   5.960  0.8638  0.4349 -0.0430
24130WAT     H198325   8.074   7.477   5.872  1.1832  2.1450 -0.1737
24130WAT     H298326   8.084   7.556   6.001  0.5472 -0.4459  1.5366
24130WAT    EPW98327   8.104   7.486   5.954  0.8645  0.5441  0.1481
24131WAT      O98328   0.715   0.859   3.052  0.4748 -0.0212 -0.0424
24131WAT     H198329   0.734   0.946   3.019  3.2637 -1.0840 -1.5468
24131WAT     H298330   0.720   0.868   3.147  1.5291  1.3140 -0.1957
24131WAT    EPW98331   0.718   0.871   3.060  0.9817  0.0147 -0.2611
24132WAT      O98332   8.134   7.105   2.775 -0.4177  0.6937  0.3347
24132WAT     H198333   8.140   7.147   2.690 -0.0173  0.6230  0.3264
24132WAT     H298334   8.077   7.162   2.826  0.1734  1.2924  0.3443
24132WAT    EPW98335   8.127   7.118   2.771 -0.2871  0.7634  0.3350
24133WAT      O98336   4.634   8.430   7.111 -0.1528  0.0520 -0.2994
24133WAT     H198337   4.683   8.373   7.051 -1.0979  1.9211 -3.0754
24133WAT     H298338   4.543   8.408   7.094 -0.4246 -0.0509  1.2367
24133WAT    EPW98339   4.629   8.420   7.101 -0.3130  0.2847 -0.4628
24134WAT      O98340   7.010   7.304   2.220 -0.4323  0.5870  0.4417
24134WAT     H198341   7.093   7.306   2.171  0.7580 -3.6113  1.8413
24134WAT     H298342   7.037   7.299   2.312 -2.1904 -0.7145  0.9458
24134WAT    EPW98343   7.025   7.303   2.226 -0.5076 -0.1385  0.6928
24135WAT      O98344   9.657   8.191   1.205 -0.5939  0.1639  0.3977
24135WAT     H198345   9.726   8.240   1.162 -2.6582  1.1428 -2.0178
24135WAT     H298346   9.630   8.246   1.279  0.0409  0.5523  0.3421
24135WAT    EPW98347   9.663   8.205   1.209 -0.7830  0.3443  0.0718
24136WAT      O98348   7.509   7.220   4.233 -0.0987  1.2247 -0.3095
24136WAT     H198349   7.504   7.144   4.291 -0.8468  1.9406  0.5988
24136WAT     H298350   7.488   7.185   4.146 -1.9478  0.6281  0.3233
24136WAT    EPW98351   7.505   7.205   4.229 -0.4411  1.2405 -0.1061
24137WAT      O98352   7.768   7.064   4.770  0.1444 -0.0080  0.2714
24137WAT     H198353   7.742   7.156   4.776  0.4290  0.0726  0.2768
24137WAT     H298354   7.752   7.029   4.858 -1.7748 -0.4530 -0.2114
24137WAT    EPW98355   7.762   7.071   4.782 -0.0708 -0.0560  0.2084
24138WAT      O98356   5.342   6.788   0.762 -0.4862  0.2582  0.1531
24138WAT     H198357   5.327   6.728   0.690  1.2052 -2.0643  1.5777
24138WAT     H298358   5.421   6.837   0.737 -0.3617  0.0249  0.0903
24138WAT    EPW98359   5.350   6.787   0.749 -0.2470 -0.0787  0.3327
24139WAT      O98360   6.691   5.225   6.769  0.2900  0.1084 -0.0455
24139WAT     H198361   6.776   5.203   6.732  0.3398 -1.7354  1.0462
24139WAT     H298362   6.711   5.288   6.839  0.6866  0.1448 -0.1890
24139WAT    EPW98363   6.705   5.230   6.773  0.3490 -0.1299  0.0796
24140WAT      O98364   0.127   0.177   2.763 -0.3740  0.5827  0.0660
24140WAT     H198365   0.156   0.255   2.810 -2.1298  2.0654 -1.1737
24140WAT     H298366   0.208   0.136   2.732  0.6472  1.1921  1.7990
24140WAT    EPW98367   0.142   0.182   2.765 -0.4709  0.8586  0.1312
24141WAT      O98368   6.342   8.353   6.401 -0.3772 -0.1839 -0.0270
24141WAT     H198369   6.396   8.418   6.446 -1.5555 -0.1114  1.3795
24141WAT     H298370   6.339   8.279   6.461 -0.9739 -0.5922 -0.5514
24141WAT    EPW98371   6.349   8.352   6.415 -0.6113 -0.2284  0.0892
24142WAT      O98372   6.370   8.916   3.589  0.2028  0.7885 -0.4187
24142WAT     H198373   6.347   8.876   3.505 -1.6239  0.0143  0.4176
24142WAT     H298374   6.361   8.846   3.653  1.3201  1.4372  0.4928
24142WAT    EPW98375   6.366   8.902   3.586  0.1090  0.7720 -0.1881
24143WAT      O98376   2.517   0.088   4.694 -0.0973 -1.1353 -0.6231
24143WAT     H198377   2.550   0.073   4.783 -0.1654  2.7562  0.2161
24143WAT     H298378   2.427   0.116   4.707 -0.2311 -0.8998 -1.9816
24143WAT    EPW98379   2.510   0.090   4.707 -0.1241 -0.5910 -0.6917
24144WAT      O98380   2.114   3.178   8.703 -0.1972  0.4582  0.4951
24144WAT     H198381   2.129   3.221   8.787 -1.8907  3.4296 -0.5673
24144WAT     H298382   2.021   3.158   8.702 -0.2398  0.6322 -0.7392
24144WAT    EPW98383   2.104   3.181   8.714 -0.4263  0.8732  0.1922
24145WAT      O98384   4.277   0.005   2.812  0.2883  0.2433  0.6790
24145WAT     H198385   4.265  -0.064   2.746 -0.8023  1.1351 -0.0988
24145WAT     H298386   4.360  -0.016   2.854  1.0012 -0.3996 -0.9567
24145WAT    EPW98387   4.286  -0.007   2.809  0.2384  0.2761  0.3606
24146WAT      O98388   7.525   8.009   3.383 -0.0686 -0.4949  0.7305
24146WAT     H198389   7.605   7.961   3.362 -0.3814 -1.1130  0.9295
24146WAT     H298390   7.468   7.944   3.423 -0.9467 -0.2339 -0.0579
24146WAT    EPW98391   7.528   7.994   3.385 -0.2255 -0.5422  0.6527
24147WAT      O98392   7.454   8.722   4.221 -0.5831  0.4216 -0.7082
24147WAT     H198393   7.498   8.638   4.210 -0.4593  0.2885  0.7161
24147WAT     H298394   7.362   8.699   4.237 -0.1715  0.3829  2.0530
24147WAT    EPW98395   7.447   8.708   4.221 -0.5124  0.3986 -0.1562
24148WAT      O98396   7.589   6.176   3.177  0.4865  0.1405 -0.1742
24148WAT     H198397   7.666   6.121   3.187  1.7180  2.0057  1.1623
24148WAT     H298398   7.557   6.190   3.266 -0.7891  0.2234 -0.6246
24148WAT    EPW98399   7.595   6.171   3.190  0.4811  0.3972 -0.0573
24149WAT      O98400   9.946   8.141   3.865 -0.7972 -0.5909  0.2007
24149WAT     H198401  10.009   8.168   3.798  0.3003  0.9442  1.7442
24149WAT     H298402   9.886   8.215   3.874 -1.1087 -0.8922  0.7105
24149WAT    EPW98403   9.946   8.154   3.858 -0.6933 -0.4282  0.4715
24150WAT      O98404   8.358   7.979   4.000  0.2743  0.3341  0.9986
24150WAT     H198405   8.337   8.031   4.078 -0.6512  0.2968  0.7853
24150WAT     H298406   8.450   7.956   4.011  0.2901  0.7496  1.8372
24150WAT    EPW98407   8.367   7.983   4.012  0.1540  0.3839  1.0812
24151WAT      O98408   7.507   7.032   4.444  0.1532  0.1749  0.2813
24151WAT     H198409   7.438   6.966   4.445  0.1385  0.1915  0.3878
24151WAT     H298410   7.488   7.089   4.518  0.7320 -0.2989  0.8112
24151WAT    EPW98411   7.496   7.031   4.454  0.2275  0.1144  0.3653
24152WAT      O98412   9.958   1.120   2.699 -1.1258 -0.5172  0.5510
24152WAT     H198413   9.908   1.087   2.625  0.9603  1.0681 -1.7562
24152WAT     H298414   9.908   1.195   2.731 -3.5615 -2.9039  2.8819
24152WAT    EPW98415   9.945   1.126   2.693 -1.1716 -0.6229  0.5541
24153WAT      O98416   1.382   0.208   3.256 -0.0707  0.7850  0.5769
24153WAT     H198417   1.459   0.198   3.311 -0.0209 -1.8198  0.1570
24153WAT     H298418   1.318   0.148   3.293 -1.1767  1.4121 -0.2748
24153WAT    EPW98419   1.384   0.199   3.268 -0.2100  0.5242  0.4092
24154WAT      O98420   9.918   9.260   3.365 -0.2640 -0.2578  0.0551
24154WAT     H198421   9.935   9.186   3.423 -2.1573  1.4306  2.9909
24154WAT     H298422   9.988   9.323   3.385 -0.4403  0.0087 -0.1515
24154WAT    EPW98423   9.930   9.259   3.375 -0.5364  0.0005  0.4150
24155WAT      O98424   5.133   8.605   2.111  0.2921 -0.0230  0.0358
24155WAT     H198425   5.115   8.517   2.144  0.6062 -0.7727 -1.6841
24155WAT     H298426   5.062   8.622   2.049  0.8622  0.4593 -0.4941
24155WAT    EPW98427   5.121   8.595   2.107  0.4086 -0.0582 -0.2609
24156WAT      O98428   7.393   8.078   6.254 -0.4479 -0.8579  0.2905
24156WAT     H198429   7.426   8.000   6.298  1.4228 -1.4568 -1.8977
24156WAT     H298430   7.448   8.149   6.288  0.3478 -1.1582 -0.3136
24156WAT    EPW98431   7.405   8.077   6.264 -0.0963 -0.9761 -0.0777
24157WAT      O98432   9.512   9.876   5.655  0.2632  0.4131  0.1969
24157WAT     H198433   9.518   9.925   5.573 -2.5605  2.1626  0.8899
24157WAT     H298434   9.418   9.871   5.673  0.6101 -2.6928  1.7737
24157WAT    EPW98435   9.501   9.882   5.646 -0.0639  0.2341  0.4964
24158WAT      O98436   5.643   5.805   2.927 -0.2889 -0.0201  0.2354
24158WAT     H198437   5.588   5.727   2.916 -0.5267  0.4050 -2.1262
24158WAT     H298438   5.589   5.866   2.978 -0.4436 -1.0254  1.3262
24158WAT    EPW98439   5.629   5.803   2.932 -0.3407 -0.0966  0.0678
24159WAT      O98440   4.133   8.100   1.551  0.2224 -0.0753  0.1202
24159WAT     H198441   4.092   8.067   1.471  1.1863  1.8711 -1.2742
24159WAT     H298442   4.064   8.149   1.596  0.2718  0.9142 -0.8319
24159WAT    EPW98443   4.119   8.102   1.546  0.3557  0.3114 -0.1893
24160WAT      O98444  10.360   0.355   4.044 -0.0608 -0.2096 -0.3160
24160WAT     H198445  10.328   0.336   4.132 -2.0488 -0.2547 -0.9827
24160WAT     H298446  10.404   0.275   4.017  0.0475 -0.4060  0.4164
24160WAT    EPW98447  10.361   0.342   4.052 -0.3090 -0.2415 -0.3076
24161WAT      O98448   8.181   7.227   4.903 -0.1696 -0.2145 -0.2093
24161WAT     H198449   8.159   7.308   4.858  1.3838  0.1568 -0.3735
24161WAT     H298450   8.125   7.226   4.980  0.9152  1.8637  0.6805
24161WAT    EPW98451   8.171   7.237   4.907  0.1779  0.1085 -0.1137
24162WAT      O98452   6.581   1.232   2.524 -0.5326  0.0638 -0.0032
24162WAT     H198453   6.671   1.212   2.501 -0.1171 -4.3032  4.0289
24162WAT     H298454   6.529   1.190   2.456  0.4097  0.8335 -1.2355
24162WAT    EPW98455   6.586   1.224   2.512 -0.3533 -0.4107  0.3662
24163WAT      O98456   5.677   6.441   5.857 -0.4923  0.4150 -0.1157
24163WAT     H198457   5.665   6.437   5.952  0.0294  3.6438  0.1999
24163WAT     H298458   5.588   6.445   5.822 -0.7775  3.2592  0.6433
24163WAT    EPW98459   5.663   6.441   5.865 -0.4611  1.2162  0.0260
24164WAT      O98460   4.804   9.593   5.412 -0.5293  0.7363  0.1276
24164WAT     H198461   4.857   9.536   5.467  1.3984  1.3610 -0.9816
24164WAT     H298462   4.793   9.544   5.330 -2.0976  0.4354  0.4880
24164WAT    EPW98463   4.809   9.579   5.409 -0.4818  0.7787  0.0288
24165WAT      O98464   7.995   7.784   4.669 -0.0612 -0.5670 -0.0885
24165WAT     H198465   8.061   7.837   4.625  0.1016 -1.3477 -0.8229
24165WAT     H298466   7.916   7.838   4.667  0.8340  0.9654  2.0372
24165WAT    EPW98467   7.993   7.798   4.663  0.0780 -0.4678  0.0949
24166WAT      O98468   1.822   0.622   1.903 -0.1987  0.0755 -0.7915
24166WAT     H198469   1.828   0.527   1.913  0.6450  0.1555 -0.4329
24166WAT     H298470   1.804   0.654   1.992 -1.3019  0.2065 -1.0438
24166WAT    EPW98471   1.820   0.614   1.916 -0.2329  0.1034 -0.7775
24167WAT      O98472   1.065   1.861   1.501 -0.3407  0.1147  0.1221
24167WAT     H198473   1.116   1.932   1.463  0.0014 -0.5944 -0.7940
24167WAT     H298474   1.126   1.812   1.555 -0.3476 -0.0002  0.0287
24167WAT    EPW98475   1.080   1.864   1.503 -0.2965  0.0061 -0.0110
24168WAT      O98476   8.325   7.577   5.682  0.0496 -0.0428 -0.7576
24168WAT     H198477   8.357   7.493   5.715  1.1894  2.0609  4.4947
24168WAT     H298478   8.402   7.634   5.685 -1.4485  2.0677 -0.4524
24168WAT    EPW98479   8.340   7.574   5.687  0.0029  0.5133 -0.0246
24169WAT      O98480  10.816   0.242   4.173  0.9596  0.7786 -0.0466
24169WAT     H198481  10.875   0.317   4.170  2.2291 -0.1959 -0.3344
24169WAT     H298482  10.783   0.233   4.083  0.1869  1.4392  0.1557
24169WAT    EPW98483  10.819   0.251   4.161  1.0252  0.7372 -0.0579
24170WAT      O98484   6.811   5.505   1.849 -0.1791 -0.2877  0.4118
24170WAT     H198485   6.768   5.515   1.934  0.6628  1.6538  0.6628
24170WAT     H298486   6.903   5.526   1.866 -0.1261  0.8676 -1.0818
24170WAT    EPW98487   6.817   5.509   1.862 -0.0608  0.1206  0.2479
24171WAT      O98488   3.782   0.150   8.937 -0.5467  0.1588  0.3478
24171WAT     H198489   3.805   0.129   8.846 -1.0332  2.2887 -0.3350
24171WAT     H298490   3.722   0.224   8.930  2.6908  3.3456  2.4503
24171WAT    EPW98491   3.777   0.157   8.924 -0.1838  0.8600  0.5350
24172WAT      O98492   7.470   8.028   2.599  1.2195  0.5730  0.6982
24172WAT     H198493   7.528   8.005   2.672  2.2438 -0.1105 -0.3030
24172WAT     H298494   7.498   7.970   2.528 -0.2321  0.7311 -0.0273
24172WAT    EPW98495   7.481   8.017   2.599  1.1632  0.5040  0.4704
24173WAT      O98496   5.442   6.702   4.105  0.0417 -0.5528  0.7320
24173WAT     H198497   5.433   6.763   4.179  1.5966  0.4506  0.1456
24173WAT     H298498   5.527   6.724   4.066 -0.4212 -1.5385 -0.9248
24173WAT    EPW98499   5.452   6.713   4.110  0.1857 -0.5503  0.4365
24174WAT      O98500   6.754   7.656   2.743 -0.4307 -1.0065 -0.9541
24174WAT     H198501   6.790   7.635   2.829  0.9609 -0.6110 -1.4133
24174WAT     H298502   6.681   7.716   2.762  0.4603 -0.1513 -0.0965
24174WAT    EPW98503   6.749   7.661   2.757 -0.1297 -0.8416 -0.9016
24175WAT      O98504   9.061   9.156   3.259  0.5422 -0.2063 -0.7757
24175WAT     H198505   9.123   9.096   3.300  0.5286 -1.0786 -1.9801
24175WAT     H298506   8.989   9.163   3.321  1.4307  0.1197  0.2473
24175WAT    EPW98507   9.060   9.149   3.272  0.6576 -0.2789 -0.7995
24176WAT      O98508  10.101   0.479   0.164  0.4025  0.7619 -0.2415
24176WAT     H198509  10.188   0.499   0.196  0.8329  0.8727 -1.4190
24176WAT     H298510  10.053   0.447   0.240  2.1594 -1.5559 -0.0371
24176WAT    EPW98511  10.106   0.478   0.178  0.6909  0.4708 -0.3699
24177WAT      O98512   7.149   7.430   2.834 -0.2838 -0.2462 -0.6450
24177WAT     H198513   7.133   7.367   2.764 -0.3254 -1.1782  0.1817
24177WAT     H298514   7.176   7.510   2.788 -1.1392 -0.5617 -1.7599
24177WAT    EPW98515   7.150   7.432   2.819 -0.4020 -0.4108 -0.6831
24178WAT      O98516   6.820   8.072   5.602  0.0004 -0.1690  0.3284
24178WAT     H198517   6.726   8.053   5.600  0.2638 -1.5307 -0.1330
24178WAT     H298518   6.852   8.043   5.516  0.8252  0.3810  0.4414
24178WAT    EPW98519   6.812   8.065   5.590  0.1438 -0.2756  0.2825
24179WAT      O98520   7.220   8.628   4.441  0.5285  0.1390  0.6002
24179WAT     H198521   7.179   8.626   4.355  0.5302  0.2672  0.5965
24179WAT     H298522   7.171   8.563   4.492  1.4069 -0.9496  0.1099
24179WAT    EPW98523   7.208   8.619   4.436  0.6444  0.0124  0.5348
24180WAT      O98524  10.725   8.576   2.330  0.3467  0.4993  0.4980
24180WAT     H198525  10.661   8.590   2.399 -0.7314  0.3840 -0.4468
24180WAT     H298526  10.678   8.523   2.265  2.2228 -1.9391  0.9823
24180WAT    EPW98527  10.710   8.570   2.330  0.4520  0.1626  0.4374
24181WAT      O98528   9.475   7.080   3.921 -0.0485  0.4876 -0.0431
24181WAT     H198529   9.417   7.029   3.977  0.8138 -1.1987 -0.6104
24181WAT     H298530   9.433   7.166   3.914 -1.6202 -0.1686  0.8448
24181WAT    EPW98531   9.462   7.084   3.928 -0.1421  0.1786 -0.0007
24182WAT      O98532   9.253   6.965   1.788 -0.2543  0.8201 -0.7704
24182WAT     H198533   9.256   6.959   1.692 -1.5635 -0.1388 -0.7819
24182WAT     H298534   9.229   6.876   1.816  0.8833  0.8892  0.5015
24182WAT    EPW98535   9.250   6.952   1.779 -0.2766  0.7029 -0.6042
24183WAT      O98536   6.447   7.945   5.281 -0.2542  1.0360  0.1150
24183WAT     H198537   6.514   7.931   5.348  1.4094  2.6139 -1.1157
24183WAT     H298538   6.448   7.865   5.229 -0.0586  0.6319  0.7384
24183WAT    EPW98539   6.456   7.933   5.283 -0.0091  1.1909  0.0350
24184WAT      O98540   7.106   7.951   5.431  0.4565  0.6765 -0.2368
24184WAT     H198541   7.176   7.930   5.369  1.6510 -1.3443  1.6732
24184WAT     H298542   7.137   8.030   5.475  0.1035  1.4918 -1.3843
24184WAT    EPW98543   7.119   7.959   5.428  0.5674  0.5174 -0.1361
24185WAT      O98544   4.059   9.005   3.294 -0.5488  0.4399  0.5830
24185WAT     H198545   3.980   8.962   3.327  1.2112 -3.1634  0.6653
24185WAT     H298546   4.116   9.013   3.371 -0.4145  2.1140  0.3526
24185WAT    EPW98547   4.056   9.000   3.309 -0.2990  0.1855  0.5634
24186WAT      O98548   9.911   7.562   5.141  0.3759 -0.7218 -0.0441
24186WAT     H198549   9.964   7.510   5.080  1.9287  0.2947  0.3672
24186WAT     H298550   9.961   7.643   5.152 -1.8577  0.7727 -0.4807
24186WAT    EPW98551   9.925   7.565   5.135  0.2861 -0.3908 -0.0474
24187WAT      O98552   6.338   8.167   6.619 -0.3224 -0.5329  0.6656
24187WAT     H198553   6.421   8.199   6.656  0.0826 -1.4727  0.6077
24187WAT     H298554   6.345   8.072   6.624 -1.3922 -0.6257  0.6144
24187WAT    EPW98555   6.350   8.159   6.624 -0.4101 -0.6690  0.6511
24188WAT      O98556   4.480   7.682   1.006  0.5778 -0.4016  0.3169
24188WAT     H198557   4.533   7.603   0.992  0.1799 -0.6944  0.4275
24188WAT     H298558   4.508   7.742   0.937  0.5465 -0.8255 -0.0720
24188WAT    EPW98559   4.491   7.679   0.995  0.5212 -0.4961  0.2802
24189WAT      O98560   9.660   6.240   4.937  0.1674  0.0846 -0.1337
24189WAT     H198561   9.678   6.149   4.912 -2.6741 -0.7499  0.4781
24189WAT     H298562   9.708   6.253   5.019 -1.4922 -1.8319  1.2341
24189WAT    EPW98563   9.669   6.230   4.944 -0.4263 -0.2782  0.1276
24190WAT      O98564   3.636   6.222   2.723  0.4963 -0.2449 -0.7628
24190WAT     H198565   3.626   6.312   2.691 -2.0908  0.3153  1.2718
24190WAT     H298566   3.546   6.190   2.733  1.0132 -0.9273  4.0667
24190WAT    EPW98567   3.623   6.229   2.720  0.2230 -0.2613  0.1425
24191WAT      O98568   1.735   4.111   8.967  0.0278 -0.2818  0.0997
24191WAT     H198569   1.746   4.206   8.967  2.7677 -0.4578  2.1874
24191WAT     H298570   1.656   4.096   9.021 -0.4091  0.7833 -0.2222
24191WAT    EPW98571   1.726   4.121   8.974  0.3316 -0.1645  0.3328
24192WAT      O98572   8.323   6.473   1.265  0.9986 -0.1364  0.1751
24192WAT     H198573   8.267   6.396   1.263  0.0955  0.4933 -2.0370
24192WAT     H298574   8.262   6.547   1.263  1.8577  0.5779 -0.9991
24192WAT    EPW98575   8.307   6.473   1.264  0.9928  0.0410 -0.2716
24193WAT      O98576   7.298   7.498   3.977 -0.3078  0.0532 -0.8205
24193WAT     H198577   7.205   7.517   3.981 -0.1929  0.4798  0.6629
24193WAT     H298578   7.307   7.415   4.025  0.2054  0.6480  0.1400
24193WAT    EPW98579   7.287   7.489   3.984 -0.2251  0.1881 -0.4982
24194WAT      O98580   8.437   9.385   1.868 -0.3238 -0.7931  0.5906
24194WAT     H198581   8.531   9.384   1.888 -0.1178 -1.5866 -0.3493
24194WAT     H298582   8.431   9.351   1.778 -1.4170  0.2684  0.2324
24194WAT    EPW98583   8.449   9.380   1.859 -0.4411 -0.7582  0.4195
24195WAT      O98584   6.421   7.373   2.034 -0.6259 -0.8911  0.5621
24195WAT     H198585   6.484   7.306   2.007 -0.1587 -1.6772  3.3466
24195WAT     H298586   6.378   7.336   2.111  0.1695  2.2614  2.7048
24195WAT    EPW98587   6.424   7.360   2.040 -0.4592 -0.5789  1.2119
24196WAT      O98588   8.291   8.532   2.630 -0.3049  0.6595 -0.3329
24196WAT     H198589   8.273   8.439   2.619  1.1636  0.2476  0.4676
24196WAT     H298590   8.367   8.548   2.575 -2.3276  2.1341 -2.9426
24196WAT    EPW98591   8.299   8.522   2.621 -0.3781  0.7997 -0.5716
24197WAT      O98592   8.061   6.598   3.967 -0.2982  0.3192 -0.9130
24197WAT     H198593   8.116   6.600   3.888  0.4678  0.1067 -0.3971
24197WAT     H298594   7.992   6.535   3.946  2.0765 -2.8021 -0.0746
24197WAT    EPW98595   8.059   6.590   3.954  0.1163 -0.1204 -0.7343
24198WAT      O98596   8.413   5.638   3.857  0.0438 -0.5462 -0.2573
24198WAT     H198597   8.392   5.551   3.891 -2.0328  1.5129  4.6725
24198WAT     H298598   8.337   5.661   3.803 -1.4365 -0.4031  1.7646
24198WAT    EPW98599   8.400   5.629   3.854 -0.4253 -0.2556  0.6596
24199WAT      O98600   4.672   6.454   3.044 -0.1205 -0.0252 -0.5075
24199WAT     H198601   4.631   6.440   3.129 -1.0133  1.3913 -0.6711
24199WAT     H298602   4.763   6.475   3.066  0.3916 -2.3914 -0.1018
24199WAT    EPW98603   4.679   6.455   3.058 -0.1709 -0.1504 -0.4755
24200WAT      O98604   6.439   7.366   4.770 -0.3104  0.6488 -0.0850
24200WAT     H198605   6.521   7.369   4.819 -0.1085  2.1022 -0.4660
24200WAT     H298606   6.465   7.362   4.678 -0.6493  0.9139 -0.1991
24200WAT    EPW98607   6.453   7.366   4.765 -0.3285  0.8752 -0.1504
24201WAT      O98608   9.313   8.779   3.529  0.6405 -0.5819  0.3360
24201WAT     H198609   9.363   8.781   3.610  1.8298  0.3982 -0.3970
24201WAT     H298610   9.221   8.785   3.557  0.8502 -2.7255  1.7043
24201WAT    EPW98611   9.307   8.780   3.543  0.8249 -0.7358  0.4199
24202WAT      O98612   8.224   7.500   0.660 -0.1530  0.0021 -0.6339
24202WAT     H198613   8.232   7.583   0.613 -1.2773 -0.5643 -1.8940
24202WAT     H298614   8.256   7.434   0.599 -1.6240 -0.7447 -0.6600
24202WAT    EPW98615   8.229   7.503   0.646 -0.4954 -0.1712 -0.8036
24203WAT      O98616   7.672   7.890   6.849  0.4492  0.3612  0.2706
24203WAT     H198617   7.627   7.839   6.916 -2.1188  2.4275  0.2900
24203WAT     H298618   7.666   7.981   6.879  2.1559  1.0350 -1.1944
24203WAT    EPW98619   7.665   7.895   6.862  0.3357  0.7226  0.0801
24204WAT      O98620   5.305   8.511   3.443 -0.1272  1.0457  0.0501
24204WAT     H198621   5.321   8.425   3.482  0.8720  0.5620 -1.3153
24204WAT     H298622   5.345   8.573   3.504 -1.9200  0.7080  1.6786
24204WAT    EPW98623   5.312   8.508   3.456 -0.2320  0.9370  0.0848
24205WAT      O98624   5.724   9.337   5.973 -0.8752 -0.4703  0.0286
24205WAT     H198625   5.715   9.253   6.018  2.4256 -2.1073 -1.9310
24205WAT     H298626   5.636   9.376   5.975 -2.0934 -3.0223  2.7047
24205WAT    EPW98627   5.711   9.331   5.979 -0.6006 -1.0233  0.1230
24206WAT      O98628   6.751   7.927   2.280  0.2769 -0.0098 -0.2134
24206WAT     H198629   6.678   7.869   2.261  0.8240 -0.8397  0.1260
24206WAT     H298630   6.805   7.926   2.201 -0.7266  1.6544 -0.9685
24206WAT    EPW98631   6.749   7.919   2.267  0.2167  0.1004 -0.2682
24207WAT      O98632   5.888   8.504   3.699  0.2570 -0.2822 -0.0811
24207WAT     H198633   5.827   8.524   3.628  2.1052  1.5842 -1.2594
24207WAT     H298634   5.833   8.496   3.777 -1.8838 -2.8035 -1.7006
24207WAT    EPW98635   5.873   8.506   3.700  0.2186 -0.3686 -0.4500
24208WAT      O98636   9.068   9.401   4.295 -0.0648 -0.4342  0.4737
24208WAT     H198637   9.123   9.471   4.330  0.0021  0.4133 -1.2215
24208WAT     H298638   8.980   9.439   4.293 -0.5663 -1.3998  2.1285
24208WAT    EPW98639   9.063   9.415   4.300 -0.1216 -0.4497  0.4683
24209WAT      O98640   8.320   9.778   0.503 -0.3142 -0.1551 -0.7591
24209WAT     H198641   8.326   9.682   0.502  0.4263 -0.1184 -1.5729
24209WAT     H298642   8.230   9.796   0.477 -1.4943 -0.6385  2.5354
24209WAT    EPW98643   8.309   9.768   0.499 -0.3724 -0.2146 -0.4319
24210WAT      O98644   5.758   3.097   8.712 -0.0139 -1.0632 -0.3644
24210WAT     H198645   5.773   3.117   8.805 -0.1480 -0.8984 -0.3774
24210WAT     H298646   5.839   3.055   8.684  0.5272  0.0162 -0.4904
24210WAT    EPW98647   5.771   3.094   8.721  0.0398 -0.8992 -0.3824
24211WAT      O98648   7.342   6.215   2.648  0.1787 -0.2248  0.2682
24211WAT     H198649   7.396   6.186   2.575 -0.7618  0.7871 -0.8547
24211WAT     H298650   7.252   6.207   2.617 -0.2082  1.1523  0.9334
24211WAT    EPW98651   7.338   6.210   2.635  0.0033  0.0901  0.2079
24212WAT      O98652   9.895   9.098   6.256 -0.1045 -0.1224 -0.4239
24212WAT     H198653   9.947   9.156   6.311 -1.4904  1.7769 -1.0228
24212WAT     H298654   9.937   9.100   6.171 -0.5728  0.6446 -0.6474
24212WAT    EPW98655   9.907   9.106   6.252 -0.3486  0.2289 -0.5319
24213WAT      O98656   9.360   7.192   1.248 -0.7622  0.4374 -0.0706
24213WAT     H198657   9.434   7.250   1.267 -0.9426  0.4558  0.6068
24213WAT     H298658   9.345   7.202   1.154  0.1904  0.3180 -0.2471
24213WAT    EPW98659   9.368   7.201   1.238 -0.6609  0.4244 -0.0046
24214WAT      O98660  10.806  10.230   3.225  0.1642 -0.5229 -0.0382
24214WAT     H198661  10.783  10.306   3.172  0.8956  0.9224  1.6245
24214WAT     H298662  10.838  10.267   3.307  1.5034 -2.6088  0.4560
24214WAT    EPW98663  10.807  10.245   3.229  0.4373 -0.6075  0.2463
24215WAT      O98664   2.077   3.061   0.506  0.0021 -0.2366  0.4066
24215WAT     H198665   2.004   3.085   0.564  0.0770 -0.1745  0.4744
24215WAT     H298666   2.063   2.968   0.488  0.3530 -0.4202  1.0624
24215WAT    EPW98667   2.065   3.052   0.511  0.0584 -0.2527  0.5020
24216WAT      O98668   1.059   1.054   8.429 -0.6660  0.1681 -0.1992
24216WAT     H198669   1.047   1.140   8.469 -2.6400 -0.4926  0.7558
24216WAT     H298670   1.075   0.996   8.503 -0.9932 -0.5477 -0.6845
24216WAT    EPW98671   1.059   1.058   8.444 -0.9696 -0.0134 -0.1373
24217WAT      O98672   7.392   7.858   3.844 -0.3455  0.4959  0.4230
24217WAT     H198673   7.486   7.874   3.842 -0.2428  0.3710  2.4519
24217WAT     H298674   7.353   7.945   3.853 -0.7492  1.0157 -4.0013
24217WAT    EPW98675   7.399   7.872   3.845 -0.3853  0.5476  0.1069
24218WAT      O98676   6.869   8.805   4.016  0.4405  0.0352  0.4147
24218WAT     H198677   6.828   8.771   4.095  0.5695  0.6881  0.7613
24218WAT     H298678   6.859   8.734   3.952  0.5129 -0.5772  1.0661
24218WAT    EPW98679   6.862   8.791   4.018  0.4673  0.0401  0.5465
24219WAT      O98680   3.714   8.589   3.410 -0.2975  0.5760 -0.0527
24219WAT     H198681   3.691   8.507   3.366 -0.8559  0.5581  0.2646
24219WAT     H298682   3.684   8.577   3.500  1.0855  0.5057  0.4184
24219WAT    EPW98683   3.707   8.576   3.416 -0.1887  0.5646  0.0513
24220WAT      O98684   2.074   0.742   3.784 -0.2654 -0.0089 -0.5448
24220WAT     H198685   1.995   0.788   3.810 -0.6821 -0.2374 -1.3609
24220WAT     H298686   2.053   0.649   3.793 -0.6090 -0.1178 -2.1150
24220WAT    EPW98687   2.061   0.736   3.788 -0.3659 -0.0533 -0.8596
24221WAT      O98688   5.335   8.517   1.225 -0.2032 -0.3532 -0.4764
24221WAT     H198689   5.258   8.462   1.236  0.3620 -0.8675  1.1248
24221WAT     H298690   5.319   8.593   1.281  0.9651 -1.0623  0.8857
24221WAT    EPW98691   5.323   8.520   1.234  0.0253 -0.5145 -0.0856
24222WAT      O98692   9.524   7.259   5.500  0.3283 -0.5543 -0.3269
24222WAT     H198693   9.431   7.245   5.488 -0.0019  1.2363 -0.1128
24222WAT     H298694   9.537   7.253   5.595  0.0878  0.9516 -0.1791
24222WAT    EPW98695   9.514   7.256   5.511  0.2537 -0.1194 -0.2789
24223WAT      O98696   6.904   7.209   2.576  0.2663  0.6304 -0.7002
24223WAT     H198697   6.910   7.304   2.576  2.0839  0.5813 -1.7800
24223WAT     H298698   6.981   7.180   2.626  1.2558 -0.2343 -2.6008
24223WAT    EPW98699   6.915   7.217   2.582  0.6363  0.5097 -1.0934
24224WAT      O98700   1.806   1.837   7.865  0.4294  0.2613 -0.1015
24224WAT     H198701   1.814   1.807   7.956  0.3897  1.5040  0.3200
24224WAT     H298702   1.790   1.931   7.871 -0.0172  0.2896 -1.3882
24224WAT    EPW98703   1.805   1.845   7.878  0.3653  0.4290 -0.2153
24225WAT      O98704   6.920   8.749   2.724  0.3205  0.5273 -1.4619
24225WAT     H198705   6.846   8.780   2.776  1.5392 -1.2860  1.6445
24225WAT     H298706   6.881   8.719   2.642 -2.1332  1.1828 -0.6081
24225WAT    EPW98707   6.905   8.749   2.720  0.1576  0.3748 -0.9396
24226WAT      O98708   0.691   8.981   5.251 -0.7253 -0.0252 -0.9215
24226WAT     H198709   0.702   9.047   5.319 -0.2142 -0.4178 -0.6162
24226WAT     H298710   0.777   8.976   5.209 -0.6380 -0.7844 -0.6694
24226WAT    EPW98711   0.704   8.989   5.254 -0.6464 -0.1774 -0.8481
24227WAT      O98712   9.405   9.155   4.055  1.0403 -0.6513 -0.1239
24227WAT     H198713   9.374   9.224   3.996  0.5078 -0.3257  0.5296
24227WAT     H298714   9.342   9.084   4.043 -0.5786  0.3489  1.8814
24227WAT    EPW98715   9.393   9.155   4.045  0.7563 -0.4764  0.2267
24228WAT      O98716   9.568   7.168   2.891 -0.1760 -0.1987 -0.2896
24228WAT     H198717   9.647   7.122   2.919  1.1151  1.5962 -0.8215
24228WAT     H298718   9.499   7.101   2.894  1.1026 -1.5330  1.2972
24228WAT    EPW98719   9.569   7.153   2.895  0.1631 -0.1378 -0.1503
24229WAT      O98720   4.351   7.525   0.822  0.7190 -0.0883  0.4906
24229WAT     H198721   4.358   7.595   0.887 -0.7071  0.1780  0.3988
24229WAT     H298722   4.258   7.525   0.798  0.9145 -1.2892 -0.3194
24229WAT    EPW98723   4.339   7.534   0.827  0.5569 -0.2115  0.3717
24230WAT      O98724  10.314   6.685   2.226 -0.8192 -0.2249 -0.1121
24230WAT     H198725  10.377   6.754   2.246 -2.1260  1.2097 -0.7757
24230WAT     H298726  10.368   6.613   2.194  0.4315  1.4293 -1.9786
24230WAT    EPW98727  10.330   6.685   2.225 -0.8268  0.1824 -0.4458
24231WAT      O98728   9.322   5.804   0.781  0.0324  0.3659 -0.2725
24231WAT     H198729   9.316   5.810   0.877  2.3280 -0.3745 -0.0242
24231WAT     H298730   9.345   5.713   0.764 -1.7638  0.1158 -1.6865
24231WAT    EPW98731   9.324   5.793   0.792  0.0987  0.2356 -0.4262
24232WAT      O98732   3.125   1.555   1.195 -0.6154 -0.3410  0.7364
24232WAT     H198733   3.038   1.533   1.229 -1.9739 -2.2374 -3.3621
24232WAT     H298734   3.184   1.531   1.267 -3.3187 -0.3014  3.1828
24232WAT    EPW98735   3.121   1.549   1.209 -1.1511 -0.5859  0.5185
24233WAT      O98736   6.805   8.688   1.604 -0.0127  0.3815  1.0824
24233WAT     H198737   6.750   8.649   1.672  1.0686 -0.1937  1.6566
24233WAT     H298738   6.805   8.623   1.533  0.2881  0.1673  1.2747
24233WAT    EPW98739   6.798   8.674   1.603  0.1695  0.2780  1.1835
24234WAT      O98740   8.550   5.422   2.434 -0.3996  0.1434  0.2018
24234WAT     H198741   8.459   5.406   2.458  0.0463 -0.4880  1.5779
24234WAT     H298742   8.594   5.337   2.445 -0.1778 -0.3635 -3.3460
24234WAT    EPW98743   8.544   5.409   2.439 -0.3119 -0.0067 -0.0848
24235WAT      O98744   6.999   9.791   2.508  0.5080  0.0320  0.0360
24235WAT     H198745   6.999   9.826   2.598 -2.4421 -1.5639  0.7955
24235WAT     H298746   6.950   9.856   2.457 -4.7849 -2.3254  1.4029
24235WAT    EPW98747   6.993   9.804   2.513 -0.5794 -0.4892  0.3164
24236WAT      O98748   5.413   5.405   3.405  0.1578  0.1236  0.7301
24236WAT     H198749   5.460   5.478   3.365  0.5887  0.0602  1.1120
24236WAT     H298750   5.420   5.421   3.499 -0.2648 -0.0886  0.7993
24236WAT    EPW98751   5.420   5.416   3.412  0.1588  0.0873  0.7895
24237WAT      O98752   8.141   7.343   6.705 -0.3288  0.3865  0.3113
24237WAT     H198753   8.228   7.370   6.732  0.3141 -2.1584  1.1330
24237WAT     H298754   8.135   7.366   6.613  2.6498 -2.3966 -0.7639
24237WAT    EPW98755   8.152   7.349   6.697  0.1488 -0.3164  0.2778
24238WAT      O98756   3.342   9.159   4.183 -0.4170 -0.2947 -0.9348
24238WAT     H198757   3.362   9.067   4.199  1.6026 -0.0068 -1.5879
24238WAT     H298758   3.377   9.177   4.096 -0.3205  1.2227 -0.6120
24238WAT    EPW98759   3.349   9.149   4.174 -0.1378 -0.0558 -0.9785
24239WAT      O98760   6.017   2.993   7.668  0.1264 -0.2667  0.0580
24239WAT     H198761   6.113   2.988   7.664  0.2920 -0.4128  2.5190
24239WAT     H298762   5.987   2.928   7.604  1.6981 -1.1361  0.1468
24239WAT    EPW98763   6.026   2.984   7.659  0.3555 -0.4007  0.3943
24240WAT      O98764   9.197   9.002   3.967 -0.4909  0.3097  0.2062
24240WAT     H198765   9.206   8.914   4.004 -0.8537 -0.6481 -1.8833
24240WAT     H298766   9.119   8.998   3.913 -0.7232  2.0472  0.3482
24240WAT    EPW98767   9.188   8.990   3.965 -0.5689  0.4125 -0.0508
24241WAT      O98768  10.504   4.068   1.950  0.2811 -1.0306 -0.0101
24241WAT     H198769  10.543   4.048   2.035 -0.9850 -0.7674  0.6640
24241WAT     H298770  10.532   3.997   1.894  1.2611 -1.1340  0.5891
24241WAT    EPW98771  10.513   4.056   1.954  0.2437 -1.0095  0.1578
24242WAT      O98772   9.774   0.146   1.934 -0.1890  0.8204 -0.0905
24242WAT     H198773   9.692   0.194   1.937 -0.8036 -0.2456  1.5967
24242WAT     H298774   9.826   0.191   1.866 -1.2972  2.8619  0.3365
24242WAT    EPW98775   9.770   0.158   1.925 -0.4168  0.9491  0.1883
24243WAT      O98776   6.296   8.088   4.847 -0.1928  0.2705 -0.4588
24243WAT     H198777   6.230   8.022   4.868 -0.3085  0.6864  0.5218
24243WAT     H298778   6.377   8.038   4.838  0.0626  0.1332  1.9587
24243WAT    EPW98779   6.298   8.073   4.849 -0.1743  0.3071 -0.0105
24244WAT      O98780   8.331   8.831   4.199 -0.0789  0.2456 -1.2760
24244WAT     H198781   8.338   8.898   4.267 -0.1327 -0.3735 -0.6506
24244WAT     H298782   8.245   8.846   4.159 -0.4867 -0.0250 -0.5131
24244WAT    EPW98783   8.320   8.842   4.202 -0.1388  0.1287 -1.0929
24245WAT      O98784  10.665   9.407   3.757 -0.5715 -0.3291 -0.3290
24245WAT     H198785  10.574   9.437   3.761 -0.2544  0.7233  3.3235
24245WAT     H298786  10.676   9.352   3.835  2.6871  2.4844  1.4958
24245WAT    EPW98787  10.655   9.404   3.768 -0.0997  0.1807  0.3934
24246WAT      O98788   4.401   8.766   1.953  0.5236 -0.1930  0.3329
24246WAT     H198789   4.320   8.778   2.003  0.4394 -1.7297  0.6042
24246WAT     H298790   4.373   8.753   1.863  0.3965 -1.4260  0.5339
24246WAT    EPW98791   4.387   8.766   1.948  0.4957 -0.5584  0.3952
24247WAT      O98792   8.036   6.883   4.005 -0.4302  0.7091  0.5573
24247WAT     H198793   7.960   6.909   4.057  0.3073 -0.5206  2.3768
24247WAT     H298794   8.036   6.788   4.008  0.2772  0.6391 -0.8143
24247WAT    EPW98795   8.026   6.874   4.013 -0.2394  0.5374  0.6163
24248WAT      O98796   0.722   0.542   1.189 -0.4524  0.7497 -0.1479
24248WAT     H198797   0.714   0.447   1.194  0.2689  0.5745 -1.7337
24248WAT     H298798   0.686   0.574   1.272 -1.8294 -0.8243 -0.1039
24248WAT    EPW98799   0.716   0.534   1.201 -0.5389  0.5190 -0.3512
24249WAT      O98800   3.910   4.798   4.580  0.2613 -0.5286 -0.5031
24249WAT     H198801   3.944   4.792   4.491 -0.0398 -0.8426 -0.5975
24249WAT     H298802   3.986   4.820   4.633  0.4652 -0.4603 -0.8206
24249WAT    EPW98803   3.925   4.800   4.575  0.2486 -0.5610 -0.5574
24250WAT      O98804   8.812   9.543   2.105 -0.1624 -0.3894 -0.0184
24250WAT     H198805   8.745   9.571   2.168 -1.1000 -0.7720 -0.8153
24250WAT     H298806   8.886   9.517   2.159  0.5711  2.9912  0.8090
24250WAT    EPW98807   8.813   9.543   2.120 -0.1888  0.0057 -0.0144
24251WAT      O98808   8.209   8.771   5.711 -0.3775  0.6990  0.1465
24251WAT     H198809   8.134   8.818   5.674 -0.8719  0.2059  0.5064
24251WAT     H298810   8.192   8.771   5.806  0.3970  1.1359  0.2938
24251WAT    EPW98811   8.197   8.777   5.719 -0.3409  0.6919  0.2136
24252WAT      O98812   7.161   8.883   5.793 -0.1761  0.5794  0.5490
24252WAT     H198813   7.217   8.843   5.726 -0.7084  0.7007  0.0213
24252WAT     H298814   7.083   8.827   5.794  0.9697 -1.1502  3.1061
24252WAT    EPW98815   7.158   8.870   5.784 -0.0951  0.3667  0.8168
24253WAT      O98816   2.498   6.855   5.512  0.7428 -0.5190  0.1276
24253WAT     H198817   2.527   6.886   5.427 -2.3059  1.2545 -0.4133
24253WAT     H298818   2.403   6.846   5.504  0.2071  0.5334  3.5258
24253WAT    EPW98819   2.490   6.858   5.500  0.2700 -0.1464  0.5045
24254WAT      O98820   9.293   6.648   6.401  0.3970  0.8207 -0.3205
24254WAT     H198821   9.352   6.696   6.343  0.6950 -0.4948 -1.1178
24254WAT     H298822   9.351   6.601   6.461  0.1147  0.8153 -0.0479
24254WAT    EPW98823   9.308   6.648   6.401  0.3996  0.6464 -0.3898
24255WAT      O98824  10.413   9.020   2.134 -0.5130 -0.5248 -0.0775
24255WAT     H198825  10.344   9.084   2.154 -1.0721 -0.9400 -0.6443
24255WAT     H298826  10.386   8.980   2.051  0.2975 -0.8550 -0.1921
24255WAT    EPW98827  10.400   9.023   2.126 -0.4802 -0.6232 -0.1675
24256WAT      O98828   5.297   6.775   4.357 -0.1005 -0.3190  0.2446
24256WAT     H198829   5.358   6.744   4.424 -2.3489 -2.8247  1.3367
24256WAT     H298830   5.277   6.865   4.382  0.8091 -0.4791  1.6639
24256WAT    EPW98831   5.302   6.782   4.369 -0.2768 -0.6707  0.5760
24257WAT      O98832   8.875   6.317   2.107  0.1784 -0.2379 -0.1469
24257WAT     H198833   8.938   6.252   2.138  1.5029 -0.2345 -2.5793
24257WAT     H298834   8.816   6.331   2.182  0.5806 -3.2721  0.8713
24257WAT    EPW98835   8.876   6.310   2.121  0.4063 -0.6375 -0.3334
24258WAT      O98836   8.588   0.548   1.062  0.3220  0.7905  0.0347
24258WAT     H198837   8.550   0.515   0.981 -0.0870  1.2544  0.0319
24258WAT     H298838   8.512   0.572   1.116  0.6015  2.0740 -0.1075
24258WAT    EPW98839   8.573   0.547   1.059  0.3052  1.0210  0.0156
24259WAT      O98840   4.499   5.928   4.403 -0.3025  0.0018  0.1685
24259WAT     H198841   4.583   5.914   4.447 -0.6858  2.0425  1.6926
24259WAT     H298842   4.465   6.008   4.442 -3.6725 -1.5090  0.6918
24259WAT    EPW98843   4.506   5.936   4.414 -0.7973  0.0715  0.4385
24260WAT      O98844   7.760   8.328   2.227  0.0163 -0.3548  0.2595
24260WAT     H198845   7.823   8.355   2.294 -1.4759  1.0511  1.1946
24260WAT     H298846   7.693   8.279   2.275  0.1266 -1.4201 -0.6349
24260WAT    EPW98847   7.759   8.325   2.242 -0.1659 -0.3099  0.2649
24261WAT      O98848   7.188   9.540   2.225 -0.2132 -0.3048 -0.3313
24261WAT     H198849   7.156   9.462   2.271  1.5426 -1.1974 -0.5385
24261WAT     H298850   7.227   9.594   2.293 -1.0711  0.2316 -0.2476
24261WAT    EPW98851   7.188   9.537   2.240 -0.0944 -0.3514 -0.3477
24262WAT      O98852   9.173   7.694   4.533 -0.3083 -1.0570  0.6900
24262WAT     H198853   9.121   7.758   4.581  1.1479  0.5398  0.2623
24262WAT     H298854   9.259   7.696   4.576  0.7208 -0.3338 -1.2700
24262WAT    EPW98855   9.178   7.702   4.545  0.0196 -0.7510  0.3755
24263WAT      O98856   6.245   7.590   1.463  0.2954  0.2861  0.2783
24263WAT     H198857   6.325   7.540   1.448  0.4116 -0.1066  1.9577
24263WAT     H298858   6.259   7.672   1.415  1.5849  0.1128  0.3028
24263WAT    EPW98859   6.258   7.595   1.455  0.4809  0.2115  0.5031
24264WAT      O98860   9.055   8.686   4.806 -0.7507 -0.8183 -0.3972
24264WAT     H198861   9.057   8.727   4.720 -2.4256  2.0880  0.8010
24264WAT     H298862   9.136   8.715   4.848 -0.9781 -0.4166 -0.2384
24264WAT    EPW98863   9.066   8.695   4.800 -1.0014 -0.3819 -0.2184
24265WAT      O98864   5.615   8.905   4.384  0.1386  0.2588  0.1410
24265WAT     H198865   5.587   8.847   4.313 -2.6081  1.4333  0.1465
24265WAT     H298866   5.702   8.935   4.357  0.4149 -1.5747 -1.2474
24265WAT    EPW98867   5.623   8.901   4.371 -0.1874  0.1717 -0.0415
24266WAT      O98868   9.205   8.538   2.497  0.3306 -0.0491 -0.4107
24266WAT     H198869   9.161   8.481   2.434 -0.2241  1.2120 -1.2004
24266WAT     H298870   9.135   8.587   2.540  0.8026  0.1495  0.1499
24266WAT    EPW98871   9.190   8.537   2.494  0.3195  0.1435 -0.4408
24267WAT      O98872   5.415   7.789   8.394 -0.0572 -0.1624 -0.3305
24267WAT     H198873   5.510   7.792   8.402 -0.0896 -0.9479  0.4394
24267WAT     H298874   5.383   7.855   8.455  0.0240  1.4665 -1.9547
24267WAT    EPW98875   5.423   7.798   8.403 -0.0508 -0.0510 -0.4430
24268WAT      O98876   1.701   9.568   6.416 -0.0979  0.0421  0.0393
24268WAT     H198877   1.764   9.623   6.369  0.5739 -1.3179 -0.6929
24268WAT     H298878   1.619   9.581   6.369  0.8600 -2.4922 -2.6881
24268WAT    EPW98879   1.699   9.577   6.404  0.1171 -0.4711 -0.4170
24269WAT      O98880  10.688   3.479   2.764  0.7411 -0.0174 -0.9647
24269WAT     H198881  10.628   3.496   2.691  1.5473 -1.0237 -1.9135
24269WAT     H298882  10.631   3.456   2.837 -0.0874  0.7704 -1.3440
24269WAT    EPW98883  10.673   3.478   2.764  0.7381 -0.0463 -1.1398
24270WAT      O98884   6.130   9.698   3.783 -0.0436  0.2223  0.3501
24270WAT     H198885   6.184   9.640   3.837  2.6259  1.7218 -0.5302
24270WAT     H298886   6.125   9.655   3.698 -1.6926 -0.6764  0.8531
24270WAT    EPW98887   6.136   9.685   3.779  0.0908  0.3023  0.3004
24271WAT      O98888   7.038   5.068   5.572 -0.0050 -0.0581 -0.1490
24271WAT     H198889   7.080   5.123   5.506  0.0884 -0.7757 -0.7005
24271WAT     H298890   6.944   5.075   5.553 -0.1333  1.2110  0.8218
24271WAT    EPW98891   7.031   5.076   5.561 -0.0098  0.0148 -0.0937
24272WAT      O98892   8.770   6.898   1.438  0.6771  0.0973  0.6715
24272WAT     H198893   8.815   6.845   1.503  0.5907 -0.1105  0.5651
24272WAT     H298894   8.682   6.860   1.433  1.3730 -1.4169 -1.2732
24272WAT    EPW98895   8.764   6.886   1.446  0.7577 -0.1297  0.4010
24273WAT      O98896   7.743   7.553   5.654 -0.0305  0.0205 -0.8245
24273WAT     H198897   7.707   7.640   5.637 -0.1518 -0.0383 -0.8694
24273WAT     H298898   7.836   7.569   5.669 -0.1699  0.2436 -0.1396
24273WAT    EPW98899   7.751   7.567   5.654 -0.0648  0.0420 -0.7401
24274WAT      O98900  10.042   0.418   2.054  0.2091  0.1663  0.5672
24274WAT     H198901  10.085   0.493   2.095  0.0936 -0.6790  2.3517
24274WAT     H298902  10.089   0.342   2.089  1.1228 -0.6182 -2.1342
24274WAT    EPW98903  10.054   0.418   2.064  0.3142 -0.0487  0.4463
24275WAT      O98904   6.318   6.104   3.137  0.3684  0.9928 -0.4036
24275WAT     H198905   6.403   6.141   3.116  0.6451  0.2636 -0.6164
24275WAT     H298906   6.256   6.176   3.123  1.0598  1.8981  0.9791
24275WAT    EPW98907   6.321   6.118   3.132  0.4961  1.0161 -0.2493
24276WAT      O98908   7.320   7.527   4.336 -0.2780  0.1594  0.0340
24276WAT     H198909   7.372   7.596   4.295  0.7354 -0.4945  0.1937
24276WAT     H298910   7.236   7.569   4.356 -0.5114  0.7527 -1.8973
24276WAT    EPW98911   7.316   7.542   4.333 -0.1752  0.1514 -0.1998
24277WAT      O98912  10.037   1.342   5.160  0.2253 -0.0667  0.0343
24277WAT     H198913   9.992   1.276   5.212  1.4590  0.1218  1.3882
24277WAT     H298914  10.111   1.370   5.214 -0.3743  2.6234 -0.3492
24277WAT    EPW98915  10.040   1.337   5.174  0.3090  0.3130  0.1621
24278WAT      O98916   7.017   8.090   4.674 -0.2872 -0.1524 -0.0551
24278WAT     H198917   6.928   8.068   4.646 -0.1691 -1.8836  0.8416
24278WAT     H298918   7.066   8.099   4.592 -0.3157 -3.5076 -0.5758
24278WAT    EPW98919   7.011   8.089   4.659 -0.2754 -0.8235 -0.0057
24279WAT      O98920   8.205   7.809   4.434  0.4334 -0.2861  0.9296
24279WAT     H198921   8.273   7.779   4.374 -0.2607  0.8249 -0.4595
24279WAT     H298922   8.160   7.728   4.460  0.3039 -0.7476 -0.6202
24279WAT    EPW98923   8.208   7.794   4.430  0.3247 -0.2003  0.5417
24280WAT      O98924  10.829   7.671   0.813 -0.1030 -0.2726 -0.6602
24280WAT     H198925  10.842   7.748   0.868 -0.3013  1.2574 -2.6285
24280WAT     H298926  10.871   7.600   0.860 -1.0031  0.7364  1.8571
24280WAT    EPW98927  10.836   7.672   0.826 -0.2480  0.0622 -0.5879
24281WAT      O98928   4.902   5.826   0.471 -0.6197 -0.4726  0.0037
24281WAT     H198929   4.867   5.736   0.470  1.0126 -1.1451  0.0454
24281WAT     H298930   4.887   5.858   0.382  4.1248 -3.0725 -2.1325
24281WAT    EPW98931   4.896   5.818   0.459  0.2215 -0.9043 -0.2726
24282WAT      O98932   6.602   8.766   4.803  0.7863 -0.2325  0.8098
24282WAT     H198933   6.553   8.723   4.873  1.4527 -1.6418  0.4708
24282WAT     H298934   6.542   8.766   4.728  1.0144 -1.2609  0.6107
24282WAT    EPW98935   6.588   8.760   4.802  0.9043 -0.5541  0.7389
24283WAT      O98936   7.237   8.219   5.102  0.1545 -0.1764 -0.1002
24283WAT     H198937   7.262   8.188   5.015  0.5699  0.2025 -0.1203
24283WAT     H298938   7.146   8.245   5.092 -0.2692 -1.5470 -0.0360
24283WAT    EPW98939   7.229   8.218   5.089  0.1535 -0.3076 -0.0942
24284WAT      O98940   4.413   5.497   3.229 -0.8061  0.5358 -0.0204
24284WAT     H198941   4.452   5.532   3.309 -1.8644  0.4658  0.5433
24284WAT     H298942   4.484   5.499   3.165 -0.1814  1.4060  0.6736
24284WAT    EPW98943   4.428   5.502   3.231 -0.8633  0.6411  0.1456
24285WAT      O98944   6.097   8.346   2.597 -0.3410 -1.1268  0.0222
24285WAT     H198945   6.074   8.271   2.652 -0.7433 -1.1523 -0.1794
24285WAT     H298946   6.031   8.412   2.617 -0.8269 -1.3314 -0.8199
24285WAT    EPW98947   6.085   8.345   2.607 -0.4582 -1.1573 -0.1154
24286WAT      O98948  10.435   9.372   2.993  0.2109 -0.3059 -0.0358
24286WAT     H198949  10.480   9.288   2.978  0.3631 -0.0484 -1.1580
24286WAT     H298950  10.450   9.391   3.086 -1.9428 -2.7111  0.9082
24286WAT    EPW98951  10.443   9.363   3.003 -0.0534 -0.5884 -0.0594
24287WAT      O98952   8.631   7.863   5.159  0.0020 -0.0307 -0.1911
24287WAT     H198953   8.668   7.788   5.113  0.0109 -0.6207  0.7551
24287WAT     H298954   8.706   7.903   5.203 -0.0582  0.3343 -0.4178
24287WAT    EPW98955   8.646   7.859   5.158 -0.0052 -0.0603 -0.0958
24288WAT      O98956   6.754   5.682   3.043 -0.4863  0.5290  0.1284
24288WAT     H198957   6.706   5.733   3.107 -0.0723  3.4286 -1.6585
24288WAT     H298958   6.766   5.742   2.969 -0.8892 -2.5388 -2.6666
24288WAT    EPW98959   6.750   5.697   3.041 -0.4849  0.5066 -0.4759
24289WAT      O98960   6.514   7.686   2.321  0.0236  0.6128 -0.2347
24289WAT     H198961   6.546   7.599   2.344 -0.1782  0.6376  0.1406
24289WAT     H298962   6.441   7.668   2.261  1.1150  0.5739 -1.5959
24289WAT    EPW98963   6.508   7.672   2.316  0.1411  0.6108 -0.3648
24290WAT      O98964   6.918   7.451   4.582  0.0172 -0.1517 -0.3209
24290WAT     H198965   6.870   7.527   4.616 -0.4696 -1.2449  1.6126
24290WAT     H298966   6.856   7.408   4.523  0.5257  1.2584 -1.9439
24290WAT    EPW98967   6.903   7.455   4.579  0.0198 -0.1099 -0.2801
24291WAT      O98968   6.018   6.900   2.961 -0.3843 -0.2731 -0.1327
24291WAT     H198969   6.014   6.937   2.872  2.5818  0.4314 -0.0919
24291WAT     H298970   5.979   6.967   3.016  0.2853  0.5735 -0.6449
24291WAT    EPW98971   6.013   6.914   2.956  0.0951 -0.0687 -0.1949
24292WAT      O98972   8.533   8.117   5.083 -0.1631  0.2530 -0.3659
24292WAT     H198973   8.445   8.146   5.109 -1.7482 -2.5961 -2.0555
24292WAT     H298974   8.543   8.032   5.124  1.8123  0.4895 -0.2903
24292WAT    EPW98975   8.523   8.110   5.091 -0.1116 -0.0920 -0.5786
24293WAT      O98976   6.034   8.182   2.802  0.9686 -0.1998  0.4285
24293WAT     H198977   6.045   8.137   2.885 -2.7331  1.6788  2.1774
24293WAT     H298978   6.010   8.272   2.826  0.0466  0.5097 -2.6644
24293WAT    EPW98979   6.032   8.188   2.816  0.3586  0.1416  0.2512
24294WAT      O98980   5.601   8.689   1.812  0.1781 -0.1099 -0.2921
24294WAT     H198981   5.507   8.675   1.812  0.0200  0.6011  1.8346
24294WAT     H298982   5.638   8.611   1.770 -1.3848  0.2391 -2.4651
24294WAT    EPW98983   5.594   8.677   1.806 -0.0489  0.0296 -0.2982
24295WAT      O98984   3.984   9.494   5.686  0.6643  0.2111  0.9558
24295WAT     H198985   4.035   9.509   5.606  0.7787  1.3107  1.2172
24295WAT     H298986   4.026   9.419   5.728 -0.9750 -2.1425 -1.2901
24295WAT    EPW98987   3.997   9.487   5.681  0.4630  0.0458  0.6940
24296WAT      O98988   1.428   9.687   6.919 -0.1780 -0.9582 -0.6787
24296WAT     H198989   1.428   9.606   6.868 -1.2125 -2.3777  1.4231
24296WAT     H298990   1.410   9.756   6.855 -0.7955 -2.5525 -2.3062
24296WAT    EPW98991   1.426   9.685   6.904 -0.3959 -1.3556 -0.6163
24297WAT      O98992   8.329   7.986   2.460 -0.0958  0.0279 -0.7998
24297WAT     H198993   8.299   8.074   2.437 -2.3110 -0.4379  0.0788
24297WAT     H298994   8.420   7.998   2.486 -1.1814  2.7213  2.6055
24297WAT    EPW98995   8.337   7.999   2.460 -0.5307  0.3216 -0.2347
24298WAT      O98996   0.457   0.786   2.558 -0.2073 -0.2724  0.6605
24298WAT     H198997   0.393   0.748   2.499 -0.8977  0.3918  0.9700
24298WAT     H298998   0.540   0.746   2.532 -0.8811 -1.9365  0.9232
24298WAT    EPW98999   0.460   0.776   2.547 -0.3872 -0.4043  0.7358
24299WAT      O99000   2.014   0.468   3.886 -0.1836 -0.3823 -0.0445
24299WAT     H199001   1.937   0.424   3.923 -0.6621 -0.0556 -0.6171
24299WAT     H299002   2.084   0.452   3.949 -0.5916 -1.1340  0.2308
24299WAT    EPW99003   2.013   0.460   3.899 -0.3005 -0.4383 -0.0838
24300WAT      O99004   8.405   8.655   2.205  0.0272 -0.7273  0.0365
24300WAT     H199005   8.360   8.699   2.133 -1.1283 -2.4481 -0.3367
24300WAT     H299006   8.343   8.657   2.278  1.0245  0.6204  0.9275
24300WAT    EPW99007   8.391   8.661   2.205  0.0057 -0.7772  0.1048
24301WAT      O99008   4.746   7.201   4.869 -0.4923 -0.3782 -0.2882
24301WAT     H199009   4.739   7.292   4.841 -1.7119  0.0832  1.3856
24301WAT     H299010   4.837   7.177   4.850 -0.4026  0.8990 -1.5544
24301WAT    EPW99011   4.757   7.210   4.863 -0.6413 -0.1490 -0.2346
24302WAT      O99012   1.176   1.110   4.025  0.0683 -0.2875  0.1551
24302WAT     H199013   1.269   1.129   4.021 -0.0626  0.1836 -2.4566
24302WAT     H299014   1.162   1.042   3.958 -1.2249 -1.6622  1.7001
24302WAT    EPW99015   1.186   1.103   4.016 -0.1195 -0.4067  0.0145
24303WAT      O99016   6.201   9.728   4.159  0.1815 -0.2091 -0.0952
24303WAT     H199017   6.196   9.633   4.165 -0.5558 -0.1684  0.0962
24303WAT     H299018   6.114   9.754   4.130  0.1023  0.4663  0.7097
24303WAT    EPW99019   6.189   9.719   4.156  0.0739 -0.1149  0.0360
24304WAT      O99020   8.705   6.906   6.912  0.2270 -0.2732 -0.3797
24304WAT     H199021   8.693   6.836   6.976 -1.5832  0.9136  0.6457
24304WAT     H299022   8.655   6.877   6.836 -0.6177 -0.0574  0.0856
24304WAT    EPW99023   8.697   6.893   6.910 -0.1235 -0.0880 -0.1829
24305WAT      O99024   9.013   5.698   2.307  0.4079  0.2151 -0.0915
24305WAT     H199025   9.006   5.742   2.392 -0.6705  4.2109 -2.0112
24305WAT     H299026   8.922   5.685   2.279  0.7126 -2.4507 -0.1423
24305WAT    EPW99027   9.000   5.702   2.315  0.3061  0.3905 -0.3514
24306WAT      O99028   7.994   7.407   3.687  0.6954 -0.9369  0.2205
24306WAT     H199029   7.933   7.400   3.761  0.2739 -0.3080 -0.0540
24306WAT     H299030   7.966   7.337   3.627  0.8413 -1.2479  0.5101
24306WAT    EPW99031   7.982   7.397   3.689  0.6588 -0.8948  0.2223
24307WAT      O99032   5.102   9.882   3.731 -0.0600 -0.0241 -1.0622
24307WAT     H199033   5.174   9.820   3.738 -0.2765 -0.0836  1.0704
24307WAT     H299034   5.091   9.917   3.819 -1.5055  1.2882 -1.7129
24307WAT    EPW99035   5.110   9.878   3.743 -0.2794  0.1411 -0.8669
24308WAT      O99036   9.698   0.721   1.946  0.2636  0.0550  0.1285
24308WAT     H199037   9.672   0.650   2.005 -0.9261  0.2234 -0.1766
24308WAT     H299038   9.739   0.785   2.003 -0.7885  0.1727  0.7826
24308WAT    EPW99039   9.700   0.720   1.961 -0.0324  0.0927  0.1746
24309WAT      O99040   6.756   9.705   3.463 -0.5995 -0.0682  0.2316
24309WAT     H199041   6.833   9.708   3.520 -0.4017  0.3784 -0.0645
24309WAT     H299042   6.741   9.796   3.438 -1.3923 -0.1160  0.5149
24309WAT    EPW99043   6.764   9.717   3.467 -0.6778 -0.0153  0.2300
24310WAT      O99044   6.824   8.507   4.758  0.2359  0.2572 -0.0209
24310WAT     H199045   6.827   8.542   4.670  2.6176 -0.3970 -0.2648
24310WAT     H299046   6.891   8.438   4.759  1.5567  1.4373  2.7568
24310WAT    EPW99047   6.833   8.502   4.747  0.7243  0.3266  0.3130
24311WAT      O99048   6.156   5.969   3.696 -0.5734  0.1538  0.2654
24311WAT     H199049   6.133   6.022   3.619  1.3565  1.9514  0.8296
24311WAT     H299050   6.145   5.878   3.667  3.1952  0.5366 -3.3689
24311WAT    EPW99051   6.152   5.964   3.682  0.1783  0.4413 -0.1396
24312WAT      O99052   7.766   8.025   0.485 -0.4796 -0.1066 -0.5101
24312WAT     H199053   7.834   7.962   0.460 -0.5621  0.2052 -1.5715
24312WAT     H299054   7.811   8.086   0.544 -0.2556 -0.8168  0.0746
24312WAT    EPW99055   7.781   8.025   0.490 -0.4609 -0.1602 -0.5730
24313WAT      O99056   9.797   5.729   1.313  0.3306  0.4949  1.1511
24313WAT     H199057   9.871   5.788   1.332  0.2306  0.9557  0.1515
24313WAT     H299058   9.785   5.735   1.218 -2.1694  1.8596  1.4594
24313WAT    EPW99059   9.805   5.738   1.303 -0.0119  0.7355  1.0599
24314WAT      O99060   7.735   8.371   5.487  0.1733  0.2891 -0.6937
24314WAT     H199061   7.683   8.428   5.545  0.6313 -0.6773  0.7232
24314WAT     H299062   7.805   8.428   5.455 -0.0547  0.8321 -0.2595
24314WAT    EPW99063   7.737   8.386   5.490  0.2036  0.2332 -0.4494
24315WAT      O99064   8.988   7.469   1.064 -0.1000 -0.4036  0.6048
24315WAT     H199065   9.064   7.419   1.095  0.6424 -0.7711 -1.6396
24315WAT     H299066   9.017   7.560   1.066 -0.7613 -0.1752  2.7680
24315WAT    EPW99067   9.002   7.474   1.068 -0.0896 -0.4220  0.5940
24316WAT      O99068   9.313   9.404   2.902 -0.1307  0.6494  0.2265
24316WAT     H199069   9.317   9.327   2.958  0.5586  1.2264  1.0142
24316WAT     H299070   9.394   9.452   2.922 -2.2461  3.5916  2.7756
24316WAT    EPW99071   9.325   9.400   2.912 -0.3185  1.1134  0.6666
24317WAT      O99072   9.486   0.627   1.445 -0.0003  0.9147 -0.4588
24317WAT     H199073   9.500   0.721   1.432  2.1788  0.6807 -0.0931
24317WAT     H299074   9.571   0.587   1.428 -1.1046 -1.1229 -1.5336
24317WAT    EPW99075   9.499   0.634   1.441  0.1416  0.6151 -0.5524
24318WAT      O99076   6.998   5.733   3.155 -0.0923 -0.4228 -0.1609
24318WAT     H199077   7.043   5.651   3.173  0.4123  0.1711  1.4068
24318WAT     H299078   6.918   5.707   3.109  1.0205 -1.6099 -1.5301
24318WAT    EPW99079   6.994   5.719   3.151  0.1209 -0.5009 -0.1346
24319WAT      O99080   9.101   7.430   1.631  0.3786  0.3429 -0.2025
24319WAT     H199081   9.140   7.479   1.703 -0.5742  0.4053  0.2929
24319WAT     H299082   9.163   7.439   1.559  0.1496  2.4329 -0.1929
24319WAT    EPW99083   9.114   7.438   1.631  0.2227  0.6266 -0.1359
24320WAT      O99084   8.893   9.055   2.313 -0.2765  0.1729 -0.4727
24320WAT     H199085   8.862   9.138   2.350 -0.2535 -0.4461  1.0000
24320WAT     H299086   8.840   8.988   2.357  0.7680 -0.6886 -0.5035
24320WAT    EPW99087   8.882   9.057   2.324 -0.1359 -0.0224 -0.2825
24321WAT      O99088   0.568   3.889   5.175 -0.5709 -1.3178  0.5153
24321WAT     H199089   0.652   3.881   5.219  0.1685 -1.3883 -0.8705
24321WAT     H299090   0.583   3.854   5.087 -0.8411  2.5811 -1.2631
24321WAT    EPW99091   0.581   3.883   5.169 -0.5090 -0.8129  0.0980
24322WAT      O99092   7.369   5.970   6.608  0.3338  0.6218 -0.4007
24322WAT     H199093   7.359   5.908   6.537  1.6321  0.2588 -0.2912
24322WAT     H299094   7.280   5.984   6.641  0.0820 -2.0715  0.3336
24322WAT    EPW99095   7.356   5.964   6.603  0.4718  0.2186 -0.2894
24323WAT      O99096   8.274   8.126   4.244  0.1445  0.1903 -0.1962
24323WAT     H199097   8.205   8.060   4.243  1.1421 -0.8860 -0.5709
24323WAT     H299098   8.238   8.198   4.295 -1.7914  0.2707 -1.5881
24323WAT    EPW99099   8.260   8.127   4.251  0.0205  0.0587 -0.4292
24324WAT      O99100   7.409   9.639   4.207 -0.1469  0.3397  0.3397
24324WAT     H199101   7.442   9.722   4.173  1.6571 -0.7669 -0.7883
24324WAT     H299102   7.457   9.572   4.158 -1.6767 -1.3877  1.0760
24324WAT    EPW99103   7.420   9.641   4.196 -0.1106 -0.0343  0.2882
24325WAT      O99104   0.337   9.484   5.282 -0.5232 -0.7434 -0.4716
24325WAT     H199105   0.242   9.496   5.281 -0.8861 -3.1185 -0.0476
24325WAT     H299106   0.368   9.539   5.210 -2.1229  0.6098 -0.1956
24325WAT    EPW99107   0.328   9.493   5.272 -0.7820 -0.8779 -0.3791
24326WAT      O99108   0.253   0.907   3.989  0.6614 -0.3301 -0.5933
24326WAT     H199109   0.185   0.974   3.999  0.6368 -0.3918 -0.3562
24326WAT     H299110   0.286   0.921   3.900 -0.0215 -0.6321 -0.9059
24326WAT    EPW99111   0.248   0.918   3.978  0.5681 -0.3781 -0.6032
24327WAT      O99112   9.037   5.178   0.966 -0.6046 -0.2169  0.3393
24327WAT     H199113   9.048   5.235   0.890 -3.7051  0.2854  0.1233
24327WAT     H299114   8.971   5.222   1.019 -0.1916 -1.7056  2.1992
24327WAT    EPW99115   9.030   5.191   0.963 -0.9589 -0.3469  0.5561
24328WAT      O99116   1.421   6.486   8.142 -0.0775  0.5503  0.3231
24328WAT     H199117   1.329   6.499   8.164 -0.2089 -1.4522  1.1375
24328WAT     H299118   1.456   6.575   8.132 -1.8611  1.3650  0.9535
24328WAT    EPW99119   1.413   6.500   8.143 -0.3300  0.3934  0.5140
24329WAT      O99120   0.196   1.202   8.043 -0.0649 -0.4003  0.9910
24329WAT     H199121   0.221   1.111   8.031 -0.4791 -0.3137 -0.9106
24329WAT     H299122   0.116   1.199   8.096 -0.8636 -1.2834 -0.2018
24329WAT    EPW99123   0.189   1.190   8.048 -0.2249 -0.5053  0.5832
24330WAT      O99124   6.757   9.527   5.339  0.2242 -0.1481 -0.0485
24330WAT     H199125   6.741   9.603   5.395 -0.1342  1.2874 -1.9824
24330WAT     H299126   6.767   9.564   5.251 -0.2709 -2.3851 -1.1216
24330WAT    EPW99127   6.757   9.542   5.335  0.1116 -0.2537 -0.4449
24331WAT      O99128   5.299   6.526   3.501 -0.6268  0.5895 -0.3397
24331WAT     H199129   5.314   6.557   3.412  2.9230  0.2908  0.0258
24331WAT     H299130   5.281   6.606   3.552  0.2149  1.0915 -0.8233
24331WAT    EPW99131   5.298   6.541   3.496 -0.0474  0.6161 -0.3554
24332WAT      O99132   4.118   1.115   8.655 -0.1910 -0.3438  0.9254
24332WAT     H199133   4.025   1.130   8.641  0.2604  0.9638 -1.1769
24332WAT     H299134   4.150   1.198   8.691  0.1558 -0.8457  1.8024
24332WAT    EPW99135   4.110   1.128   8.658 -0.0858 -0.2376  0.7639
24333WAT      O99136   9.796   1.776   3.087 -0.0854 -0.8902  0.1242
24333WAT     H199137   9.840   1.850   3.046  0.2128 -1.8072 -1.3033
24333WAT     H299138   9.808   1.790   3.180  0.5728  0.4815 -0.1329
24333WAT    EPW99139   9.803   1.788   3.094  0.0410 -0.8302 -0.0980
24334WAT      O99140   7.654   9.731   4.558  0.2135 -0.4219 -0.3770
24334WAT     H199141   7.680   9.641   4.537 -1.1287 -0.8785 -0.1814
24334WAT     H299142   7.560   9.733   4.540  0.1451  0.8207  0.0677
24334WAT    EPW99143   7.645   9.719   4.553  0.0277 -0.3181 -0.2925
24335WAT      O99144   2.015   0.090   2.438 -0.8737 -0.3214  0.0856
24335WAT     H199145   2.050   0.049   2.517  1.3454 -0.0443 -0.7026
24335WAT     H299146   2.010   0.019   2.374 -0.5586 -0.1118 -0.1751
24335WAT    EPW99147   2.019   0.075   2.440 -0.5395 -0.2572 -0.0528
24336WAT      O99148   4.656   7.818   4.939  0.3560  0.1376 -0.3750
24336WAT     H199149   4.699   7.801   5.023 -1.0212 -1.6208  0.0204
24336WAT     H299150   4.668   7.912   4.926  3.9490 -0.1407 -0.1504
24336WAT    EPW99151   4.663   7.828   4.948  0.6480 -0.1311 -0.2933
24337WAT      O99152   7.232   8.698   3.781 -0.2666  0.9095  0.2687
24337WAT     H199153   7.318   8.676   3.816 -0.2371  0.3493 -0.1321
24337WAT     H299154   7.243   8.786   3.744  0.4906  0.3561 -0.8961
24337WAT    EPW99155   7.245   8.706   3.781 -0.1628  0.7629  0.0621
24338WAT      O99156   2.939   1.386   1.774  0.0112 -0.2461  0.6388
24338WAT     H199157   2.917   1.478   1.755  1.7931  1.2040  4.5434
24338WAT     H299158   3.030   1.390   1.802  0.7052 -3.6069 -0.7233
24338WAT    EPW99159   2.948   1.399   1.775  0.3378 -0.4981  0.9742
24339WAT      O99160   6.617   5.191   8.536 -0.0175  0.2348 -0.3494
24339WAT     H199161   6.547   5.216   8.476 -0.6653 -0.7009 -0.0116
24339WAT     H299162   6.577   5.124   8.593  1.7870 -2.2160 -1.7478
24339WAT    EPW99163   6.603   5.185   8.536  0.1349 -0.2117 -0.4897
24340WAT      O99164   0.212   2.107   5.005 -0.4794  0.2768 -0.6392
24340WAT     H199165   0.153   2.039   5.036  1.8294 -1.6976 -0.2795
24340WAT     H299166   0.249   2.071   4.924  0.0999  1.5218 -0.9479
24340WAT    EPW99167   0.209   2.093   4.998 -0.0985  0.1805 -0.6323
24341WAT      O99168   9.084   6.915   1.436  0.3738 -0.4041 -0.1807
24341WAT     H199169   9.170   6.957   1.437  0.3094 -0.1804  2.0750
24341WAT     H299170   9.088   6.851   1.365  2.1583  0.0702 -0.5429
24341WAT    EPW99171   9.096   6.912   1.427  0.6008 -0.3121  0.0691
24342WAT      O99172  10.180   9.694   5.272  0.4493 -0.0507 -0.4536
24342WAT     H199173  10.097   9.684   5.319  0.7759 -0.1482  0.1141
24342WAT     H299174  10.246   9.702   5.341  1.1866 -2.1502 -0.8620
24342WAT    EPW99175  10.177   9.694   5.287  0.5894 -0.3409 -0.4325
24343WAT      O99176   7.238   8.667   8.215  0.6111  0.7270  0.2151
24343WAT     H199177   7.280   8.611   8.279  2.7222  1.4495 -0.4538
24343WAT     H299178   7.212   8.608   8.144  5.4143  0.6845 -1.8582
24343WAT    EPW99179   7.240   8.652   8.214  1.5230  0.8163 -0.1464
24344WAT      O99180   1.093   0.503   1.207  0.6839  0.3452 -0.3925
24344WAT     H199181   1.100   0.564   1.134 -0.2851  2.3921  1.1513
24344WAT     H299182   1.183   0.496   1.241  0.5901  2.1219  0.3129
24344WAT    EPW99183   1.106   0.510   1.202  0.5437  0.8495 -0.0958
24345WAT      O99184   2.192   0.282   3.293  0.7494  0.2798  0.6264
24345WAT     H199185   2.183   0.193   3.260  0.1245  0.2996  0.7307
24345WAT     H299186   2.264   0.277   3.355  0.5034 -0.2294  0.8793
24345WAT    EPW99187   2.200   0.270   3.297  0.6346  0.2152  0.6734
24346WAT      O99188   0.449   8.094   4.371 -0.0159 -0.1316  0.0140
24346WAT     H199189   0.443   8.082   4.277 -1.9270 -0.1799  0.0974
24346WAT     H299190   0.514   8.164   4.382  1.6546 -1.4137 -1.1844
24346WAT    EPW99191   0.457   8.102   4.360 -0.0477 -0.3066 -0.1330
24347WAT      O99192  10.953  10.355   3.445  0.1595 -0.8785 -0.2048
24347WAT     H199193  10.981  10.280   3.498 -1.1490 -1.1061  0.2072
24347WAT     H299194  11.035  10.395   3.415  0.8855 -2.4816 -0.4687
24347WAT    EPW99195  10.967  10.350   3.448  0.0827 -1.1200 -0.1854
24348WAT      O99196   8.468   9.923   1.852 -0.3396  0.1203  0.6667
24348WAT     H199197   8.432   9.835   1.856  0.5716 -0.2186  3.1708
24348WAT     H299198   8.554   9.913   1.811 -0.4189 -0.1015  0.5595
24348WAT    EPW99199   8.475   9.910   1.847 -0.2298  0.0467  0.9829
24349WAT      O99200   4.533   2.881   8.469 -0.1775  0.1181  0.7129
24349WAT     H199201   4.481   2.857   8.545 -0.6892  2.1109  1.0351
24349WAT     H299202   4.585   2.956   8.497 -0.8624  1.3199 -1.0509
24349WAT    EPW99203   4.533   2.888   8.482 -0.3352  0.5393  0.5226
24350WAT      O99204   4.084   2.205   3.085 -0.2045  0.6621 -0.6538
24350WAT     H199205   4.062   2.298   3.082  0.4527  0.8107 -0.9528
24350WAT     H299206   4.180   2.203   3.092 -0.2122  0.0086 -0.6884
24350WAT    EPW99207   4.094   2.217   3.086 -0.1187  0.5955 -0.6980
24351WAT      O99208   6.600   7.582   5.049  0.5111  0.2643 -0.4102
24351WAT     H199209   6.512   7.544   5.048 -0.2801  1.9729 -0.1082
24351WAT     H299210   6.590   7.666   5.002  1.8948  0.6567 -0.0472
24351WAT    EPW99211   6.587   7.588   5.043  0.5896  0.5412 -0.3226
24352WAT      O99212   8.623   3.082   7.565  0.0166 -0.5565 -0.3688
24352WAT     H199213   8.560   3.154   7.559  1.4388  0.6620 -1.4499
24352WAT     H299214   8.704   3.118   7.527  1.4285 -1.9877  1.1162
24352WAT    EPW99215   8.626   3.096   7.560  0.3905 -0.5846 -0.3154
24353WAT      O99216   8.529   1.729   1.185 -0.0543 -0.3080 -0.5083
24353WAT     H199217   8.546   1.821   1.165  0.6810  0.3340  2.5839
24353WAT     H299218   8.609   1.683   1.160 -0.3222 -0.1060 -1.8027
24353WAT    EPW99219   8.542   1.735   1.179  0.0067 -0.1967 -0.2711
24354WAT      O99220   4.995   0.773   0.037  0.3302 -0.0817  0.5190
24354WAT     H199221   4.990   0.683   0.004  1.4403 -0.3727  1.1026
24354WAT     H299222   5.031   0.765   0.125 -0.8084  0.8461  1.1082
24354WAT    EPW99223   4.999   0.760   0.044  0.3264  0.0022  0.6737
24355WAT      O99224  10.356   1.297   3.187  0.2205 -0.1213  0.9061
24355WAT     H199225  10.382   1.334   3.272  1.4607  0.4511  0.3127
24355WAT     H299226  10.308   1.218   3.209 -0.0484  0.3600  2.1599
24355WAT    EPW99227  10.353   1.292   3.201  0.3490  0.0176  0.9931
24356WAT      O99228   5.852   9.292   3.832 -0.0929  0.0503  0.1498
24356WAT     H199229   5.801   9.287   3.752  2.3476 -1.6649 -1.4367
24356WAT     H299230   5.862   9.386   3.848  0.8626  0.5107 -2.6573
24356WAT    EPW99231   5.847   9.304   3.824  0.3548 -0.1149 -0.4297
24357WAT      O99232   7.802   9.244   2.733 -0.3876  0.1259 -0.0666
24357WAT     H199233   7.780   9.258   2.641 -2.0324  2.1347  0.5422
24357WAT     H299234   7.766   9.321   2.778 -0.3818 -1.1816  2.3563
24357WAT    EPW99235   7.794   9.256   2.727 -0.6039  0.2179  0.3332
24358WAT      O99236   1.795   0.011   3.584 -0.3707  0.3986 -0.5086
24358WAT     H199237   1.793  -0.051   3.657  2.0816  2.1229  1.1634
24358WAT     H299238   1.716  -0.010   3.533 -2.0674 -1.0591  2.4635
24358WAT    EPW99239   1.784  -0.000   3.587 -0.2713  0.4334  0.1040
24359WAT      O99240   9.069   9.467   1.401 -0.3052 -0.2325  0.0094
24359WAT     H199241   9.043   9.383   1.363  0.3299 -0.2257 -0.4733
24359WAT     H299242   9.163   9.457   1.418  0.0437  0.7490 -1.1370
24359WAT    EPW99243   9.078   9.455   1.398 -0.1755 -0.1025 -0.2055
24360WAT      O99244   9.578   9.262   1.218 -0.1149  0.0981  0.2176
24360WAT     H199245   9.616   9.284   1.134 -0.3634  1.7533  0.4947
24360WAT     H299246   9.528   9.340   1.243 -1.4215 -0.9787  1.1216
24360WAT    EPW99247   9.576   9.275   1.210 -0.3200  0.1736  0.3734
24361WAT      O99248   9.338   8.232   2.935 -0.4084 -0.4988 -0.0036
24361WAT     H199249   9.246   8.216   2.952  0.0078 -1.1387  1.8177
24361WAT     H299250   9.356   8.318   2.973 -0.0282 -0.8487  0.6317
24361WAT    EPW99251   9.328   8.241   2.942 -0.3037 -0.6294  0.3204
24362WAT      O99252   7.808   7.946   3.242 -0.2834  0.4526  0.0339
24362WAT     H199253   7.800   7.851   3.248 -0.7187  0.3753 -1.4470
24362WAT     H299254   7.749   7.971   3.171 -1.2596  1.9923  1.3195
24362WAT    EPW99255   7.799   7.937   3.233 -0.4694  0.6454  0.0081
24363WAT      O99256   8.390   7.705   4.257 -0.2520  0.5516  0.1487
24363WAT     H199257   8.349   7.621   4.235 -0.2908  0.7527 -0.5639
24363WAT     H299258   8.410   7.745   4.173 -1.7698  2.0284  0.4376
24363WAT    EPW99259   8.387   7.699   4.243 -0.4568  0.7727  0.0927
24364WAT      O99260   6.814   7.895   3.428 -0.1067 -0.7745  0.2046
24364WAT     H199261   6.728   7.932   3.446  0.7471  0.1422  3.0120
24364WAT     H299262   6.874   7.969   3.436  1.1529 -1.8067  0.6673
24364WAT    EPW99263   6.811   7.909   3.432  0.1719 -0.7899  0.6357
24365WAT      O99264   6.432   4.169   7.685 -0.9712 -0.0046 -0.4853
24365WAT     H199265   6.397   4.145   7.600  0.5212 -1.9078 -0.6474
24365WAT     H299266   6.441   4.264   7.682 -1.0289 -0.0249 -2.4325
24365WAT    EPW99267   6.429   4.178   7.674 -0.7820 -0.2582 -0.7637
24366WAT      O99268   7.443   7.445   4.910 -0.4133  0.2456  0.1390
24366WAT     H199269   7.503   7.517   4.930 -0.1024  0.0275 -0.0003
24366WAT     H299270   7.402   7.471   4.828  1.8628 -1.0573 -1.5249
24366WAT    EPW99271   7.446   7.458   4.902 -0.0718  0.0451 -0.0989
24367WAT      O99272   8.437   6.890   4.243 -0.3038  0.1992  0.2191
24367WAT     H199273   8.436   6.885   4.147  1.1697 -0.5566  0.2115
24367WAT     H299274   8.344   6.890   4.268 -0.7228 -1.4653 -1.1332
24367WAT    EPW99275   8.424   6.889   4.233 -0.1640 -0.1199  0.0398
24368WAT      O99276   8.099   6.256   3.836 -1.2006  0.5795 -0.2172
24368WAT     H199277   8.103   6.160   3.841 -0.4182  0.6668  1.9143
24368WAT     H299278   8.009   6.277   3.860 -0.5010  0.4386  2.9656
24368WAT    EPW99279   8.088   6.246   3.840 -1.0052  0.5724  0.4836
24369WAT      O99280   8.945   7.043   3.050  0.9226 -0.1359 -0.1684
24369WAT     H199281   9.005   6.974   3.022  2.1405  1.0852 -0.7218
24369WAT     H299282   8.999   7.103   3.101  0.2079  1.0258 -0.7054
24369WAT    EPW99283   8.960   7.042   3.053  0.9890  0.1783 -0.3121
24370WAT      O99284   8.303  10.077   1.988 -0.0794  0.5488 -0.0726
24370WAT     H199285   8.362  10.015   1.943 -1.2726 -0.0361 -0.8766
24370WAT     H299286   8.216  10.056   1.954 -0.7486  1.4749  1.0179
24370WAT    EPW99287   8.300  10.066   1.977 -0.3257  0.5937 -0.0348
24371WAT      O99288   8.358   7.809   3.102 -0.9236 -0.3810 -0.1182
24371WAT     H199289   8.351   7.812   3.007  0.0015 -0.1999 -0.1892
24371WAT     H299290   8.299   7.878   3.133  0.2553  0.9128 -0.6578
24371WAT    EPW99291   8.349   7.818   3.094 -0.6456 -0.1864 -0.1986
24372WAT      O99292   7.052   6.972   0.682  0.3463 -0.7705  0.3750
24372WAT     H199293   7.053   7.029   0.759  1.9291 -3.6711  2.7055
24372WAT     H299294   7.114   7.012   0.621  0.9121  0.3476  1.6310
24372WAT    EPW99295   7.060   6.985   0.685  0.6297 -1.0056  0.8480
24373WAT      O99296   8.877   9.931   3.717 -0.3708  0.1653  0.4175
24373WAT     H199297   8.811   9.864   3.738  0.1207 -0.7005 -0.7138
24373WAT     H299298   8.903   9.966   3.803  0.0098 -1.7150  1.1231
24373WAT    EPW99299   8.872   9.926   3.731 -0.2556 -0.1974  0.3612
24374WAT      O99300   3.058   0.413   5.212 -0.1961  0.2162 -0.1699
24374WAT     H199301   2.995   0.411   5.139  1.2281 -0.6751 -1.4358
24374WAT     H299302   3.038   0.494   5.258 -2.0107  0.1497 -0.7439
24374WAT    EPW99303   3.047   0.423   5.208 -0.2477  0.0899 -0.4127
24375WAT      O99304   6.953  10.330   4.222 -0.6141 -0.3383 -0.5899
24375WAT     H199305   6.999  10.283   4.152  2.0849  1.6162 -0.2519
24375WAT     H299306   7.022  10.368   4.275 -2.6450  1.4165  0.9622
24375WAT    EPW99307   6.968  10.329   4.219 -0.5257  0.1507 -0.3405
24376WAT      O99308   9.572   6.959   3.409  0.1000 -0.0320 -0.4390
24376WAT     H199309   9.574   7.044   3.454 -2.5588  0.4474 -1.0583
24376WAT     H299310   9.523   6.902   3.469  0.0888 -0.5369 -0.9227
24376WAT    EPW99311   9.566   6.963   3.423 -0.2522 -0.0350 -0.5846
24377WAT      O99312   9.949   0.354   4.200  0.3231 -0.3796  0.6507
24377WAT     H199313   9.907   0.420   4.255 -2.4147  0.1028 -1.7575
24377WAT     H299314   9.922   0.271   4.238  0.3188 -0.0928  1.2867
24377WAT    EPW99315   9.940   0.352   4.212 -0.0381 -0.2782  0.4170
24378WAT      O99316   3.520   0.143   1.956 -0.6157 -1.0191 -0.3775
24378WAT     H199317   3.590   0.132   2.021  0.0834  1.4532 -0.5917
24378WAT     H299318   3.471   0.061   1.959 -2.0958 -0.3038  4.9816
24378WAT    EPW99319   3.523   0.131   1.965 -0.7190 -0.5987  0.3010
24379WAT      O99320  10.030   0.899   2.321 -0.0151 -0.3281 -0.1470
24379WAT     H199321   9.986   0.817   2.297  2.7100 -2.1625  0.6510
24379WAT     H299322  10.122   0.875   2.327  0.6983  2.4593  1.7071
24379WAT    EPW99323  10.036   0.885   2.319  0.4387 -0.2024  0.2028
24380WAT      O99324   9.447   8.476   4.169 -0.3298  0.2305 -0.8854
24380WAT     H199325   9.425   8.407   4.106  1.3415 -2.2495  1.0508
24380WAT     H299326   9.489   8.544   4.116  0.9485 -1.7116 -2.5353
24380WAT    EPW99327   9.450   8.476   4.154  0.0591 -0.3529 -0.8476
24381WAT      O99328   6.252   6.801   8.676  0.0333 -0.1466  0.1110
24381WAT     H199329   6.174   6.746   8.683 -0.5265  0.5712 -0.3568
24381WAT     H299330   6.296   6.790   8.760  0.4284 -2.0114 -0.2928
24381WAT    EPW99331   6.247   6.792   8.688  0.0114 -0.2980 -0.0043
24382WAT      O99332  10.219   7.387   2.779 -0.2957 -0.6918 -0.0687
24382WAT     H199333  10.255   7.364   2.694 -0.9828 -0.0899 -0.5325
24382WAT     H299334  10.273   7.461   2.808 -1.2702  0.3783 -0.8809
24382WAT    EPW99335  10.231   7.394   2.772 -0.5150 -0.4714 -0.2370
24383WAT      O99336   8.207   9.836   3.926  0.4327  0.3241  0.1764
24383WAT     H199337   8.197   9.822   4.021 -1.3372  0.8234  0.1120
24383WAT     H299338   8.124   9.807   3.889  1.6735 -1.3453 -1.4553
24383WAT    EPW99339   8.195   9.831   3.934  0.3629  0.1698 -0.0473
24384WAT      O99340   0.884   0.874   1.966 -0.2003  0.4569 -0.0226
24384WAT     H199341   0.953   0.932   1.935  1.2978 -1.7520 -1.0693
24384WAT     H299342   0.907   0.856   2.057 -1.1010  2.0217  0.5516
24384WAT    EPW99343   0.896   0.879   1.974 -0.1215  0.3720 -0.0851
24385WAT      O99344   7.585   8.348   1.976 -0.0257 -0.3212 -0.4172
24385WAT     H199345   7.640   8.343   2.055  1.4841  2.3916 -1.1745
24385WAT     H299346   7.504   8.390   2.006  0.0350 -0.4432 -0.0758
24385WAT    EPW99347   7.582   8.353   1.991  0.1817  0.0205 -0.4720
24386WAT      O99348   1.614   0.464   4.288 -0.5388  0.1525  0.0418
24386WAT     H199349   1.522   0.469   4.313  0.1042  0.1333  2.6684
24386WAT     H299350   1.651   0.396   4.344  1.5454  1.7461  0.7327
24386WAT    EPW99351   1.607   0.456   4.299 -0.1790  0.3602  0.4792
24387WAT      O99352  10.458   0.534   2.053  0.1834  0.6085  0.4655
24387WAT     H199353  10.452   0.446   2.016 -3.9016  0.7212  0.4899
24387WAT     H299354  10.481   0.519   2.145  1.8754 -0.1815 -0.0280
24387WAT    EPW99355  10.460   0.520   2.060 -0.1321  0.5192  0.4036
24388WAT      O99356  10.364   9.690   5.467 -0.5293 -0.9845 -0.0414
24388WAT     H199357  10.393   9.782   5.469 -0.6502 -0.8468 -2.2291
24388WAT     H299358  10.442   9.640   5.487  0.1242 -0.4574 -1.1797
24388WAT    EPW99359  10.378   9.696   5.470 -0.4587 -0.8969 -0.4799
24389WAT      O99360   3.715   1.412   5.930 -0.1832 -0.2194  0.0654
24389WAT     H199361   3.805   1.384   5.943 -0.1884 -0.0507  0.4586
24389WAT     H299362   3.672   1.395   6.013 -0.6664 -0.8731 -0.3096
24389WAT    EPW99363   3.721   1.406   5.943 -0.2475 -0.2834  0.0679
24390WAT      O99364   4.753   4.561   8.074  0.2629  0.3811 -0.1556
24390WAT     H199365   4.823   4.523   8.127  0.4921  2.6727  1.2739
24390WAT     H299366   4.676   4.509   8.097  0.4226  1.0956  2.2429
24390WAT    EPW99367   4.752   4.549   8.084  0.3145  0.7777  0.3500
24391WAT      O99368   0.737   7.661   0.881 -0.3298 -0.7270 -0.4744
24391WAT     H199369   0.719   7.682   0.972 -0.5506  1.7617 -1.0119
24391WAT     H299370   0.659   7.615   0.850 -1.8791  1.6183 -0.3090
24391WAT    EPW99371   0.725   7.658   0.889 -0.5633 -0.0892 -0.5235
24392WAT      O99372  10.544   6.068   4.940 -0.3889 -0.1050 -0.2231
24392WAT     H199373  10.490   6.032   4.868 -0.8874 -0.1988  0.1902
24392WAT     H299374  10.489   6.135   4.979  0.0455  0.2269 -0.1803
24392WAT    EPW99375  10.529   6.072   4.935 -0.3972 -0.0734 -0.1631
24393WAT      O99376   7.631   5.238   7.404  0.7273  0.3005  0.0174
24393WAT     H199377   7.675   5.242   7.319 -2.2593 -0.9176 -1.7359
24393WAT     H299378   7.662   5.316   7.450  2.6070  0.8977 -2.0675
24393WAT    EPW99379   7.641   5.249   7.398  0.5810  0.2186 -0.4888
24394WAT      O99380   9.673   6.103   1.372  0.3670  0.5035  0.3410
24394WAT     H199381   9.702   6.153   1.296 -1.3383 -0.2035 -0.8387
24394WAT     H299382   9.662   6.014   1.338  3.2409 -0.7792  2.3510
24394WAT    EPW99383   9.676   6.098   1.357  0.5212  0.2413  0.4506
24395WAT      O99384   6.519   9.556   5.868 -0.2411 -0.3844  0.0342
24395WAT     H199385   6.431   9.537   5.900 -0.3555  0.8640  0.5357
24395WAT     H299386   6.527   9.505   5.787 -1.5275 -0.3055 -0.1675
24395WAT    EPW99387   6.509   9.547   5.861 -0.4258 -0.2098  0.0741
24396WAT      O99388  10.422   2.561   3.591  0.0678  0.2257 -0.4056
24396WAT     H199389  10.449   2.601   3.674  0.3148 -1.9493  0.6200
24396WAT     H299390  10.499   2.513   3.561 -1.1595 -2.3542  0.2535
24396WAT    EPW99391  10.436   2.560   3.598 -0.0615 -0.4014 -0.1833
24397WAT      O99392   3.992   5.390   0.558 -0.1157 -0.0233 -0.1374
24397WAT     H199393   4.055   5.454   0.524  0.2087  0.1924  0.8371
24397WAT     H299394   3.983   5.326   0.487  1.3711 -0.1749 -0.2229
24397WAT    EPW99395   4.000   5.390   0.544  0.1231 -0.0150 -0.0201
24398WAT      O99396   7.090   3.911   0.259  0.5221  0.7506  0.2335
24398WAT     H199397   7.076   3.892   0.351 -2.7122 -2.8331 -0.7656
24398WAT     H299398   7.040   3.991   0.243 -0.8329  0.1144  1.1601
24398WAT    EPW99399   7.082   3.919   0.269 -0.0830  0.1941  0.2239
24399WAT      O99400   8.975   9.481   3.791 -0.3368 -0.4418 -0.1003
24399WAT     H199401   8.910   9.506   3.725 -1.1435 -0.4295  0.6806
24399WAT     H299402   9.055   9.524   3.762 -0.7826 -0.0866 -0.8479
24399WAT    EPW99403   8.977   9.490   3.778 -0.5016 -0.3934 -0.0960
24400WAT      O99404   5.974   8.124   4.597 -0.1518 -0.2102  0.1974
24400WAT     H199405   5.887   8.099   4.566 -0.3402  0.5585  0.0880
24400WAT     H299406   6.001   8.195   4.538  0.5932 -0.5110  0.1648
24400WAT    EPW99407   5.966   8.130   4.585 -0.0784 -0.1478  0.1786
24401WAT      O99408   2.220   2.756   1.848 -0.6773  0.2249 -0.0716
24401WAT     H199409   2.208   2.791   1.936  3.1941 -1.1217  1.2290
24401WAT     H299410   2.292   2.807   1.812 -0.9888 -0.4510 -1.7416
24401WAT    EPW99411   2.228   2.767   1.855 -0.2078 -0.0420 -0.1203
24402WAT      O99412  10.235   7.964   2.864  0.0847  1.0387  0.1100
24402WAT     H199413  10.218   7.912   2.942  1.0526  1.2327  0.4640
24402WAT     H299414  10.187   8.046   2.878 -0.7912  0.5694 -0.0911
24402WAT    EPW99415  10.226   7.968   2.876  0.0973  1.0026  0.1301
24403WAT      O99416   1.272   1.319   2.145  0.2701  0.0182 -0.0983
24403WAT     H199417   1.212   1.393   2.162  1.5382  1.1946 -0.5877
24403WAT     H299418   1.351   1.360   2.109  0.4572 -1.7284 -1.8186
24403WAT    EPW99419   1.274   1.334   2.143  0.4621 -0.0570 -0.3899
24404WAT      O99420   3.816   1.394   1.189  0.2389  0.2886  0.7255
24404WAT     H199421   3.740   1.408   1.132  1.1350  0.9765 -0.3548
24404WAT     H299422   3.889   1.377   1.128  1.2339  1.0544  1.6592
24404WAT    EPW99423   3.816   1.393   1.173  0.4882  0.4804  0.7062
24405WAT      O99424   8.358   7.190   2.361  0.5512  0.5719  0.4735
24405WAT     H199425   8.419   7.250   2.404  0.3464  0.4750  0.9015
24405WAT     H299426   8.403   7.163   2.281  1.3789 -0.0857  1.1531
24405WAT    EPW99427   8.372   7.195   2.356  0.6337  0.4723  0.6196
24406WAT      O99428   9.360   9.764   5.028 -0.0258 -0.3144  0.0934
24406WAT     H199429   9.329   9.749   5.117 -1.5451  0.6697 -0.2314
24406WAT     H299430   9.415   9.842   5.035 -1.0405  0.4246  0.0130
24406WAT    EPW99431   9.363   9.772   5.041 -0.3595 -0.0868  0.0398
24407WAT      O99432  10.795   9.512   1.163 -0.4092  0.6364  0.2141
24407WAT     H199433  10.883   9.492   1.131 -1.5888 -2.2504 -1.6226
24407WAT     H299434  10.793   9.607   1.170  2.6782  0.8205 -0.1362
24407WAT    EPW99435  10.806   9.522   1.160 -0.1583  0.2799 -0.0743
24408WAT      O99436   7.906   7.196   4.569 -0.3621 -0.3611  0.9722
24408WAT     H199437   7.896   7.150   4.652 -1.1377 -1.8996  0.0596
24408WAT     H299438   8.001   7.211   4.562 -0.3342  0.2773  2.3576
24408WAT    EPW99439   7.917   7.192   4.579 -0.4606 -0.4799  1.0347
24409WAT      O99440   7.201   8.648   0.759 -0.4022 -0.3413 -0.0635
24409WAT     H199441   7.133   8.713   0.775 -0.4904  0.6537 -3.5326
24409WAT     H299442   7.176   8.572   0.812 -1.0611  1.8681  3.0354
24409WAT    EPW99443   7.189   8.646   0.768 -0.5004  0.0811 -0.1124
24410WAT      O99444   1.829   1.747   7.341  0.1202  0.0305 -0.0006
24410WAT     H199445   1.733   1.748   7.332  0.1327 -1.3092 -0.5076
24410WAT     H299446   1.847   1.675   7.402  0.7980  0.4039  0.2471
24410WAT    EPW99447   1.818   1.738   7.348  0.2113 -0.0969 -0.0350
24411WAT      O99448   9.681   8.263   4.592 -0.8414  0.0328  0.6089
24411WAT     H199449   9.617   8.281   4.523  0.3477 -1.0957 -0.8650
24411WAT     H299450   9.748   8.330   4.581 -1.0923  0.4018  1.2819
24411WAT    EPW99451   9.682   8.274   4.582 -0.7181 -0.0677  0.5031
24412WAT      O99452   0.494   0.218   5.881 -0.1920  0.1107  0.0325
24412WAT     H199453   0.485   0.312   5.894  2.5006  0.3358  0.7338
24412WAT     H299454   0.506   0.182   5.969 -0.8592 -0.8667 -0.2530
24412WAT    EPW99455   0.494   0.226   5.894  0.0751  0.0115  0.0873
24413WAT      O99456   2.034   6.485   1.130  0.5007 -0.0349  0.2170
24413WAT     H199457   2.039   6.459   1.037 -1.1334 -1.9892  0.6018
24413WAT     H299458   1.978   6.562   1.131 -0.4820 -0.7282 -0.3220
24413WAT    EPW99459   2.028   6.492   1.118  0.1554 -0.3843  0.1967
24414WAT      O99460  10.297   9.604   8.401  0.4297 -0.7223  0.3896
24414WAT     H199461  10.305   9.595   8.306  3.2571  0.8685  0.3629
24414WAT     H299462  10.371   9.555   8.436  1.3102  1.2887  1.5091
24414WAT    EPW99463  10.308   9.597   8.393  0.9189 -0.2475  0.5341
24415WAT      O99464  10.758   0.900   3.283 -0.5825  1.0360  0.0413
24415WAT     H199465  10.845   0.924   3.253 -0.0569 -0.1733  0.5396
24415WAT     H299466  10.701   0.970   3.250  0.7153  2.4134  0.6027
24415WAT    EPW99467  10.762   0.912   3.275 -0.3424  1.0582  0.1811
24416WAT      O99468  10.282   5.753   5.122 -0.1634  0.0883 -0.6014
24416WAT     H199469  10.223   5.682   5.149 -0.9747  1.0139  0.1830
24416WAT     H299470  10.224   5.818   5.084  0.6855 -0.0519 -2.1921
24416WAT    EPW99471  10.266   5.752   5.121 -0.1578  0.1917 -0.7079
24417WAT      O99472   3.534   2.869   1.990  0.2126  0.5962 -0.1118
24417WAT     H199473   3.498   2.806   1.928  0.4991 -0.3514  0.6715
24417WAT     H299474   3.533   2.952   1.942 -2.7005  0.5778 -0.2566
24417WAT    EPW99475   3.529   2.872   1.975 -0.1339  0.4686 -0.0275
24418WAT      O99476   7.205   8.323   3.386  0.6424  0.1301 -0.3280
24418WAT     H199477   7.155   8.242   3.393  1.5199 -0.4771 -0.8733
24418WAT     H299478   7.141   8.392   3.402 -0.4756 -0.5975 -1.4683
24418WAT    EPW99479   7.190   8.322   3.389  0.6108 -0.0458 -0.5503
24419WAT      O99480   9.834   8.848   3.280  0.5415  0.0109 -0.2507
24419WAT     H199481   9.857   8.903   3.355 -0.1060 -0.7347  0.5246
24419WAT     H299482   9.910   8.853   3.222  0.8482  1.0049  0.2140
24419WAT    EPW99483   9.847   8.856   3.282  0.4964  0.0434 -0.0871
24420WAT      O99484   8.530   7.074   3.589  0.1367 -0.5006 -0.4212
24420WAT     H199485   8.530   7.003   3.653 -1.1438  1.2242  1.6448
24420WAT     H299486   8.591   7.139   3.625  3.1879 -1.3960 -3.4785
24420WAT    EPW99487   8.538   7.073   3.602  0.3700 -0.3912 -0.5521
24421WAT      O99488   0.636   0.320   1.747  0.3920 -0.7425  0.2916
24421WAT     H199489   0.700   0.329   1.818  1.1022  1.3319 -0.5285
24421WAT     H299490   0.678   0.259   1.686  0.6381 -1.0385  0.7491
24421WAT    EPW99491   0.650   0.313   1.748  0.5181 -0.5079  0.2438
24422WAT      O99492   2.572   1.610   0.638 -0.1351 -0.2533 -0.2413
24422WAT     H199493   2.520   1.533   0.660 -1.1626  1.0896  2.4154
24422WAT     H299494   2.516   1.685   0.659  1.5462  1.2609 -0.8131
24422WAT    EPW99495   2.558   1.610   0.643 -0.0488  0.1235  0.0337
24423WAT      O99496   2.137   0.019   3.588 -0.3169 -0.1584 -0.2816
24423WAT     H199497   2.085  -0.045   3.540  0.1842  0.7419 -2.1243
24423WAT     H299498   2.227  -0.014   3.580 -0.0297  0.8206 -1.4268
24423WAT    EPW99499   2.142   0.006   3.580 -0.2130  0.0894 -0.6758
24424WAT      O99500   1.753   1.916   4.102  0.0320 -0.6406 -0.1259
24424WAT     H199501   1.737   1.966   4.182  1.3895  1.5489 -1.1154
24424WAT     H299502   1.711   1.967   4.033  0.5180 -1.4666 -1.0579
24424WAT    EPW99503   1.746   1.930   4.103  0.2751 -0.4608 -0.3796
24425WAT      O99504   2.041   6.124   2.742 -0.1944  0.1109 -0.1538
24425WAT     H199505   2.111   6.096   2.802 -0.7219 -0.4678  0.1986
24425WAT     H299506   2.032   6.052   2.681 -1.5666 -0.5351  0.7654
24425WAT    EPW99507   2.049   6.111   2.742 -0.4450 -0.0505  0.0139
24426WAT      O99508   9.509   9.141   2.353  0.2408 -0.4037 -0.2300
24426WAT     H199509   9.462   9.146   2.270 -2.5250 -0.1252  1.2290
24426WAT     H299510   9.451   9.183   2.416  1.6143 -1.7894  2.1202
24426WAT    EPW99511   9.495   9.147   2.351  0.0572 -0.5493  0.2724
24427WAT      O99512   7.950   9.803   1.878 -0.0245 -0.2595  0.5763
24427WAT     H199513   7.915   9.815   1.967 -1.1683 -1.0435  0.2537
24427WAT     H299514   7.969   9.709   1.872  2.2289  0.1240  0.7365
24427WAT    EPW99515   7.948   9.792   1.889  0.1223 -0.3123  0.5549
24428WAT      O99516   8.957   0.712   2.442  0.0052 -0.6538 -0.7043
24428WAT     H199517   8.900   0.782   2.409  1.2275  0.7535  0.0521
24428WAT     H299518   9.031   0.758   2.480  0.6649 -2.3821  0.1850
24428WAT    EPW99519   8.959   0.727   2.442  0.2537 -0.6961 -0.4873
24429WAT      O99520   7.218   8.136   4.456 -0.2502  0.0974  0.3359
24429WAT     H199521   7.205   8.180   4.373 -1.8825 -0.3577  0.3271
24429WAT     H299522   7.306   8.163   4.484  0.5668 -0.2222 -1.7950
24429WAT    EPW99523   7.228   8.145   4.449 -0.3579 -0.0048  0.0536
24430WAT      O99524  10.824   1.405   5.201  0.0687 -0.2479  0.5064
24430WAT     H199525  10.841   1.490   5.242 -0.5688  0.8750 -1.4384
24430WAT     H299526  10.732   1.409   5.175  0.1363 -1.3832  0.0448
24430WAT    EPW99527  10.814   1.417   5.203 -0.0062 -0.2496  0.1893
24431WAT      O99528   3.083   0.393   2.878 -0.2204  0.3024 -0.4983
24431WAT     H199529   3.164   0.424   2.838  1.3502 -2.1900  0.5042
24431WAT     H299530   3.048   0.470   2.924  2.5178  1.0780  0.4781
24431WAT    EPW99531   3.089   0.407   2.879  0.3479  0.0760 -0.2372
24432WAT      O99532   8.504   9.731   4.038  0.1212  0.5006 -0.2642
24432WAT     H199533   8.424   9.700   3.994  0.8375  0.9078 -1.9301
24432WAT     H299534   8.487   9.823   4.057  0.4752  0.8113 -1.3743
24432WAT    EPW99535   8.491   9.739   4.034  0.2627  0.5951 -0.6304
24433WAT      O99536  10.990   7.115   0.536 -0.4704 -0.2681 -0.6946
24433WAT     H199537  11.042   7.054   0.589 -0.5683  0.5299  0.3637
24433WAT     H299538  11.054   7.177   0.502 -0.7831  1.7537  2.0129
24433WAT    EPW99539  11.005   7.115   0.539 -0.5246  0.1040 -0.1979
24434WAT      O99540   7.488   8.232   4.470 -0.0419 -0.2333 -0.1167
24434WAT     H199541   7.491   8.312   4.418  0.7669 -0.6778 -0.7936
24434WAT     H299542   7.578   8.199   4.468 -0.4323 -1.3410 -0.1599
24434WAT    EPW99543   7.500   8.238   4.463  0.0134 -0.4377 -0.2115
24435WAT      O99544   8.113   7.982   1.959  0.0003  0.3339 -0.1147
24435WAT     H199545   8.030   8.027   1.970  0.1951  0.3649  1.4028
24435WAT     H299546   8.175   8.051   1.936 -0.4007  0.2894 -1.3992
24435WAT    EPW99547   8.110   7.997   1.957 -0.0267  0.3319 -0.0840
24436WAT      O99548   7.463   6.756   2.997 -0.0964 -0.2005 -0.1629
24436WAT     H199549   7.465   6.662   3.011 -1.1152 -0.1409  0.4791
24436WAT     H299550   7.383   6.785   3.041 -0.5116  0.7713 -1.5047
24436WAT    EPW99551   7.453   6.747   3.005 -0.2851 -0.0644 -0.2552
24437WAT      O99552   8.699   7.421   6.830 -0.1368 -0.4818 -0.3895
24437WAT     H199553   8.696   7.430   6.925 -1.9486  1.5902 -0.5572
24437WAT     H299554   8.665   7.333   6.813 -0.3968 -0.6365  0.8504
24437WAT    EPW99555   8.694   7.410   6.840 -0.4106 -0.2289 -0.2480
24438WAT      O99556   1.860   0.967   4.302 -0.1321 -0.4202  0.1802
24438WAT     H199557   1.765   0.965   4.290 -0.1407  3.5534 -1.9187
24438WAT     H299558   1.894   0.910   4.233 -0.9131 -1.2364  0.4408
24438WAT    EPW99559   1.852   0.959   4.292 -0.2362 -0.0037 -0.0622
24439WAT      O99560  10.988   0.111   3.404  0.1042 -0.0605 -0.9212
24439WAT     H199561  11.033   0.168   3.466 -1.3264 -1.7239  1.8615
24439WAT     H299562  11.026   0.025   3.420 -1.5273 -0.8371 -1.0331
24439WAT    EPW99563  10.999   0.107   3.415 -0.2997 -0.3823 -0.5691
24440WAT      O99564   8.496   9.068   1.477  0.1111 -0.0094 -0.4410
24440WAT     H199565   8.544   9.127   1.419  0.2971 -2.0568 -2.5034
24440WAT     H299566   8.440   9.126   1.529 -0.0645  1.9717 -2.6439
24440WAT    EPW99567   8.495   9.084   1.476  0.1125 -0.0181 -1.0035
24441WAT      O99568   7.962   8.215   7.940 -0.1400  0.5021  0.2211
24441WAT     H199569   7.870   8.221   7.913 -0.3904  0.6522  1.0757
24441WAT     H299570   8.010   8.260   7.871 -0.8694  1.8846  0.5910
24441WAT    EPW99571   7.956   8.222   7.927 -0.2694  0.7043  0.3827
24442WAT      O99572   7.404   9.286   2.916  0.2968 -0.1393  0.1214
24442WAT     H199573   7.469   9.320   2.978  0.5232  0.0231 -0.2050
24442WAT     H299574   7.321   9.291   2.964  0.7630 -2.0954  1.2319
24442WAT    EPW99575   7.402   9.291   2.931  0.3881 -0.3757  0.2249
24443WAT      O99576   7.498   6.405   5.079 -0.2648  0.5367  0.0628
24443WAT     H199577   7.575   6.360   5.045 -1.3039  0.4523 -2.4147
24443WAT     H299578   7.511   6.497   5.056  0.7515  1.2480  3.0171
24443WAT    EPW99579   7.510   6.411   5.072 -0.2677  0.6192  0.1256
24444WAT      O99580   6.193   7.351   3.717 -0.5916 -0.2831  0.0058
24444WAT     H199581   6.129   7.351   3.646 -0.0664  1.0213 -0.5061
24444WAT     H299582   6.180   7.267   3.762 -2.9734  0.1615  0.2414
24444WAT    EPW99583   6.183   7.340   3.713 -0.8364 -0.0527 -0.0306
24445WAT      O99584   9.814   8.422   7.360 -0.0005  0.0214  0.5570
24445WAT     H199585   9.878   8.352   7.346 -1.1257 -0.8656 -0.3017
24445WAT     H299586   9.825   8.481   7.285 -0.1929 -0.1274  0.4128
24445WAT    EPW99587   9.824   8.421   7.349 -0.1740 -0.1154  0.4246
24446WAT      O99588   9.012   9.389   1.752  0.4310 -0.0538 -0.1211
24446WAT     H199589   9.062   9.365   1.674 -0.3093 -0.4804 -0.4771
24446WAT     H299590   8.965   9.309   1.775 -0.9162  0.6205 -0.4332
24446WAT    EPW99591   9.012   9.375   1.745  0.1554 -0.0215 -0.2092
24447WAT      O99592   0.096   8.868   3.495  0.2393  0.6806  0.2069
24447WAT     H199593   0.169   8.858   3.557 -0.0781  0.3017  0.5225
24447WAT     H299594   0.069   8.779   3.476  2.0532  0.6243 -2.5555
24447WAT    EPW99595   0.102   8.855   3.501  0.4367  0.6232 -0.1158
24448WAT      O99596  10.668  10.181   4.606  0.2157 -0.5495  0.1672
24448WAT     H199597  10.578  10.167   4.635  0.1047  0.8392  0.5726
24448WAT     H299598  10.722  10.147   4.677  0.0360 -1.7943 -0.2717
24448WAT    EPW99599  10.664  10.175   4.619  0.1769 -0.5302  0.1628
24449WAT      O99600   8.595   9.735   5.805 -0.4049 -0.0696  0.8085
24449WAT     H199601   8.619   9.675   5.734  0.5162 -0.5681  1.5115
24449WAT     H299602   8.528   9.688   5.854 -1.4797  0.5271 -0.0620
24449WAT    EPW99603   8.590   9.721   5.803 -0.4249 -0.0563  0.7863
24450WAT      O99604   3.865   0.066   4.480  0.4767 -0.1388  0.5764
24450WAT     H199605   3.910   0.133   4.429 -1.3940 -0.2995 -1.4307
24450WAT     H299606   3.927  -0.008   4.482  0.3597 -0.4139 -2.2477
24450WAT    EPW99607   3.879   0.065   4.474  0.2143 -0.1963 -0.0610
24451WAT      O99608   3.073   3.185   7.667  0.8456 -0.5086 -0.4913
24451WAT     H199609   3.163   3.215   7.679  1.3056 -1.9710  0.0115
24451WAT     H299610   3.050   3.211   7.578  0.0681  3.9765  0.7386
24451WAT    EPW99611   3.082   3.192   7.657  0.8038 -0.1099 -0.2627
24452WAT      O99612   4.016   1.128   3.275  0.8507 -0.2045 -0.1547
24452WAT     H199613   3.951   1.162   3.336  0.1800  1.2370 -1.5963
24452WAT     H299614   3.969   1.062   3.224  1.3174 -1.1684  0.6279
24452WAT    EPW99615   4.001   1.124   3.276  0.8237 -0.1415 -0.2416
24453WAT      O99616   0.174   9.849   1.509 -0.5929 -0.5437 -0.5557
24453WAT     H199617   0.223   9.774   1.477  1.0864 -0.2615  1.1731
24453WAT     H299618   0.082   9.823   1.501 -0.1120 -2.0692 -1.5658
24453WAT    EPW99619   0.168   9.836   1.504 -0.3080 -0.7076 -0.4609
24454WAT      O99620   0.080   2.963   4.513 -0.1773  0.2274 -0.3417
24454WAT     H199621   0.139   2.922   4.450 -1.6929 -1.8344 -0.5117
24454WAT     H299622   0.018   2.894   4.535 -0.7370  1.4344  2.0972
24454WAT    EPW99623   0.080   2.949   4.507 -0.4510  0.1147 -0.0427
24455WAT      O99624   6.852   3.532   2.813 -0.1054  0.0441  0.5269
24455WAT     H199625   6.820   3.507   2.727  2.3262 -0.2982 -0.3721
24455WAT     H299626   6.785   3.502   2.874 -1.2308 -0.9651 -1.1316
24455WAT    EPW99627   6.839   3.525   2.810  0.0668 -0.1341  0.1897
24456WAT      O99628   4.447   1.043   0.999  0.2608 -0.2291  1.2353
24456WAT     H199629   4.369   1.087   1.031 -1.6726 -2.1064 -0.5126
24456WAT     H299630   4.446   1.057   0.904  2.9628  0.9692  1.2884
24456WAT    EPW99631   4.437   1.050   0.991  0.3624 -0.3186  1.0118
24457WAT      O99632   3.408   9.471   1.546  0.0896  0.2775  0.0258
24457WAT     H199633   3.454   9.403   1.595 -0.5461  0.8815  1.5315
24457WAT     H299634   3.424   9.450   1.455  2.7674  0.0683  0.4576
24457WAT    EPW99635   3.416   9.459   1.541  0.3588  0.3295  0.2814
24458WAT      O99636   4.544   2.106   1.031  0.0014 -1.0479 -0.4953
24458WAT     H199637   4.483   2.032   1.036 -1.0915 -0.4397 -2.9881
24458WAT     H299638   4.630   2.066   1.040 -0.6252 -2.4357 -0.2991
24458WAT    EPW99639   4.547   2.091   1.033 -0.2258 -1.1508 -0.7982
24459WAT      O99640   2.408   5.350   2.047  0.3926 -0.4318  0.4832
24459WAT     H199641   2.348   5.378   1.978  1.1926 -1.5361 -0.6935
24459WAT     H299642   2.389   5.409   2.120 -1.1433  0.1428 -0.3314
24459WAT    EPW99643   2.397   5.362   2.048  0.2955 -0.5016  0.2205
24460WAT      O99644   2.099   5.253   3.210 -0.6444  0.1221  0.7006
24460WAT     H199645   2.116   5.214   3.296 -0.6237 -0.1198  0.5876
24460WAT     H299646   2.163   5.324   3.203  0.1175 -0.5819  0.4120
24460WAT    EPW99647   2.110   5.257   3.220 -0.5412 -0.0026  0.6477
24461WAT      O99648   4.055   1.037   1.545 -0.3469  0.6526 -0.1978
24461WAT     H199649   3.975   1.017   1.496  0.1235  0.9591 -1.1264
24461WAT     H299650   4.124   1.033   1.479  0.2955  1.2316  0.4235
24461WAT    EPW99651   4.053   1.034   1.529 -0.2003  0.7693 -0.2384
24462WAT      O99652   7.708   0.399   2.079  0.0852  0.1117 -0.3556
24462WAT     H199653   7.764   0.363   2.010  1.5552  0.0483  0.8280
24462WAT     H299654   7.757   0.385   2.160 -1.8928 -0.4240  0.8224
24462WAT    EPW99655   7.722   0.392   2.080  0.0181  0.0327 -0.0442
24463WAT      O99656   8.678   6.547   8.006  0.1671 -0.3760 -0.4616
24463WAT     H199657   8.618   6.584   7.942  0.9309  2.2044  0.1682
24463WAT     H299658   8.764   6.553   7.965  0.4452 -0.3666  0.1051
24463WAT    EPW99659   8.682   6.553   7.992  0.3047 -0.0346 -0.3035
24464WAT      O99660   5.696   0.683   3.183 -0.0635  0.1412 -0.1529
24464WAT     H199661   5.641   0.683   3.105  0.7042  2.1818 -0.7542
24464WAT     H299662   5.771   0.628   3.161 -0.7901 -0.8812 -0.1142
24464WAT    EPW99663   5.699   0.676   3.170 -0.0582  0.2756 -0.2271
24465WAT      O99664  10.234   5.476   6.545 -0.2425 -0.5414 -0.1630
24465WAT     H199665  10.170   5.493   6.614  0.7911  1.3824  0.3927
24465WAT     H299666  10.193   5.409   6.490 -2.1616 -0.2943  0.8816
24465WAT    EPW99667  10.220   5.469   6.547 -0.3586 -0.2549  0.0482
24466WAT      O99668   2.252   2.019   2.508  0.8060  0.4019  0.2718
24466WAT     H199669   2.207   2.058   2.433 -0.9977  0.4587  1.2990
24466WAT     H299670   2.326   2.077   2.525  0.6621  0.9383 -0.8458
24466WAT    EPW99671   2.256   2.031   2.500  0.5492  0.4801  0.2598
24467WAT      O99672   2.379   3.517   4.453 -0.1133  0.3696  0.4828
24467WAT     H199673   2.433   3.448   4.491 -0.4722 -0.8449 -1.0999
24467WAT     H299674   2.440   3.591   4.439  0.7306 -0.3240  0.4089
24467WAT    EPW99675   2.394   3.518   4.456 -0.0494  0.1179  0.2642
24468WAT      O99676   2.603   9.743   4.256 -0.1957 -0.9445  0.6569
24468WAT     H199677   2.628   9.835   4.263  0.1307 -1.0817  1.4376
24468WAT     H299678   2.637   9.715   4.172 -3.7540  0.6856 -1.5597
24468WAT    EPW99679   2.611   9.751   4.246 -0.6220 -0.7477  0.4675
24469WAT      O99680   4.247   1.167   1.123 -0.2087  0.2087  0.3145
24469WAT     H199681   4.199   1.246   1.147  0.0323  0.5247 -0.2419
24469WAT     H299682   4.188   1.120   1.064 -0.4421 -0.1430  0.8156
24469WAT    EPW99683   4.233   1.171   1.119 -0.2079  0.2040  0.3072
24470WAT      O99684   2.935   2.845   1.194  0.3220  0.8068 -0.8742
24470WAT     H199685   2.944   2.762   1.241  0.9871  0.8963 -0.8306
24470WAT     H299686   2.878   2.898   1.249 -0.7461  0.1166 -1.2752
24470WAT    EPW99687   2.929   2.841   1.207  0.2689  0.7275 -0.9213
24471WAT      O99688   1.525   9.901   8.398  0.0023  0.3889 -0.1960
24471WAT     H199689   1.600   9.874   8.452  0.3790  2.4503  0.3864
24471WAT     H299690   1.512   9.828   8.338  0.9074 -1.0817  1.2915
24471WAT    EPW99691   1.533   9.887   8.398  0.1714  0.4668  0.0772
24472WAT      O99692   7.185   0.361   1.081 -0.6042 -0.3410 -0.5327
24472WAT     H199693   7.262   0.304   1.074 -0.8629 -0.8422  0.4405
24472WAT     H299694   7.159   0.378   0.991  0.1452 -0.8614 -0.8589
24472WAT    EPW99695   7.192   0.356   1.069 -0.5395 -0.4757 -0.4473
24473WAT      O99696   6.526   2.509   3.842 -0.6891 -0.6423 -0.4917
24473WAT     H199697   6.532   2.583   3.780 -2.0456 -1.0063 -1.0987
24473WAT     H299698   6.576   2.538   3.918  0.1830  0.2365 -1.3564
24473WAT    EPW99699   6.534   2.523   3.844 -0.7529 -0.5745 -0.6859
24474WAT      O99700   5.383   3.245   0.728  0.0785  0.1234  0.2289
24474WAT     H199701   5.381   3.150   0.726  0.1034  0.1224  0.2597
24474WAT     H299702   5.300   3.272   0.688  0.8965  0.1084 -1.5948
24474WAT    EPW99703   5.372   3.236   0.723  0.1898  0.1211 -0.0076
24475WAT      O99704   2.629   3.799   1.655  0.4908  0.3429 -0.2797
24475WAT     H199705   2.539   3.795   1.623  0.7359  1.9538 -1.2767
24475WAT     H299706   2.648   3.893   1.663  1.6591  0.0226  1.1663
24475WAT    EPW99707   2.620   3.811   1.652  0.6771  0.5132 -0.2205
24476WAT      O99708   2.537   8.751   2.184 -0.1569 -0.2976 -0.2366
24476WAT     H199709   2.623   8.719   2.210 -0.1588 -0.2026 -0.1160
24476WAT     H299710   2.547   8.775   2.092  0.2458  0.7817  0.0842
24476WAT    EPW99711   2.549   8.750   2.175 -0.1041 -0.1431 -0.1785
24477WAT      O99712   6.843   0.124   2.168  0.3540 -0.0901 -0.6632
24477WAT     H199713   6.847   0.203   2.113 -1.2103  0.9374  0.6217
24477WAT     H299714   6.907   0.065   2.129 -0.3124  0.7772 -3.3082
24477WAT    EPW99715   6.852   0.127   2.155  0.0594  0.1598 -0.8426
24478WAT      O99716   0.004   8.737   8.652  1.3465  0.0029 -1.0150
24478WAT     H199717   0.025   8.662   8.596 -0.5833 -1.3851 -0.0301
24478WAT     H299718  -0.006   8.698   8.739 -0.6461  1.2313 -0.6454
24478WAT    EPW99719   0.006   8.722   8.656  0.8292 -0.0176 -0.8364
24479WAT      O99720   6.080   0.385   1.892 -0.7109  0.0121  0.3568
24479WAT     H199721   6.156   0.378   1.834  0.1825  1.0410  1.3528
24479WAT     H299722   6.008   0.409   1.833 -0.6822 -2.5445 -0.8435
24479WAT    EPW99723   6.080   0.387   1.876 -0.5894 -0.1894  0.3299
24480WAT      O99724   0.591   8.660   0.701  0.0047  0.2124  0.3344
24480WAT     H199725   0.568   8.737   0.752 -1.9111  0.0357 -0.1600
24480WAT     H299726   0.631   8.600   0.764  1.6836  1.6227  0.6889
24480WAT    EPW99727   0.593   8.662   0.716 -0.0265  0.3753  0.3159
24481WAT      O99728   5.391   3.103   0.332  0.7576  0.1933  0.1572
24481WAT     H199729   5.344   3.074   0.410  1.4863  0.8222  0.8492
24481WAT     H299730   5.430   3.024   0.296 -2.0624 -0.6432 -1.3423
24481WAT    EPW99731   5.390   3.089   0.338  0.4818  0.1659  0.0507
24482WAT      O99732   6.019   7.302   8.254  0.1900 -0.6682 -0.3209
24482WAT     H199733   5.934   7.311   8.213  0.7466  3.0721 -0.9775
24482WAT     H299734   6.074   7.262   8.187 -0.6676 -1.7149 -0.4178
24482WAT    EPW99735   6.015   7.298   8.240  0.1504 -0.3130 -0.4201
24483WAT      O99736   4.800   5.471   1.167 -0.0930  0.8488  0.5261
24483WAT     H199737   4.765   5.396   1.215 -1.0071  0.9612  0.0648
24483WAT     H299738   4.723   5.518   1.136  0.4677  1.3661 -0.1380
24483WAT    EPW99739   4.785   5.467   1.169 -0.1397  0.9317  0.3776
24484WAT      O99740   5.535   0.604   4.273 -0.3525 -0.2102  0.3932
24484WAT     H199741   5.567   0.694   4.262  0.4621 -0.4512  0.7199
24484WAT     H299742   5.541   0.588   4.368  0.6021 -0.9895  0.2241
24484WAT    EPW99743   5.540   0.614   4.284 -0.1192 -0.3448  0.4137
24485WAT      O99744   8.900   2.281   1.373 -0.3683  0.2204 -0.5044
24485WAT     H199745   8.878   2.208   1.316  0.2391  0.0229 -0.4901
24485WAT     H299746   8.817   2.305   1.415 -0.8251  0.3743 -1.4668
24485WAT    EPW99747   8.886   2.275   1.371 -0.3486  0.2147 -0.6294
24486WAT      O99748   7.316   9.809   8.665 -0.0273  0.8287 -0.5680
24486WAT     H199749   7.337   9.802   8.572 -2.4059 -1.3565 -1.0555
24486WAT     H299750   7.228   9.849   8.667 -1.0045 -1.2294  0.5296
24486WAT    EPW99751   7.307   9.813   8.653 -0.4699  0.2694 -0.4873
24487WAT      O99752   7.169   1.742   1.950  0.5912  0.1222  0.1389
24487WAT     H199753   7.214   1.660   1.972  0.3867 -0.6388 -1.9776
24487WAT     H299754   7.208   1.807   2.008  1.2299 -1.3505  1.4342
24487WAT    EPW99755   7.180   1.739   1.960  0.6487 -0.1724  0.0306
24488WAT      O99756   6.392   3.004   3.363 -0.4249  0.3313  0.2126
24488WAT     H199757   6.469   2.962   3.324 -0.7276 -0.7290  0.7144
24488WAT     H299758   6.409   3.002   3.457 -0.1881  1.8857  0.2260
24488WAT    EPW99759   6.405   2.998   3.370 -0.4339  0.3965  0.2806
24489WAT      O99760   0.617   2.667   0.065 -0.2230  0.6408 -0.4778
24489WAT     H199761   0.533   2.648   0.107 -0.5717  1.5986 -0.7272
24489WAT     H299762   0.680   2.666   0.138 -0.9138  2.9176  0.2204
24489WAT    EPW99763   0.615   2.664   0.080 -0.3601  1.0673 -0.4186
24490WAT      O99764   4.137   9.904   3.029 -0.8068  0.9328  0.3748
24490WAT     H199765   4.137   9.991   3.069 -1.7080  0.2687  1.9204
24490WAT     H299766   4.156   9.920   2.937  2.8747  2.4085  1.2289
24490WAT    EPW99767   4.139   9.918   3.022 -0.4404  1.0400  0.6913
24491WAT      O99768   1.994   7.302   2.981  0.3235  0.1981  0.3169
24491WAT     H199769   1.997   7.223   2.927  0.6227  0.0243  0.5850
24491WAT     H299770   2.066   7.356   2.947  0.0734  0.3933  0.0849
24491WAT    EPW99771   2.004   7.299   2.969  0.3299  0.2010  0.3216
24492WAT      O99772   4.099   1.285   0.654 -0.2042 -0.1141  0.7206
24492WAT     H199773   4.165   1.309   0.719  2.2699 -2.1841 -0.8361
24492WAT     H299774   4.086   1.191   0.667 -0.9677 -0.2202 -0.6089
24492WAT    EPW99775   4.106   1.276   0.664  0.0217 -0.4011  0.3399
24493WAT      O99776  10.903   7.872   1.340 -0.5574 -0.0572 -0.6764
24493WAT     H199777  10.846   7.822   1.399  1.8306 -1.8028  0.3394
24493WAT     H299778  10.925   7.809   1.271 -1.6066  1.3103 -2.3277
24493WAT    EPW99779  10.898   7.857   1.339 -0.3810 -0.1073 -0.7603
24494WAT      O99780   6.178   7.116   8.587  0.2393 -0.4222 -0.6456
24494WAT     H199781   6.210   7.194   8.634  1.5462 -2.0645  1.3674
24494WAT     H299782   6.243   7.048   8.607 -1.0331 -2.1225 -2.0631
24494WAT    EPW99783   6.191   7.118   8.596  0.2439 -0.8631 -0.5674
24495WAT      O99784   6.062   0.208   3.039 -0.2134  0.0579  0.3984
24495WAT     H199785   6.117   0.205   3.117  0.2753  0.1189  0.0545
24495WAT     H299786   6.064   0.119   3.004  1.1373  0.4712 -0.6311
24495WAT    EPW99787   6.069   0.196   3.045  0.0293  0.1204  0.2173
24496WAT      O99788   2.698   1.980   2.352 -0.3414  0.3529 -0.1836
24496WAT     H199789   2.762   1.920   2.313 -0.7256 -0.4478  0.4041
24496WAT     H299790   2.667   1.935   2.430  1.0061  2.2555  1.5619
24496WAT    EPW99791   2.703   1.966   2.357 -0.2145  0.4982  0.1241
24497WAT      O99792   2.485   1.704   1.593  0.5138  0.2248 -0.0049
24497WAT     H199793   2.561   1.648   1.606  1.1900  0.7322 -1.5994
24497WAT     H299794   2.470   1.704   1.498 -0.2202  1.7539  0.0726
24497WAT    EPW99795   2.493   1.697   1.582  0.5063  0.4934 -0.2050
24498WAT      O99796   3.563   4.220   3.407 -0.7721  0.1539  0.1687
24498WAT     H199797   3.623   4.289   3.379 -1.1432  0.6617  0.6257
24498WAT     H299798   3.577   4.149   3.343 -0.0569  0.4633 -0.0238
24498WAT    EPW99799   3.573   4.220   3.395 -0.7267  0.2618  0.2036
24499WAT      O99800   4.343   4.189   1.321  0.4466 -0.8007  0.4527
24499WAT     H199801   4.305   4.190   1.233  1.8278  0.9396 -0.1668
24499WAT     H299802   4.275   4.228   1.377  1.2375  2.4246 -0.6628
24499WAT    EPW99803   4.329   4.194   1.317  0.7331 -0.1459  0.2238
24500WAT      O99804   4.974   0.766   1.664 -0.2119 -0.1829 -0.1737
24500WAT     H199805   4.895   0.800   1.624 -0.2701 -0.6122 -0.4246
24500WAT     H299806   4.957   0.770   1.758  0.2676  1.6601 -0.1250
24500WAT    EPW99807   4.962   0.771   1.671 -0.1562  0.0036 -0.2003
24501WAT      O99808   1.742  10.311   1.171  0.0720 -0.0264  0.3758
24501WAT     H199809   1.739  10.314   1.075  1.8723  0.3837  0.2992
24501WAT     H299810   1.697  10.391   1.198 -0.7338 -0.3028 -0.1052
24501WAT    EPW99811   1.736  10.322   1.162  0.2031 -0.0086  0.3023
24502WAT      O99812   2.513   3.229   3.159 -0.1412  0.3926  0.7607
24502WAT     H199813   2.424   3.256   3.181  0.1699  0.2649  2.3018
24502WAT     H299814   2.502   3.161   3.092 -1.1078  1.4435 -0.1983
24502WAT    EPW99815   2.500   3.224   3.153 -0.2276  0.5144  0.8374
24503WAT      O99816   9.404   5.457   8.818 -0.1559  0.2072 -0.0008
24503WAT     H199817   9.398   5.459   8.723  0.0150 -0.6802 -0.0372
24503WAT     H299818   9.322   5.494   8.849 -0.3644  0.1540 -0.4922
24503WAT    EPW99819   9.393   5.462   8.810 -0.1612  0.0827 -0.0701
24504WAT      O99820   4.525   0.244   3.092 -0.5128  0.4873 -0.5199
24504WAT     H199821   4.495   0.182   3.159  0.9845  0.2308 -0.0474
24504WAT     H299822   4.534   0.327   3.138  0.3386  0.3536 -0.4215
24504WAT    EPW99823   4.522   0.246   3.107 -0.2031  0.4358 -0.4447
24505WAT      O99824   0.368  10.037   0.853  0.6569  0.2431  0.3796
24505WAT     H199825   0.286  10.070   0.814 -0.0153  1.0991  2.3607
24505WAT     H299826   0.437  10.080   0.803 -0.0446 -0.7648 -1.5743
24505WAT    EPW99827   0.366  10.047   0.841  0.4757  0.2232  0.3832
24506WAT      O99828   5.176   2.123   2.130  0.1368  0.9441 -1.0405
24506WAT     H199829   5.182   2.200   2.186 -2.0114  0.1864  0.3798
24506WAT     H299830   5.106   2.070   2.169  2.1881 -2.2523 -1.3180
24506WAT    EPW99831   5.168   2.126   2.142  0.1242  0.4225 -0.8898
24507WAT      O99832   5.871   2.212   1.841 -0.0001  0.8531 -0.1954
24507WAT     H199833   5.841   2.127   1.809  1.7333  1.1221 -2.9263
24507WAT     H299834   5.814   2.275   1.797 -1.9621  1.2239  2.6057
24507WAT    EPW99835   5.860   2.209   1.831 -0.0303  0.9376 -0.1861
24508WAT      O99836   2.305   3.694   1.983  0.0522 -0.0670  0.3978
24508WAT     H199837   2.261   3.755   2.043 -1.5365  1.5878 -2.2138
24508WAT     H299838   2.329   3.749   1.908  0.5002 -2.2927 -1.1725
24508WAT    EPW99839   2.302   3.709   1.981 -0.0982 -0.1422 -0.1538
24509WAT      O99840   4.093   4.682   1.935 -0.2636  0.1618 -0.3510
24509WAT     H199841   4.035   4.608   1.916 -0.5488  0.0180  0.9380
24509WAT     H299842   4.047   4.730   2.004  2.3275 -1.5024  2.8503
24509WAT    EPW99843   4.079   4.679   1.942  0.0403 -0.0768  0.2413
24510WAT      O99844   3.105   5.244   1.116 -0.1127  0.3783  0.5077
24510WAT     H199845   3.130   5.156   1.090  2.8157  1.7525 -1.9892
24510WAT     H299846   3.075   5.235   1.207  1.7810 -2.9148  0.9577
24510WAT    EPW99847   3.104   5.232   1.125  0.5233  0.1252  0.2378
24511WAT      O99848   6.900   9.414   8.631 -0.1906  0.0957  0.1494
24511WAT     H199849   6.856   9.337   8.666 -2.2256  2.1971  2.6336
24511WAT     H299850   6.980   9.422   8.684  0.3936 -0.6431 -0.5947
24511WAT    EPW99851   6.905   9.405   8.643 -0.3819  0.2756  0.3786
24512WAT      O99852   5.509   3.444   2.351 -0.2532  0.3475 -0.6982
24512WAT     H199853   5.506   3.458   2.256  1.3406 -2.0264 -1.1672
24512WAT     H299854   5.515   3.350   2.362 -1.4296  0.4794  1.8589
24512WAT    EPW99855   5.509   3.434   2.340 -0.1984  0.0517 -0.4228
24513WAT      O99856   4.134   2.690   3.218 -0.6321  0.7144 -0.6333
24513WAT     H199857   4.229   2.682   3.229 -0.4928  1.1742 -1.4146
24513WAT     H299858   4.116   2.784   3.222 -1.0966  0.6119 -0.1947
24513WAT    EPW99859   4.144   2.701   3.220 -0.6750  0.7615 -0.6784
24514WAT      O99860   4.703   0.084   3.382  0.3045  0.2409 -0.2051
24514WAT     H199861   4.671   0.023   3.449 -2.4222  0.9660 -0.7298
24514WAT     H299862   4.743   0.155   3.432  0.7472 -0.5111  0.5352
24514WAT    EPW99863   4.704   0.085   3.397  0.0033  0.2374 -0.1767
24515WAT      O99864   9.078   2.743   3.726  0.4442 -0.1645  0.1392
24515WAT     H199865   9.046   2.817   3.778  0.3777 -0.3061  0.2992
24515WAT     H299866   9.006   2.722   3.667  0.3829 -0.2410  0.2419
24515WAT    EPW99867   9.065   2.750   3.725  0.4277 -0.1934  0.1739
24516WAT      O99868   9.759   7.033   7.025 -0.2778  0.6985  0.3327
24516WAT     H199869   9.840   7.046   7.073 -0.2459  0.2888  0.3965
24516WAT     H299870   9.785   7.028   6.933 -0.1585  0.0498  0.3919
24516WAT    EPW99871   9.773   7.034   7.019 -0.2580  0.5589  0.3490
24517WAT      O99872   2.309   9.349   6.003  0.4976  0.4116 -0.4313
24517WAT     H199873   2.299   9.429   6.055  3.3747  0.0395  0.8807
24517WAT     H299874   2.257   9.365   5.924  0.8150  3.5000 -0.1442
24517WAT    EPW99875   2.300   9.362   6.000  0.9190  0.7701 -0.2205
24518WAT      O99876  10.381   6.038   7.023 -0.2377  0.4034  0.0256
24518WAT     H199877  10.378   6.119   7.075 -0.8210 -0.0126  0.6628
24518WAT     H299878  10.386   6.068   6.932 -3.2740  1.2581  0.0127
24518WAT    EPW99879  10.381   6.053   7.018 -0.7148  0.4613  0.1078
24519WAT      O99880   8.893   7.127   8.204 -0.2853  0.3939 -0.0645
24519WAT     H199881   8.800   7.112   8.188 -0.8921 -0.4504  3.3321
24519WAT     H299882   8.895   7.187   8.279  1.9296  0.4959 -0.1220
24519WAT    EPW99883   8.881   7.133   8.212 -0.0730  0.2959  0.3762
24520WAT      O99884   0.631   9.561   2.564  0.5898 -0.2864  0.2914
24520WAT     H199885   0.550   9.607   2.542  1.1317 -0.4818 -2.4872
24520WAT     H299886   0.611   9.469   2.549  1.0031 -0.4471  0.7123
24520WAT    EPW99887   0.618   9.555   2.559  0.7158 -0.3338 -0.0193
24521WAT      O99888  10.443   8.876   8.836 -0.6687 -0.6940  0.0464
24521WAT     H199889  10.461   8.856   8.744 -2.1081 -2.2263  0.0576
24521WAT     H299890  10.526   8.858   8.881 -0.5842 -2.1824 -0.6480
24521WAT    EPW99891  10.457   8.871   8.830 -0.8473 -1.0924 -0.0439
24522WAT      O99892   5.666   7.092   8.803  0.7521  0.0514  0.3310
24522WAT     H199893   5.685   6.999   8.810 -1.6591 -0.4572  0.9903
24522WAT     H299894   5.618   7.100   8.720  1.7844  0.9049 -0.2157
24522WAT    EPW99895   5.662   7.081   8.793  0.5701  0.0970  0.3452
24523WAT      O99896   0.603  10.122   2.674  0.6178  0.1333  0.0157
24523WAT     H199897   0.601  10.099   2.582  1.9803 -0.9004  0.2087
24523WAT     H299898   0.529  10.076   2.713  0.4419  0.0337 -0.4393
24523WAT    EPW99899   0.593  10.113   2.667  0.7743 -0.0157 -0.0188
24524WAT      O99900  10.189   3.120   2.804  0.2823  0.3530  0.1351
24524WAT     H199901  10.112   3.113   2.747  0.5924 -0.4208 -0.1997
24524WAT     H299902  10.198   3.034   2.844  0.6455  0.6043  0.6053
24524WAT    EPW99903  10.180   3.108   2.802  0.3705  0.2841  0.1531
24525WAT      O99904   3.341   2.732   3.335  0.1222 -0.3459 -0.1454
24525WAT     H199905   3.325   2.733   3.429  1.1354 -0.4203  0.0391
24525WAT     H299906   3.283   2.800   3.300  1.7644  1.7017  0.8830
24525WAT    EPW99907   3.331   2.741   3.343  0.4725 -0.0857  0.0144
24526WAT      O99908   1.917   4.936   8.444 -0.6435  0.2588  0.2983
24526WAT     H199909   1.893   4.968   8.357 -1.9322 -0.5495  0.3337
24526WAT     H299910   1.834   4.922   8.489 -0.0119  0.2555  1.5243
24526WAT    EPW99911   1.903   4.938   8.438 -0.7302  0.1516  0.4644
24527WAT      O99912   5.576   8.736   0.483  0.1587 -0.3794  0.4714
24527WAT     H199913   5.585   8.642   0.498  0.3609 -0.3675  0.4289
24527WAT     H299914   5.490   8.757   0.518 -0.8213 -0.9814 -1.4152
24527WAT    EPW99915   5.566   8.726   0.490  0.0560 -0.4573  0.2170
24528WAT      O99916   0.806   4.968   2.857  0.3913 -0.4194  0.0906
24528WAT     H199917   0.737   4.928   2.910 -0.7033  2.5217  1.0794
24528WAT     H299918   0.759   5.028   2.799  2.0516  1.5911  0.7196
24528WAT    EPW99919   0.790   4.971   2.856  0.4659  0.2337  0.3040
24529WAT      O99920   4.701   1.652   1.113  0.4683 -0.1382  0.8198
24529WAT     H199921   4.654   1.618   1.189  1.0809 -0.5693  1.0156
24529WAT     H299922   4.646   1.628   1.038  0.0191  0.0072  1.0995
24529WAT    EPW99923   4.688   1.644   1.113  0.4897 -0.1758  0.8826
24530WAT      O99924   6.573   0.140   2.078 -1.0182 -0.5809 -0.4182
24530WAT     H199925   6.542   0.214   2.131 -0.4103 -0.3083 -0.4349
24530WAT     H299926   6.658   0.118   2.115 -1.8308 -2.2580  0.5575
24530WAT    EPW99927   6.580   0.147   2.090 -1.0452 -0.7662 -0.2917
24531WAT      O99928   1.671   1.579   0.773 -0.6385  0.3058 -0.0659
24531WAT     H199929   1.677   1.648   0.707  1.8616  0.5945  0.3563
24531WAT     H299930   1.669   1.627   0.856  0.2580 -0.0874  0.1936
24531WAT    EPW99931   1.671   1.595   0.775 -0.1906  0.2921  0.0240
24532WAT      O99932   1.018   9.700   3.555 -0.3075 -1.0006  0.5131
24532WAT     H199933   1.081   9.720   3.487 -1.3417  0.2522 -0.1204
24532WAT     H299934   0.986   9.612   3.533  2.0282 -2.1881  1.5422
24532WAT    EPW99935   1.022   9.691   3.543 -0.1358 -0.9918  0.5653
24533WAT      O99936   5.953   2.602   1.721  0.6231  0.5338 -0.2145
24533WAT     H199937   5.910   2.672   1.672 -0.9393  1.5406  2.4176
24533WAT     H299938   5.929   2.521   1.674 -1.5101  1.3513 -0.6206
24533WAT    EPW99939   5.944   2.600   1.708  0.1357  0.7744  0.0792
24534WAT      O99940   1.961   2.403   4.033 -0.3027 -0.1589  0.0280
24534WAT     H199941   2.049   2.425   4.063 -1.2388  1.0573  2.2076
24534WAT     H299942   1.974   2.347   3.957  2.3272  0.0210  0.2529
24534WAT    EPW99943   1.974   2.399   4.027 -0.0793  0.0252  0.3450
24535WAT      O99944   6.426   3.185   2.355 -0.2512  0.1207 -0.1995
24535WAT     H199945   6.393   3.095   2.360 -0.3407  0.2145  1.7981
24535WAT     H299946   6.354   3.234   2.315 -1.1384 -0.3327  0.7625
24535WAT    EPW99947   6.412   3.179   2.350 -0.3800  0.0733  0.1909
24536WAT      O99948   4.267   0.612   5.101 -0.0315 -0.4862 -0.3800
24536WAT     H199949   4.360   0.636   5.095  0.1950 -0.2887  2.4330
24536WAT     H299950   4.268   0.516   5.104  0.0054 -0.5120 -1.1286
24536WAT    EPW99951   4.280   0.603   5.101  0.0031 -0.4635 -0.1078
24537WAT      O99952   2.111   6.973   3.915  0.0467 -0.0655  0.2818
24537WAT     H199953   2.086   7.066   3.907  1.4447  0.2137 -1.7214
24537WAT     H299954   2.195   6.975   3.961 -0.4293 -0.4570  1.1932
24537WAT    EPW99955   2.118   6.986   3.920  0.1683 -0.0806  0.1379
24538WAT      O99956   8.356   5.670   7.384 -0.3613  0.2297 -0.2078
24538WAT     H199957   8.402   5.617   7.449  0.1986 -0.9959 -1.5483
24538WAT     H299958   8.387   5.760   7.400 -0.0525 -0.0713  1.0327
24538WAT    EPW99959   8.366   5.675   7.395 -0.2470  0.0281 -0.2210
24539WAT      O99960   4.714   6.542   0.974 -0.4269  0.5854  0.1785
24539WAT     H199961   4.648   6.475   0.955  0.5412  0.0110 -1.3203
24539WAT     H299962   4.797   6.496   0.964  0.2470  1.3506  1.8205
24539WAT    EPW99963   4.716   6.527   0.970 -0.2103  0.6106  0.1974
24540WAT      O99964   6.521   0.816   3.479 -0.0214  0.6548  0.5313
24540WAT     H199965   6.572   0.890   3.513 -0.4431  1.0154  0.3908
24540WAT     H299966   6.574   0.783   3.406 -0.3527  1.5298 -0.1235
24540WAT    EPW99967   6.535   0.821   3.474 -0.1211  0.8178  0.4264
24541WAT      O99968   3.911   4.457   1.917 -0.0165 -0.3870  0.6946
24541WAT     H199969   3.816   4.458   1.910  0.0853  0.5798 -1.2270
24541WAT     H299970   3.935   4.366   1.901 -0.6058 -0.5618  0.7791
24541WAT    EPW99971   3.902   4.445   1.914 -0.0809 -0.2825  0.4523
24542WAT      O99972   3.359   2.568   1.579 -0.0928 -0.1636 -0.0199
24542WAT     H199973   3.408   2.598   1.655  0.8353  0.4498 -0.8377
24542WAT     H299974   3.370   2.473   1.580  1.2559 -0.0250 -0.2643
24542WAT    EPW99975   3.367   2.559   1.589  0.2075 -0.0644 -0.1600
24543WAT      O99976  10.189  10.339   3.164 -0.3283 -0.0505  0.1717
24543WAT     H199977  10.137  10.295   3.231 -0.8753  2.0911  1.2139
24543WAT     H299978  10.279  10.329   3.193 -0.4496 -0.4089  0.4326
24543WAT    EPW99979  10.194  10.332   3.176 -0.4165  0.1847  0.3436
24544WAT      O99980   1.522   9.244   5.343  0.5772  0.4767 -0.2184
24544WAT     H199981   1.449   9.255   5.404  0.6460  0.8128 -0.1942
24544WAT     H299982   1.501   9.303   5.270  1.4283  1.5220  0.3546
24544WAT    EPW99983   1.509   9.254   5.341  0.6985  0.6590 -0.1397
24545WAT      O99984  10.076   8.116   7.915 -0.1712  0.9250  0.5348
24545WAT     H199985  10.169   8.093   7.911 -0.8639 -2.5150  1.1905
24545WAT     H299986  10.073   8.194   7.970  2.2254  0.3746  1.5754
24545WAT    EPW99987  10.088   8.123   7.922  0.0534  0.3986  0.7582
24546WAT      O99988   7.384   1.269   3.360 -0.2260 -0.1141  0.5052
24546WAT     H199989   7.420   1.220   3.434  2.0402  2.0920  0.9903
24546WAT     H299990   7.422   1.357   3.368 -2.3504  1.1215 -1.5525
24546WAT    EPW99991   7.394   1.274   3.371 -0.2074  0.3397  0.2978
24547WAT      O99992   8.727   8.374   2.263 -0.1465  0.0269  0.0431
24547WAT     H199993   8.784   8.323   2.204  0.9909  1.4524 -0.1531
24547WAT     H299994   8.690   8.442   2.207 -0.9817 -0.0701  0.4713
24547WAT    EPW99995   8.730   8.376   2.248 -0.1068  0.2022  0.0738
24548WAT      O99996   6.167   1.021   1.698 -0.4332  0.1840 -0.1497
24548WAT     H199997   6.077   0.994   1.717 -0.0045 -0.4511  1.1065
24548WAT     H299998   6.207   1.034   1.784  1.1230 -1.0818 -0.6222
24548WAT    EPW99999   6.161   1.019   1.712 -0.1714 -0.0668 -0.0463
24549WAT      O    0   1.372   1.943   1.548 -0.3108 -0.2331  0.7200
24549WAT     H1    1   1.430   1.867   1.543 -0.8667 -0.6247 -0.0939
24549WAT     H2    2   1.356   1.956   1.641  0.9038 -0.2497  0.9428
24549WAT    EPW    3   1.377   1.935   1.559 -0.2239 -0.2869  0.6421
24550WAT      O    4   4.301   3.173   3.882 -0.4552 -0.6168  0.1602
24550WAT     H1    5   4.312   3.078   3.878  0.3573 -0.5091 -0.3159
24550WAT     H2    6   4.386   3.206   3.909  0.1312  0.1627 -2.3943
24550WAT    EPW    7   4.313   3.165   3.885 -0.2708 -0.4998 -0.2395
24551WAT      O    8   2.604   4.666   2.788 -0.6766  0.6388 -0.3152
24551WAT     H1    9   2.632   4.747   2.745 -2.3751  0.5127 -1.8040
24551WAT     H2   10   2.535   4.694   2.848  0.5094  0.5854  1.1122
24551WAT    EPW   11   2.599   4.681   2.790 -0.7443  0.6154 -0.3233
24552WAT      O   12   6.640   1.457   2.122  0.2859 -0.3054 -0.2160
24552WAT     H1   13   6.575   1.483   2.058 -1.4358 -0.9635  1.1834
24552WAT     H2   14   6.718   1.508   2.099 -0.8823  0.9505 -1.5942
24552WAT    EPW   15   6.642   1.467   2.111 -0.0954 -0.2265 -0.2131
24553WAT      O   16   3.191   2.018   0.775  0.0418 -0.0678  0.4745
24553WAT     H1   17   3.120   2.083   0.774  0.7164  0.7541  2.1176
24553WAT     H2   18   3.171   1.961   0.701 -0.8761  1.6796 -0.7204
24553WAT    EPW   19   3.179   2.019   0.765  0.0095  0.2711  0.5336
24554WAT      O   20   5.907   1.116   1.908  0.3510 -0.0606  0.3537
24554WAT     H1   21   5.963   1.056   1.958  2.4955  0.7658 -0.9220
24554WAT     H2   22   5.921   1.201   1.949 -1.5294 -0.1181  1.2173
24554WAT    EPW   23   5.916   1.119   1.920  0.3855  0.0408  0.2994
24555WAT      O   24   7.923   4.798   8.401  0.8021 -0.1420 -0.6712
24555WAT     H1   25   7.911   4.774   8.309 -0.6085 -1.1202 -0.2799
24555WAT     H2   26   7.975   4.878   8.399 -0.6511  0.8317 -2.4152
24555WAT    EPW   27   7.928   4.805   8.388  0.4244 -0.1428 -0.8492
24556WAT      O   28   3.670  10.112   2.071 -0.0806  0.7743  0.3609
24556WAT     H1   29   3.688  10.029   2.028 -0.2120 -0.6048  2.8434
24556WAT     H2   30   3.730  10.115   2.146 -0.3318  2.7637  0.5525
24556WAT    EPW   31   3.680  10.102   2.075 -0.1310  0.8540  0.7137
24557WAT      O   32   3.813   3.967   1.535 -0.4799  0.1124 -0.4835
24557WAT     H1   33   3.740   4.023   1.560  1.2279  1.1648  2.7377
24557WAT     H2   34   3.803   3.889   1.589  1.0754  0.5846  0.5568
24557WAT    EPW   35   3.802   3.964   1.545 -0.0494  0.3134  0.0785
24558WAT      O   36   6.730   0.878   2.521  0.0848 -0.1350  0.2685
24558WAT     H1   37   6.649   0.919   2.551  0.1485 -0.1249  0.4280
24558WAT     H2   38   6.798   0.911   2.580  0.1424 -0.4408  0.3786
24558WAT    EPW   39   6.729   0.888   2.532  0.1009 -0.1740  0.3040
24559WAT      O   40   3.893   3.502   2.228 -0.2086 -0.0691 -0.0767
24559WAT     H1   41   3.958   3.572   2.235 -0.4465  0.1870 -0.3792
24559WAT     H2   42   3.924   3.448   2.155 -0.9794  0.7646 -1.0673
24559WAT    EPW   43   3.906   3.504   2.219 -0.3418  0.0745 -0.2474
24560WAT      O   44   0.298   8.890   3.184 -0.2482 -0.3696 -0.8035
24560WAT     H1   45   0.290   8.795   3.196  0.5074 -0.3050  0.4335
24560WAT     H2   46   0.207   8.921   3.179 -0.5276 -1.3262 -3.1863
24560WAT    EPW   47   0.285   8.881   3.185 -0.1854 -0.4873 -0.9546
24561WAT      O   48   3.818   3.136   0.836  0.5451  0.2637 -0.1711
24561WAT     H1   49   3.883   3.144   0.905  0.6547  1.4523 -0.3862
24561WAT     H2   50   3.861   3.173   0.759  0.9841 -2.3784 -1.3007
24561WAT    EPW   51   3.832   3.142   0.835  0.6176  0.0720 -0.3485
24562WAT      O   52   2.709   5.245   2.061  0.2908 -1.1979  0.8257
24562WAT     H1   53   2.628   5.242   2.111  0.2956 -1.0491  0.8423
24562WAT     H2   54   2.697   5.180   1.992 -0.5175  0.0293 -0.2032
24562WAT    EPW   55   2.697   5.236   2.059  0.1848 -1.0164  0.6922
24563WAT      O   56   0.441   9.651   3.287 -0.3708  0.3879  0.3715
24563WAT     H1   57   0.525   9.696   3.300 -0.4214  0.9051 -0.9372
24563WAT     H2   58   0.397   9.702   3.219 -1.5618 -0.1418  0.7274
24563WAT    EPW   59   0.446   9.664   3.280 -0.5345  0.3862  0.2458
24564WAT      O   60   5.000   2.271   3.956  0.0238 -0.5055 -0.3371
24564WAT     H1   61   4.997   2.201   3.891 -1.8785 -0.9285  0.1272
24564WAT     H2   62   5.092   2.279   3.979  0.7725 -0.2820 -3.1077
24564WAT    EPW   63   5.011   2.263   3.951 -0.1285 -0.5318 -0.6412
24565WAT      O   64   4.175   3.436   3.269  0.6236  0.1358  0.6901
24565WAT     H1   65   4.236   3.390   3.326 -0.9599 -1.1940  1.4060
24565WAT     H2   66   4.185   3.393   3.183 -0.1486 -0.9438  1.1144
24565WAT    EPW   67   4.184   3.424   3.265  0.3128 -0.1820  0.8405
24566WAT      O   68   8.702   5.219   8.841 -0.2477 -1.0856 -0.3236
24566WAT     H1   69   8.705   5.282   8.770 -0.1266 -0.2084  0.4420
24566WAT     H2   70   8.673   5.270   8.917  3.6965 -0.9780  1.3187
24566WAT    EPW   71   8.698   5.234   8.842  0.2890 -0.9558 -0.0052
24567WAT      O   72   0.524   8.881   8.630 -0.2577  0.2568  0.5247
24567WAT     H1   73   0.536   8.966   8.671  2.4859 -0.2201  0.9655
24567WAT     H2   74   0.580   8.884   8.552 -0.4818 -0.9691  0.2902
24567WAT    EPW   75   0.533   8.892   8.625  0.0747  0.0319  0.5517
24568WAT      O   76   2.332   1.890   0.931  0.1828  0.1932 -0.5149
24568WAT     H1   77   2.252   1.850   0.896  0.1196  0.9404 -1.2381
24568WAT     H2   78   2.371   1.821   0.985 -1.0936 -0.0979  0.0901
24568WAT    EPW   79   2.326   1.876   0.934  0.0062  0.2533 -0.5305
24569WAT      O   80   0.827   4.714   6.762 -0.2068 -0.4284  0.4673
24569WAT     H1   81   0.912   4.753   6.785 -0.6376  0.7960  0.0446
24569WAT     H2   82   0.799   4.669   6.842  1.1177 -1.4049  0.4250
24569WAT    EPW   83   0.835   4.713   6.775 -0.0889 -0.3955  0.4060
24570WAT      O   84   7.084   3.338   1.878  0.1282  0.4027 -0.0549
24570WAT     H1   85   7.128   3.295   1.951 -0.8091  2.3317  1.7655
24570WAT     H2   86   7.096   3.431   1.895  0.8501  0.9424 -3.0340
24570WAT    EPW   87   7.091   3.345   1.890  0.0997  0.7284 -0.2078
24571WAT      O   88   6.038   2.581   4.212  0.0201 -0.0378 -0.4666
24571WAT     H1   89   5.959   2.555   4.165 -0.9691 -0.2725  1.2515
24571WAT     H2   90   6.101   2.602   4.143 -1.7049  0.7025 -1.9000
24571WAT    EPW   91   6.036   2.580   4.196 -0.3378  0.0288 -0.4292
24572WAT      O   92   5.026   4.116   1.971 -0.2678 -0.3407  0.3329
24572WAT     H1   93   5.120   4.112   1.954  0.0577  2.2715  1.0053
24572WAT     H2   94   4.985   4.107   1.885  0.8533  2.7013 -0.6492
24572WAT    EPW   95   5.033   4.115   1.958 -0.0770  0.4051  0.2921
24573WAT      O   96   7.375   4.355   2.720 -0.1499 -0.5629 -0.2882
24573WAT     H1   97   7.390   4.346   2.814 -0.6699 -1.3354 -0.2721
24573WAT     H2   98   7.401   4.445   2.700  2.9398 -1.2775  0.0238
24573WAT    EPW   99   7.381   4.366   2.730  0.1891 -0.7589 -0.2450
24574WAT      O  100   6.111   1.230   2.325 -0.1029  0.7865 -0.2673
24574WAT     H1  101   6.057   1.258   2.252  1.1040  2.0612 -0.6993
24574WAT     H2  102   6.058   1.250   2.403 -0.7130  0.9565 -0.7169
24574WAT    EPW  103   6.097   1.236   2.326 -0.0243  0.9771 -0.3835
24575WAT      O  104   6.893   2.450   3.117 -0.7183  0.0710 -0.0522
24575WAT     H1  105   6.858   2.468   3.205  0.2524  1.8117  0.0316
24575WAT     H2  106   6.984   2.479   3.122  0.5507 -3.3573 -0.5537
24575WAT    EPW  107   6.900   2.456   3.129 -0.4230 -0.1516 -0.1074
24576WAT      O  108   9.216   8.069   8.517  0.5157 -0.6759 -0.4503
24576WAT     H1  109   9.304   8.098   8.541  0.5740 -1.4949  0.3711
24576WAT     H2  110   9.198   8.115   8.435 -0.2702  3.4585  1.7602
24576WAT    EPW  111   9.225   8.079   8.510  0.4201 -0.2384 -0.0505
24577WAT      O  112   6.282   1.169   1.920  0.1989 -0.5175  0.4833
24577WAT     H1  113   6.356   1.182   1.979 -1.1753 -2.6383  2.8448
24577WAT     H2  114   6.216   1.232   1.951  0.4960  0.4642 -0.7909
24577WAT    EPW  115   6.283   1.179   1.932  0.0565 -0.6678  0.6267
24578WAT      O  116   5.170   6.957   1.863 -0.3427  0.1093  0.1204
24578WAT     H1  117   5.237   6.979   1.927  0.2740  0.5688 -0.6720
24578WAT     H2  118   5.179   6.862   1.851 -0.7879 -0.0600  1.0660
24578WAT    EPW  119   5.180   6.947   1.870 -0.3202  0.1476  0.1407
24579WAT      O  120   1.837   5.251   7.476  0.2951 -0.1101 -0.3854
24579WAT     H1  121   1.890   5.294   7.542  1.2579 -0.3816 -0.9657
24579WAT     H2  122   1.807   5.170   7.517  1.1900 -0.4554 -0.3860
24579WAT    EPW  123   1.840   5.246   7.490  0.5401 -0.1915 -0.4621
24580WAT      O  124   6.734  10.006   4.247 -0.3794  0.0209  0.1419
24580WAT     H1  125   6.822   9.998   4.284  1.2339  2.2467 -2.7698
24580WAT     H2  126   6.678   9.956   4.307  2.5759 -0.2302  2.9762
24580WAT    EPW  127   6.738   9.998   4.260  0.2229  0.2813  0.1318
24581WAT      O  128   9.363   0.921   2.888 -0.1196  0.1717  0.7280
24581WAT     H1  129   9.436   0.977   2.862 -0.8799  0.7010 -0.3277
24581WAT     H2  130   9.320   0.897   2.806 -0.3137 -1.2799  1.2246
24581WAT    EPW  131   9.367   0.925   2.874 -0.2456  0.0500  0.6543
24582WAT      O  132   4.113   4.908   2.425  0.7896  0.2878 -0.1682
24582WAT     H1  133   4.195   4.944   2.389  0.2743  1.5428 -0.1294
24582WAT     H2  134   4.079   4.978   2.481 -1.4226  0.7164 -1.9032
24582WAT    EPW  135   4.119   4.922   2.427  0.4299  0.5100 -0.3920
24583WAT      O  136   2.753   2.671   0.622 -0.3702  0.4126  0.1223
24583WAT     H1  137   2.788   2.713   0.701  0.8864 -0.7256  0.1940
24583WAT     H2  138   2.811   2.700   0.552  1.5511 -2.3389  0.4071
24583WAT    EPW  139   2.765   2.680   0.624  0.0489 -0.1004  0.1693
24584WAT      O  140   8.333   8.530   8.618  0.0136  0.3079  0.5318
24584WAT     H1  141   8.423   8.503   8.637  0.0616  0.6924  0.8841
24584WAT     H2  142   8.299   8.463   8.559  1.1804  1.1913 -1.2056
24584WAT    EPW  143   8.340   8.518   8.613  0.1731  0.4749  0.3495
24585WAT      O  144   6.900   1.127   4.445 -0.6424 -0.0401 -0.5567
24585WAT     H1  145   6.952   1.121   4.526 -0.6270 -0.9664 -0.6252
24585WAT     H2  146   6.961   1.164   4.381 -0.8248  1.2836 -0.0209
24585WAT    EPW  147   6.915   1.131   4.447 -0.6645  0.0123 -0.4947
24586WAT      O  148   0.940   3.827   0.633 -0.0842 -0.3794  0.0033
24586WAT     H1  149   0.932   3.734   0.653  1.0904 -1.1072 -2.4469
24586WAT     H2  150   1.014   3.832   0.572  1.4888  2.4879  1.9041
24586WAT    EPW  151   0.949   3.816   0.627  0.2782 -0.0972 -0.0691
24587WAT      O  152   4.540   1.506   1.809  0.7253  0.1570  0.1719
24587WAT     H1  153   4.531   1.467   1.896  0.4490 -1.5349 -0.5608
24587WAT     H2  154   4.469   1.570   1.804  0.4195 -0.0980  1.0173
24587WAT    EPW  155   4.529   1.509   1.820  0.6485 -0.0998  0.1868
24588WAT      O  156   3.485   0.311   2.246  0.3030  0.7049  0.2330
24588WAT     H1  157   3.536   0.372   2.300 -1.2791  2.2673  0.0495
24588WAT     H2  158   3.550   0.258   2.201  1.7073  0.1143  2.7824
24588WAT    EPW  159   3.500   0.312   2.247  0.2795  0.8331  0.5449
24589WAT      O  160   4.961   4.598   0.769  1.0321  0.2017 -0.3022
24589WAT     H1  161   4.936   4.656   0.697  0.2222 -0.4165 -0.5341
24589WAT     H2  162   4.928   4.642   0.847  1.7545  0.7860 -0.3161
24589WAT    EPW  163   4.953   4.611   0.770  1.0204  0.1974 -0.3346
24590WAT      O  164   3.633   5.614   2.915 -0.3523 -0.3384  0.9243
24590WAT     H1  165   3.598   5.525   2.921  2.3955 -2.1719 -4.0822
24590WAT     H2  166   3.701   5.618   2.982  0.6060 -2.7683  0.2084
24590WAT    EPW  167   3.637   5.603   2.924  0.1365 -0.9010  0.1696
24591WAT      O  168   9.648   3.887   2.207  0.7111  0.7777  0.0264
24591WAT     H1  169   9.734   3.911   2.240 -0.0652  2.4450  0.9763
24591WAT     H2  170   9.587   3.912   2.277 -0.4293 -2.1860  0.2445
24591WAT    EPW  171   9.651   3.893   2.221  0.4582  0.6067  0.1805
24592WAT      O  172   7.851   2.465   3.951 -0.5406 -0.0351  0.0486
24592WAT     H1  173   7.839   2.387   4.005  0.0594 -0.6875 -0.7426
24592WAT     H2  174   7.883   2.532   4.011 -0.3228 -0.6148  0.5805
24592WAT    EPW  175   7.853   2.463   3.966 -0.4327 -0.1976  0.0144
24593WAT      O  176   2.818   2.331   3.808 -0.1968 -0.8152 -0.3366
24593WAT     H1  177   2.907   2.330   3.845 -1.0385 -0.8476  1.8172
24593WAT     H2  178   2.791   2.423   3.814 -0.4513 -0.8733 -0.5973
24593WAT    EPW  179   2.826   2.343   3.814 -0.3415 -0.8272 -0.0869
24594WAT      O  180   3.984  10.244   2.750 -0.5629  0.2272  0.3278
24594WAT     H1  181   3.952  10.202   2.670 -2.4876 -0.8282  1.5961
24594WAT     H2  182   4.031  10.175   2.796  1.9920  1.2479 -0.5601
24594WAT    EPW  183   3.986  10.229   2.745 -0.4799  0.2227  0.3780
24595WAT      O  184   4.643   2.774   3.666  0.4792  0.0592 -0.5214
24595WAT     H1  185   4.700   2.728   3.728  0.2692  0.2500 -0.1851
24595WAT     H2  186   4.685   2.760   3.581  2.8651  2.8603  0.0263
24595WAT    EPW  187   4.656   2.766   3.663  0.7660  0.4538 -0.4047
24596WAT      O  188   7.392   0.249   3.505  0.2412 -0.0769 -0.3842
24596WAT     H1  189   7.325   0.227   3.441 -2.0069 -0.1730  1.8234
24596WAT     H2  190   7.351   0.227   3.590  2.4793  1.3757  1.1650
24596WAT    EPW  191   7.377   0.243   3.508  0.2398  0.1020  0.1112
24597WAT      O  192   8.918   9.865   8.819  0.1290  0.3719 -0.4147
24597WAT     H1  193   8.934   9.809   8.743  0.2477 -1.9473  1.1837
24597WAT     H2  194   8.841   9.916   8.796 -1.7815 -2.5139 -1.0057
24597WAT    EPW  195   8.910   9.864   8.806 -0.1068 -0.3142 -0.2823
24598WAT      O  196   4.236   5.388   1.050  0.3456 -1.1090 -0.4560
24598WAT     H1  197   4.247   5.295   1.070  0.9122 -1.5216 -2.4613
24598WAT     H2  198   4.302   5.406   0.984  0.6120  0.8868  0.2775
24598WAT    EPW  199   4.246   5.378   1.044  0.4556 -0.9003 -0.6238
24599WAT      O  200   5.856   0.493   1.360  0.3045 -0.5039 -0.6930
24599WAT     H1  201   5.827   0.559   1.298 -0.0996 -0.2795 -0.2635
24599WAT     H2  202   5.863   0.539   1.443 -0.3881 -1.0979 -0.3044
24599WAT    EPW  203   5.853   0.507   1.362  0.1602 -0.5527 -0.5851
24600WAT      O  204   0.404   4.334   1.644  0.1669  0.2313 -0.0287
24600WAT     H1  205   0.420   4.335   1.738 -1.7078  1.9080  0.3388
24600WAT     H2  206   0.433   4.247   1.616 -0.4031 -0.7996  2.3067
24600WAT    EPW  207   0.410   4.322   1.653 -0.1555  0.3161  0.3277
24601WAT      O  208   6.695   9.303   8.409  0.3229  0.4716  0.1726
24601WAT     H1  209   6.620   9.355   8.380  0.2136  0.4317  0.3770
24601WAT     H2  210   6.734   9.355   8.480  0.4660  0.4761  0.0894
24601WAT    EPW  211   6.690   9.317   8.415  0.3273  0.4668  0.1888
24602WAT      O  212   6.192   3.486   0.792  0.0553 -0.4203 -0.2956
24602WAT     H1  213   6.248   3.482   0.714 -1.2868 -0.6605 -1.2835
24602WAT     H2  214   6.137   3.563   0.778  0.8250  0.4538  1.1806
24602WAT    EPW  215   6.192   3.496   0.780 -0.0203 -0.3366 -0.2312
24603WAT      O  216   6.903   2.592   2.770  0.3854  0.3243  0.1126
24603WAT     H1  217   6.892   2.665   2.831  2.4030 -0.4867  1.5149
24603WAT     H2  218   6.973   2.539   2.807  1.8048 -0.1783 -2.9362
24603WAT    EPW  219   6.911   2.595   2.783  0.8388  0.1510 -0.1045
24604WAT      O  220   5.267   2.353   1.846  0.9822  0.1484 -0.4929
24604WAT     H1  221   5.198   2.398   1.894  0.9678 -0.3126 -0.0727
24604WAT     H2  222   5.346   2.401   1.867  0.9821 -0.0697  0.0268
24604WAT    EPW  223   5.268   2.365   1.855  0.9804  0.0588 -0.3690
24605WAT      O  224   3.736   3.921   0.297  0.0031  0.1564 -0.5920
24605WAT     H1  225   3.717   3.830   0.273  1.5371 -1.6160  3.9983
24605WAT     H2  226   3.830   3.922   0.314 -0.3231  1.9904  1.4766
24605WAT    EPW  227   3.746   3.909   0.296  0.1624  0.1644  0.2862
24606WAT      O  228   8.913   0.564   1.693 -0.0096  0.1965 -0.1656
24606WAT     H1  229   8.836   0.507   1.683  2.1840 -3.2220  0.6522
24606WAT     H2  230   8.979   0.525   1.636  1.7334  1.8553  0.5962
24606WAT    EPW  231   8.911   0.551   1.684  0.5093 -0.0356  0.0427
24607WAT      O  232   0.255   8.921   5.258 -0.4233 -0.2181 -0.2310
24607WAT     H1  233   0.319   8.992   5.257 -2.8781  2.1679  0.4914
24607WAT     H2  234   0.288   8.860   5.324  1.6535  0.2837 -0.7176
24607WAT    EPW  235   0.268   8.922   5.266 -0.4731  0.1626 -0.2000
24608WAT      O  236   6.860   0.365   2.037  0.4129  0.2290  0.0774
24608WAT     H1  237   6.788   0.358   1.974  1.4963 -1.6909 -1.0494
24608WAT     H2  238   6.915   0.436   2.004 -1.0698  1.9463  1.1354
24608WAT    EPW  239   6.858   0.373   2.024  0.3603  0.2023  0.0683
24609WAT      O  240   4.435   1.279   2.867  0.2063  0.6458 -0.3900
24609WAT     H1  241   4.445   1.332   2.788  0.2918  0.2910 -0.6198
24609WAT     H2  242   4.499   1.315   2.928 -0.6749  1.7032 -0.0491
24609WAT    EPW  243   4.444   1.291   2.864  0.1013  0.7384 -0.3753
24610WAT      O  244  10.216   8.015   8.226  0.0791  0.4189  0.4699
24610WAT     H1  245  10.209   8.025   8.321  3.1132 -2.5543  1.1994
24610WAT     H2  246  10.142   7.960   8.201 -0.5829  1.0040  1.1131
24610WAT    EPW  247  10.206   8.009   8.235  0.3915  0.1035  0.6509
24611WAT      O  248   0.175   0.453   2.864 -0.0868 -0.3331 -0.5053
24611WAT     H1  249   0.231   0.529   2.851 -1.5223  0.6624 -1.0153
24611WAT     H2  250   0.086   0.487   2.860 -0.7850 -2.1447 -1.4747
24611WAT    EPW  251   0.171   0.467   2.862 -0.3682 -0.4407 -0.7004
24612WAT      O  252   7.019   2.541   0.718  0.3247  0.2093 -0.2212
24612WAT     H1  253   7.053   2.629   0.700  0.4982 -0.0747 -1.3815
24612WAT     H2  254   6.980   2.548   0.805  1.3462  1.1336  0.1900
24612WAT    EPW  255   7.018   2.554   0.727  0.4826  0.2937 -0.3200
24613WAT      O  256   1.480   6.551   2.189  0.4710 -0.0438 -0.6253
24613WAT     H1  257   1.541   6.609   2.235  0.6872 -0.3167 -0.5662
24613WAT     H2  258   1.427   6.610   2.136 -1.2088  0.5232  1.5256
24613WAT    EPW  259   1.481   6.567   2.188  0.2779 -0.0050 -0.3338
24614WAT      O  260   0.832   6.969   7.477  0.5376 -0.8751  0.6453
24614WAT     H1  261   0.920   6.932   7.488  0.8995  0.0373  0.8935
24614WAT     H2  262   0.847   7.063   7.467 -0.2793 -0.8848 -1.0675
24614WAT    EPW  263   0.846   6.976   7.477  0.4776 -0.7563  0.4520
24615WAT      O  264   4.345   3.126   0.676 -0.0956  0.5268 -0.6192
24615WAT     H1  265   4.382   3.186   0.611  2.6147 -0.5582 -0.2289
24615WAT     H2  266   4.274   3.082   0.631 -0.4752  2.1845 -1.7174
24615WAT    EPW  267   4.341   3.128   0.662  0.2117  0.6022 -0.7125
24616WAT      O  268   6.736   0.768   1.896  0.2472  0.2650  0.0725
24616WAT     H1  269   6.706   0.714   1.969 -1.8218  1.2141 -0.0112
24616WAT     H2  270   6.733   0.858   1.930  0.8425  0.5837 -0.6907
24616WAT    EPW  271   6.732   0.773   1.910  0.0532  0.4322 -0.0392
24617WAT      O  272   8.890   3.768   4.412 -0.0124  0.5837  0.6490
24617WAT     H1  273   8.947   3.825   4.359  0.0739 -0.3394 -0.2649
24617WAT     H2  274   8.950   3.726   4.473  0.1447  0.3707  0.3519
24617WAT    EPW  275   8.905   3.770   4.413  0.0196  0.4338  0.4892
24618WAT      O  276   5.113   3.167   0.309  0.2197  0.5969  0.4741
24618WAT     H1  277   5.208   3.176   0.304  0.5319 -1.8832  0.6345
24618WAT     H2  278   5.079   3.227   0.242  1.9762  0.3207 -0.7202
24618WAT    EPW  279   5.121   3.176   0.299  0.4923  0.2333  0.3377
24619WAT      O  280   7.152   2.851   2.291  0.4251  0.1319  0.0862
24619WAT     H1  281   7.110   2.852   2.205  0.3893 -1.9248  0.0185
24619WAT     H2  282   7.081   2.836   2.353  0.5010  1.2285  0.4598
24619WAT    EPW  283   7.137   2.849   2.288  0.4306  0.0052  0.1266
24620WAT      O  284   5.205   5.445   1.839  0.3228  0.3216  0.3624
24620WAT     H1  285   5.127   5.476   1.885  0.9453  1.6692  0.5673
24620WAT     H2  286   5.230   5.519   1.783  1.7426  0.1083  0.6916
24620WAT    EPW  287   5.198   5.459   1.837  0.5920  0.4714  0.4329
24621WAT      O  288   4.346   6.090   2.257 -0.2055 -0.3825 -0.3618
24621WAT     H1  289   4.374   6.106   2.167  1.0811 -3.0807 -0.5264
24621WAT     H2  290   4.374   6.000   2.276 -0.3195  0.1179  2.7859
24621WAT    EPW  291   4.353   6.080   2.248 -0.0508 -0.6726  0.0316
24622WAT      O  292   8.963   8.259   6.869  0.9400  0.7440 -0.0909
24622WAT     H1  293   8.963   8.341   6.820  2.9897 -0.5342 -2.4248
24622WAT     H2  294   9.013   8.279   6.949  2.5393  1.5276 -1.2223
24622WAT    EPW  295   8.970   8.273   6.873  1.4210  0.6790 -0.5479
24623WAT      O  296   6.186   2.708   1.415 -0.3569 -0.9517 -0.6730
24623WAT     H1  297   6.108   2.750   1.450  0.7715 -0.3619  1.3378
24623WAT     H2  298   6.159   2.619   1.393 -1.2093 -1.3866  1.8258
24623WAT    EPW  299   6.172   2.702   1.417 -0.3204 -0.9314 -0.0783
24624WAT      O  300   6.730   1.464   3.577  0.6972  0.2010  0.1923
24624WAT     H1  301   6.659   1.430   3.523  1.9084  1.0347 -2.0865
24624WAT     H2  302   6.697   1.461   3.667 -1.5368 -0.9969 -0.6127
24624WAT    EPW  303   6.716   1.459   3.582  0.5624  0.1529 -0.2145
24625WAT      O  304   7.823   4.272   0.959  0.4699  0.3235  0.0118
24625WAT     H1  305   7.866   4.299   0.878 -0.3144  1.5033 -0.0312
24625WAT     H2  306   7.757   4.339   0.975 -1.0691 -1.1953  0.3040
24625WAT    EPW  307   7.820   4.284   0.951  0.1636  0.2787  0.0447
24626WAT      O  308   6.846   0.377   3.129 -0.2580  0.3903 -0.1301
24626WAT     H1  309   6.776   0.383   3.194 -0.8677 -1.2352 -0.5625
24626WAT     H2  310   6.814   0.427   3.055 -0.1031  1.2329  0.3632
24626WAT    EPW  311   6.832   0.384   3.128 -0.3181  0.2870 -0.1221
24627WAT      O  312   6.182   2.443   1.310 -0.8135  0.1706 -0.3900
24627WAT     H1  313   6.228   2.386   1.372 -1.6520 -0.5745 -0.4186
24627WAT     H2  314   6.238   2.446   1.233  0.9145  2.2089  0.8443
24627WAT    EPW  315   6.195   2.436   1.308 -0.6959  0.3413 -0.2310
24628WAT      O  316   3.701   4.875   1.304 -0.3036 -0.2688  0.7717
24628WAT     H1  317   3.725   4.851   1.215 -2.4550 -0.3627  0.1412
24628WAT     H2  318   3.644   4.951   1.294  0.9437  0.9208  2.2425
24628WAT    EPW  319   3.696   4.882   1.291 -0.4230 -0.1245  0.8825
24629WAT      O  320  10.570   3.091   1.927  0.5141 -0.5608  0.2726
24629WAT     H1  321  10.628   3.167   1.935  0.3897 -0.4997  0.6244
24629WAT     H2  322  10.482   3.128   1.923  0.3624 -0.7174  1.5830
24629WAT    EPW  323  10.566   3.106   1.928  0.4783 -0.5733  0.4919
24630WAT      O  324   5.678   2.774   1.135  0.0679 -0.2413 -0.2224
24630WAT     H1  325   5.764   2.738   1.153  0.2012  0.4181  0.5201
24630WAT     H2  326   5.691   2.869   1.136 -1.1949  0.0179  2.9437
24630WAT    EPW  327   5.691   2.782   1.138 -0.0808 -0.1200  0.2931
24631WAT      O  328   5.355   3.546   0.993 -0.4666  0.3196  0.4713
24631WAT     H1  329   5.298   3.608   0.947 -1.5154 -1.1207 -0.2371
24631WAT     H2  330   5.311   3.462   0.985 -0.6534 -0.0758  4.0187
24631WAT    EPW  331   5.342   3.543   0.986 -0.6294  0.0775  0.8457
24632WAT      O  332   4.922   0.658   0.451  0.1137  0.1092  0.5408
24632WAT     H1  333   4.931   0.674   0.545  0.3445  0.0693  0.5284
24632WAT     H2  334   4.957   0.570   0.439 -0.2799 -0.0391  0.4739
24632WAT    EPW  335   4.928   0.648   0.462  0.0920  0.0844  0.5303
24633WAT      O  336   2.592   3.147   1.779  0.4912  0.5174  0.3265
24633WAT     H1  337   2.639   3.065   1.791  2.3103  1.5072  0.4154
24633WAT     H2  338   2.501   3.121   1.765  1.0814 -1.5205 -0.1112
24633WAT    EPW  339   2.586   3.133   1.778  0.8090  0.3792  0.2804
24634WAT      O  340   7.058   0.747   0.418  0.1038  1.0463 -0.5339
24634WAT     H1  341   6.998   0.803   0.369  0.6454  0.9414 -1.3352
24634WAT     H2  342   7.046   0.773   0.510 -2.4182 -0.1476 -0.4433
24634WAT    EPW  343   7.048   0.758   0.424 -0.1574  0.8750 -0.6276
24635WAT      O  344   3.769   2.549   3.885 -0.2680 -0.0759  0.1252
24635WAT     H1  345   3.846   2.493   3.892 -0.0539  0.2559  0.4923
24635WAT     H2  346   3.804   2.634   3.856 -0.5391 -0.0233 -0.0580
24635WAT    EPW  347   3.784   2.553   3.882 -0.2755 -0.0253  0.1494
24636WAT      O  348   6.455   2.683   4.856 -0.6795 -0.2300 -0.3599
24636WAT     H1  349   6.498   2.648   4.778  1.2037 -2.3567  1.4869
24636WAT     H2  350   6.449   2.777   4.840  5.2309  0.4237 -0.6600
24636WAT    EPW  351   6.460   2.691   4.843  0.3483 -0.4243 -0.1559
24637WAT      O  352   6.971   2.130   3.562 -0.4038 -0.2474 -0.3354
24637WAT     H1  353   6.894   2.083   3.530  1.6101 -2.9374 -1.5887
24637WAT     H2  354   6.980   2.102   3.653 -1.6473  1.2667  0.3194
24637WAT    EPW  355   6.962   2.120   3.570 -0.3021 -0.4026 -0.4144
24638WAT      O  356   6.205   8.358   8.648  0.4445 -0.0425 -0.3636
24638WAT     H1  357   6.277   8.400   8.696 -0.0353 -0.7769  1.0831
24638WAT     H2  358   6.241   8.273   8.622  0.6570  0.2981 -1.2189
24638WAT    EPW  359   6.219   8.352   8.651  0.4094 -0.0949 -0.2861
24639WAT      O  360   1.365   0.679   8.476 -0.7040  0.5415 -0.3066
24639WAT     H1  361   1.299   0.610   8.463 -0.6238  0.6711 -1.5111
24639WAT     H2  362   1.332   0.730   8.550 -0.7251 -0.8218  0.6765
24639WAT    EPW  363   1.352   0.676   8.484 -0.6962  0.3788 -0.3357
24640WAT      O  364   8.131   5.762   8.110  0.3417  0.0717 -0.4804
24640WAT     H1  365   8.046   5.764   8.154  0.6759  2.0318  0.1920
24640WAT     H2  366   8.183   5.700   8.160  0.0890  0.7736  0.6790
24640WAT    EPW  367   8.126   5.754   8.122  0.3524  0.4227 -0.2384
24641WAT      O  368   7.926   3.154   4.838 -0.5081 -0.6285  0.0719
24641WAT     H1  369   7.861   3.181   4.903  0.0912  0.9631  0.0402
24641WAT     H2  370   7.970   3.235   4.813  2.4184 -1.7871  1.0793
24641WAT    EPW  371   7.923   3.168   4.843 -0.0432 -0.5714  0.2003
24642WAT      O  372   3.251   5.376   2.403  0.7766  0.5914 -0.6169
24642WAT     H1  373   3.178   5.387   2.342  2.5958  0.1302 -3.0448
24642WAT     H2  374   3.220   5.312   2.466 -1.1324  0.8951 -1.1941
24642WAT    EPW  375   3.237   5.369   2.403  0.7648  0.5708 -1.0133
24643WAT      O  376  10.048   7.055   8.409  0.0463  0.4957  0.4035
24643WAT     H1  377  10.098   6.974   8.398  0.6631  0.4676  2.8767
24643WAT     H2  378   9.969   7.028   8.455 -0.0940  1.1968  0.5805
24643WAT    EPW  379  10.045   7.040   8.414  0.1087  0.5844  0.7534
24644WAT      O  380   3.698   4.450   0.841 -0.2769  0.3893 -0.9773
24644WAT     H1  381   3.726   4.394   0.913  0.7725  0.6120 -1.2035
24644WAT     H2  382   3.672   4.388   0.772  1.8618  0.1192 -1.6111
24644WAT    EPW  383   3.698   4.434   0.841  0.1435  0.3827 -1.0907
24645WAT      O  384   4.519   2.952   1.477 -0.3202 -0.4836  0.0095
24645WAT     H1  385   4.461   2.877   1.491  1.2113 -1.3728  2.0107
24645WAT     H2  386   4.535   2.988   1.564 -1.0834  2.3184 -0.8840
24645WAT    EPW  387   4.513   2.947   1.490 -0.2189 -0.2313  0.1556
24646WAT      O  388   8.743   8.782   8.141  0.0141 -1.0071  0.8721
24646WAT     H1  389   8.759   8.740   8.225  2.1398 -0.3020  0.8805
24646WAT     H2  390   8.657   8.824   8.150 -1.0848 -3.2713  1.6716
24646WAT    EPW  391   8.734   8.782   8.153  0.1497 -1.2131  0.9785
24647WAT      O  392   2.928   0.294   0.968  0.0389  0.5665 -0.2996
24647WAT     H1  393   2.890   0.208   0.953  1.8252 -0.5256  0.9904
24647WAT     H2  394   2.882   0.328   1.044  1.2753 -0.5924  1.0350
24647WAT    EPW  395   2.917   0.287   0.976  0.4376  0.2696  0.0466
24648WAT      O  396   5.457   4.574   0.408  0.6303  0.2423 -0.2249
24648WAT     H1  397   5.435   4.503   0.469 -3.1143  1.2189 -0.2429
24648WAT     H2  398   5.375   4.620   0.394  2.7423  4.2665 -0.7241
24648WAT    EPW  399   5.443   4.571   0.415  0.4151  0.9017 -0.2931
24649WAT      O  400   6.330   4.817   2.745 -0.0313  0.1553 -0.0783
24649WAT     H1  401   6.315   4.901   2.787  0.3665  1.2743 -2.0206
24649WAT     H2  402   6.273   4.756   2.791  0.5595  1.1944  2.1678
24649WAT    EPW  403   6.321   4.820   2.756  0.0992  0.4399 -0.0383
24650WAT      O  404   3.832   2.973   1.538 -0.8722 -0.4118  0.0240
24650WAT     H1  405   3.874   2.950   1.455  0.2571 -1.7777  0.9262
24650WAT     H2  406   3.903   2.971   1.602 -1.0866  3.6390  0.6189
24650WAT    EPW  407   3.846   2.969   1.536 -0.7516 -0.0577  0.2214
24651WAT      O  408   4.702   4.404   2.456 -0.1504 -0.3245 -0.0006
24651WAT     H1  409   4.744   4.328   2.416  1.4331 -0.4223  1.6893
24651WAT     H2  410   4.612   4.403   2.422  0.8608 -0.7399 -2.9443
24651WAT    EPW  411   4.696   4.394   2.446  0.1917 -0.3924 -0.1658
24652WAT      O  412   6.565   2.625   0.442 -0.0692  0.1374 -0.0560
24652WAT     H1  413   6.658   2.639   0.425 -0.0528  0.9371  0.6580
24652WAT     H2  414   6.557   2.623   0.537 -0.4905 -2.0189 -0.0686
24652WAT    EPW  415   6.576   2.626   0.452 -0.1223 -0.0415  0.0366
24653WAT      O  416   6.926   4.577   1.662 -0.1501  0.1962 -0.2404
24653WAT     H1  417   6.842   4.552   1.700  0.9398 -1.5219  1.1761
24653WAT     H2  418   6.923   4.672   1.656 -1.3162  0.3377  1.9474
24653WAT    EPW  419   6.915   4.586   1.666 -0.1602 -0.0117  0.2350
24654WAT      O  420   7.328   0.228   2.918  0.0613 -0.2444 -0.4845
24654WAT     H1  421   7.234   0.235   2.902 -0.0662  2.0260  0.7734
24654WAT     H2  422   7.336   0.224   3.013  1.2581  1.1542 -0.4850
24654WAT    EPW  423   7.317   0.228   2.929  0.2024  0.2395 -0.3185
24655WAT      O  424   1.790   3.374   2.607 -0.0843  0.2676 -0.0356
24655WAT     H1  425   1.698   3.354   2.626 -0.4797  0.2009 -1.8364
24655WAT     H2  426   1.839   3.302   2.648 -1.0984 -1.4773 -1.7565
24655WAT    EPW  427   1.785   3.362   2.615 -0.2702  0.0286 -0.5000
24656WAT      O  428   1.825   6.178   2.307 -0.2988  0.4975 -0.3361
24656WAT     H1  429   1.791   6.170   2.396 -0.2960  0.6232 -0.3223
24656WAT     H2  430   1.763   6.131   2.253  0.9524 -1.6482  0.0060
24656WAT    EPW  431   1.813   6.171   2.312 -0.1333  0.2313 -0.2890
24657WAT      O  432   5.913   1.772   3.627  0.3561 -0.9162  0.5830
24657WAT     H1  433   5.935   1.857   3.587  2.5130 -2.9123 -3.0699
24657WAT     H2  434   5.993   1.746   3.673  0.5496 -1.9082 -0.2817
24657WAT    EPW  435   5.927   1.780   3.628  0.6661 -1.3103 -0.0130
24658WAT      O  436   5.432   2.593   2.419  0.2951 -0.1970  0.2835
24658WAT     H1  437   5.459   2.650   2.490  1.1337 -0.6883  0.3706
24658WAT     H2  438   5.500   2.526   2.414  1.5654  1.0998 -2.4944
24658WAT    EPW  439   5.444   2.592   2.427  0.5734 -0.0907 -0.0714
24659WAT      O  440   5.925   0.922   1.068 -0.8576  0.0611 -0.0535
24659WAT     H1  441   5.831   0.927   1.088 -0.9439 -2.2992  0.4150
24659WAT     H2  442   5.968   0.966   1.140 -1.5564 -0.5484  0.7515
24659WAT    EPW  443   5.918   0.928   1.080 -0.9611 -0.3307  0.1144
24660WAT      O  444   5.494   4.189   3.403  1.0745 -0.4001 -0.6850
24660WAT     H1  445   5.532   4.134   3.472 -0.3380 -1.1575 -0.4823
24660WAT     H2  446   5.419   4.232   3.445 -1.1779 -2.5415 -2.2228
24660WAT    EPW  447   5.489   4.188   3.418  0.5913 -0.7823 -0.8610
24661WAT      O  448   7.869   7.204   8.416  0.3540  0.9570  0.3826
24661WAT     H1  449   7.950   7.246   8.387  0.8180 -0.7398 -0.9430
24661WAT     H2  450   7.831   7.167   8.337  0.3055 -1.6165  1.5147
24661WAT    EPW  451   7.875   7.205   8.402  0.4084  0.3941  0.3572
24662WAT      O  452   1.456   1.292   3.405 -0.5322  0.7667 -0.3252
24662WAT     H1  453   1.443   1.298   3.499  2.2646 -3.8459  0.6467
24662WAT     H2  454   1.441   1.200   3.384 -0.7323  1.5390 -4.3665
24662WAT    EPW  455   1.453   1.281   3.414 -0.1897  0.2602 -0.7300
24663WAT      O  456   2.592   2.555   0.117 -0.2629 -0.1192  0.3537
24663WAT     H1  457   2.555   2.573   0.031 -3.6822 -1.4786  1.3975
24663WAT     H2  458   2.551   2.620   0.175  0.6851 -0.2970  1.2589
24663WAT    EPW  459   2.582   2.566   0.113 -0.5889 -0.3219  0.6108
24664WAT      O  460   7.518   2.582   1.861  0.2931  0.3943  0.2350
24664WAT     H1  461   7.464   2.625   1.795  2.5797  1.5910 -0.9972
24664WAT     H2  462   7.550   2.502   1.819 -0.5880 -0.3827  1.0017
24664WAT    EPW  463   7.515   2.577   1.847  0.4783  0.4497  0.1736
24665WAT      O  464   5.342   5.166   1.769 -0.3218 -0.7463  0.1371
24665WAT     H1  465   5.322   5.259   1.782  2.2795 -0.0270 -0.4717
24665WAT     H2  466   5.430   5.155   1.803  0.5049 -2.3464 -2.2691
24665WAT    EPW  467   5.351   5.177   1.775  0.1304 -0.8624 -0.2605
24666WAT      O  468   3.640   4.191   1.500 -0.5152  0.2690  0.4768
24666WAT     H1  469   3.671   4.230   1.418 -1.0052  0.8214  0.5495
24666WAT     H2  470   3.646   4.262   1.564  0.7562 -0.4159  1.1580
24666WAT    EPW  471   3.645   4.206   1.498 -0.4121  0.2513  0.5763
24667WAT      O  472   6.229   0.946   1.432  0.6464 -0.3162  0.0526
24667WAT     H1  473   6.230   0.983   1.520  1.8649  0.8743 -0.4338
24667WAT     H2  474   6.280   0.865   1.439  1.7039  0.3582  0.2106
24667WAT    EPW  475   6.236   0.940   1.444  0.9465 -0.0702  0.0092
24668WAT      O  476   6.423   4.259   2.877 -0.3330 -0.5363 -0.1992
24668WAT     H1  477   6.471   4.266   2.960  0.0927  0.7393 -0.5234
24668WAT     H2  478   6.460   4.328   2.822 -1.8334 -0.1929 -0.8352
24668WAT    EPW  479   6.434   4.269   2.881 -0.4747 -0.3228 -0.3259
24669WAT      O  480   6.506   2.355   1.677 -0.1077 -0.4965 -0.5604
24669WAT     H1  481   6.567   2.296   1.633  1.5362  0.9527 -0.3067
24669WAT     H2  482   6.518   2.439   1.634  0.2793  0.5412  1.4685
24669WAT    EPW  483   6.515   2.358   1.666  0.1602 -0.1686 -0.2593
24670WAT      O  484   6.470   1.228   1.528 -0.0375  0.0057 -0.3918
24670WAT     H1  485   6.397   1.269   1.573 -2.4931 -0.5314 -3.5840
24670WAT     H2  486   6.432   1.154   1.481  3.0002 -1.7184 -0.4560
24670WAT    EPW  487   6.456   1.223   1.528  0.0396 -0.2925 -0.8213
24671WAT      O  488   4.149   5.136   3.687 -0.3355  0.2608  0.7767
24671WAT     H1  489   4.128   5.226   3.712 -0.0558  0.6260 -0.2389
24671WAT     H2  490   4.185   5.144   3.598  0.3018 -0.7804  0.9214
24671WAT    EPW  491   4.151   5.149   3.679 -0.2143  0.1717  0.6618
24672WAT      O  492   3.454   5.650   3.444 -0.2221  0.1622 -0.5449
24672WAT     H1  493   3.447   5.605   3.528 -2.6645  1.0217 -0.1931
24672WAT     H2  494   3.471   5.741   3.467 -2.2797  0.6735 -0.8391
24672WAT    EPW  495   3.455   5.656   3.458 -0.8156  0.3428 -0.5373
24673WAT      O  496   7.874   0.530   2.500 -0.2212  0.4018  0.2062
24673WAT     H1  497   7.812   0.464   2.470 -1.5030  1.9109 -0.6027
24673WAT     H2  498   7.863   0.532   2.595  0.4458 -1.0913  0.3440
24673WAT    EPW  499   7.865   0.522   2.508 -0.3021  0.4039  0.1177
24674WAT      O  500   5.371   1.453   0.108  0.2231  0.0140  0.1664
24674WAT     H1  501   5.323   1.378   0.074  0.2853 -0.0857  0.2965
24674WAT     H2  502   5.455   1.418   0.135 -0.4199 -0.2621  2.0057
24674WAT    EPW  503   5.375   1.439   0.107  0.1462 -0.0356  0.4262
24675WAT      O  504   4.538   9.937   4.278  0.1749  0.7713  0.1259
24675WAT     H1  505   4.488   9.969   4.353 -0.5108  0.0426 -0.0014
24675WAT     H2  506   4.606  10.003   4.264 -1.8748  2.7706 -0.8706
24675WAT    EPW  507   4.541   9.950   4.286 -0.1857  0.9384 -0.0222
24676WAT      O  508   6.129   4.017   1.209 -0.0253  0.2911  0.4657
24676WAT     H1  509   6.218   4.025   1.244  0.5122  1.1814 -1.0106
24676WAT     H2  510   6.108   4.104   1.176 -1.4991  0.1223  0.8472
24676WAT    EPW  511   6.138   4.030   1.209 -0.1488  0.3860  0.3213
24677WAT      O  512   2.947  10.278   0.745  0.4011  0.6599  0.3980
24677WAT     H1  513   2.937  10.305   0.836 -1.5753  2.8043 -0.3529
24677WAT     H2  514   2.903  10.347   0.695  2.3889  0.1406 -2.2765
24677WAT    EPW  515   2.940  10.291   0.750  0.4027  0.8740 -0.0538
24678WAT      O  516   5.507   1.474   2.443 -1.0233 -0.2850 -0.5663
24678WAT     H1  517   5.488   1.447   2.353 -1.5695 -0.9779 -0.2576
24678WAT     H2  518   5.459   1.411   2.497  1.0873 -1.3050  0.2418
24678WAT    EPW  519   5.498   1.462   2.438 -0.8168 -0.5109 -0.4189
24679WAT      O  520   9.601   7.852   4.732  0.3926  0.3139  0.0396
24679WAT     H1  521   9.616   7.914   4.660 -1.3331  1.1447  0.3393
24679WAT     H2  522   9.686   7.844   4.775  1.1207  0.8984 -1.2312
24679WAT    EPW  523   9.615   7.859   4.728  0.2613  0.5007 -0.0885
24680WAT      O  524   9.455   6.754   6.201 -0.4963  0.0331  0.0878
24680WAT     H1  525   9.478   6.719   6.115 -0.5470 -1.6738  0.7400
24680WAT     H2  526   9.411   6.838   6.182 -1.0521 -0.6010 -1.5726
24680WAT    EPW  527   9.452   6.761   6.187 -0.5760 -0.2756 -0.0453
24681WAT      O  528   0.256   9.330   8.665 -0.6403  0.5272 -0.4542
24681WAT     H1  529   0.351   9.329   8.663 -0.6070 -2.4489 -1.6146
24681WAT     H2  530   0.233   9.323   8.758  0.2129  1.7412 -0.1271
24681WAT    EPW  531   0.265   9.329   8.677 -0.5234  0.2947 -0.5641
24682WAT      O  532   4.146   9.620   2.052  0.1109  0.0233 -0.5064
24682WAT     H1  533   4.234   9.649   2.072  0.6413 -2.0165  0.3299
24682WAT     H2  534   4.119   9.568   2.128  0.4726 -4.2130 -2.8998
24682WAT    EPW  535   4.154   9.617   2.064  0.2286 -0.8039 -0.7117
24683WAT      O  536   5.512   2.189   0.173  0.2594  0.0040 -0.1729
24683WAT     H1  537   5.425   2.227   0.182  0.6166  1.6734 -2.7616
24683WAT     H2  538   5.497   2.095   0.164 -1.2996  0.2884 -0.7430
24683WAT    EPW  539   5.499   2.182   0.173  0.1006  0.2617 -0.5895
24684WAT      O  540   6.410   4.615   1.712  0.1725  0.3859 -0.3305
24684WAT     H1  541   6.367   4.699   1.699 -0.4126  0.4604  1.7462
24684WAT     H2  542   6.348   4.564   1.765  1.2929 -0.6564  0.0221
24684WAT    EPW  543   6.396   4.619   1.717  0.2432  0.2584 -0.0101
24685WAT      O  544   4.812   3.923   3.591  0.1557  0.0230 -0.1482
24685WAT     H1  545   4.818   3.953   3.500 -0.2033  0.2486 -0.0985
24685WAT     H2  546   4.894   3.953   3.631  2.1117 -3.2775 -1.3050
24685WAT    EPW  547   4.824   3.931   3.585  0.3664 -0.3827 -0.2941
24686WAT      O  548   3.039   2.655   2.366  0.2985  0.7209  0.0998
24686WAT     H1  549   3.083   2.600   2.430  0.4871 -1.7119 -1.9318
24686WAT     H2  550   2.973   2.703   2.416 -0.7225 -2.3048  1.9081
24686WAT    EPW  551   3.036   2.654   2.381  0.1888  0.0011  0.0702
24687WAT      O  552   8.827   7.050   7.461 -0.3754 -0.0397 -0.1063
24687WAT     H1  553   8.830   6.975   7.402  1.6864  0.8000 -1.1399
24687WAT     H2  554   8.813   7.012   7.548  1.0413 -1.6695 -0.5497
24687WAT    EPW  555   8.825   7.035   7.465  0.0830 -0.1440 -0.3011
24688WAT      O  556   5.734   3.117   0.313  0.9372  0.1445 -0.2204
24688WAT     H1  557   5.680   3.067   0.252  0.8000 -0.3841  0.3270
24688WAT     H2  558   5.753   3.199   0.267  0.2597  0.0393 -0.6970
24688WAT    EPW  559   5.729   3.121   0.299  0.8297  0.0610 -0.2111
24689WAT      O  560   4.454   0.083   0.456  0.3126 -0.4457 -0.4807
24689WAT     H1  561   4.375   0.127   0.487  0.0926 -0.5454 -0.8955
24689WAT     H2  562   4.421   0.006   0.410  0.4672  0.9664 -3.1606
24689WAT    EPW  563   4.439   0.079   0.454  0.3037 -0.2726 -0.8889
24690WAT      O  564   9.181   7.307   8.190  0.1951  0.3304 -0.0753
24690WAT     H1  565   9.239   7.236   8.162  0.1737  0.3254 -0.1083
24690WAT     H2  566   9.227   7.350   8.261 -1.7835 -2.7193  3.3981
24690WAT    EPW  567   9.195   7.303   8.195 -0.0687 -0.0727  0.3777
24691WAT      O  568   2.668   6.986   3.285 -0.5626  0.1256  0.1173
24691WAT     H1  569   2.648   7.021   3.372 -2.7836 -1.1231  0.1769
24691WAT     H2  570   2.746   7.035   3.257 -0.7320  1.6761  2.1251
24691WAT    EPW  571   2.676   6.997   3.292 -0.8779  0.1655  0.3899
24692WAT      O  572   9.969   8.029   6.013  0.1992  0.0747 -0.4360
24692WAT     H1  573   9.881   8.060   6.034  1.2587  1.4975  2.5411
24692WAT     H2  574   9.963   7.997   5.923 -2.8246  2.1368 -1.1102
24692WAT    EPW  575   9.956   8.029   6.004 -0.0601  0.5341 -0.1323
24693WAT      O  576   4.662   4.965   3.453 -0.1780 -0.8513 -0.2649
24693WAT     H1  577   4.696   4.920   3.376  1.2694 -0.0288 -0.1458
24693WAT     H2  578   4.680   4.906   3.526 -0.1370 -0.9591 -0.3623
24693WAT    EPW  579   4.669   4.952   3.452  0.0181 -0.7567 -0.2620
24694WAT      O  580   7.326   3.947   2.713 -0.0377  0.2233 -0.0164
24694WAT     H1  581   7.272   3.994   2.649 -0.6243 -0.4485 -0.0184
24694WAT     H2  582   7.288   3.969   2.798 -0.0842  0.0449  0.0087
24694WAT    EPW  583   7.314   3.956   2.716 -0.1214  0.1111 -0.0132
24695WAT      O  584   8.995   4.157   4.907  0.4901 -0.1932  0.3538
24695WAT     H1  585   9.010   4.143   5.000 -3.4657 -1.1670  1.0277
24695WAT     H2  586   8.905   4.190   4.902  0.8579  0.6954 -3.1054
24695WAT    EPW  587   8.985   4.160   4.918  0.0172 -0.2048 -0.0134
24696WAT      O  588   4.305   2.133   3.576  1.2111  0.1417 -0.3936
24696WAT     H1  589   4.337   2.223   3.575  0.4858  0.4385 -2.1144
24696WAT     H2  590   4.285   2.114   3.668  3.5032  0.9209  0.3130
24696WAT    EPW  591   4.306   2.142   3.588  1.4179  0.2836 -0.5274
24697WAT      O  592   3.050   4.843   0.821 -0.3013  0.9219 -0.1543
24697WAT     H1  593   3.056   4.778   0.890  0.4967  0.6036 -0.5139
24697WAT     H2  594   3.140   4.853   0.789 -0.6429  1.0996 -1.1044
24697WAT    EPW  595   3.063   4.836   0.826 -0.2410  0.9034 -0.3270
24698WAT      O  596   8.096   2.865   4.105 -0.0115  0.1837 -0.2649
24698WAT     H1  597   8.077   2.912   4.024  0.1442  0.2553 -0.2605
24698WAT     H2  598   8.051   2.915   4.173 -0.4369 -0.0768 -0.3510
24698WAT    EPW  599   8.088   2.878   4.104 -0.0472  0.1588 -0.2756
24699WAT      O  600  10.632   9.161   2.944  0.4399  0.1030 -0.5491
24699WAT     H1  601  10.612   9.074   2.909  1.2789  0.1600 -1.1990
24699WAT     H2  602  10.688   9.201   2.877 -0.3378  1.3331 -0.4934
24699WAT    EPW  603  10.637   9.155   2.931  0.4482  0.2728 -0.6275
24700WAT      O  604   7.908   1.845   2.495 -0.8074  0.0043 -0.8326
24700WAT     H1  605   7.915   1.825   2.401 -0.7914 -0.3136 -0.7648
24700WAT     H2  606   7.922   1.761   2.538 -3.1994 -0.3743 -0.6244
24700WAT    EPW  607   7.911   1.832   2.488 -1.1208 -0.0876 -0.7962
24701WAT      O  608   3.615   3.642   3.983  0.5880  0.3327 -0.2327
24701WAT     H1  609   3.595   3.711   3.920 -0.6068  0.9067  0.7311
24701WAT     H2  610   3.555   3.571   3.959  1.0523  0.0465 -0.5499
24701WAT    EPW  611   3.604   3.642   3.971  0.4916  0.3706 -0.1475
24702WAT      O  612   2.762   4.124   2.565  0.8129  0.1699 -0.1326
24702WAT     H1  613   2.735   4.059   2.501  0.3763 -1.0160  1.2005
24702WAT     H2  614   2.811   4.075   2.631 -0.0524  1.0649  1.2332
24702WAT    EPW  615   2.765   4.109   2.565  0.6412  0.1316  0.2233
24703WAT      O  616   6.124   0.941   0.870  0.1476 -0.0958 -0.2723
24703WAT     H1  617   6.094   0.956   0.780 -0.6288 -0.4261 -0.0807
24703WAT     H2  618   6.043   0.928   0.920  0.4873  1.2874  0.7160
24703WAT    EPW  619   6.109   0.941   0.865  0.0899  0.0430 -0.1167
24704WAT      O  620   8.076   8.700   7.951  0.2625 -0.3924  0.3148
24704WAT     H1  621   8.160   8.681   7.909 -0.0316  0.1478 -0.5611
24704WAT     H2  622   8.011   8.673   7.886 -0.1953  1.7975 -0.2158
24704WAT    EPW  623   8.079   8.694   7.937  0.1631 -0.0329  0.1295
24705WAT      O  624   1.938   4.407   1.410 -0.6336  0.1950  0.8022
24705WAT     H1  625   2.029   4.391   1.437  0.1659  2.0584 -0.5522
24705WAT     H2  626   1.932   4.370   1.322 -1.6777 -1.2229  1.4226
24705WAT    EPW  627   1.949   4.400   1.402 -0.6658  0.2537  0.7054
24706WAT      O  628   1.568   4.633   2.326  0.1538  0.5782 -0.4894
24706WAT     H1  629   1.551   4.585   2.407 -1.9074 -0.1481 -1.2754
24706WAT     H2  630   1.636   4.696   2.349 -1.1353  1.1453  2.1099
24706WAT    EPW  631   1.575   4.635   2.340 -0.2881  0.5572 -0.2501
24707WAT      O  632   7.692   3.741   0.097 -0.1606  0.9510  0.0433
24707WAT     H1  633   7.621   3.743   0.162 -0.9704  0.0244 -0.7708
24707WAT     H2  634   7.721   3.649   0.096  1.4735  1.4226  0.7718
24707WAT    EPW  635   7.686   3.729   0.106 -0.0517  0.8910  0.0320
24708WAT      O  636   4.102   1.860   2.365  0.5764 -0.6677  0.1438
24708WAT     H1  637   4.140   1.849   2.452  0.7701 -0.3084  0.1059
24708WAT     H2  638   4.057   1.944   2.370  1.2057 -0.2986 -0.3286
24708WAT    EPW  639   4.101   1.870   2.377  0.6847 -0.5716  0.0767
24709WAT      O  640   2.215   8.169   7.290  0.2211  0.2997 -0.5031
24709WAT     H1  641   2.289   8.163   7.230  0.8671  2.7659 -0.0498
24709WAT     H2  642   2.138   8.177   7.234  0.6650  1.1551 -0.9974
24709WAT    EPW  643   2.215   8.169   7.275  0.3649  0.7381 -0.5085
24710WAT      O  644   6.880   7.018   2.395 -0.1399  0.6252  0.1459
24710WAT     H1  645   6.888   7.088   2.459  0.1618 -0.3314  1.1828
24710WAT     H2  646   6.968   7.008   2.359  0.3896 -0.7804  1.7206
24710WAT    EPW  647   6.893   7.026   2.398 -0.0303  0.3138  0.4904
24711WAT      O  648   2.717   0.064   8.161  0.7559 -0.6252 -0.0219
24711WAT     H1  649   2.737  -0.019   8.204  1.1379 -0.3482  0.3513
24711WAT     H2  650   2.737   0.049   8.069  1.5061 -0.7378  0.1530
24711WAT    EPW  651   2.722   0.051   8.155  0.9053 -0.6035  0.0501
24712WAT      O  652   6.045   0.401   2.533  0.3326 -0.4502  0.1822
24712WAT     H1  653   6.036   0.326   2.475 -0.1925 -0.2663  0.0167
24712WAT     H2  654   6.120   0.380   2.590  0.8608 -0.6215 -0.5681
24712WAT    EPW  655   6.054   0.388   2.533  0.3328 -0.4485  0.0614
24713WAT      O  656   8.573   6.994   7.241  0.0225 -0.2372  0.4947
24713WAT     H1  657   8.566   6.899   7.234  1.0224 -0.2636 -0.4274
24713WAT     H2  658   8.513   7.027   7.174 -0.6598 -0.1943  1.1122
24713WAT    EPW  659   8.564   6.986   7.231  0.0648 -0.2348  0.4547
24714WAT      O  660   6.132   4.247   1.052  0.3890  0.3177 -0.3094
24714WAT     H1  661   6.070   4.212   0.989  0.7966  0.4529 -0.7939
24714WAT     H2  662   6.132   4.342   1.036  0.1751  0.4053  0.1852
24714WAT    EPW  663   6.124   4.255   1.042  0.4144  0.3471 -0.3081
24715WAT      O  664   5.971   2.451   0.175 -0.3580  0.0658  0.0148
24715WAT     H1  665   5.935   2.538   0.190 -0.8906 -0.4135  1.8144
24715WAT     H2  666   6.051   2.448   0.228  0.1125 -0.2538 -0.7025
24715WAT    EPW  667   5.977   2.462   0.184 -0.3662 -0.0395  0.1575
24716WAT      O  668   8.827   4.378   0.522 -0.3419 -0.0470 -0.8182
24716WAT     H1  669   8.739   4.379   0.559 -0.2646 -1.2387 -0.5715
24716WAT     H2  670   8.816   4.413   0.433 -0.7477  1.5426 -0.1758
24716WAT    EPW  671   8.814   4.383   0.515 -0.3858  0.0052 -0.7010
24717WAT      O  672   9.426   6.207   1.125 -0.1820  0.1860  0.4162
24717WAT     H1  673   9.503   6.257   1.098  0.1206 -0.9333 -0.8982
24717WAT     H2  674   9.365   6.216   1.052 -1.2498  0.8928  1.3576
24717WAT    EPW  675   9.428   6.215   1.112 -0.2828  0.1318  0.3670
24718WAT      O  676   2.704   2.481   1.762  0.1039  0.0593  0.4294
24718WAT     H1  677   2.766   2.534   1.712  1.3679 -1.3805  0.3951
24718WAT     H2  678   2.618   2.516   1.739  0.6781 -0.0466 -2.1922
24718WAT    EPW  679   2.701   2.493   1.752  0.3463 -0.1446  0.0792
24719WAT      O  680   4.196   0.180   8.388 -0.4545  0.0683 -0.4015
24719WAT     H1  681   4.143   0.252   8.424  1.2684  2.0262 -1.5381
24719WAT     H2  682   4.214   0.124   8.463 -2.2436  0.5173  0.4318
24719WAT    EPW  683   4.191   0.182   8.403 -0.4632  0.3858 -0.4411
24720WAT      O  684   1.986   3.352   3.000 -0.0215  1.2950 -1.1729
24720WAT     H1  685   2.049   3.416   2.970  0.6433 -0.0917 -2.8941
24720WAT     H2  686   1.941   3.322   2.921 -1.9833  1.3262 -0.1417
24720WAT    EPW  687   1.988   3.356   2.986 -0.1925  1.1162 -1.2640
24721WAT      O  688   0.289   8.062   8.946  0.3827  0.1153  0.3230
24721WAT     H1  689   0.248   7.976   8.954 -0.2819  0.3618 -0.3151
24721WAT     H2  690   0.382   8.043   8.941  0.6739 -0.3245  4.1992
24721WAT    EPW  691   0.296   8.048   8.946  0.3335  0.0896  0.7501
24722WAT      O  692   4.506   3.037   4.367 -0.2628  0.3905  0.2994
24722WAT     H1  693   4.562   2.995   4.301 -1.2016  0.4705 -0.5818
24722WAT     H2  694   4.521   2.987   4.447 -1.7367 -2.0275 -0.8173
24722WAT    EPW  695   4.516   3.025   4.369 -0.5810  0.0824  0.0362
24723WAT      O  696   5.396   2.510   3.872  0.1301  0.2506 -0.0506
24723WAT     H1  697   5.343   2.455   3.815  0.8288 -1.7574  1.1331
24723WAT     H2  698   5.332   2.552   3.930 -0.2984 -1.5577  0.8667
24723WAT    EPW  699   5.381   2.508   3.872  0.1655 -0.2527  0.2266
24724WAT      O  700   3.137   4.662   4.519  0.5341 -0.5344  0.4726
24724WAT     H1  701   3.071   4.712   4.471 -0.3451  0.2763  2.4052
24724WAT     H2  702   3.206   4.645   4.454 -1.6581 -1.6805 -1.7065
24724WAT    EPW  703   3.137   4.667   4.504  0.1291 -0.5789  0.4404
24725WAT      O  704  10.465   6.347   8.096 -0.1079  0.2185 -0.1485
24725WAT     H1  705  10.442   6.391   8.178 -0.6540 -1.9056  0.8867
24725WAT     H2  706  10.382   6.321   8.058  0.2383 -0.5865 -0.3655
24725WAT    EPW  707  10.451   6.350   8.101 -0.1345 -0.1678 -0.0405
24726WAT      O  708   5.303   5.261   2.783  0.2037  0.8915 -0.1505
24726WAT     H1  709   5.207   5.262   2.777  0.1318 -0.6507  0.3435
24726WAT     H2  710   5.321   5.225   2.870  1.2327  1.1729 -0.2440
24726WAT    EPW  711   5.293   5.256   2.793  0.3300  0.7253 -0.0976
24727WAT      O  712   5.602   1.274   1.342  0.0356 -0.0636  0.2062
24727WAT     H1  713   5.695   1.259   1.328 -0.2652 -0.6621 -1.4372
24727WAT     H2  714   5.578   1.216   1.414  0.8865 -0.0244  0.5296
24727WAT    EPW  715   5.611   1.265   1.350  0.1082 -0.1373  0.0321
24728WAT      O  716   3.455   2.907   2.507  0.2341  0.2868 -0.4593
24728WAT     H1  717   3.523   2.935   2.569 -1.1857  2.3068  0.3308
24728WAT     H2  718   3.484   2.941   2.422  0.1134  1.3851 -0.0777
24728WAT    EPW  719   3.468   2.916   2.504  0.0309  0.6981 -0.3047
24729WAT      O  720   4.384   2.718   1.543  0.1644 -0.0663 -0.7719
24729WAT     H1  721   4.374   2.631   1.581 -0.7430 -0.5933 -2.1159
24729WAT     H2  722   4.332   2.714   1.462 -0.4530  1.9466 -0.5152
24729WAT    EPW  723   4.376   2.706   1.537 -0.0365  0.1296 -0.9153
24730WAT      O  724   6.039   3.415   1.093 -0.5346 -0.9481  0.3156
24730WAT     H1  725   6.070   3.378   1.176  0.1791 -0.3814  0.3113
24730WAT     H2  726   6.062   3.350   1.027 -2.7168 -2.2604  0.7348
24730WAT    EPW  727   6.046   3.402   1.095 -0.7284 -1.0464  0.3703
24731WAT      O  728   4.001  10.104   1.951  0.5812 -0.2101  0.2415
24731WAT     H1  729   4.046  10.022   1.971  0.3371  0.0428  2.0213
24731WAT     H2  730   3.945  10.119   2.027 -0.1318  1.0980 -0.5125
24731WAT    EPW  731   3.999  10.095   1.964  0.4550 -0.0043  0.3768
24732WAT      O  732   4.332   0.834   1.879  0.7112  0.7367 -0.5648
24732WAT     H1  733   4.416   0.838   1.833  1.3791 -0.2747  0.5347
24732WAT     H2  734   4.353   0.853   1.970  0.1748 -2.0142  0.2182
24732WAT    EPW  735   4.346   0.837   1.885  0.7286  0.2404 -0.3165
24733WAT      O  736   7.342   2.610   4.339 -0.3901 -0.5607  0.0889
24733WAT     H1  737   7.414   2.671   4.355 -1.0361  0.6250 -1.2913
24733WAT     H2  738   7.343   2.595   4.245 -1.7032 -0.8094  0.0884
24733WAT    EPW  739   7.352   2.616   4.329 -0.6483 -0.4370 -0.0935
24734WAT      O  740   6.013   6.465   0.325  0.0817  0.1251 -0.6741
24734WAT     H1  741   5.991   6.440   0.415 -2.5501  0.0550 -1.2402
24734WAT     H2  742   6.099   6.426   0.310 -1.2539 -3.7530  0.3976
24734WAT    EPW  743   6.021   6.456   0.335 -0.4416 -0.3955 -0.6075
24735WAT      O  744   5.230   0.589   2.180  0.3843 -0.1656  0.1034
24735WAT     H1  745   5.198   0.609   2.092  0.1360 -2.4189 -0.3860
24735WAT     H2  746   5.323   0.570   2.168  0.5022  0.1640  0.4583
24735WAT    EPW  747   5.238   0.589   2.167  0.3669 -0.4193  0.0857
24736WAT      O  748  10.455   6.888   8.562 -0.0664 -0.1746 -0.2593
24736WAT     H1  749  10.441   6.797   8.534  0.2476 -0.0513 -0.8234
24736WAT     H2  750  10.367   6.919   8.584 -0.5890  0.1994 -2.5881
24736WAT    EPW  751  10.442   6.880   8.561 -0.0935 -0.1092 -0.6409
24737WAT      O  752   4.938   7.179   3.039 -0.3874 -0.3097 -0.2516
24737WAT     H1  753   4.883   7.204   2.965  0.2064  0.9240 -0.3170
24737WAT     H2  754   4.888   7.206   3.116  1.4050  4.1198 -0.3385
24737WAT    EPW  755   4.924   7.186   3.040 -0.0727  0.4373 -0.2717
24738WAT      O  756   8.295   3.646   4.211  0.1025 -0.1231 -1.3837
24738WAT     H1  757   8.379   3.679   4.242 -0.6809  0.3577  0.3616
24738WAT     H2  758   8.239   3.648   4.289 -1.0701 -1.9451 -2.1245
24738WAT    EPW  759   8.299   3.650   4.226 -0.1554 -0.3000 -1.2515
24739WAT      O  760   6.422   0.453   1.956  0.1952  0.4710  0.6989
24739WAT     H1  761   6.404   0.513   2.028  0.8954  1.6491 -0.0808
24739WAT     H2  762   6.401   0.367   1.992  0.6775  0.9970  2.3691
24739WAT    EPW  763   6.417   0.450   1.970  0.3512  0.6958  0.8163
24740WAT      O  764   4.933   4.715   1.975 -0.0958  0.1857  1.0173
24740WAT     H1  765   4.944   4.622   1.956  0.6763  0.7851 -2.0782
24740WAT     H2  766   5.012   4.756   1.939 -0.0752  2.0144  2.9440
24740WAT    EPW  767   4.945   4.708   1.968  0.0086  0.5062  0.8631
24741WAT      O  768   8.372   3.310   0.458  0.0824 -0.4671  0.2867
24741WAT     H1  769   8.454   3.281   0.420 -0.7655 -0.9426 -1.2862
24741WAT     H2  770   8.384   3.403   0.475  0.7621 -0.4141 -0.4419
24741WAT    EPW  771   8.384   3.318   0.455  0.0601 -0.5229 -0.0169
24742WAT      O  772   1.129  10.099   3.182  0.1958  0.6723  0.2570
24742WAT     H1  773   1.179  10.024   3.150 -0.8787  1.0474 -2.6181
24742WAT     H2  774   1.196  10.165   3.201  1.0232 -0.3085  0.9146
24742WAT    EPW  775   1.145  10.098   3.180  0.1633  0.5922 -0.0354
24743WAT      O  776   8.379   8.287   7.796  0.3032 -0.7723 -0.2763
24743WAT     H1  777   8.400   8.307   7.888  1.5423  0.5653 -0.8100
24743WAT     H2  778   8.287   8.314   7.786  0.7393  1.0034  0.0952
24743WAT    EPW  779   8.369   8.293   7.807  0.5236 -0.3614 -0.2978
24744WAT      O  780   3.578   0.381   4.098 -0.0542  0.4733 -0.0557
24744WAT     H1  781   3.535   0.311   4.048  0.1773  1.0698 -1.1141
24744WAT     H2  782   3.587   0.344   4.186  1.4486 -1.4424 -0.9268
24744WAT    EPW  783   3.574   0.367   4.103  0.1745  0.2993 -0.3102
24745WAT      O  784   3.942   2.887   0.373  0.1786  0.1900 -0.2679
24745WAT     H1  785   3.922   2.798   0.403 -1.3360  1.0532  1.4799
24745WAT     H2  786   4.021   2.877   0.320  0.3215 -2.1223  0.2760
24745WAT    EPW  787   3.950   2.874   0.370 -0.0025 -0.0011  0.0343
24746WAT      O  788   6.808   4.857   0.067  0.4264  0.4782 -0.4166
24746WAT     H1  789   6.720   4.844   0.032 -0.0564  1.8865  0.1996
24746WAT     H2  790   6.863   4.871  -0.009  0.0152  0.1826 -0.7731
24746WAT    EPW  791   6.804   4.857   0.053  0.3083  0.6249 -0.3822
24747WAT      O  792   5.619   6.544   2.536 -0.1128 -0.9261 -0.1825
24747WAT     H1  793   5.565   6.582   2.468 -1.5096 -0.8024  0.9485
24747WAT     H2  794   5.557   6.516   2.604  1.2789  0.3815  1.7444
24747WAT    EPW  795   5.604   6.545   2.536 -0.1137 -0.7372  0.2209
24748WAT      O  796   4.099   0.999   0.363 -0.1186 -0.0404  0.4252
24748WAT     H1  797   4.078   1.047   0.283  1.2244  1.6858  1.0354
24748WAT     H2  798   4.174   1.046   0.400  1.1089 -2.4380  1.2615
24748WAT    EPW  799   4.106   1.011   0.357  0.2203 -0.1290  0.6160
24749WAT      O  800   4.970   2.307   0.912  0.3578  0.1177  0.8436
24749WAT     H1  801   5.035   2.240   0.891 -1.4548 -1.3058 -0.5088
24749WAT     H2  802   4.944   2.287   1.002  0.3999 -0.5351  0.7165
24749WAT    EPW  803   4.975   2.296   0.921  0.1242 -0.1562  0.6484
24750WAT      O  804   6.399   3.603   1.995 -1.2350 -0.2872  0.5640
24750WAT     H1  805   6.335   3.634   2.060 -0.0032 -0.5715  1.9534
24750WAT     H2  806   6.467   3.670   1.994 -0.3971 -1.1118  0.8499
24750WAT    EPW  807   6.399   3.616   2.003 -0.9623 -0.4333  0.7849
24751WAT      O  808   0.264   9.986   1.098 -0.4424  0.3566  0.5977
24751WAT     H1  809   0.304  10.025   1.021  1.1047  0.8732  1.6093
24751WAT     H2  810   0.309   9.902   1.109 -1.6972 -0.4062  0.1152
24751WAT    EPW  811   0.275   9.980   1.089 -0.4038  0.3242  0.6675
24752WAT      O  812   1.430  10.107   2.675 -0.8208  0.0704 -0.0479
24752WAT     H1  813   1.375  10.091   2.599 -0.5873  0.2853 -0.2662
24752WAT     H2  814   1.376  10.083   2.750 -0.9381 -0.4432 -0.2975
24752WAT    EPW  815   1.416  10.102   2.675 -0.8054  0.0315 -0.1097
24753WAT      O  816   7.119   3.013   2.910  0.2601 -0.5794 -0.4582
24753WAT     H1  817   7.064   2.935   2.911  0.6330 -0.8489 -0.7553
24753WAT     H2  818   7.066   3.080   2.952 -0.9309 -0.4084 -2.1336
24753WAT    EPW  819   7.105   3.011   2.915  0.1523 -0.5924 -0.7182
24754WAT      O  820   4.049   4.516   3.113  0.3883  0.0950  0.4420
24754WAT     H1  821   4.128   4.539   3.064  0.9666 -1.0020  0.8247
24754WAT     H2  822   4.082   4.483   3.197 -0.4825 -0.2967  0.6371
24754WAT    EPW  823   4.064   4.515   3.118  0.3495 -0.1011  0.5183
24755WAT      O  824   4.408   3.355   2.384 -0.2474  0.3426 -0.2460
24755WAT     H1  825   4.462   3.432   2.402  0.5915 -0.2295 -0.2386
24755WAT     H2  826   4.469   3.291   2.347 -1.1822  0.1335 -1.4999
24755WAT    EPW  827   4.423   3.356   2.381 -0.2599  0.2396 -0.4104
24756WAT      O  828  10.026   7.865   8.773  0.0125  1.0453 -0.6972
24756WAT     H1  829   9.979   7.792   8.814 -0.1455  0.9083 -1.1204
24756WAT     H2  830  10.052   7.831   8.687  0.6236  1.2220 -0.5826
24756WAT    EPW  831  10.023   7.851   8.767  0.0720  1.0507 -0.7386
24757WAT      O  832   5.550   4.264   2.368 -0.4460 -0.1471 -0.2581
24757WAT     H1  833   5.555   4.171   2.346  1.8376  0.0989 -1.0010
24757WAT     H2  834   5.635   4.300   2.342  0.1891  1.4371  3.3890
24757WAT    EPW  835   5.562   4.257   2.361 -0.0608  0.0944  0.1249
24758WAT      O  836   4.737   2.387   1.742  0.7872  0.0130  0.4285
24758WAT     H1  837   4.809   2.402   1.681  0.0121 -2.3188 -1.1950
24758WAT     H2  838   4.659   2.412   1.693  0.1846 -1.5284  0.5342
24758WAT    EPW  839   4.736   2.392   1.727  0.6056 -0.4979  0.2282
24759WAT      O  840   8.481   3.665   1.058 -0.2496  0.3606 -0.3857
24759WAT     H1  841   8.477   3.624   0.971  1.0030  1.8441 -1.1976
24759WAT     H2  842   8.533   3.603   1.110  0.8124  0.4240 -1.3168
24759WAT    EPW  843   8.488   3.651   1.053  0.0558  0.5646 -0.6156
24760WAT      O  844   2.942   2.309   1.976  0.3242  0.0630 -0.4947
24760WAT     H1  845   2.876   2.283   1.912  0.2314  1.9656 -1.2233
24760WAT     H2  846   2.979   2.390   1.941  0.0793  1.3207  1.9534
24760WAT    EPW  847   2.938   2.316   1.963  0.2798  0.4798 -0.2680
24761WAT      O  848   1.915   2.510   0.562  0.4715  0.1262  0.5416
24761WAT     H1  849   1.922   2.456   0.483 -0.2265  0.2121  0.4109
24761WAT     H2  850   1.821   2.513   0.580  0.3446  2.4528 -0.2481
24761WAT    EPW  851   1.903   2.503   0.554  0.3628  0.4444  0.4202
24762WAT      O  852   4.886   2.685   0.043 -0.6585  0.5915  0.3198
24762WAT     H1  853   4.908   2.760  -0.012 -0.9095  1.9322  1.9797
24762WAT     H2  854   4.837   2.722   0.117 -1.7038 -1.3381  0.6669
24762WAT    EPW  855   4.883   2.700   0.046 -0.8295  0.5138  0.5845
24763WAT      O  856   4.712   4.285   3.229  0.7184  0.0222 -0.3575
24763WAT     H1  857   4.786   4.331   3.267  1.2927 -0.1692 -1.2111
24763WAT     H2  858   4.638   4.306   3.286  0.9616  1.9511 -0.6814
24763WAT    EPW  859   4.712   4.294   3.241  0.8261  0.2513 -0.5130
24764WAT      O  860   0.227   5.319   6.808  0.4433  0.1489  0.0025
24764WAT     H1  861   0.141   5.279   6.793  0.7308 -1.0886  1.3957
24764WAT     H2  862   0.207   5.410   6.829 -0.3502  0.4103 -1.7164
24764WAT    EPW  863   0.213   5.326   6.809  0.3766  0.0200 -0.0405
24765WAT      O  864   3.255   5.355   4.262 -0.7265 -0.4655 -0.5078
24765WAT     H1  865   3.280   5.321   4.348  0.2349  0.5460 -0.3713
24765WAT     H2  866   3.164   5.327   4.251 -0.5033 -1.5935  0.3283
24765WAT    EPW  867   3.246   5.346   4.272 -0.5703 -0.4807 -0.3793
24766WAT      O  868   4.713   8.723   7.682 -0.2188 -0.0721  0.2456
24766WAT     H1  869   4.686   8.632   7.697 -1.7035  0.0888 -1.1624
24766WAT     H2  870   4.786   8.717   7.621  1.3159 -0.3869  2.0230
24766WAT    EPW  871   4.719   8.710   7.676 -0.2122 -0.0920  0.2944
24767WAT      O  872   6.824   1.890   0.778 -0.1554  0.0019 -0.2174
24767WAT     H1  873   6.822   1.803   0.740  0.4092  0.0771 -0.4200
24767WAT     H2  874   6.826   1.949   0.703 -0.8992  0.2062 -0.0870
24767WAT    EPW  875   6.824   1.886   0.763 -0.1791  0.0387 -0.2269
24768WAT      O  876   5.765   2.210   1.407 -0.1849 -0.3456 -0.4840
24768WAT     H1  877   5.807   2.133   1.369 -0.2453 -0.6146 -0.0101
24768WAT     H2  878   5.838   2.260   1.444 -0.1662 -0.2595 -0.6346
24768WAT    EPW  879   5.780   2.207   1.406 -0.1903 -0.3695 -0.4412
24769WAT      O  880   0.364   8.621   8.967  0.3277 -0.0301 -0.2516
24769WAT     H1  881   0.292   8.638   8.906  0.0516  0.3939  0.1867
24769WAT     H2  882   0.432   8.682   8.940  0.2774  0.0271 -0.2477
24769WAT    EPW  883   0.363   8.631   8.955  0.2846  0.0339 -0.1926
24770WAT      O  884   5.846   5.538   0.006 -0.0470 -0.2935  0.2730
24770WAT     H1  885   5.912   5.504   0.067 -0.7884  0.7038  1.6988
24770WAT     H2  886   5.763   5.500   0.038 -0.4556  0.2810 -0.0888
24770WAT    EPW  887   5.843   5.528   0.018 -0.1986 -0.0863  0.4133
24771WAT      O  888   1.221   2.224   2.510 -0.0855  0.0710  0.3676
24771WAT     H1  889   1.189   2.257   2.593 -1.9473  0.6398 -0.5257
24771WAT     H2  890   1.190   2.287   2.445 -0.7551 -1.5838 -0.9973
24771WAT    EPW  891   1.213   2.236   2.512 -0.4194 -0.0722  0.0696
24772WAT      O  892   9.166   9.397   8.678 -0.3157  0.0007 -0.4540
24772WAT     H1  893   9.221   9.429   8.607  3.2829 -0.7646  1.7688
24772WAT     H2  894   9.165   9.302   8.666 -2.5213  0.0585 -1.2626
24772WAT    EPW  895   9.173   9.389   8.667 -0.1316 -0.0920 -0.2675
24773WAT      O  896   5.082   6.693   2.164 -0.2568  0.4716 -0.2820
24773WAT     H1  897   5.033   6.646   2.231 -0.4900 -1.0805 -1.4868
24773WAT     H2  898   5.111   6.625   2.103  0.4060  1.7671 -1.4699
24773WAT    EPW  899   5.079   6.678   2.164 -0.2003  0.4375 -0.5976
24774WAT      O  900   0.514   9.378   8.749 -0.8848 -0.4796 -0.3906
24774WAT     H1  901   0.531   9.449   8.811  1.6879 -0.8133 -0.6031
24774WAT     H2  902   0.600   9.359   8.711 -1.2421 -4.3548  0.3304
24774WAT    EPW  903   0.528   9.385   8.752 -0.5926 -1.0347 -0.3238
24775WAT      O  904   3.389   0.917   0.149  0.1273  0.2760 -0.7699
24775WAT     H1  905   3.336   0.897   0.072  1.9226  0.4330 -2.1329
24775WAT     H2  906   3.415   1.008   0.138  0.7297  0.1880 -0.1975
24775WAT    EPW  907   3.386   0.926   0.137  0.4436  0.2851 -0.8742
24776WAT      O  908   7.578   1.554   1.822 -0.0273 -0.6028 -0.0619
24776WAT     H1  909   7.540   1.490   1.762 -0.0992 -0.3275 -0.3149
24776WAT     H2  910   7.563   1.517   1.909 -0.3408 -0.7860 -0.1912
24776WAT    EPW  911   7.571   1.541   1.825 -0.0784 -0.5906 -0.1123
24777WAT      O  912   7.932   2.162   1.128 -0.3124  0.3858 -1.0863
24777WAT     H1  913   7.841   2.163   1.159 -0.6629 -0.1676 -2.0445
24777WAT     H2  914   7.968   2.246   1.157 -1.3515  0.9310 -1.3206
24777WAT    EPW  915   7.925   2.173   1.136 -0.4954  0.3848 -1.2437
24778WAT      O  916   4.854   2.535   2.024  0.5038  0.1219  0.3163
24778WAT     H1  917   4.854   2.631   2.016 -0.1059  0.3052  2.0584
24778WAT     H2  918   4.946   2.510   2.011  0.8373  1.0519  0.7644
24778WAT    EPW  919   4.866   2.544   2.021  0.4673  0.2688  0.6053
24779WAT      O  920   5.784   0.632   1.844 -0.6974  0.3621  0.1149
24779WAT     H1  921   5.791   0.576   1.766 -0.2443  0.3821  0.1345
24779WAT     H2  922   5.838   0.709   1.822  0.4336 -0.1740  0.9081
24779WAT    EPW  923   5.792   0.635   1.831 -0.4883  0.2941  0.2221
24780WAT      O  924   3.762   3.991   0.767 -0.6198  0.0430  0.1945
24780WAT     H1  925   3.805   3.981   0.851  1.1605 -2.8192 -0.9280
24780WAT     H2  926   3.821   4.047   0.717 -1.1918  0.9336  0.4889
24780WAT    EPW  927   3.775   3.997   0.771 -0.4605 -0.2172  0.0853
24781WAT      O  928  10.663   1.679   7.656  0.5408 -0.0619  0.3559
24781WAT     H1  929  10.737   1.738   7.673  0.8647  0.2944 -1.9950
24781WAT     H2  930  10.620   1.670   7.741  1.8676  1.6561  1.2819
24781WAT    EPW  931  10.667   1.685   7.669  0.7582  0.2118  0.1681
24782WAT      O  932   5.112   3.626   3.737  0.4851  0.0464 -0.1008
24782WAT     H1  933   5.202   3.594   3.723  0.4480  0.0813 -0.4492
24782WAT     H2  934   5.122   3.721   3.741  0.4633  0.0520 -0.1683
24782WAT    EPW  935   5.125   3.635   3.735  0.4773  0.0517 -0.1556
24783WAT      O  936   5.173   2.856   0.794 -0.8598  0.1486  0.5397
24783WAT     H1  937   5.160   2.764   0.771 -2.6586  0.6160 -0.5406
24783WAT     H2  938   5.254   2.857   0.844 -0.5931 -1.9672  0.2484
24783WAT    EPW  939   5.182   2.844   0.797 -1.0617 -0.0688  0.3588
24784WAT      O  940   4.889   2.167   1.134 -0.7882  0.3406  0.3984
24784WAT     H1  941   4.956   2.147   1.200 -0.6547 -1.0181 -0.1138
24784WAT     H2  942   4.811   2.189   1.186 -0.1897  1.0871  0.9977
24784WAT    EPW  943   4.887   2.167   1.150 -0.6917  0.2599  0.4100
24785WAT      O  944   6.839   4.406   0.670 -0.3110 -0.1122  0.2051
24785WAT     H1  945   6.866   4.320   0.636 -1.1678 -0.2939 -0.0432
24785WAT     H2  946   6.744   4.401   0.672 -0.4060  1.1026 -0.5015
24785WAT    EPW  947   6.830   4.394   0.666 -0.4365  0.0243  0.0792
24786WAT      O  948   7.453   1.454   2.653 -0.1524 -0.6273 -1.1882
24786WAT     H1  949   7.458   1.549   2.662 -2.6777 -0.4422 -0.8847
24786WAT     H2  950   7.489   1.436   2.566 -2.2347  1.0008 -2.5037
24786WAT    EPW  951   7.458   1.464   2.643 -0.7601 -0.3881 -1.3217
24787WAT      O  952   8.285   9.742   7.569 -0.1122 -0.5819 -0.2095
24787WAT     H1  953   8.353   9.690   7.612 -0.0539  0.6576  1.2748
24787WAT     H2  954   8.205   9.721   7.616 -0.4618 -0.8029 -0.8912
24787WAT    EPW  955   8.283   9.733   7.581 -0.1507 -0.4473 -0.1037
24788WAT      O  956   8.079   9.930   7.498 -0.1216 -0.4828  0.2382
24788WAT     H1  957   8.120  10.016   7.508 -0.8553 -0.1965  0.8122
24788WAT     H2  958   8.152   9.868   7.504  0.4343  0.1030 -0.3539
24788WAT    EPW  959   8.094   9.933   7.500 -0.1450 -0.3676  0.2360
24789WAT      O  960   5.861   3.799   2.669  0.3391 -0.5623 -0.3002
24789WAT     H1  961   5.870   3.797   2.764 -0.3524  1.9642 -0.0988
24789WAT     H2  962   5.767   3.789   2.653  0.3194  0.0685 -0.6255
24789WAT    EPW  963   5.850   3.797   2.679  0.2456 -0.1458 -0.3165
24790WAT      O  964   7.801   3.032   5.588 -0.2784  0.2984  0.6407
24790WAT     H1  965   7.798   3.081   5.670  0.7613  1.5420 -0.0375
24790WAT     H2  966   7.762   3.091   5.523  0.4506 -0.0000 -0.0796
24790WAT    EPW  967   7.795   3.046   5.590 -0.0451  0.4231  0.4561
24791WAT      O  968   0.019   8.878   7.949  0.2925  0.4477 -0.9483
24791WAT     H1  969   0.069   8.959   7.953  1.0646 -0.0789  0.7967
24791WAT     H2  970  -0.067   8.900   7.985  1.1263  0.1139  1.4458
24791WAT    EPW  971   0.014   8.892   7.954  0.5040  0.3347 -0.4027
24792WAT      O  972   6.558   6.007   2.443  0.4793  0.8155  0.0119
24792WAT     H1  973   6.593   5.956   2.370  3.0471  1.1244  0.9114
24792WAT     H2  974   6.563   5.948   2.518  0.6148  1.4296  0.4921
24792WAT    EPW  975   6.563   5.993   2.444  0.8357  0.9372  0.1938
24793WAT      O  976   5.291   5.134   0.852 -0.3471 -0.0878  0.0039
24793WAT     H1  977   5.198   5.118   0.839  0.2937 -2.5878 -2.3905
24793WAT     H2  978   5.322   5.167   0.768  1.1000 -0.1904  0.4707
24793WAT    EPW  979   5.283   5.136   0.839 -0.0718 -0.4311 -0.2503
24794WAT      O  980   6.616   5.948   1.760  0.1254 -0.2724  0.1423
24794WAT     H1  981   6.619   6.031   1.808 -0.2599 -0.0284 -0.2427
24794WAT     H2  982   6.706   5.916   1.761  0.8416  1.4360 -1.8940
24794WAT    EPW  983   6.628   5.955   1.766  0.1690 -0.0148 -0.1771
24795WAT      O  984   7.401   4.209   2.442 -0.2033  0.1421 -0.4540
24795WAT     H1  985   7.407   4.249   2.529  0.4241  0.4284 -0.6166
24795WAT     H2  986   7.308   4.189   2.431 -0.4180  0.8625 -0.0546
24795WAT    EPW  987   7.390   4.212   2.452 -0.1490  0.2747 -0.4227
24796WAT      O  988   0.615   0.145   8.898  0.2614  0.0979 -0.0116
24796WAT     H1  989   0.581   0.228   8.864  1.2119  1.6029  2.4589
24796WAT     H2  990   0.707   0.163   8.916  0.7102 -1.8057 -0.2059
24796WAT    EPW  991   0.623   0.158   8.896  0.4460  0.0453  0.2885
24797WAT      O  992   8.735   3.458   6.021  0.1396  0.2201  0.1189
24797WAT     H1  993   8.733   3.541   5.974  0.6024  0.2890  0.2136
24797WAT     H2  994   8.652   3.415   5.999 -0.2767  0.8801  0.3850
24797WAT    EPW  995   8.724   3.463   6.012  0.1459  0.3161  0.1662
24798WAT      O  996   7.315   6.384   0.648  0.3218  0.4120 -0.0788
24798WAT     H1  997   7.360   6.468   0.660  2.3517 -0.5626 -0.3485
24798WAT     H2  998   7.241   6.387   0.708  2.1579  1.1638  2.2918
24798WAT    EPW  999   7.311   6.395   0.658  0.8318  0.3827  0.1982
24799WAT      O 1000   9.668   4.800   1.871 -0.3168  0.0939  0.0660
24799WAT     H1 1001   9.711   4.771   1.790  0.1844 -1.0100  0.7031
24799WAT     H2 1002   9.683   4.895   1.874 -0.3990  0.1611 -1.1579
24799WAT    EPW 1003   9.676   4.809   1.861 -0.2613 -0.0427 -0.0114
24800WAT      O 1004   8.166   9.137   8.013 -0.1231  0.3298  0.4354
24800WAT     H1 1005   8.145   9.058   7.962 -0.4357  0.5014  0.2957
24800WAT     H2 1006   8.111   9.130   8.091 -3.0105  2.2166 -1.2470
24800WAT    EPW 1007   8.156   9.125   8.017 -0.5450  0.6008  0.1950
24801WAT      O 1008   7.471   6.455   0.030  0.9770  0.0444  0.2404
24801WAT     H1 1009   7.397   6.400   0.007 -0.6178  1.2809  2.0506
24801WAT     H2 1010   7.535   6.396   0.069  0.1154 -0.7950  0.4040
24801WAT    EPW 1011   7.470   6.440   0.032  0.6530  0.0969  0.5002
24802WAT      O 1012   6.345   2.672   4.111  0.1051 -0.3338 -0.3692
24802WAT     H1 1013   6.392   2.745   4.071  0.7383 -0.4534  0.1476
24802WAT     H2 1014   6.323   2.614   4.038 -1.1580  0.7647 -0.9212
24802WAT    EPW 1015   6.348   2.674   4.096  0.0224 -0.2048 -0.3738
24803WAT      O 1016   7.819   4.858   1.939  0.1564  1.2431 -0.0675
24803WAT     H1 1017   7.726   4.877   1.925 -0.5769 -2.6346 -1.7719
24803WAT     H2 1018   7.862   4.886   1.859 -0.4798 -1.3540 -1.4256
24803WAT    EPW 1019   7.812   4.864   1.927 -0.0241  0.3893 -0.4714
24804WAT      O 1020   7.645   9.953   8.773 -0.3854 -0.3667  0.1231
24804WAT     H1 1021   7.733   9.974   8.803 -1.5136  0.9654  2.8202
24804WAT     H2 1022   7.635  10.001   8.691  1.8598 -1.8222 -1.1104
24804WAT    EPW 1023   7.655   9.962   8.766 -0.2382 -0.3834  0.3166
24805WAT      O 1024   7.549   2.407   2.855 -0.0575  0.7883  0.2510
24805WAT     H1 1025   7.516   2.495   2.874  3.6902  2.0357  2.0405
24805WAT     H2 1026   7.482   2.348   2.890 -1.8421  2.9300  0.6731
24805WAT    EPW 1027   7.536   2.411   2.862  0.2015  1.2351  0.5426
24806WAT      O 1028   5.820   3.204   0.850 -0.2742 -0.1011 -0.4453
24806WAT     H1 1029   5.887   3.215   0.783  0.2059  0.7892  0.1788
24806WAT     H2 1030   5.766   3.282   0.844  0.3890  0.4872  0.8894
24806WAT    EPW 1031   5.821   3.216   0.840 -0.1235  0.0941 -0.1869
24807WAT      O 1032   5.311   1.797   1.249 -0.4856  0.1046 -0.1434
24807WAT     H1 1033   5.291   1.817   1.158 -1.7200 -1.4229 -0.2502
24807WAT     H2 1034   5.261   1.862   1.299 -1.6107 -0.4456 -0.5259
24807WAT    EPW 1035   5.302   1.808   1.244 -0.7968 -0.1695 -0.2080
24808WAT      O 1036   7.048   3.142   0.776  0.2525 -0.0496 -0.5116
24808WAT     H1 1037   7.093   3.186   0.705 -0.5188 -0.5326 -1.3266
24808WAT     H2 1038   6.980   3.203   0.804 -0.7835 -0.6507 -1.6069
24808WAT    EPW 1039   7.045   3.156   0.771  0.0141 -0.1926 -0.7636
24809WAT      O 1040   4.259   5.292   3.394  0.0649 -0.1949 -0.2136
24809WAT     H1 1041   4.305   5.308   3.311 -0.4318 -1.7452 -0.8275
24809WAT     H2 1042   4.329   5.276   3.457  0.4263 -1.1760 -0.8360
24809WAT    EPW 1043   4.274   5.292   3.391  0.0472 -0.5288 -0.3766
24810WAT      O 1044   2.821   5.730   4.048 -0.1246  0.0611 -0.0281
24810WAT     H1 1045   2.820   5.642   4.011  1.3767 -0.5463  1.2225
24810WAT     H2 1046   2.742   5.772   4.015 -1.3703 -2.0696  0.0762
24810WAT    EPW 1047   2.811   5.724   4.039 -0.0907 -0.2997  0.1504
24811WAT      O 1048   2.424   1.089   7.729 -0.3511 -0.2202 -0.9627
24811WAT     H1 1049   2.355   1.023   7.730 -1.9927  1.3615  1.8910
24811WAT     H2 1050   2.505   1.039   7.738 -1.5942 -1.9118  2.2768
24811WAT    EPW 1051   2.426   1.074   7.730 -0.7315 -0.2347 -0.1593
24812WAT      O 1052   5.328   7.059   2.070 -0.2871 -0.4294 -0.1799
24812WAT     H1 1053   5.304   7.148   2.097 -0.4456 -0.7204  0.6674
24812WAT     H2 1054   5.359   7.018   2.151  1.4107 -0.6138 -0.8926
24812WAT    EPW 1055   5.329   7.065   2.084 -0.0842 -0.4921 -0.1620
24813WAT      O 1056   7.045   8.866   0.268  0.0301 -0.4691  0.4753
24813WAT     H1 1057   7.085   8.949   0.243  1.0701 -0.4978  1.9177
24813WAT     H2 1058   6.959   8.867   0.227  0.9564  0.2204 -1.5745
24813WAT    EPW 1059   7.039   8.877   0.259  0.2894 -0.3819  0.3952
24814WAT      O 1060   5.938   5.032   4.028  0.2487 -0.8528 -0.5275
24814WAT     H1 1061   5.989   5.112   4.043 -0.2377 -0.8500  1.3271
24814WAT     H2 1062   5.889   5.020   4.109 -1.9269 -1.4257 -1.8620
24814WAT    EPW 1063   5.939   5.041   4.041 -0.1023 -0.9279 -0.4590
24815WAT      O 1064   6.205   3.125   1.587  0.2654  0.4138 -0.2583
24815WAT     H1 1065   6.224   3.205   1.637 -0.9513  1.2868 -1.1595
24815WAT     H2 1066   6.291   3.082   1.577  1.0309  1.8901 -0.2540
24815WAT    EPW 1067   6.219   3.129   1.593  0.2058  0.7237 -0.3767
24816WAT      O 1068   4.843   1.898   2.550 -0.1780  0.2510  0.6470
24816WAT     H1 1069   4.912   1.963   2.559  0.2157  0.1895 -1.3566
24816WAT     H2 1070   4.890   1.815   2.536 -0.6337  0.0976 -0.0403
24816WAT    EPW 1071   4.858   1.895   2.549 -0.1860  0.2227  0.2921
24817WAT      O 1072   5.151   2.982   3.667 -0.0881 -0.2462 -0.1672
24817WAT     H1 1073   5.236   2.982   3.710 -0.1192 -0.9117 -0.1052
24817WAT     H2 1074   5.088   2.981   3.739 -0.1484 -2.9481 -0.1803
24817WAT    EPW 1075   5.154   2.982   3.683 -0.1004 -0.6903 -0.1608
24818WAT      O 1076   7.521   3.279   3.548 -0.0095  0.4980  0.2257
24818WAT     H1 1077   7.496   3.189   3.525  0.5371 -0.4215  2.8524
24818WAT     H2 1078   7.438   3.323   3.565 -0.2370  0.2503 -0.2111
24818WAT    EPW 1079   7.507   3.273   3.547  0.0327  0.3442  0.5144
24819WAT      O 1080   2.741   2.720   2.595  0.4080 -0.0045  0.3871
24819WAT     H1 1081   2.681   2.729   2.520 -1.4793 -0.8774  1.7007
24819WAT     H2 1082   2.775   2.631   2.587  2.4795  0.8157 -0.9326
24819WAT    EPW 1083   2.737   2.709   2.584  0.4323 -0.0114  0.3864
24820WAT      O 1084   7.200   6.293   3.855  0.4499  0.2267 -0.5561
24820WAT     H1 1085   7.277   6.297   3.912  0.2944  1.4984 -0.4121
24820WAT     H2 1086   7.132   6.340   3.904 -0.0630  0.1809 -1.2134
24820WAT    EPW 1087   7.201   6.300   3.869  0.3617  0.3884 -0.6238
24821WAT      O 1088   4.841   5.540   1.765  0.0110  0.3695 -0.4031
24821WAT     H1 1089   4.823   5.499   1.680 -0.7073  0.8687 -0.5033
24821WAT     H2 1090   4.925   5.583   1.754 -0.5976  1.4160 -1.2536
24821WAT    EPW 1091   4.850   5.540   1.752 -0.1640  0.5736 -0.5285
24822WAT      O 1092   6.807   4.043   1.777 -0.5724  0.0184 -0.8556
24822WAT     H1 1093   6.765   4.110   1.723  0.1837  0.9147 -0.3716
24822WAT     H2 1094   6.802   4.078   1.866  2.0841  0.6894 -0.8730
24822WAT    EPW 1095   6.801   4.057   1.782 -0.1223  0.2251 -0.7941
24823WAT      O 1096   9.190  10.260   8.093  0.1695 -0.7038 -0.6362
24823WAT     H1 1097   9.230  10.328   8.146 -1.6511  0.0478 -0.1523
24823WAT     H2 1098   9.258  10.236   8.030  0.8075  1.7467 -0.9994
24823WAT    EPW 1099   9.204  10.266   8.092  0.0134 -0.2813 -0.6204
24824WAT      O 1100  10.825   7.016   6.167 -0.0936  0.0954 -0.2207
24824WAT     H1 1101  10.838   6.928   6.202 -3.4162 -0.8063 -0.9329
24824WAT     H2 1102  10.764   7.005   6.094 -2.5911  3.1935  1.1422
24824WAT    EPW 1103  10.819   7.003   6.162 -0.8612  0.3850 -0.1347
24825WAT      O 1104   9.738   7.274   4.738 -0.4025  0.2953 -0.8437
24825WAT     H1 1105   9.741   7.277   4.642  1.7097  0.3200 -0.8119
24825WAT     H2 1106   9.653   7.234   4.758 -0.5155 -0.4913 -2.7343
24825WAT    EPW 1107   9.727   7.269   4.728 -0.1383  0.1945 -1.0889
24826WAT      O 1108  10.583   7.532   6.854 -0.4476 -0.1727 -0.2005
24826WAT     H1 1109  10.668   7.545   6.895 -1.3842  2.0877  1.1972
24826WAT     H2 1110  10.596   7.457   6.796  1.9366 -1.1842  1.4684
24826WAT    EPW 1111  10.596   7.523   6.852 -0.2570 -0.0081  0.2038
24827WAT      O 1112   5.231   1.894   3.393 -0.7784  0.0564 -0.1503
24827WAT     H1 1113   5.306   1.898   3.452 -0.7177 -0.2547 -0.2044
24827WAT     H2 1114   5.257   1.832   3.325  0.3795  2.6442 -2.2389
24827WAT    EPW 1115   5.244   1.886   3.392 -0.6175  0.3567 -0.4330
24828WAT      O 1116   6.794   1.917   3.530  0.3724 -0.4868 -0.0342
24828WAT     H1 1117   6.818   1.835   3.486 -1.4692 -0.6456 -0.8460
24828WAT     H2 1118   6.721   1.952   3.478  0.0455  0.8250  1.2383
24828WAT    EPW 1119   6.787   1.910   3.518  0.0863 -0.3348  0.0265
24829WAT      O 1120  10.871   6.995   7.682  0.0655 -0.1237 -0.0681
24829WAT     H1 1121  10.791   7.034   7.716  1.1948  0.9863  1.4011
24829WAT     H2 1122  10.929   7.069   7.666  0.8720 -0.9276 -0.9819
24829WAT    EPW 1123  10.868   7.010   7.684  0.3209 -0.0832  0.0050
24830WAT      O 1124   3.029   4.308   1.109 -0.2396  0.8858 -0.2236
24830WAT     H1 1125   3.115   4.350   1.112  0.0934  0.2126  1.9573
24830WAT     H2 1126   3.048   4.215   1.093 -0.6211  0.8714 -0.6003
24830WAT    EPW 1127   3.043   4.301   1.108 -0.2460  0.7951  0.0143
24831WAT      O 1128   5.110   6.840   2.797 -0.3731 -0.2117 -0.0691
24831WAT     H1 1129   5.176   6.808   2.736  1.4336 -4.2667  3.5300
24831WAT     H2 1130   5.057   6.763   2.817 -1.0290  0.9232  3.1810
24831WAT    EPW 1131   5.111   6.825   2.791 -0.2215 -0.5970  0.8343
24832WAT      O 1132   4.787   3.857   5.214  0.1518  0.6269  0.2304
24832WAT     H1 1133   4.713   3.837   5.157  0.7979  0.5251 -0.5883
24832WAT     H2 1134   4.849   3.786   5.200  0.9837  1.3979 -0.1241
24832WAT    EPW 1135   4.785   3.845   5.205  0.3469  0.7151  0.0758
24833WAT      O 1136   3.997   4.498   2.181  0.0237  0.0845  0.4051
24833WAT     H1 1137   3.908   4.477   2.208  0.4928 -0.9884  1.1793
24833WAT     H2 1138   3.995   4.492   2.085 -0.2537 -2.0232  0.4952
24833WAT    EPW 1139   3.985   4.495   2.172  0.0490 -0.3350  0.5189
24834WAT      O 1140   7.511   6.932   2.649 -0.1646 -0.4491 -0.3587
24834WAT     H1 1141   7.460   7.005   2.614 -0.0870 -0.4132 -0.3951
24834WAT     H2 1142   7.474   6.854   2.607 -0.4502 -0.4626 -0.0930
24834WAT    EPW 1143   7.499   6.931   2.639 -0.1919 -0.4463 -0.3285
24835WAT      O 1144   5.660   6.286   3.689  0.2701 -0.0135 -0.4548
24835WAT     H1 1145   5.658   6.359   3.627 -1.1761 -0.0816 -0.5165
24835WAT     H2 1146   5.695   6.324   3.770  1.2922  0.2918 -1.0243
24835WAT    EPW 1147   5.665   6.300   3.692  0.2139  0.0179 -0.5380
24836WAT      O 1148   7.367   2.555   4.803 -0.1230  0.5739  0.7733
24836WAT     H1 1149   7.317   2.586   4.879  1.5406  3.3876  0.8428
24836WAT     H2 1150   7.304   2.558   4.731 -1.7201 -2.1158  1.8669
24836WAT    EPW 1151   7.352   2.559   4.803 -0.1142  0.5902  0.9267
24837WAT      O 1152   5.945   1.610   5.219 -0.4881 -0.0969 -0.4302
24837WAT     H1 1153   6.031   1.653   5.216 -0.5271 -0.0442 -1.0784
24837WAT     H2 1154   5.882   1.680   5.203 -0.5810 -0.3032 -1.0129
24837WAT    EPW 1155   5.948   1.625   5.216 -0.5057 -0.1172 -0.5922
24838WAT      O 1156   7.496   4.198   2.175 -0.2707  0.1766  0.3521
24838WAT     H1 1157   7.470   4.275   2.124  5.2276  3.1410  1.2005
24838WAT     H2 1158   7.473   4.220   2.265 -2.6886 -1.4414  0.2426
24838WAT    EPW 1159   7.489   4.211   2.180  0.1354  0.3543  0.4497
24839WAT      O 1160   8.432   5.215   1.809 -0.1159 -0.2144 -0.2672
24839WAT     H1 1161   8.451   5.278   1.739  0.7446 -1.1946 -0.9328
24839WAT     H2 1162   8.346   5.241   1.842 -1.1014 -0.4720 -2.5165
24839WAT    EPW 1163   8.423   5.227   1.804 -0.1321 -0.3779 -0.6517
24840WAT      O 1164   5.591   4.929   1.848 -0.0666  0.5100 -0.4034
24840WAT     H1 1165   5.652   4.984   1.800  0.6239  2.1965  2.1668
24840WAT     H2 1166   5.599   4.843   1.808  1.9806  1.3088 -1.8771
24840WAT    EPW 1167   5.600   4.925   1.837  0.2947  0.8376 -0.2588
24841WAT      O 1168   5.328   1.713   4.438 -0.6142 -0.4902  0.9765
24841WAT     H1 1169   5.404   1.742   4.489 -1.1003  0.5712  1.1161
24841WAT     H2 1170   5.334   1.617   4.440 -0.4520 -0.4814  2.7794
24841WAT    EPW 1171   5.339   1.704   4.445 -0.6571 -0.3490  1.2329
24842WAT      O 1172   5.257   9.323   1.366  0.0656  0.0506  0.3949
24842WAT     H1 1173   5.327   9.389   1.362 -1.0458  1.2790  0.3744
24842WAT     H2 1174   5.275   9.265   1.292 -0.3842  1.8894 -1.2567
24842WAT    EPW 1175   5.269   9.324   1.356 -0.1404  0.4544  0.1744
24843WAT      O 1176   4.531   5.084   0.298 -0.6073  0.4091  0.4730
24843WAT     H1 1177   4.459   5.147   0.299 -2.8046 -1.8907 -0.8419
24843WAT     H2 1178   4.554   5.071   0.390 -0.6587  2.4366  0.8006
24843WAT    EPW 1179   4.525   5.090   0.310 -0.9041  0.3734  0.3428
24844WAT      O 1180   7.688   2.855   2.803  0.7618 -0.0219 -0.3183
24844WAT     H1 1181   7.704   2.814   2.717  3.2343 -1.2964  0.6516
24844WAT     H2 1182   7.613   2.807   2.838  3.2824 -3.7455  0.5878
24844WAT    EPW 1183   7.680   2.843   2.796  1.4205 -0.6812 -0.0708
24845WAT      O 1184   7.483   3.785   0.793 -0.2848 -0.4909 -0.2518
24845WAT     H1 1185   7.502   3.697   0.826  2.5990 -0.6191 -1.9033
24845WAT     H2 1186   7.558   3.837   0.821 -0.7014  0.8095 -1.4693
24845WAT    EPW 1187   7.495   3.780   0.801  0.0403 -0.3363 -0.6302
24846WAT      O 1188   2.929   0.681   8.096  0.0988  0.6930  0.1931
24846WAT     H1 1189   2.916   0.763   8.049  1.4383  0.4948 -0.5646
24846WAT     H2 1190   3.017   0.652   8.071  0.0829 -0.4198  1.3005
24846WAT    EPW 1191   2.939   0.688   8.087  0.2735  0.5201  0.2394
24847WAT      O 1192   6.534   5.212   3.541  0.1208 -0.5824 -0.2446
24847WAT     H1 1193   6.540   5.252   3.628  2.6837 -1.6579  0.1751
24847WAT     H2 1194   6.501   5.124   3.558 -0.0182 -0.5668 -0.4418
24847WAT    EPW 1195   6.531   5.206   3.555  0.4404 -0.7219 -0.2152
24848WAT      O 1196   3.102   4.283   2.855  0.3303 -0.4845  0.5285
24848WAT     H1 1197   3.154   4.215   2.810 -0.4109  0.1691 -1.4315
24848WAT     H2 1198   3.026   4.296   2.798  0.6631  2.2959  0.5723
24848WAT    EPW 1199   3.099   4.276   2.841  0.2763 -0.0317  0.2759
24849WAT      O 1200  10.585   4.087   0.527 -0.1950  0.7608  1.0929
24849WAT     H1 1201  10.646   4.157   0.553 -0.1962  0.2685  2.5024
24849WAT     H2 1202  10.603   4.074   0.434  0.3197  2.1286  0.9728
24849WAT    EPW 1203  10.596   4.095   0.518 -0.1273  0.8764  1.2629
24850WAT      O 1204   3.493   3.986   1.169 -0.0023  0.3365 -0.1431
24850WAT     H1 1205   3.419   4.032   1.130 -0.8573 -0.2416  0.7682
24850WAT     H2 1206   3.454   3.927   1.234  1.3910  1.3620  1.7080
24850WAT    EPW 1207   3.478   3.984   1.172  0.0687  0.3954  0.2213
24851WAT      O 1208   5.069   5.273   0.134  0.2979 -0.3182  0.3222
24851WAT     H1 1209   5.065   5.183   0.167 -3.1739  0.7566  3.4188
24851WAT     H2 1210   5.105   5.324   0.206 -1.8663  1.3294  0.3173
24851WAT    EPW 1211   5.073   5.268   0.148 -0.4456  0.0408  0.7300
24852WAT      O 1212   8.515   4.647   5.227 -0.7229  0.3302 -0.0726
24852WAT     H1 1213   8.434   4.695   5.247 -0.5708  0.0382  1.3645
24852WAT     H2 1214   8.553   4.695   5.154 -2.2025  0.4614 -0.7999
24852WAT    EPW 1215   8.509   4.660   5.220 -0.8979  0.3088  0.0210
24853WAT      O 1216   1.739   3.819   3.536  0.0090 -0.2331 -0.6831
24853WAT     H1 1217   1.770   3.776   3.616 -3.5421 -1.7215  0.0964
24853WAT     H2 1218   1.733   3.912   3.560 -2.4143 -0.8169  1.4701
24853WAT    EPW 1219   1.742   3.826   3.550 -0.7790 -0.5063 -0.2962
24854WAT      O 1220   3.592   5.219   0.163 -0.0119  0.2277  0.3650
24854WAT     H1 1221   3.611   5.273   0.085  2.7233 -1.2938 -0.1367
24854WAT     H2 1222   3.612   5.130   0.136 -3.2593 -1.0061  1.5595
24854WAT    EPW 1223   3.597   5.215   0.149 -0.0794 -0.1359  0.4564
24855WAT      O 1224   6.121   5.657   3.033 -0.3342 -0.3012 -0.4140
24855WAT     H1 1225   6.197   5.714   3.027 -0.5750 -0.0783 -1.4780
24855WAT     H2 1226   6.158   5.569   3.046  0.1778 -0.3663 -2.0628
24855WAT    EPW 1227   6.136   5.653   3.034 -0.2987 -0.2806 -0.7719
24856WAT      O 1228   3.871   3.276   0.562 -0.4938 -0.0994 -0.4336
24856WAT     H1 1229   3.961   3.306   0.547 -0.3582 -1.3731 -2.5301
24856WAT     H2 1230   3.826   3.353   0.598  1.2907  0.6880  0.2487
24856WAT    EPW 1231   3.877   3.290   0.565 -0.2406 -0.1637 -0.6201
24857WAT      O 1232  10.005   5.892   1.239  0.3670 -0.2667 -0.0930
24857WAT     H1 1233   9.979   5.911   1.149 -0.6870  2.1869  0.6315
24857WAT     H2 1234  10.089   5.846   1.231 -0.4592 -1.5350 -2.3220
24857WAT    EPW 1235  10.013   5.889   1.226  0.1187 -0.1106 -0.2915
24858WAT      O 1236   8.433   7.401   0.821  0.1858 -0.0988  0.4207
24858WAT     H1 1237   8.499   7.346   0.778  1.4416  1.4222  0.3237
24858WAT     H2 1238   8.362   7.407   0.756  0.9995  0.1904 -0.4726
24858WAT    EPW 1239   8.432   7.394   0.806  0.4587  0.1400  0.2901
24859WAT      O 1240   3.296   2.892   1.181 -0.1736  0.2064  0.0218
24859WAT     H1 1241   3.233   2.899   1.253 -0.1816 -3.1551  0.5087
24859WAT     H2 1242   3.247   2.920   1.104 -0.0828  4.1473  1.1874
24859WAT    EPW 1243   3.281   2.896   1.180 -0.1628  0.2829  0.2398
24860WAT      O 1244   1.692   4.130   2.737 -0.1784 -0.6499 -0.1673
24860WAT     H1 1245   1.637   4.072   2.684 -2.1180  0.3595  0.6839
24860WAT     H2 1246   1.715   4.077   2.814  0.1859 -1.1189 -0.5881
24860WAT    EPW 1247   1.688   4.115   2.740 -0.3862 -0.5789 -0.1104
24861WAT      O 1248   2.367   0.002   5.343  0.4050  0.3269  0.3381
24861WAT     H1 1249   2.450  -0.020   5.301  0.2902 -0.6378  0.5834
24861WAT     H2 1250   2.301  -0.018   5.277  0.2986 -0.0168  0.5480
24861WAT    EPW 1251   2.369  -0.004   5.329  0.3762  0.1540  0.3979
24862WAT      O 1252   7.899   2.314   0.771 -0.5396  0.3209  0.2246
24862WAT     H1 1253   7.932   2.333   0.683  0.0132  0.1758  0.3953
24862WAT     H2 1254   7.843   2.389   0.793  0.5756  1.1412  0.3728
24862WAT    EPW 1255   7.896   2.327   0.763 -0.3197  0.4098  0.2667
24863WAT      O 1256   3.374   4.851   3.653 -0.3743 -0.3370 -0.1180
24863WAT     H1 1257   3.335   4.849   3.566 -0.1835 -2.3044 -0.2134
24863WAT     H2 1258   3.453   4.797   3.645  0.2565  0.3621  1.0162
24863WAT    EPW 1259   3.379   4.843   3.640 -0.2660 -0.5043  0.0191
24864WAT      O 1260   3.332   6.074   2.024 -0.5459  0.5153  0.3809
24864WAT     H1 1261   3.325   6.073   2.119  1.1127  0.1361  0.5272
24864WAT     H2 1262   3.329   6.167   2.001 -2.1765  0.5711  0.6540
24864WAT    EPW 1263   3.331   6.086   2.033 -0.5422  0.4725  0.4362
24865WAT      O 1264   9.449   9.956   8.044 -0.3428  0.7040 -0.1640
24865WAT     H1 1265   9.545   9.954   8.043 -0.3186  1.3826 -1.3492
24865WAT     H2 1266   9.427  10.032   7.991 -1.5605 -0.1361 -0.9058
24865WAT    EPW 1267   9.459   9.966   8.037 -0.5002  0.6828 -0.4182
24866WAT      O 1268   7.525   6.227   3.449  0.0313  0.2502 -0.2385
24866WAT     H1 1269   7.599   6.216   3.508  0.6594  1.8410 -0.6822
24866WAT     H2 1270   7.459   6.166   3.482  1.9715 -2.2239 -0.6214
24866WAT    EPW 1271   7.526   6.217   3.461  0.3698  0.1335 -0.3475
24867WAT      O 1272   2.109   4.576   2.583  0.0909  0.0863  0.2856
24867WAT     H1 1273   2.017   4.586   2.559  0.5186  0.2018 -1.4951
24867WAT     H2 1274   2.110   4.506   2.648 -1.6972  2.9858  3.8044
24867WAT    EPW 1275   2.097   4.568   2.588 -0.0885  0.4840  0.5147
24868WAT      O 1276   2.663   5.747   1.172  0.4661 -0.1477  0.0886
24868WAT     H1 1277   2.686   5.701   1.091  1.6354  0.8764 -0.2005
24868WAT     H2 1278   2.742   5.796   1.195 -0.5760  1.3686  0.6091
24868WAT    EPW 1279   2.677   5.747   1.164  0.4829  0.1874  0.1191
24869WAT      O 1280   2.273   8.496   2.424 -0.2059 -0.2859 -1.1088
24869WAT     H1 1281   2.198   8.490   2.482 -0.6571  0.2585 -1.6293
24869WAT     H2 1282   2.239   8.535   2.344  0.7241  0.4189 -1.1807
24869WAT    EPW 1283   2.259   8.500   2.421 -0.1427 -0.1206 -1.1868
24870WAT      O 1284   4.911   5.164   2.075 -0.6858 -0.2371  0.3747
24870WAT     H1 1285   4.880   5.244   2.033 -0.0059 -0.1165  0.0876
24870WAT     H2 1286   4.835   5.131   2.123 -2.1315 -1.5282 -2.6032
24870WAT    EPW 1287   4.897   5.171   2.076 -0.7868 -0.3912 -0.0559
24871WAT      O 1288   6.545   1.124   6.166  0.9692  0.0769 -0.1210
24871WAT     H1 1289   6.517   1.110   6.075  1.1748  0.0446 -0.1809
24871WAT     H2 1290   6.494   1.199   6.196  0.3809 -0.3477 -0.0340
24871WAT    EPW 1291   6.535   1.132   6.158  0.9189  0.0167 -0.1173
24872WAT      O 1292   7.838   9.756   7.546  0.2866  0.1584  0.0434
24872WAT     H1 1293   7.883   9.709   7.616 -0.2595 -0.1624  0.1830
24872WAT     H2 1294   7.890   9.835   7.533  0.5740  0.0610  0.5852
24872WAT    EPW 1295   7.851   9.760   7.554  0.2525  0.1030  0.1333
24873WAT      O 1296   4.528   1.076   7.250  0.3101  0.2655  0.4291
24873WAT     H1 1297   4.596   1.138   7.278  1.4570 -1.5914  2.0401
24873WAT     H2 1298   4.459   1.085   7.315 -0.0401  0.6338  0.0136
24873WAT    EPW 1299   4.528   1.085   7.262  0.4151  0.0692  0.5867
24874WAT      O 1300   6.763   4.980   3.994  0.5063  0.2796  0.3925
24874WAT     H1 1301   6.733   4.929   3.919  4.8135 -1.7426 -0.2463
24874WAT     H2 1302   6.759   4.919   4.068  1.5311  0.4016  0.5653
24874WAT    EPW 1303   6.758   4.965   3.994  1.2097  0.0291  0.3310
24875WAT      O 1304   5.993   3.787   0.433  0.6134  0.0438 -0.4611
24875WAT     H1 1305   5.957   3.738   0.508  2.5658 -0.2059  0.3760
24875WAT     H2 1306   5.992   3.878   0.461  1.3213 -0.0470 -0.1275
24875WAT    EPW 1307   5.988   3.792   0.447  0.9644 -0.0010 -0.3067
24876WAT      O 1308   1.025   6.313   8.979  0.6211  0.6609 -0.2434
24876WAT     H1 1309   1.120   6.323   8.975  0.6683  0.9738  1.2253
24876WAT     H2 1310   0.991   6.401   8.965  0.5518  0.5721 -0.6309
24876WAT    EPW 1311   1.033   6.326   8.977  0.6182  0.6905 -0.1006
24877WAT      O 1312   7.347   9.478   2.523 -0.1516 -0.4409  0.0970
24877WAT     H1 1313   7.317   9.565   2.497  0.8422 -0.2805 -0.5606
24877WAT     H2 1314   7.383   9.440   2.443 -0.7882 -1.5684  0.3127
24877WAT    EPW 1315   7.348   9.484   2.509 -0.1044 -0.5689  0.0387
24878WAT      O 1316   7.052   8.301   1.567  0.0322  0.2603  0.0458
24878WAT     H1 1317   7.072   8.227   1.510  0.8285  1.3520 -1.1428
24878WAT     H2 1318   6.957   8.311   1.560 -0.0477 -0.4570 -0.0021
24878WAT    EPW 1319   7.042   8.292   1.559  0.1266  0.3095 -0.1172
24879WAT      O 1320   6.388   7.911   2.457 -0.0673 -0.5354 -0.4138
24879WAT     H1 1321   6.360   7.954   2.376  2.5853 -0.0317 -1.1478
24879WAT     H2 1322   6.452   7.846   2.429  1.6386  0.3040  1.3243
24879WAT    EPW 1323   6.393   7.908   2.443  0.5076 -0.3581 -0.2815
24880WAT      O 1324  10.236   9.813   7.232 -0.7837 -0.0794 -0.4193
24880WAT     H1 1325  10.162   9.792   7.175  0.3080 -2.8405 -0.9680
24880WAT     H2 1326  10.302   9.850   7.172  0.3188 -2.8722 -1.0749
24880WAT    EPW 1327  10.235   9.815   7.217 -0.4945 -0.8116 -0.5784
24881WAT      O 1328   4.278   3.458   0.106  0.3748 -0.1442 -0.1655
24881WAT     H1 1329   4.303   3.375   0.065  1.8438 -0.6453  1.6312
24881WAT     H2 1330   4.292   3.524   0.037  1.7648 -1.0675 -0.8105
24881WAT    EPW 1331   4.283   3.456   0.091  0.7517 -0.3322 -0.0136
24882WAT      O 1332   5.591   5.314   2.692 -0.6390 -0.1295 -0.4109
24882WAT     H1 1333   5.532   5.336   2.620 -1.2500 -0.5111 -0.0362
24882WAT     H2 1334   5.547   5.349   2.770  1.5002  3.2358 -0.4778
24882WAT    EPW 1335   5.578   5.322   2.693 -0.4373  0.2637 -0.3703
24883WAT      O 1336   3.020   8.969   8.797 -0.6006  0.0559 -0.3462
24883WAT     H1 1337   2.925   8.957   8.802 -0.2828 -2.9297  2.5512
24883WAT     H2 1338   3.055   8.880   8.798  2.2616  1.0867 -0.3313
24883WAT    EPW 1339   3.012   8.955   8.798 -0.1811 -0.2017  0.0381
24884WAT      O 1340   5.281   7.793   2.507  0.1985  0.0750  0.7176
24884WAT     H1 1341   5.215   7.741   2.461 -0.3007  0.0296  1.4613
24884WAT     H2 1342   5.245   7.804   2.595  1.8750 -1.2767  1.6448
24884WAT    EPW 1343   5.268   7.787   2.513  0.3536 -0.1092  0.9378
24885WAT      O 1344   6.547   3.739   1.468  0.0233  0.5386  0.2820
24885WAT     H1 1345   6.549   3.684   1.389  0.8721  0.4392  0.3606
24885WAT     H2 1346   6.621   3.799   1.457 -0.5068  1.2456  0.5048
24885WAT    EPW 1347   6.557   3.740   1.456  0.0651  0.6188  0.3217
24886WAT      O 1348   7.734   5.556   0.257 -0.8156 -0.0582 -0.3264
24886WAT     H1 1349   7.675   5.521   0.325 -1.2903 -1.0032 -1.1999
24886WAT     H2 1350   7.750   5.482   0.199  3.0647 -0.4937  1.0582
24886WAT    EPW 1351   7.728   5.542   0.259 -0.3667 -0.2403 -0.2590
24887WAT      O 1352   5.445   1.756   1.945 -0.5573  0.1900  0.7987
24887WAT     H1 1353   5.518   1.806   1.981 -0.3845 -0.1579  0.9342
24887WAT     H2 1354   5.459   1.757   1.851 -0.2269 -0.1094  0.8451
24887WAT    EPW 1355   5.456   1.763   1.938 -0.4911  0.1047  0.8227
24888WAT      O 1356   5.547   7.995   6.041 -0.1208  0.7814  0.4916
24888WAT     H1 1357   5.636   7.970   6.065 -0.6159 -0.2438  1.3448
24888WAT     H2 1358   5.533   7.954   5.956  0.4575  1.5854 -0.0196
24888WAT    EPW 1359   5.557   7.987   6.033 -0.1097  0.7522  0.5367
24889WAT      O 1360   7.879   6.764   3.129 -0.2309  0.1459 -0.7367
24889WAT     H1 1361   7.821   6.688   3.123 -1.2458  0.5949  1.9310
24889WAT     H2 1362   7.892   6.791   3.039 -0.7625 -2.4916 -1.6937
24889WAT    EPW 1363   7.873   6.758   3.117 -0.4351 -0.1426 -0.5112
24890WAT      O 1364   8.498   5.583   1.521 -0.3117  0.3118 -0.3214
24890WAT     H1 1365   8.445   5.602   1.444 -0.4084  1.6022  0.0353
24890WAT     H2 1366   8.560   5.657   1.526 -0.1106  0.0892  0.6584
24890WAT    EPW 1367   8.499   5.595   1.511 -0.2975  0.4528 -0.1452
24891WAT      O 1368   0.692   9.010   8.011 -0.1967  0.1391  0.1918
24891WAT     H1 1369   0.737   8.929   8.031  1.6769  0.6916 -1.5421
24891WAT     H2 1370   0.606   9.001   8.053  0.2198 -2.4143  0.6081
24891WAT    EPW 1371   0.686   8.998   8.019  0.1054 -0.1249  0.0181
24892WAT      O 1372   8.009   8.534   6.945 -0.8494  0.4589 -0.2286
24892WAT     H1 1373   7.967   8.471   6.886 -0.6689 -1.5034  1.6014
24892WAT     H2 1374   8.095   8.549   6.907 -0.0345 -2.1688  0.3573
24892WAT    EPW 1375   8.015   8.528   6.932 -0.7176 -0.1464  0.0901
24893WAT      O 1376   7.276   3.687   0.640 -0.9330 -0.4325 -0.3251
24893WAT     H1 1377   7.358   3.723   0.674  0.8610 -3.6310 -0.8976
24893WAT     H2 1378   7.239   3.757   0.586 -0.0750  2.0849  2.1274
24893WAT    EPW 1379   7.282   3.701   0.637 -0.5834 -0.5223 -0.0772
24894WAT      O 1380   5.107   4.284   2.962 -0.7401  0.0521 -0.1555
24894WAT     H1 1381   5.030   4.297   3.017 -0.0911 -0.4435  0.8961
24894WAT     H2 1382   5.140   4.373   2.945  0.1025  0.1703  1.8141
24894WAT    EPW 1383   5.102   4.298   2.967 -0.5434  0.0019  0.2429
24895WAT      O 1384   5.021   4.894   3.602  0.5600 -0.1957 -0.0837
24895WAT     H1 1385   5.061   4.923   3.684 -3.1562 -2.0056  2.6473
24895WAT     H2 1386   4.942   4.848   3.629 -0.2679 -1.9970 -4.6991
24895WAT    EPW 1387   5.016   4.891   3.616 -0.0393 -0.6723 -0.3324
24896WAT      O 1388   4.965   6.628   3.909  0.7846  0.5841  0.0242
24896WAT     H1 1389   5.058   6.647   3.902  0.4159  2.4553 -0.3398
24896WAT     H2 1390   4.955   6.586   3.995  2.0549 -0.3718 -0.2844
24896WAT    EPW 1391   4.976   6.625   3.920  0.9036  0.7050 -0.0645
24897WAT      O 1392   5.585   5.412   1.565 -0.0794 -0.1906  0.4865
24897WAT     H1 1393   5.573   5.456   1.481 -0.9192  3.6907  2.4274
24897WAT     H2 1394   5.678   5.423   1.585 -0.4071  1.5612  1.2746
24897WAT    EPW 1395   5.596   5.419   1.556 -0.2334  0.5524  0.8464
24898WAT      O 1396   6.275   2.967   3.629  0.1497 -0.3368 -0.5400
24898WAT     H1 1397   6.221   2.966   3.550 -2.2993 -5.5238  0.7739
24898WAT     H2 1398   6.229   3.028   3.688  0.5472  1.5540 -2.0729
24898WAT    EPW 1399   6.261   2.975   3.626 -0.1209 -0.7715 -0.5687
24899WAT      O 1400   5.244   6.085   3.826 -0.4218  0.1262 -0.1621
24899WAT     H1 1401   5.283   6.139   3.895 -3.0151 -0.8228  2.2489
24899WAT     H2 1402   5.214   6.148   3.761  1.1414  1.1560  0.0606
24899WAT    EPW 1403   5.245   6.100   3.827 -0.5579  0.1371  0.1851
24900WAT      O 1404   8.495   6.816   1.424 -0.6484  0.2898 -0.2836
24900WAT     H1 1405   8.464   6.901   1.457 -0.4260 -0.0339  0.7889
24900WAT     H2 1406   8.468   6.754   1.491  0.8702 -0.2310 -0.1275
24900WAT    EPW 1407   8.487   6.819   1.438 -0.4182  0.1783 -0.1216
24901WAT      O 1408   6.893   4.847   1.585 -0.2908 -0.4037  0.3097
24901WAT     H1 1409   6.908   4.899   1.506  0.4490 -1.5389 -0.3305
24901WAT     H2 1410   6.848   4.907   1.645  1.8533  1.4700  0.1955
24901WAT    EPW 1411   6.889   4.862   1.582  0.0894 -0.3064  0.2102
24902WAT      O 1412   2.648   9.094   7.959 -0.0381 -0.5394 -0.3665
24902WAT     H1 1413   2.568   9.118   8.007  1.2581 -0.0401  1.7065
24902WAT     H2 1414   2.712   9.078   8.028  2.6490  2.5311 -1.8726
24902WAT    EPW 1415   2.646   9.095   7.975  0.4873 -0.0687 -0.2918
24903WAT      O 1416  10.379   9.146   7.493  0.1374 -0.1434 -0.2819
24903WAT     H1 1417  10.463   9.134   7.537 -0.1892  0.8066  0.6123
24903WAT     H2 1418  10.327   9.199   7.553 -0.4629  0.8413 -1.6341
24903WAT    EPW 1419  10.384   9.151   7.507  0.0153  0.1116 -0.3421
24904WAT      O 1420   6.096   3.916   2.562 -0.4055 -0.1639 -0.0228
24904WAT     H1 1421   6.063   3.933   2.474 -1.4807 -1.5455  0.0692
24904WAT     H2 1422   6.025   3.869   2.606  0.6360 -0.7477  1.1268
24904WAT    EPW 1423   6.082   3.912   2.556 -0.4098 -0.4232  0.1410
24905WAT      O 1424   6.400   2.027   4.333 -0.6843 -0.6388  0.0219
24905WAT     H1 1425   6.310   2.041   4.304 -0.4717  0.7401 -0.0182
24905WAT     H2 1426   6.426   2.111   4.371 -0.7126 -2.0491  3.6275
24905WAT    EPW 1427   6.391   2.040   4.335 -0.6599 -0.6429  0.4921
24906WAT      O 1428  10.014   0.278   6.947  0.2268  0.0209 -0.5542
24906WAT     H1 1429  10.073   0.257   7.019  0.9555  0.1880 -1.0939
24906WAT     H2 1430   9.934   0.309   6.990  1.1406  1.4452  0.1773
24906WAT    EPW 1431  10.011   0.279   6.962  0.4435  0.2308 -0.5291
24907WAT      O 1432   0.086   1.062   8.785  0.1920 -0.0345 -0.2064
24907WAT     H1 1433   0.172   1.075   8.745 -0.1132  1.8937 -0.3318
24907WAT     H2 1434   0.052   1.150   8.798 -1.5486 -0.7418  0.3552
24907WAT    EPW 1435   0.093   1.075   8.781 -0.0778  0.1265 -0.1488
24908WAT      O 1436   6.966   6.139   3.475  0.1151  0.4534  0.0098
24908WAT     H1 1437   6.893   6.195   3.498 -1.1423 -1.9059  2.2831
24908WAT     H2 1438   6.927   6.067   3.425  0.9880 -0.4483  0.5857
24908WAT    EPW 1439   6.951   6.137   3.471  0.0644  0.0234  0.3856
24909WAT      O 1440   0.573   0.232   8.224 -0.0646  0.2249 -0.0294
24909WAT     H1 1441   0.582   0.326   8.205  1.1428  0.5436  1.8390
24909WAT     H2 1442   0.648   0.212   8.280 -1.3826 -1.4100  1.2485
24909WAT    EPW 1443   0.584   0.242   8.229 -0.0792  0.0513  0.3862
24910WAT      O 1444  10.374   3.227   1.484  0.0626  0.7012 -0.1316
24910WAT     H1 1445  10.424   3.295   1.530  0.0515 -0.7249  2.1396
24910WAT     H2 1446  10.295   3.216   1.536 -0.7236  0.0600 -1.4021
24910WAT    EPW 1447  10.370   3.235   1.497 -0.0429  0.4286  0.0004
24911WAT      O 1448   6.992   3.850   4.291  0.1690 -0.4125 -0.3137
24911WAT     H1 1449   7.047   3.773   4.302  0.6107 -0.0430  0.1470
24911WAT     H2 1450   7.037   3.902   4.224  0.1541 -0.3169 -0.2502
24911WAT    EPW 1451   7.005   3.847   4.284  0.2253 -0.3511 -0.2444
24912WAT      O 1452   3.240   4.902   0.181  0.2951  0.2072 -0.8840
24912WAT     H1 1453   3.274   4.991   0.167 -0.1187  0.1990 -2.0482
24912WAT     H2 1454   3.200   4.906   0.268  1.9632  0.6060 -0.0854
24912WAT    EPW 1455   3.239   4.915   0.191  0.4605  0.2589 -0.9322
24913WAT      O 1456   7.124   4.465   2.657  0.0903 -0.6908 -0.6799
24913WAT     H1 1457   7.197   4.405   2.651  1.8332  1.2988 -0.5780
24913WAT     H2 1458   7.146   4.523   2.730 -1.1065  0.5643 -1.2521
24913WAT    EPW 1459   7.136   4.465   2.666  0.1624 -0.2627 -0.7420
24914WAT      O 1460   8.309   4.350   0.732 -0.1670 -0.4087 -0.0205
24914WAT     H1 1461   8.300   4.302   0.815 -0.0970  1.9837  1.4860
24914WAT     H2 1462   8.400   4.378   0.731 -0.1215 -0.5849 -1.0199
24914WAT    EPW 1463   8.320   4.348   0.743 -0.1516 -0.1163  0.0464
24915WAT      O 1464   4.926   4.536   2.357  0.7249  0.1292  0.0898
24915WAT     H1 1465   4.919   4.596   2.282  1.2716 -0.2076 -0.2420
24915WAT     H2 1466   4.836   4.508   2.373  0.5882  0.2800 -0.3809
24915WAT    EPW 1467   4.913   4.540   2.349  0.7787  0.1047 -0.0161
24916WAT      O 1468   4.282   4.096   3.545  0.2491  0.5558  0.2021
24916WAT     H1 1469   4.319   4.036   3.481 -0.7914 -1.3111  1.2396
24916WAT     H2 1470   4.352   4.111   3.608  0.0206 -1.0731  0.8992
24916WAT    EPW 1471   4.296   4.090   3.545  0.0815  0.0947  0.4309
24917WAT      O 1472   5.219   2.427   1.215 -0.3196  0.3801  0.8556
24917WAT     H1 1473   5.149   2.483   1.182  0.2119  1.6707  1.8777
24917WAT     H2 1474   5.177   2.341   1.227 -1.3121  0.7264 -0.0374
24917WAT    EPW 1475   5.204   2.423   1.212 -0.3805  0.5960  0.8726
24918WAT      O 1476   6.406   5.029   1.246 -0.6083 -0.0941 -0.1008
24918WAT     H1 1477   6.357   5.051   1.168  0.1942  1.3033 -0.2412
24918WAT     H2 1478   6.392   5.103   1.306 -0.5141 -0.7344  0.7425
24918WAT    EPW 1479   6.398   5.041   1.244 -0.4900  0.0060 -0.0080
24919WAT      O 1480   9.031   2.722   1.165  0.2207 -0.3192 -0.7106
24919WAT     H1 1481   8.985   2.639   1.151 -0.7923  0.0289  0.3650
24919WAT     H2 1482   9.116   2.695   1.200  0.2153 -0.9313 -1.1514
24919WAT    EPW 1483   9.036   2.707   1.168  0.0868 -0.3539 -0.6269
24920WAT      O 1484   4.982   1.494   1.338 -0.2673 -0.2466 -0.6397
24920WAT     H1 1485   4.918   1.473   1.406 -1.3972  0.5089 -1.4418
24920WAT     H2 1486   5.063   1.453   1.368 -1.2612 -1.7340  0.1124
24920WAT    EPW 1487   4.985   1.486   1.351 -0.5472 -0.3431 -0.6462
24921WAT      O 1488   3.904   0.264   8.490 -0.4552 -0.5487 -0.3179
24921WAT     H1 1489   3.815   0.261   8.455 -0.8949  1.0895  0.5453
24921WAT     H2 1490   3.910   0.186   8.545 -2.6403  0.9361  2.3459
24921WAT    EPW 1491   3.893   0.254   8.493 -0.8016 -0.1368  0.1469
24922WAT      O 1492   1.392   2.135   0.936 -0.0242  0.2998 -0.3788
24922WAT     H1 1493   1.333   2.091   0.875 -0.5849  2.5264 -1.5432
24922WAT     H2 1494   1.440   2.197   0.882  0.1541  1.6741  1.2971
24922WAT    EPW 1495   1.390   2.137   0.921 -0.0746  0.7746 -0.3113
24923WAT      O 1496   3.892   5.555   1.461 -0.2665  0.3312  0.1911
24923WAT     H1 1497   3.951   5.480   1.469 -0.7275  0.0375  0.9519
24923WAT     H2 1498   3.843   5.556   1.544 -0.8301  0.9901 -0.1392
24923WAT    EPW 1499   3.893   5.545   1.473 -0.4017  0.3796  0.2478
24924WAT      O 1500   9.619   1.645   1.184 -0.1962  0.3206 -0.7572
24924WAT     H1 1501   9.553   1.662   1.116 -2.4303  0.1778  1.2368
24924WAT     H2 1502   9.626   1.549   1.187 -0.7659  0.2939 -0.2012
24924WAT    EPW 1503   9.611   1.634   1.175 -0.5655  0.2983 -0.4209
24925WAT      O 1504   4.713   4.671   2.177 -0.0829 -0.7690  0.2917
24925WAT     H1 1505   4.709   4.750   2.232 -1.0828 -1.7183  1.6542
24925WAT     H2 1506   4.768   4.696   2.103  0.8829  0.7495  1.4628
24925WAT    EPW 1507   4.720   4.685   2.175 -0.0877 -0.6938  0.6260
24926WAT      O 1508   7.952   4.548   3.807 -0.1426 -0.6536 -0.4406
24926WAT     H1 1509   7.886   4.516   3.869  0.1254  0.6916  0.5844
24926WAT     H2 1510   7.983   4.469   3.762 -1.7506 -1.4217 -0.2611
24926WAT    EPW 1511   7.948   4.533   3.809 -0.3195 -0.5774 -0.2817
24927WAT      O 1512   8.879   8.060   8.782  0.1531  0.4265  0.3871
24927WAT     H1 1513   8.885   8.135   8.722  1.1312  0.2537  0.2646
24927WAT     H2 1514   8.908   8.094   8.866 -3.3795  1.2965  1.4100
24927WAT    EPW 1515   8.883   8.075   8.785 -0.1836  0.5178  0.5064
24928WAT      O 1516   3.674   2.779   1.688 -0.1185 -0.7960  0.2508
24928WAT     H1 1517   3.751   2.828   1.660 -0.1816 -0.9752 -0.2425
24928WAT     H2 1518   3.620   2.772   1.609 -0.1209 -1.6339  0.3181
24928WAT    EPW 1519   3.677   2.784   1.674 -0.1272 -0.9302  0.1946
24929WAT      O 1520   8.001   7.743   0.757 -0.6076 -0.1906  0.2376
24929WAT     H1 1521   7.964   7.674   0.812 -4.0888  1.4353  0.1555
24929WAT     H2 1522   7.995   7.822   0.810  0.0160  0.6954 -0.9560
24929WAT    EPW 1523   7.996   7.744   0.771 -0.9844  0.1409  0.0693
24930WAT      O 1524   2.276  10.355   0.828 -0.0346  0.3619 -0.2329
24930WAT     H1 1525   2.330  10.433   0.820 -2.0728  2.0421  1.1453
24930WAT     H2 1526   2.323  10.299   0.889  0.8003  1.1490 -0.1350
24930WAT    EPW 1527   2.289  10.358   0.835 -0.1932  0.6876 -0.0382
24931WAT      O 1528   5.564   4.916   2.731 -0.4237 -0.4598 -0.0375
24931WAT     H1 1529   5.510   4.853   2.682 -3.4936  0.0155  2.4129
24931WAT     H2 1530   5.568   4.880   2.819  0.6331  1.1462  0.6077
24931WAT    EPW 1531   5.557   4.903   2.736 -0.6890 -0.1855  0.3709
24932WAT      O 1532   5.016   5.325   1.611  0.3565  0.1912  0.3485
24932WAT     H1 1533   5.004   5.247   1.665 -0.0535 -0.5288 -0.7455
24932WAT     H2 1534   5.075   5.380   1.662 -0.0288 -0.4437  1.5351
24932WAT    EPW 1535   5.022   5.322   1.625  0.2515  0.0124  0.3607
24933WAT      O 1536   7.233   6.826   3.142  0.2031  0.1027 -0.0000
24933WAT     H1 1537   7.148   6.869   3.153 -0.7455 -1.5052 -0.7164
24933WAT     H2 1538   7.235   6.759   3.209  0.8495  0.0197 -0.0950
24933WAT    EPW 1539   7.222   6.823   3.152  0.1633 -0.1204 -0.1070
24934WAT      O 1540  10.202  10.125   8.903 -0.0097  0.6209 -0.4672
24934WAT     H1 1541  10.258  10.192   8.864  0.3899  1.1037  0.8649
24934WAT     H2 1542  10.113  10.157   8.886  0.0191 -0.5518 -3.2815
24934WAT    EPW 1543  10.197  10.138   8.896  0.0467  0.5298 -0.6623
24935WAT      O 1544   7.829   2.445   1.494 -0.7542 -0.0699 -0.4479
24935WAT     H1 1545   7.852   2.533   1.524  0.9960 -0.2182 -1.2857
24935WAT     H2 1546   7.849   2.388   1.569  0.4536 -0.0355 -0.7284
24935WAT    EPW 1547   7.835   2.449   1.508 -0.3643 -0.0848 -0.5953
24936WAT      O 1548   8.920   3.112   2.743 -0.0743 -0.3572  0.2573
24936WAT     H1 1549   8.832   3.128   2.777 -0.4018 -0.3709 -0.5632
24936WAT     H2 1550   8.974   3.179   2.784 -0.5227 -0.1696  0.5516
24936WAT    EPW 1551   8.915   3.123   2.753 -0.1769 -0.3341  0.1880
24937WAT      O 1552   8.043   6.472   1.731  0.2765 -0.4358  0.1115
24937WAT     H1 1553   7.947   6.471   1.726  0.3181  0.2449 -1.3393
24937WAT     H2 1554   8.062   6.485   1.824 -1.0681  1.1693  0.2111
24937WAT    EPW 1555   8.033   6.473   1.742  0.1044 -0.1345 -0.0667
24938WAT      O 1556   6.581   4.853   1.417 -0.4129  0.3645 -0.0979
24938WAT     H1 1557   6.586   4.934   1.468 -0.3089  1.3428 -1.6085
24938WAT     H2 1558   6.629   4.873   1.337 -2.1082 -0.5143 -1.3764
24938WAT    EPW 1559   6.588   4.866   1.413 -0.6230  0.3777 -0.4659
24939WAT      O 1560   8.475   1.273   3.931  0.8008 -0.8269  0.0900
24939WAT     H1 1561   8.492   1.221   3.852  0.3530  2.3592 -2.3202
24939WAT     H2 1562   8.404   1.332   3.906  0.3054  0.0230  3.0837
24939WAT    EPW 1563   8.468   1.274   3.917  0.6762 -0.2946  0.1668
24940WAT      O 1564   5.904   3.578   2.385 -0.0174 -0.1741  0.3269
24940WAT     H1 1565   5.855   3.532   2.317  0.7335 -0.5362  0.0174
24940WAT     H2 1566   5.883   3.531   2.466 -1.2281  0.5024  0.4350
24940WAT    EPW 1567   5.895   3.566   2.387 -0.0782 -0.1328  0.3003
24941WAT      O 1568   4.154   0.968   8.898 -0.2731 -0.2971  0.1229
24941WAT     H1 1569   4.124   1.026   8.829  1.5670  0.5584 -0.0403
24941WAT     H2 1570   4.111   0.884   8.881 -1.0496  0.3293 -1.1136
24941WAT    EPW 1571   4.145   0.964   8.887 -0.1328 -0.1017 -0.0615
24942WAT      O 1572   0.131   5.173   1.055 -0.3808 -0.7948  0.1210
24942WAT     H1 1573   0.100   5.222   1.131  1.6528 -2.2763  2.0447
24942WAT     H2 1574   0.212   5.216   1.030  0.5688 -2.1252  0.7993
24942WAT    EPW 1575   0.137   5.185   1.062  0.0126 -1.1659  0.4641
24943WAT      O 1576   0.670   9.595   8.913  0.7313 -0.5670  0.7819
24943WAT     H1 1577   0.610   9.667   8.933  0.7752 -0.3659  0.2282
24943WAT     H2 1578   0.747   9.638   8.875 -0.6425 -1.0261 -3.0149
24943WAT    EPW 1579   0.672   9.610   8.910  0.5559 -0.6003  0.2074
24944WAT      O 1580   4.786   2.616   4.290 -0.3126 -0.3472 -0.3136
24944WAT     H1 1581   4.729   2.539   4.283 -0.1256 -0.3382 -3.1334
24944WAT     H2 1582   4.728   2.691   4.276 -0.1719 -0.0764  0.4719
24944WAT    EPW 1583   4.771   2.616   4.287 -0.2694 -0.3103 -0.5820
24945WAT      O 1584   5.369   4.683   1.350 -0.3447 -0.4297 -0.5370
24945WAT     H1 1585   5.310   4.733   1.406 -0.5661 -1.0435 -0.2126
24945WAT     H2 1586   5.454   4.724   1.362 -0.6283  0.2217 -0.7127
24945WAT    EPW 1587   5.372   4.695   1.359 -0.4113 -0.4251 -0.5174
24946WAT      O 1588   6.097   5.068   1.419  1.0868  0.3435 -0.2565
24946WAT     H1 1589   6.087   4.976   1.441  2.7513  0.2961  0.4193
24946WAT     H2 1590   6.139   5.107   1.496  3.5928  0.9312 -1.7893
24946WAT    EPW 1591   6.101   5.061   1.432  1.6367  0.4146 -0.3695
24947WAT      O 1592   7.211   4.940   1.719  0.2186  0.3345 -0.2040
24947WAT     H1 1593   7.129   4.899   1.693  0.1789 -0.4422  1.0587
24947WAT     H2 1594   7.259   4.953   1.637 -1.7869  2.2840 -1.1818
24947WAT    EPW 1595   7.206   4.936   1.705 -0.0510  0.4890 -0.1664
24948WAT      O 1596   2.110   6.262   3.793  0.2590 -0.6123  0.3811
24948WAT     H1 1597   2.076   6.240   3.707  0.6283  1.1186 -0.2528
24948WAT     H2 1598   2.205   6.270   3.780  0.3948 -0.9718  1.0988
24948WAT    EPW 1599   2.118   6.260   3.780  0.3256 -0.4313  0.3922
24949WAT      O 1600  10.404  10.126   8.486  0.1039 -0.0128 -0.5184
24949WAT     H1 1601  10.371  10.130   8.396 -0.7755 -0.2484 -0.2225
24949WAT     H2 1602  10.336  10.078   8.534  2.1668 -3.0386 -0.4273
24949WAT    EPW 1603  10.391  10.120   8.481  0.2604 -0.4430 -0.4678
24950WAT      O 1604   6.927   3.599   1.276 -0.4321 -0.5187 -0.4143
24950WAT     H1 1605   6.885   3.597   1.362  1.0552 -0.1817  0.3718
24950WAT     H2 1606   6.948   3.507   1.257  0.4860 -0.4690  0.2688
24950WAT    EPW 1607   6.924   3.587   1.285 -0.1147 -0.4677 -0.2206
24951WAT      O 1608   5.715   6.170   2.073  0.4011  0.6615 -0.0247
24951WAT     H1 1609   5.634   6.137   2.035  1.2858 -1.5445 -0.1127
24951WAT     H2 1610   5.714   6.140   2.164  0.5945  1.6252  0.3081
24951WAT    EPW 1611   5.704   6.162   2.080  0.5434  0.4981  0.0075
24952WAT      O 1612   3.231   6.364   1.381  0.3231 -0.2034  0.4846
24952WAT     H1 1613   3.225   6.310   1.460  1.6368 -0.9240  0.1154
24952WAT     H2 1614   3.140   6.388   1.362 -0.4018 -2.7516  0.3537
24952WAT    EPW 1615   3.218   6.360   1.389  0.4008 -0.6344  0.4187
24953WAT      O 1616   8.285   9.569   8.934 -0.4608  0.5582  0.4011
24953WAT     H1 1617   8.370   9.579   8.890 -0.7577  2.2795  0.1740
24953WAT     H2 1618   8.251   9.486   8.900  0.9240  0.0635  0.1593
24953WAT    EPW 1619   8.292   9.559   8.923 -0.3171  0.7200  0.3390
24954WAT      O 1620  10.004   0.091   8.011  0.2752 -0.0954 -0.3491
24954WAT     H1 1621   9.959   0.022   8.060 -0.8626 -1.0282 -2.5641
24954WAT     H2 1622  10.023   0.052   7.926 -0.7357  2.3902 -1.8391
24954WAT    EPW 1623  10.000   0.077   8.006 -0.0086  0.1094 -0.8373
24955WAT      O 1624   8.081   2.599   3.279 -0.2618 -0.0463  0.1969
24955WAT     H1 1625   8.130   2.680   3.293  1.4366 -0.8365 -0.9701
24955WAT     H2 1626   8.122   2.536   3.337 -2.8507  0.2941  2.6428
24955WAT    EPW 1627   8.093   2.602   3.288 -0.3786 -0.1056  0.3655
24956WAT      O 1628   5.426   3.053   4.312  0.4881 -0.6936  0.4043
24956WAT     H1 1629   5.465   3.138   4.294  1.4486 -1.5241 -1.7935
24956WAT     H2 1630   5.479   3.017   4.383  1.8697 -0.5524 -0.5128
24956WAT    EPW 1631   5.438   3.059   4.319  0.7970 -0.7844 -0.0067
24957WAT      O 1632   7.215   0.030   6.429  0.7769 -0.6462 -0.5551
24957WAT     H1 1633   7.297   0.005   6.472  2.1758  1.3368 -1.9405
24957WAT     H2 1634   7.206   0.124   6.445 -1.7408 -0.9387  0.2922
24957WAT    EPW 1635   7.225   0.039   6.437  0.6294 -0.4232 -0.6263
24958WAT      O 1636   9.908   5.249   1.166  0.1308  0.3449  0.0267
24958WAT     H1 1637   9.848   5.251   1.240  0.9049  1.6627  0.6565
24958WAT     H2 1638   9.875   5.179   1.110 -1.1673  0.1230  1.0259
24958WAT    EPW 1639   9.896   5.240   1.168  0.0610  0.4895  0.2415
24959WAT      O 1640   7.502   4.512   1.285 -0.0941 -0.1071 -0.0543
24959WAT     H1 1641   7.555   4.559   1.349 -2.5534  0.5314  1.6739
24959WAT     H2 1642   7.473   4.433   1.332 -1.0736 -0.1672 -0.7273
24959WAT    EPW 1643   7.505   4.507   1.300 -0.5474 -0.0305  0.0849
24960WAT      O 1644   9.413  10.119   8.587  0.4581  0.5031  0.0342
24960WAT     H1 1645   9.364  10.037   8.600 -0.4319  0.9246 -0.5463
24960WAT     H2 1646   9.345  10.184   8.569  1.2773  0.6907 -3.0330
24960WAT    EPW 1647   9.397  10.117   8.586  0.4487  0.5832 -0.4468
24961WAT      O 1648   3.792   0.783   8.903 -0.6644 -0.0939  0.2898
24961WAT     H1 1649   3.751   0.857   8.947 -0.3555  1.8303 -2.3971
24961WAT     H2 1650   3.879   0.777   8.942 -1.4129 -0.4695  2.0001
24961WAT    EPW 1651   3.798   0.792   8.914 -0.7224  0.1104  0.1612
24962WAT      O 1652   5.282   5.250   3.719  0.2583  0.2931 -0.1335
24962WAT     H1 1653   5.248   5.263   3.631 -0.2510  0.4552  0.0874
24962WAT     H2 1654   5.353   5.314   3.726  0.0318  0.5629 -0.2822
24962WAT    EPW 1655   5.287   5.260   3.709  0.1609  0.3505 -0.1240
24963WAT      O 1656   9.811   9.068   7.324 -0.1198 -0.7053  0.5965
24963WAT     H1 1657   9.731   9.088   7.276  0.7693 -1.0638 -1.1025
24963WAT     H2 1658   9.880   9.113   7.276  0.7228 -0.4007  2.0364
24963WAT    EPW 1659   9.809   9.076   7.311  0.1087 -0.7119  0.5624
24964WAT      O 1660   9.334   8.975   6.698 -0.1033 -0.1173  0.1225
24964WAT     H1 1661   9.426   8.993   6.677 -0.6738  1.8304 -1.0248
24964WAT     H2 1662   9.289   8.982   6.613 -1.5814  1.1641  0.9501
24964WAT    EPW 1663   9.340   8.979   6.684 -0.3729  0.3090  0.0806
24965WAT      O 1664   3.973   2.469   3.085 -0.1316  0.3856 -0.0365
24965WAT     H1 1665   4.012   2.524   3.153  0.3549 -0.2287  0.1860
24965WAT     H2 1666   3.910   2.527   3.042  0.0249  0.9778  0.5035
24965WAT    EPW 1667   3.970   2.484   3.088 -0.0468  0.3828  0.0641
24966WAT      O 1668   0.468   8.857   7.829  0.0643  0.4253  0.2486
24966WAT     H1 1669   0.510   8.794   7.887 -0.5864 -0.7481 -0.5095
24966WAT     H2 1670   0.514   8.846   7.745 -1.0783 -0.1741 -0.3146
24966WAT    EPW 1671   0.480   8.847   7.826 -0.1722  0.1917  0.0741
24967WAT      O 1672   3.881   3.800   2.468  0.7714 -0.9478 -0.2816
24967WAT     H1 1673   3.831   3.840   2.539  0.0934  1.1746 -1.8548
24967WAT     H2 1674   3.818   3.793   2.396  2.0015 -0.9971 -1.3741
24967WAT    EPW 1675   3.866   3.804   2.468  0.8442 -0.6745 -0.6331
24968WAT      O 1676   9.584   4.915   8.391  0.2831  0.1664 -0.9297
24968WAT     H1 1677   9.536   4.863   8.327  0.6771 -0.9116 -0.3741
24968WAT     H2 1678   9.534   4.996   8.398 -0.7272 -0.4017 -1.3141
24968WAT    EPW 1679   9.571   4.919   8.383  0.2017 -0.0508 -0.9074
24969WAT      O 1680   5.446   5.562   1.359 -0.5629  0.0743  0.4244
24969WAT     H1 1681   5.497   5.642   1.355  0.9716 -0.9056 -2.1702
24969WAT     H2 1682   5.401   5.558   1.275 -2.2980 -0.7710  1.3379
24969WAT    EPW 1683   5.447   5.572   1.348 -0.5891 -0.1667  0.2026
24970WAT      O 1684   9.311   9.844   8.311  0.2496 -0.8784 -0.5138
24970WAT     H1 1685   9.387   9.898   8.332  0.0056  0.2634 -2.3142
24970WAT     H2 1686   9.324   9.821   8.218 -0.3097 -2.8703 -0.1537
24970WAT    EPW 1687   9.323   9.848   8.301  0.1440 -0.9904 -0.7043
24971WAT      O 1688   7.172   2.582   4.592 -0.0099  0.0581 -0.3727
24971WAT     H1 1689   7.091   2.555   4.550  0.8255  0.3939 -2.3369
24971WAT     H2 1690   7.227   2.613   4.520  2.3134 -1.2349  0.7115
24971WAT    EPW 1691   7.169   2.583   4.577  0.4067 -0.0681 -0.4890
24972WAT      O 1692   7.368   3.167   0.253  0.1421 -0.4029  0.1830
24972WAT     H1 1693   7.360   3.251   0.208 -0.4600 -1.9230 -2.8273
24972WAT     H2 1694   7.462   3.152   0.260  0.4185 -1.4052 -3.5566
24972WAT    EPW 1695   7.379   3.176   0.248  0.0992 -0.7355 -0.7073
24973WAT      O 1696   8.750   1.434   2.156 -0.2674  0.3360  0.1235
24973WAT     H1 1697   8.756   1.425   2.251  1.1773  0.4048  0.0753
24973WAT     H2 1698   8.838   1.464   2.130 -0.5975  0.1944 -1.2395
24973WAT    EPW 1699   8.763   1.437   2.165 -0.1202  0.3264 -0.0627
24974WAT      O 1700   5.928   3.849   2.281  0.9782 -0.6153 -0.5223
24974WAT     H1 1701   5.866   3.916   2.311  2.0294  0.2678 -0.2335
24974WAT     H2 1702   5.905   3.771   2.330 -1.1331 -0.8948 -1.8250
24974WAT    EPW 1703   5.916   3.848   2.291  0.8385 -0.5357 -0.6561
24975WAT      O 1704   0.896   8.821   8.074 -0.2610 -0.1714 -0.4849
24975WAT     H1 1705   0.932   8.740   8.109  0.0913  0.1595 -0.0648
24975WAT     H2 1706   0.970   8.882   8.073 -0.5339  0.1609 -0.7370
24975WAT    EPW 1707   0.910   8.819   8.079 -0.2505 -0.0834 -0.4630
24976WAT      O 1708   6.539   4.063   2.645  0.3830 -0.3505  0.2370
24976WAT     H1 1709   6.582   4.148   2.652 -2.3409  1.2432 -0.5743
24976WAT     H2 1710   6.552   4.036   2.554  1.2037 -0.8031  0.4811
24976WAT    EPW 1711   6.546   4.070   2.634  0.1321 -0.2000  0.1622
24977WAT      O 1712   3.743   2.172   8.144  0.1215 -0.6280 -0.0116
24977WAT     H1 1713   3.722   2.081   8.122  1.2025 -0.8021 -0.4130
24977WAT     H2 1714   3.703   2.186   8.230  0.6478 -1.7484  0.4356
24977WAT    EPW 1715   3.735   2.162   8.152  0.3335 -0.7988 -0.0057
24978WAT      O 1716   6.246   5.445   2.122  0.4287 -0.4002 -0.1247
24978WAT     H1 1717   6.163   5.420   2.164 -0.2138  1.2442 -0.3060
24978WAT     H2 1718   6.295   5.489   2.192  0.1147  0.7365 -0.5877
24978WAT    EPW 1719   6.241   5.448   2.137  0.3026 -0.0336 -0.2097
24979WAT      O 1720   7.767   3.881   0.833 -0.3000 -0.9343  0.0301
24979WAT     H1 1721   7.823   3.804   0.825  2.3184  0.7371  0.9058
24979WAT     H2 1722   7.806   3.945   0.773 -2.9961 -0.5370 -1.4381
24979WAT    EPW 1723   7.780   3.879   0.824 -0.3104 -0.6615 -0.0480
24980WAT      O 1724   3.061   2.204   8.039  0.4987  0.4642 -0.3352
24980WAT     H1 1725   3.056   2.229   8.131  1.4979  3.7563 -1.0246
24980WAT     H2 1726   3.143   2.243   8.008  0.5271 -1.1342 -2.4721
24980WAT    EPW 1727   3.071   2.213   8.047  0.6342  0.6875 -0.7076
24981WAT      O 1728   0.027   4.984   1.745  0.0137 -0.1549  0.0899
24981WAT     H1 1729   0.046   4.940   1.662  1.1684  1.4408 -0.5361
24981WAT     H2 1730  -0.006   4.915   1.801  1.0630 -1.6736 -1.0797
24981WAT    EPW 1731   0.025   4.969   1.741  0.3043 -0.1450 -0.1469
24982WAT      O 1732   9.613   4.996   2.856  0.3870 -0.1191 -0.3393
24982WAT     H1 1733   9.550   5.033   2.795 -1.7610  1.2362  2.4397
24982WAT     H2 1734   9.672   5.069   2.877  1.6057 -0.7859 -1.2677
24982WAT    EPW 1735   9.613   5.011   2.851  0.2646 -0.0284 -0.0952
24983WAT      O 1736   6.840   4.176   3.982 -0.0456 -0.3601 -0.1798
24983WAT     H1 1737   6.924   4.143   4.015 -0.2022  1.7918  2.8006
24983WAT     H2 1738   6.780   4.102   3.994  0.9545 -1.2219 -0.2686
24983WAT    EPW 1739   6.843   4.162   3.988  0.0658 -0.1903  0.2016
24984WAT      O 1740   8.610   6.968   3.339  0.1478 -0.5558  0.0376
24984WAT     H1 1741   8.546   7.005   3.279 -0.6190 -1.8424  0.0272
24984WAT     H2 1742   8.575   6.986   3.426  0.3243 -0.3194  0.0612
24984WAT    EPW 1743   8.597   6.975   3.343  0.0701 -0.6945  0.0393
24985WAT      O 1744   5.570   5.288   1.947 -0.7269 -0.4199  0.4249
24985WAT     H1 1745   5.571   5.363   1.888 -0.4730 -1.8824 -1.5202
24985WAT     H2 1746   5.483   5.292   1.988 -0.2172  1.6813  1.4838
24985WAT    EPW 1747   5.558   5.299   1.945 -0.6258 -0.3357  0.3080
24986WAT      O 1748   7.669   7.002   2.345 -0.4608 -0.3717 -0.1403
24986WAT     H1 1749   7.607   6.929   2.346  0.4836 -1.1989 -0.4585
24986WAT     H2 1750   7.753   6.963   2.320  0.5092  0.4819  1.5833
24986WAT    EPW 1751   7.672   6.987   2.342 -0.2086 -0.3681  0.0451
24987WAT      O 1752   1.479   8.308   4.973 -0.1445 -0.4442  0.1158
24987WAT     H1 1753   1.442   8.380   4.922 -0.4301 -1.0702 -0.5804
24987WAT     H2 1754   1.416   8.291   5.042  0.2082  0.3642  0.6443
24987WAT    EPW 1755   1.466   8.315   4.975 -0.1356 -0.4201  0.0937
24988WAT      O 1756   2.756   8.972   8.518  0.0977 -0.2754  0.2189
24988WAT     H1 1757   2.788   8.915   8.588 -0.6195  1.5754  2.1587
24988WAT     H2 1758   2.834   9.017   8.485  0.1042  1.1164  2.0145
24988WAT    EPW 1759   2.770   8.970   8.523  0.0039  0.1521  0.7114
24989WAT      O 1760   7.613   6.688   1.873  0.8045 -0.3794  0.1707
24989WAT     H1 1761   7.559   6.723   1.944 -1.2614  0.9681 -1.8857
24989WAT     H2 1762   7.660   6.765   1.839 -0.1177 -0.4523 -1.3910
24989WAT    EPW 1763   7.612   6.703   1.878  0.4106 -0.2115 -0.3065
24990WAT      O 1764  10.432   3.634   0.631 -0.2190  0.3567  0.4834
24990WAT     H1 1765  10.508   3.689   0.649  1.6720 -1.9696  0.0395
24990WAT     H2 1766  10.452   3.550   0.672 -1.4557 -1.0598 -1.5896
24990WAT    EPW 1767  10.444   3.630   0.638 -0.1326 -0.1370  0.1515
24991WAT      O 1768   8.389   6.621   2.618  0.4234 -0.1246  0.7374
24991WAT     H1 1769   8.423   6.704   2.584 -1.9729  0.7951  0.4282
24991WAT     H2 1770   8.365   6.641   2.709  1.5683 -1.0471  1.2817
24991WAT    EPW 1771   8.391   6.634   2.626  0.2584 -0.1249  0.7684
24992WAT      O 1772   6.853   4.602   0.483  0.3881 -0.6625  0.0835
24992WAT     H1 1773   6.847   4.546   0.560  0.9323 -1.5725 -0.5141
24992WAT     H2 1774   6.779   4.662   0.491 -0.7735 -2.0513  0.3017
24992WAT    EPW 1775   6.843   4.602   0.494  0.3066 -0.9656  0.0335
24993WAT      O 1776   7.824   9.520   5.284 -0.1844 -0.0664 -0.0874
24993WAT     H1 1777   7.824   9.481   5.196 -3.4678 -3.2354  1.0798
24993WAT     H2 1778   7.835   9.446   5.343 -2.1057  1.3490  2.2275
24993WAT    EPW 1779   7.825   9.505   5.280 -0.8709 -0.2975  0.3722
24994WAT      O 1780   7.647   5.154   2.405  0.3244 -0.3401 -0.1826
24994WAT     H1 1781   7.615   5.139   2.316  0.4505  1.6937 -0.6266
24994WAT     H2 1782   7.730   5.108   2.409  1.3290  1.2029 -1.8487
24994WAT    EPW 1783   7.653   5.146   2.394  0.4737  0.1316 -0.4609
24995WAT      O 1784   4.027   3.760   1.192  0.1068  0.0324 -1.1709
24995WAT     H1 1785   4.049   3.795   1.279  1.3982 -1.9072 -0.6502
24995WAT     H2 1786   4.105   3.776   1.139 -0.3043  0.3138 -1.7042
24995WAT    EPW 1787   4.041   3.767   1.197  0.2227 -0.1863 -1.1727
24996WAT      O 1788   7.888   7.187   3.891  0.4507 -0.2390 -0.6110
24996WAT     H1 1789   7.887   7.148   3.978  0.7152  1.7023  0.3124
24996WAT     H2 1790   7.969   7.155   3.852  2.3322  1.7991  1.3368
24996WAT    EPW 1791   7.899   7.178   3.897  0.7339  0.2856 -0.2322
24997WAT      O 1792   7.228   5.183   3.109 -0.0453  0.8407 -0.3236
24997WAT     H1 1793   7.178   5.122   3.055  0.2239  0.5541 -0.2486
24997WAT     H2 1794   7.212   5.155   3.199  2.0024 -0.6641 -0.3462
24997WAT    EPW 1795   7.220   5.172   3.114  0.2604  0.6044 -0.3167
24998WAT      O 1796   7.977   2.160   7.560  0.3107  0.8571 -0.1869
24998WAT     H1 1797   7.892   2.150   7.517 -0.7420  2.8257  1.2539
24998WAT     H2 1798   7.998   2.253   7.550  1.4501  0.7583  0.9752
24998WAT    EPW 1799   7.969   2.171   7.553  0.3223  1.1038  0.1564
24999WAT      O 1800  10.367   3.761   1.641  0.1669  0.5903  0.2382
24999WAT     H1 1801  10.418   3.712   1.705  1.4367 -0.4428 -1.4744
24999WAT     H2 1802  10.370   3.707   1.561  0.7427  2.9170 -1.4308
24999WAT    EPW 1803  10.374   3.747   1.639  0.4101  0.7610 -0.2078
25000WAT      O 1804  10.094   5.187   0.219 -1.0188  0.3278  0.5257
25000WAT     H1 1805  10.161   5.219   0.160 -0.3894 -0.2170  0.9332
25000WAT     H2 1806  10.051   5.266   0.252 -1.5894  0.6376 -0.8708
25000WAT    EPW 1807  10.097   5.201   0.215 -1.0109  0.2966  0.3953
25001WAT      O 1808   3.155   1.706   7.979  0.2405 -0.1141  0.1005
25001WAT     H1 1809   3.166   1.792   8.021 -3.4187  1.4737 -1.8358
25001WAT     H2 1810   3.159   1.724   7.886 -1.1066 -1.9529 -0.3590
25001WAT    EPW 1811   3.157   1.720   7.973 -0.4199 -0.1472 -0.2155
25002WAT      O 1812   6.587   5.144   2.931 -0.5865  0.1038 -0.0815
25002WAT     H1 1813   6.648   5.179   2.996 -2.6892  2.9246  0.5480
25002WAT     H2 1814   6.518   5.102   2.982 -1.7796  1.5135 -0.4878
25002WAT    EPW 1815   6.586   5.143   2.946 -1.0211  0.6618 -0.0522
25003WAT      O 1816   8.973   4.061   3.398 -0.7503  0.1761  0.5080
25003WAT     H1 1817   9.068   4.053   3.393 -0.7452  0.3134  0.3801
25003WAT     H2 1818   8.947   4.089   3.310 -0.6080  3.1451  1.2949
25003WAT    EPW 1819   8.982   4.064   3.386 -0.7315  0.5860  0.5949
25004WAT      O 1820   7.211   6.423   1.681  0.1487  0.4071 -0.1269
25004WAT     H1 1821   7.126   6.379   1.676  0.7979 -0.8435 -0.6678
25004WAT     H2 1822   7.244   6.403   1.769  0.8726 -1.1025 -0.6941
25004WAT    EPW 1823   7.204   6.414   1.692  0.3300  0.0432 -0.2730
25005WAT      O 1824   4.866   2.352   7.258  0.1408  0.5837  0.0022
25005WAT     H1 1825   4.955   2.327   7.235 -0.6873 -0.8859 -1.8904
25005WAT     H2 1826   4.831   2.277   7.306 -0.6535  0.2894 -0.9795
25005WAT    EPW 1827   4.873   2.339   7.261 -0.0732  0.3511 -0.3767
25006WAT      O 1828   6.298   5.699   0.490  0.3690 -0.5648 -0.5139
25006WAT     H1 1829   6.363   5.729   0.427  2.8076  0.3584  2.1850
25006WAT     H2 1830   6.253   5.778   0.519 -0.4100 -0.9158 -0.7351
25006WAT    EPW 1831   6.301   5.713   0.486  0.5879 -0.4892 -0.1871
25007WAT      O 1832   9.078   5.660   3.064  0.7615  0.4297  0.7056
25007WAT     H1 1833   9.139   5.733   3.051  2.3503 -0.6861  1.4660
25007WAT     H2 1834   9.056   5.665   3.158  0.1062  0.4828  0.5541
25007WAT    EPW 1835   9.083   5.670   3.075  0.8841  0.2892  0.7858
25008WAT      O 1836   5.468   2.154   7.814  0.2570  0.0508  0.3638
25008WAT     H1 1837   5.394   2.113   7.859  0.1456 -0.1517  0.0007
25008WAT     H2 1838   5.494   2.226   7.871 -0.5126  0.4107  0.2791
25008WAT    EPW 1839   5.462   2.158   7.827  0.1409  0.0716  0.3047
25009WAT      O 1840   8.636   7.126   1.523  0.3173  0.0051 -0.3594
25009WAT     H1 1841   8.655   7.125   1.617  2.0467 -0.4585 -0.6812
25009WAT     H2 1842   8.686   7.052   1.487 -1.5281 -0.7900 -1.4504
25009WAT    EPW 1843   8.645   7.116   1.530  0.3023 -0.1607 -0.5457
25010WAT      O 1844  10.160   9.707   8.619 -0.2030  0.0161 -0.1261
25010WAT     H1 1845  10.169   9.802   8.631 -0.2943 -0.0601  0.6543
25010WAT     H2 1846  10.226   9.685   8.554 -1.6855  0.9303 -2.0579
25010WAT    EPW 1847  10.170   9.717   8.612 -0.4110  0.1264 -0.2785
25011WAT      O 1848   9.549   8.444   0.868  0.2075 -0.5268  0.4715
25011WAT     H1 1849   9.596   8.504   0.810  2.3718 -1.6668  0.9263
25011WAT     H2 1850   9.605   8.437   0.945 -0.6370 -2.1256  0.9837
25011WAT    EPW 1851   9.563   8.451   0.871  0.3815 -0.8879  0.5991
25012WAT      O 1852   2.993   6.709   1.267  0.3800 -0.4715  0.1016
25012WAT     H1 1853   3.032   6.785   1.224  0.8009  0.8957  2.6981
25012WAT     H2 1854   3.044   6.635   1.235  2.6439  0.8155  0.4965
25012WAT    EPW 1855   3.005   6.710   1.257  0.7342 -0.1214  0.4962
25013WAT      O 1856   3.156   6.037   4.782 -0.1588 -0.9726  0.1850
25013WAT     H1 1857   3.168   6.113   4.839 -0.4240 -0.5706 -0.2879
25013WAT     H2 1858   3.167   6.071   4.693  1.5195 -1.8349  0.0236
25013WAT    EPW 1859   3.159   6.051   4.778  0.0277 -1.0335  0.1011
25014WAT      O 1860   3.197   0.045   5.777  0.2059 -0.4524 -0.0987
25014WAT     H1 1861   3.128   0.111   5.784  0.3982 -0.1301 -1.1508
25014WAT     H2 1862   3.278   0.094   5.773  0.2316 -0.5920 -2.9848
25014WAT    EPW 1863   3.198   0.060   5.777  0.2347 -0.4283 -0.6182
25015WAT      O 1864   7.245   5.483   0.826 -0.0404 -0.0122 -0.2876
25015WAT     H1 1865   7.307   5.455   0.894 -0.2778  1.0195  0.3718
25015WAT     H2 1866   7.261   5.577   0.816 -1.8434  0.4077  0.2969
25015WAT    EPW 1867   7.255   5.492   0.834 -0.3097  0.1793 -0.1235
25016WAT      O 1868   6.354   5.534   2.630  0.6211  0.0419  0.4071
25016WAT     H1 1869   6.316   5.485   2.703  2.1454 -0.7700  0.7069
25016WAT     H2 1870   6.433   5.485   2.607  2.0837  2.1971  0.5417
25016WAT    EPW 1871   6.359   5.521   2.637  1.0154  0.2191  0.4644
25017WAT      O 1872   8.479   5.187   3.204 -0.2647 -0.2559 -0.1015
25017WAT     H1 1873   8.424   5.120   3.164 -1.9917  0.7893  0.4461
25017WAT     H2 1874   8.509   5.241   3.131 -0.1289 -0.7109 -0.3825
25017WAT    EPW 1875   8.476   5.185   3.189 -0.4749 -0.1783 -0.0663
25018WAT      O 1876   4.179   1.760   7.219 -0.0919 -0.8000 -0.1755
25018WAT     H1 1877   4.090   1.762   7.255  0.1259  2.5722  0.5175
25018WAT     H2 1878   4.236   1.775   7.294  0.8913 -0.5487 -0.9440
25018WAT    EPW 1879   4.175   1.762   7.233  0.0665 -0.3221 -0.1853
25019WAT      O 1880  10.325   7.277   0.296  0.3358  0.5303 -0.5074
25019WAT     H1 1881  10.281   7.218   0.358 -1.5737  0.3936 -1.9050
25019WAT     H2 1882  10.298   7.245   0.210 -1.1017  3.5922 -1.3416
25019WAT    EPW 1883  10.316   7.265   0.293 -0.1059  0.9160 -0.8017
25020WAT      O 1884   6.957   4.947   0.804 -0.8324  0.1100  0.6575
25020WAT     H1 1885   6.899   4.897   0.862  0.0946 -0.1879  1.3589
25020WAT     H2 1886   7.040   4.901   0.808 -0.6336  0.3045 -0.6385
25020WAT    EPW 1887   6.960   4.934   0.812 -0.6840  0.0961  0.5791
25021WAT      O 1888   9.645   9.086   8.525  0.0191 -0.1843 -0.0645
25021WAT     H1 1889   9.676   8.997   8.541  0.4037  0.1254  1.0049
25021WAT     H2 1890   9.637   9.092   8.430 -1.8512 -1.9549 -0.0870
25021WAT    EPW 1891   9.648   9.075   8.515 -0.1764 -0.3767  0.0734
25022WAT      O 1892   6.560   3.232   4.532 -0.1177 -0.1902  0.6197
25022WAT     H1 1893   6.474   3.222   4.573 -0.1124  0.3497  0.7643
25022WAT     H2 1894   6.545   3.294   4.461  0.0122 -0.6242  0.2052
25022WAT    EPW 1895   6.547   3.239   4.528 -0.0999 -0.1761  0.5841
25023WAT      O 1896   7.974   5.162   2.146 -0.7422 -0.1463  0.0750
25023WAT     H1 1897   7.893   5.212   2.159 -1.5677 -1.7202  1.2310
25023WAT     H2 1898   8.038   5.207   2.200 -0.9786  0.7257 -0.3349
25023WAT    EPW 1899   7.971   5.175   2.155 -0.8821 -0.2389  0.1734
25024WAT      O 1900   3.199   0.494   7.979 -0.4604 -0.1225 -0.2533
25024WAT     H1 1901   3.232   0.405   7.993 -1.2541 -0.6203 -1.4007
25024WAT     H2 1902   3.174   0.496   7.887  0.6388  1.6759 -0.5646
25024WAT    EPW 1903   3.200   0.482   7.969 -0.4202  0.0490 -0.4456
25025WAT      O 1904   2.852   0.905   7.960  1.1606 -0.2911 -0.5528
25025WAT     H1 1905   2.777   0.894   8.019  2.5196 -3.0020  0.8122
25025WAT     H2 1906   2.879   0.996   7.973 -2.1414  0.9957 -1.5564
25025WAT    EPW 1907   2.846   0.916   7.969  0.9044 -0.4789 -0.5052
25026WAT      O 1908   8.763   4.020   1.209  0.8951 -0.0118 -0.0361
25026WAT     H1 1909   8.746   4.012   1.303  3.0488  0.7053  0.4877
25026WAT     H2 1910   8.695   4.079   1.177 -1.2524 -1.9919  0.5559
25026WAT    EPW 1911   8.752   4.027   1.217  0.8960 -0.1781  0.1111
25027WAT      O 1912   6.862   4.975   3.235 -0.2647 -0.0324  0.7660
25027WAT     H1 1913   6.951   4.971   3.270 -0.4964  2.4591  1.8361
25027WAT     H2 1914   6.863   5.049   3.175 -1.3673 -0.6963 -0.1218
25027WAT    EPW 1915   6.873   4.984   3.232 -0.4406  0.2086  0.7901
25028WAT      O 1916   3.743   8.258   5.202 -0.0657 -0.6618 -0.3346
25028WAT     H1 1917   3.820   8.219   5.244  0.3547 -1.9023 -2.1305
25028WAT     H2 1918   3.768   8.265   5.110 -0.8984  2.0384 -0.4388
25028WAT    EPW 1919   3.757   8.254   5.196 -0.1202 -0.4697 -0.5851
25029WAT      O 1920   4.950   6.969   1.383 -0.2277  0.3950 -0.0401
25029WAT     H1 1921   4.975   7.058   1.360 -3.2087  1.6142  1.0616
25029WAT     H2 1922   5.021   6.939   1.440  1.9889  1.0973 -2.2338
25029WAT    EPW 1923   4.963   6.976   1.387 -0.3288  0.6485 -0.1841
25030WAT      O 1924   5.942   2.962   2.639 -0.8272 -0.1193 -0.1776
25030WAT     H1 1925   5.909   3.009   2.716 -1.8015 -1.5812  0.3443
25030WAT     H2 1926   5.930   3.023   2.567  1.6937  1.9694  1.0025
25030WAT    EPW 1927   5.936   2.976   2.640 -0.6230 -0.0367  0.0468
25031WAT      O 1928   2.697   7.947   0.869  0.6967 -0.1902  0.5264
25031WAT     H1 1929   2.755   7.938   0.944  2.2876 -1.3388 -0.7792
25031WAT     H2 1930   2.666   7.858   0.851  4.4168 -1.0597 -3.1840
25031WAT    EPW 1931   2.700   7.934   0.876  1.3973 -0.4561 -0.1352
25032WAT      O 1932   0.212   8.728   4.506 -0.5246 -0.0561  0.1703
25032WAT     H1 1933   0.215   8.637   4.536  0.9582  0.0693  0.4509
25032WAT     H2 1934   0.119   8.743   4.487 -1.1970 -0.8592  2.4593
25032WAT    EPW 1935   0.200   8.718   4.507 -0.4177 -0.1459  0.5090
25033WAT      O 1936   6.592   5.201   0.503  0.0692 -0.3876 -0.2528
25033WAT     H1 1937   6.620   5.219   0.414 -0.5334 -1.7318 -0.7368
25033WAT     H2 1938   6.667   5.157   0.544  0.1077 -0.3720 -0.3072
25033WAT    EPW 1939   6.605   5.198   0.497 -0.0052 -0.5629 -0.3238
25034WAT      O 1940  10.477   6.409   1.821 -0.3431  0.3957  0.1511
25034WAT     H1 1941  10.445   6.438   1.736  0.6814 -1.8938 -1.1030
25034WAT     H2 1942  10.565   6.377   1.804  0.0088  0.1739  2.1487
25034WAT    EPW 1943  10.484   6.409   1.808 -0.1621  0.0644  0.2492
25035WAT      O 1944   7.597   9.419   8.923  0.0416 -0.1004 -0.1789
25035WAT     H1 1945   7.635   9.378   8.845  2.4180  1.1549  0.2120
25035WAT     H2 1946   7.571   9.506   8.895 -0.8864 -0.2967  0.0212
25035WAT    EPW 1947   7.599   9.425   8.909  0.2327  0.0396 -0.1016
25036WAT      O 1948   6.563   4.763   0.986 -0.3240 -0.4850  0.5247
25036WAT     H1 1949   6.478   4.779   0.947 -0.6827 -1.2216  0.9905
25036WAT     H2 1950   6.585   4.673   0.960  0.6355 -0.0665 -0.1838
25036WAT    EPW 1951   6.555   4.753   0.977 -0.2449 -0.5267  0.4926
25037WAT      O 1952   8.244   5.582   2.364  0.5713  0.4053  0.5398
25037WAT     H1 1953   8.188   5.517   2.320  2.5205 -0.5992 -0.5961
25037WAT     H2 1954   8.253   5.548   2.453  0.1646  0.0505  0.4529
25037WAT    EPW 1955   8.238   5.569   2.370  0.7753  0.2260  0.3785
25038WAT      O 1956   7.227   1.303   8.689 -0.3166 -0.5561  0.0694
25038WAT     H1 1957   7.228   1.308   8.594  2.4303  2.6501  0.0760
25038WAT     H2 1958   7.145   1.346   8.714  0.3382  1.3521 -0.8918
25038WAT    EPW 1959   7.216   1.309   8.680  0.1321  0.1184 -0.0567
25039WAT      O 1960   6.980   7.336   4.088 -0.1842 -0.5736  0.4653
25039WAT     H1 1961   6.919   7.344   4.161 -0.3878 -0.4477  0.2824
25039WAT     H2 1962   6.988   7.425   4.053 -1.2771 -0.8868 -0.6191
25039WAT    EPW 1963   6.973   7.349   4.093 -0.3555 -0.5982  0.2980
25040WAT      O 1964   6.825   4.876   1.033  0.3278 -0.5691  0.1390
25040WAT     H1 1965   6.748   4.823   1.011  0.7581 -0.7288 -1.0545
25040WAT     H2 1966   6.789   4.956   1.071 -0.5283  0.0754 -1.9011
25040WAT    EPW 1967   6.810   4.879   1.035  0.2716 -0.5050 -0.2875
25041WAT      O 1968   8.117   7.278   1.696 -0.6207  0.3053 -0.0265
25041WAT     H1 1969   8.201   7.315   1.724  0.0542  0.0776 -1.6605
25041WAT     H2 1970   8.054   7.348   1.715  0.0175  0.7308  0.6283
25041WAT    EPW 1971   8.120   7.292   1.703 -0.4478  0.3314 -0.1557
25042WAT      O 1972   5.422   0.781   8.331 -0.0016  0.3249  0.2152
25042WAT     H1 1973   5.507   0.750   8.300 -0.3692 -0.6243  0.1265
25042WAT     H2 1974   5.359   0.739   8.273 -0.4906  2.0383 -0.5687
25042WAT    EPW 1975   5.425   0.772   8.319 -0.1147  0.4257  0.0997
25043WAT      O 1976   4.836   0.161   7.142 -0.4676 -0.2302 -0.5698
25043WAT     H1 1977   4.761   0.220   7.134  0.1189  0.6392  0.1205
25043WAT     H2 1978   4.912   0.219   7.138  0.1116 -0.8634  0.7400
25043WAT    EPW 1979   4.836   0.176   7.141 -0.3138 -0.1990 -0.3059
25044WAT      O 1980   1.692  10.172   7.373 -0.2688 -0.5865  0.2674
25044WAT     H1 1981   1.660  10.159   7.463 -0.5281  2.4484  0.7325
25044WAT     H2 1982   1.787  10.176   7.382 -0.3398  1.3783  0.7943
25044WAT    EPW 1983   1.700  10.171   7.386 -0.3123  0.0734  0.3984
25045WAT      O 1984   7.408   7.406   0.240 -0.0355  0.1900  0.2207
25045WAT     H1 1985   7.442   7.383   0.326 -0.7596 -2.4296 -0.1211
25045WAT     H2 1986   7.315   7.382   0.244 -0.6929  2.3463 -0.5441
25045WAT    EPW 1987   7.400   7.400   0.252 -0.2174  0.1292  0.0747
25046WAT      O 1988   8.914   6.041   2.386 -0.0615 -0.3228 -0.5656
25046WAT     H1 1989   8.903   6.117   2.443 -0.9013  0.1894 -1.3906
25046WAT     H2 1990   8.989   6.064   2.330  0.3272 -0.5412 -0.1485
25046WAT    EPW 1991   8.923   6.054   2.386 -0.1202 -0.2840 -0.6194
25047WAT      O 1992   6.318   6.180   1.796 -0.2567  0.0316 -0.6291
25047WAT     H1 1993   6.339   6.153   1.886  1.8203 -0.6309 -1.2562
25047WAT     H2 1994   6.243   6.239   1.806  0.2195  0.3658  1.5878
25047WAT    EPW 1995   6.311   6.184   1.809  0.0801 -0.0117 -0.4195
25048WAT      O 1996   1.985   9.954   8.869  0.3212 -0.3648 -0.1746
25048WAT     H1 1997   2.058   9.973   8.927  0.4195  0.2323 -0.4857
25048WAT     H2 1998   2.022   9.962   8.781 -0.2292  0.4143 -0.3393
25048WAT    EPW 1999   1.999   9.957   8.865  0.2615 -0.1841 -0.2375
25049WAT      O 2000  10.813   7.385   6.987  0.0666 -0.2780  0.5096
25049WAT     H1 2001  10.905   7.358   6.987 -0.0259 -0.6979  2.0928
25049WAT     H2 2002  10.800   7.426   7.073 -1.2179 -0.2344  0.3102
25049WAT    EPW 2003  10.824   7.387   6.999 -0.1149 -0.3278  0.6921
25050WAT      O 2004   6.827   7.340   1.723 -0.1965 -0.1282 -0.7567
25050WAT     H1 2005   6.815   7.361   1.816 -2.6352  0.7884 -1.1894
25050WAT     H2 2006   6.865   7.252   1.723  1.8690  0.6852  1.0853
25050WAT    EPW 2007   6.830   7.331   1.735 -0.2456  0.1001 -0.5708
25051WAT      O 2008  10.008   2.809   1.461 -0.2701  0.3733  0.2601
25051WAT     H1 2009   9.998   2.892   1.415  1.4538  0.7864  0.5441
25051WAT     H2 2010   9.938   2.809   1.527 -1.0706  0.9979 -0.5635
25051WAT    EPW 2011   9.997   2.820   1.464 -0.1488  0.5101  0.1890
25052WAT      O 2012   5.982   7.651   7.237 -0.1734 -0.1775 -0.2300
25052WAT     H1 2013   6.020   7.700   7.310 -1.7521 -1.0157  1.2401
25052WAT     H2 2014   5.889   7.642   7.260 -0.0773 -3.4797 -0.5729
25052WAT    EPW 2015   5.975   7.656   7.249 -0.3691 -0.7234 -0.0811
25053WAT      O 2016   0.954   9.539   7.241  0.6479 -0.2264 -0.4810
25053WAT     H1 2017   0.915   9.455   7.267 -0.2740  0.1089 -0.7288
25053WAT     H2 2018   1.038   9.541   7.286 -1.1713  0.6975  3.3227
25053WAT    EPW 2019   0.960   9.528   7.251  0.2864 -0.0601 -0.0119
25054WAT      O 2020   5.942   8.948   4.530  0.7034 -1.0894  0.1075
25054WAT     H1 2021   5.914   9.016   4.469 -0.2589 -1.2937  0.3063
25054WAT     H2 2022   5.932   8.988   4.617  3.3186 -0.3185  0.1636
25054WAT    EPW 2023   5.937   8.962   4.534  0.9215 -1.0147  0.1409
25055WAT      O 2024   7.845   5.190   1.150 -0.5739 -0.8337 -0.0526
25055WAT     H1 2025   7.791   5.263   1.120  0.9899  1.4484  2.2413
25055WAT     H2 2026   7.878   5.150   1.070  3.4000  4.8167 -1.8374
25055WAT    EPW 2027   7.842   5.195   1.136  0.1564  0.2129  0.0146
25056WAT      O 2028   8.596   9.661   2.563 -0.1359  0.6994  0.1099
25056WAT     H1 2029   8.581   9.644   2.470 -2.9220  1.9831  0.2338
25056WAT     H2 2030   8.687   9.691   2.567  0.3700 -0.3152 -2.0161
25056WAT    EPW 2031   8.606   9.663   2.551 -0.4368  0.7348 -0.1543
25057WAT      O 2032   6.725   7.603   3.830 -0.5964  0.0333  0.0391
25057WAT     H1 2033   6.782   7.613   3.754  2.8990 -0.9929  2.2851
25057WAT     H2 2034   6.703   7.509   3.831 -0.7054  0.0617  0.2950
25057WAT    EPW 2035   6.729   7.592   3.820 -0.1495 -0.0982  0.3691
25058WAT      O 2036   9.290   5.461   2.555  0.1114 -0.2994 -0.1898
25058WAT     H1 2037   9.366   5.402   2.550 -0.8357 -1.4869 -3.3835
25058WAT     H2 2038   9.257   5.465   2.465 -1.3754  3.2382  0.3529
25058WAT    EPW 2039   9.296   5.454   2.542 -0.2093  0.0105 -0.5395
25059WAT      O 2040   8.399   7.223   2.885 -0.5486  0.5226  0.3753
25059WAT     H1 2041   8.467   7.288   2.868 -2.0855  2.3687  0.9842
25059WAT     H2 2042   8.319   7.274   2.895 -2.2560 -1.6358 -1.2777
25059WAT    EPW 2043   8.397   7.238   2.884 -0.9770  0.4814  0.2376
25060WAT      O 2044   7.207   4.517   0.718  0.1437 -0.5947  0.0775
25060WAT     H1 2045   7.158   4.472   0.787 -2.0776  0.7025 -0.5740
25060WAT     H2 2046   7.258   4.584   0.764  1.1447 -1.7576  0.7284
25060WAT    EPW 2047   7.207   4.520   0.733 -0.0174 -0.5772  0.0774
25061WAT      O 2048   4.148   1.235   8.281 -0.9649 -0.5698  0.7214
25061WAT     H1 2049   4.180   1.158   8.329  0.3885 -0.3421  0.2415
25061WAT     H2 2050   4.224   1.294   8.278 -0.7909 -0.7910 -2.1023
25061WAT    EPW 2051   4.163   1.232   8.287 -0.7634 -0.5689  0.2856
25062WAT      O 2052   4.823   6.672   1.199  0.1157  0.2326  0.2011
25062WAT     H1 2053   4.782   6.758   1.185  1.9108  1.1464  0.1884
25062WAT     H2 2054   4.755   6.609   1.178 -0.5872  1.6343 -2.0914
25062WAT    EPW 2055   4.809   6.675   1.195  0.2596  0.5381 -0.1030
25063WAT      O 2056  10.519   5.074   4.054  0.2173  0.8050 -0.6580
25063WAT     H1 2057  10.493   4.982   4.057  1.1006  0.4541 -2.4504
25063WAT     H2 2058  10.602   5.078   4.100  0.4865  0.5752 -1.1170
25063WAT    EPW 2059  10.526   5.063   4.060  0.3691  0.7284 -0.9553
25064WAT      O 2060   1.802   7.634   8.327 -0.3102 -0.4873  0.2583
25064WAT     H1 2061   1.858   7.578   8.272 -0.4389 -0.6767  0.3193
25064WAT     H2 2062   1.763   7.696   8.265 -0.5216 -0.7544  0.1220
25064WAT    EPW 2063   1.804   7.635   8.311 -0.3551 -0.5474  0.2484
25065WAT      O 2064   6.927   0.833   8.254  0.0379  0.7149 -0.4973
25065WAT     H1 2065   6.961   0.762   8.199  2.9536 -0.7831  2.8528
25065WAT     H2 2066   6.997   0.898   8.254  1.1113 -0.2583  2.8041
25065WAT    EPW 2067   6.941   0.832   8.246  0.5641  0.3890  0.3800
25066WAT      O 2068   0.428   9.090   8.100 -0.5672 -0.0866 -0.4252
25066WAT     H1 2069   0.348   9.094   8.047  1.8093 -0.6775 -4.5363
25066WAT     H2 2070   0.457   9.181   8.107 -1.7928  0.2080  1.6464
25066WAT    EPW 2071   0.422   9.102   8.094 -0.4154 -0.1259 -0.6943
25067WAT      O 2072   5.318   4.688   1.681 -0.1149  0.1188  0.2175
25067WAT     H1 2073   5.412   4.676   1.687 -0.0498  0.1523 -0.6119
25067WAT     H2 2074   5.286   4.606   1.643 -0.2672  0.5831 -0.6741
25067WAT    EPW 2075   5.326   4.675   1.677 -0.1266  0.1848 -0.0094
25068WAT      O 2076  10.953   5.900   2.458 -0.4895  0.2258 -0.7319
25068WAT     H1 2077  10.986   5.833   2.517 -1.9522  0.4809  0.4273
25068WAT     H2 2078  10.893   5.952   2.511 -1.6496  0.6436 -2.3634
25068WAT    EPW 2079  10.950   5.898   2.472 -0.8359  0.3145 -0.7942
25069WAT      O 2080   4.568   4.811   1.450 -0.9155  0.2459  0.7038
25069WAT     H1 2081   4.501   4.877   1.431  0.0198  1.0761  0.1279
25069WAT     H2 2082   4.646   4.863   1.468  0.0887 -0.7040 -0.6816
25069WAT    EPW 2083   4.569   4.827   1.450 -0.6599  0.2301  0.4451
25070WAT      O 2084   5.995   5.161   1.794 -0.8645 -0.6565 -0.0749
25070WAT     H1 2085   5.962   5.250   1.803 -0.3402 -0.4213 -0.4270
25070WAT     H2 2086   5.982   5.121   1.880  1.6521  0.7180  1.0719
25070WAT    EPW 2087   5.989   5.167   1.807 -0.4635 -0.4442  0.0299
25071WAT      O 2088   8.151   6.023   2.144  0.1245  0.2986  0.4398
25071WAT     H1 2089   8.240   5.996   2.123  0.0475  0.6477 -0.3690
25071WAT     H2 2090   8.103   5.941   2.153  0.0132  0.1052 -1.4694
25071WAT    EPW 2091   8.156   6.009   2.142  0.0997  0.3192  0.0813
25072WAT      O 2092   7.451   7.056   3.175 -0.3804 -0.3350 -1.2181
25072WAT     H1 2093   7.389   6.987   3.151 -0.7442 -1.0713  1.4735
25072WAT     H2 2094   7.472   7.099   3.093 -4.9293  0.3869 -2.2561
25072WAT    EPW 2095   7.445   7.052   3.161 -1.0283 -0.3369 -0.9999
25073WAT      O 2096   7.623   4.844   1.022 -0.7343 -0.2817  0.4408
25073WAT     H1 2097   7.568   4.767   1.006 -2.1749  1.0421 -1.4517
25073WAT     H2 2098   7.679   4.849   0.944 -0.2705  0.2695  0.8056
25073WAT    EPW 2099   7.623   4.834   1.009 -0.8631 -0.0343  0.2393
25074WAT      O 2100   9.788   6.151   2.521 -0.4105 -0.2939  0.4397
25074WAT     H1 2101   9.794   6.098   2.441  1.2384  0.0545  0.2990
25074WAT     H2 2102   9.701   6.130   2.557 -0.9055 -0.9791 -1.0599
25074WAT    EPW 2103   9.777   6.141   2.515 -0.2580 -0.3383  0.2234
25075WAT      O 2104  10.367   6.756   0.441  0.0552  0.3567 -0.1356
25075WAT     H1 2105  10.283   6.744   0.485  0.0144  1.9985  0.3165
25075WAT     H2 2106  10.344   6.795   0.357  0.2625 -1.0111 -0.8497
25075WAT    EPW 2107  10.353   6.760   0.436  0.0768  0.3929 -0.1701
25076WAT      O 2108  10.046   6.234   2.593 -0.3649  0.2649 -0.1488
25076WAT     H1 2109  10.037   6.249   2.687 -1.0429  2.9467 -0.5556
25076WAT     H2 2110   9.960   6.203   2.566  0.0624 -1.3177  0.1821
25076WAT    EPW 2111  10.033   6.232   2.602 -0.3986  0.4098 -0.1588
25077WAT      O 2112  10.601   6.291   2.815  0.4667 -0.1707 -0.5012
25077WAT     H1 2113  10.606   6.197   2.831 -1.5624 -0.3669 -0.7189
25077WAT     H2 2114  10.525   6.301   2.758  1.5400  1.4769 -1.7372
25077WAT    EPW 2115  10.592   6.280   2.810  0.3409  0.0205 -0.6930
25078WAT      O 2116   5.341   4.992   2.204  0.1603  0.1709 -0.0054
25078WAT     H1 2117   5.290   5.024   2.130 -1.8896 -2.0679  0.2993
25078WAT     H2 2118   5.431   4.987   2.172 -0.6169 -0.4404 -2.2692
25078WAT    EPW 2119   5.346   4.995   2.190 -0.2127 -0.2048 -0.2639
25079WAT      O 2120   5.323   8.220   3.507 -0.3071 -0.1832 -0.3293
25079WAT     H1 2121   5.276   8.188   3.584  3.1649 -4.4285  0.3979
25079WAT     H2 2122   5.312   8.152   3.441  2.2958 -0.0004 -1.0927
25079WAT    EPW 2123   5.316   8.207   3.509  0.4942 -0.7186 -0.3343
25080WAT      O 2124   7.187   8.781   7.000 -0.3125  0.9178  0.1985
25080WAT     H1 2125   7.255   8.717   6.981 -2.1423 -0.4069 -2.6992
25080WAT     H2 2126   7.129   8.738   7.063 -0.2813  0.6572  0.0485
25080WAT    EPW 2127   7.188   8.767   7.006 -0.5498  0.7086 -0.2036
25081WAT      O 2128   6.245   0.944   4.703 -0.1671 -0.0573 -0.0324
25081WAT     H1 2129   6.282   1.033   4.700  0.4232 -0.2751  0.4757
25081WAT     H2 2130   6.208   0.938   4.792  1.2984 -0.8917  0.5531
25081WAT    EPW 2131   6.245   0.955   4.715  0.1042 -0.1960  0.1118
25082WAT      O 2132   3.696   0.873   0.067  0.3513  0.2842  0.3292
25082WAT     H1 2133   3.657   0.939   0.124  0.9800  0.3924  0.6471
25082WAT     H2 2134   3.759   0.921   0.013 -1.6130  0.5417 -1.8873
25082WAT    EPW 2135   3.699   0.888   0.067  0.1751  0.3324  0.0788
25083WAT      O 2136   5.938   3.330   5.977 -0.0505 -0.4301 -0.3478
25083WAT     H1 2137   5.931   3.425   5.970 -0.6456 -0.3448  1.1214
25083WAT     H2 2138   5.885   3.297   5.905 -1.9104  0.3577  0.5887
25083WAT    EPW 2139   5.930   3.338   5.967 -0.3743 -0.3150 -0.0305
25084WAT      O 2140   6.482   4.354   3.510  0.0952 -0.4282  0.1296
25084WAT     H1 2141   6.431   4.349   3.429 -0.0845  0.1724  0.1983
25084WAT     H2 2142   6.571   4.376   3.480  0.1359 -0.6748  0.0662
25084WAT    EPW 2143   6.487   4.357   3.495  0.0768 -0.3815  0.1303
25085WAT      O 2144   8.400   8.601   8.283  0.1499  0.1575  0.3358
25085WAT     H1 2145   8.306   8.589   8.290  0.2818 -1.7041 -0.3763
25085WAT     H2 2146   8.425   8.550   8.206  1.2557  3.7877 -1.9296
25085WAT    EPW 2147   8.391   8.592   8.274  0.3128  0.3910 -0.0572
25086WAT      O 2148   7.777  10.074   7.643 -0.4352  0.1678  0.3737
25086WAT     H1 2149   7.706  10.021   7.607  1.1459 -2.1075  0.3887
25086WAT     H2 2150   7.741  10.162   7.650 -2.6274 -0.5172 -1.3757
25086WAT    EPW 2151   7.763  10.079   7.639 -0.5159 -0.2222  0.1450
25087WAT      O 2152   7.298   4.777   0.207  0.0556  0.1103  0.5269
25087WAT     H1 2153   7.213   4.804   0.241  0.7489  0.6625  1.9110
25087WAT     H2 2154   7.359   4.795   0.279  1.3105 -0.4672 -0.3584
25087WAT    EPW 2155   7.295   4.783   0.221  0.3128  0.1066  0.5927
25088WAT      O 2156   7.367   6.687   0.548  1.0181 -0.2427 -0.1964
25088WAT     H1 2157   7.350   6.760   0.488 -0.6115  0.6504  1.2529
25088WAT     H2 2158   7.462   6.686   0.558  1.0854  2.0311  0.0883
25088WAT    EPW 2159   7.377   6.697   0.541  0.8118  0.1750  0.0323
25089WAT      O 2160   9.883   6.324   2.049  0.4348  0.6380 -0.5797
25089WAT     H1 2161   9.895   6.406   2.001  3.2850 -0.4928 -2.0316
25089WAT     H2 2162   9.959   6.271   2.025 -0.3392 -1.7416  1.7683
25089WAT    EPW 2163   9.895   6.328   2.039  0.7086  0.1750 -0.4615
25090WAT      O 2164   8.474   3.733   0.653  0.6352  0.2517 -0.2964
25090WAT     H1 2165   8.560   3.767   0.628  0.9119  0.8095  1.3253
25090WAT     H2 2166   8.428   3.809   0.687 -0.9416  0.2044 -2.1459
25090WAT    EPW 2167   8.479   3.747   0.654  0.4635  0.3190 -0.3264
25091WAT      O 2168   8.795   6.860   2.271 -0.5983  0.1669 -0.0178
25091WAT     H1 2169   8.813   6.953   2.264 -2.0084  0.5759  1.3829
25091WAT     H2 2170   8.773   6.833   2.182  2.8017  0.4283 -1.1109
25091WAT    EPW 2171   8.795   6.868   2.259 -0.3352  0.2553  0.0228
25092WAT      O 2172   8.194   5.070   1.346 -0.4346 -0.0925 -0.3595
25092WAT     H1 2173   8.108   5.101   1.373 -0.8360  0.2032 -1.8860
25092WAT     H2 2174   8.245   5.068   1.427 -1.9278 -0.5194  0.6110
25092WAT    EPW 2175   8.190   5.074   1.360 -0.6843 -0.1097 -0.4328
25093WAT      O 2176   4.691   0.707   7.934 -0.6288 -0.7923  0.7653
25093WAT     H1 2177   4.712   0.616   7.916 -2.9048 -1.0729 -0.9094
25093WAT     H2 2178   4.735   0.756   7.865  1.0431 -0.5102  1.9788
25093WAT    EPW 2179   4.699   0.701   7.923 -0.7086 -0.7921  0.7048
25094WAT      O 2180   4.256   4.623   2.286 -0.1142  0.9137 -0.2229
25094WAT     H1 2181   4.236   4.554   2.223 -1.9337  0.7458  0.4943
25094WAT     H2 2182   4.318   4.582   2.347 -0.0282  0.4021 -0.6431
25094WAT    EPW 2183   4.262   4.608   2.285 -0.3431  0.8242 -0.1836
25095WAT      O 2184  10.587   4.302   1.260  0.4822 -0.3358  0.1461
25095WAT     H1 2185  10.532   4.243   1.311  1.1610 -1.0925  0.0211
25095WAT     H2 2186  10.532   4.328   1.186  1.1841 -3.4320 -1.6338
25095WAT    EPW 2187  10.572   4.298   1.257  0.6642 -0.8440 -0.1052
25096WAT      O 2188   9.824   9.002   2.066 -0.5660 -0.0166 -0.3561
25096WAT     H1 2189   9.775   8.946   2.126 -0.1778  1.9512  1.9544
25096WAT     H2 2190   9.769   9.080   2.055 -0.6037 -0.2766 -2.6044
25096WAT    EPW 2191   9.810   9.005   2.072 -0.5202  0.2089 -0.3477
25097WAT      O 2192   8.265   6.595   3.718  0.0569  0.0563  0.0704
25097WAT     H1 2193   8.269   6.651   3.640  0.0532 -0.6722 -0.4599
25097WAT     H2 2194   8.278   6.506   3.685  0.1977 -0.2509  0.9226
25097WAT    EPW 2195   8.267   6.591   3.703  0.0749 -0.0803  0.1128
25098WAT      O 2196  10.166   7.494   0.726  0.7089  0.4888 -0.3028
25098WAT     H1 2197  10.172   7.465   0.635 -2.3465  0.9335 -0.7567
25098WAT     H2 2198  10.075   7.479   0.750  0.0978  4.8468  1.0477
25098WAT    EPW 2199  10.155   7.488   0.718  0.2255  1.1220 -0.1846
25099WAT      O 2200   7.354   6.392   1.312  1.2038  0.4090  0.3308
25099WAT     H1 2201   7.351   6.322   1.246  1.1474  1.1865 -0.5204
25099WAT     H2 2202   7.284   6.453   1.284  2.9789  2.1681 -0.5383
25099WAT    EPW 2203   7.344   6.391   1.299  1.4305  0.7434  0.1039
25100WAT      O 2204   1.842   0.906   8.929 -0.1019 -1.1647 -0.5606
25100WAT     H1 2205   1.837   1.000   8.908 -3.1387 -1.5411 -2.0539
25100WAT     H2 2206   1.901   0.902   9.004 -0.5748  2.0646  0.1472
25100WAT    EPW 2207   1.849   0.918   8.936 -0.5647 -0.7884 -0.6638
25101WAT      O 2208   7.460   7.201   2.426  0.1277 -0.3130  0.1896
25101WAT     H1 2209   7.422   7.221   2.341 -1.4254 -1.1348  0.6479
25101WAT     H2 2210   7.535   7.146   2.406  0.6522  0.7007 -0.7141
25101WAT    EPW 2211   7.465   7.196   2.412 -0.0079 -0.2880  0.1308
25102WAT      O 2212   9.112   6.694   0.044 -0.5498  0.2494  0.7258
25102WAT     H1 2213   9.105   6.599   0.037 -0.2991  0.3485 -1.5709
25102WAT     H2 2214   9.026   6.723   0.075 -0.2309 -0.7863  2.6716
25102WAT    EPW 2215   9.100   6.686   0.047 -0.4745  0.1256  0.6795
25103WAT      O 2216   7.559   6.238   2.862 -0.3138 -0.5449  0.4515
25103WAT     H1 2217   7.557   6.171   2.930 -0.3588 -2.2125 -1.1099
25103WAT     H2 2218   7.499   6.206   2.795  0.0856  0.7865 -0.5827
25103WAT    EPW 2219   7.551   6.225   2.862 -0.2670 -0.5891  0.1091
25104WAT      O 2220   8.748   6.455   1.156 -0.1663  0.3931  0.0923
25104WAT     H1 2221   8.766   6.433   1.065  1.1501  4.2181 -0.7759
25104WAT     H2 2222   8.744   6.551   1.157  1.6063  0.6504  4.2905
25104WAT    EPW 2223   8.750   6.465   1.144  0.2408  0.9315  0.5314
25105WAT      O 2224   6.520   7.052   3.293 -0.0259 -0.2471 -0.6193
25105WAT     H1 2225   6.561   6.987   3.350 -0.7153 -1.0068 -0.9716
25105WAT     H2 2226   6.437   7.072   3.336 -0.2233 -0.2816 -0.9808
25105WAT    EPW 2227   6.515   7.046   3.307 -0.1426 -0.3519 -0.7133
25106WAT      O 2228   1.684   9.741   5.402 -0.2249  1.0318  0.5196
25106WAT     H1 2229   1.688   9.834   5.423  0.9626  1.1859 -0.2674
25106WAT     H2 2230   1.775   9.715   5.389 -0.6049 -0.0050 -0.2675
25106WAT    EPW 2231   1.697   9.750   5.403 -0.1184  0.9155  0.3123
25107WAT      O 2232   5.121   0.975   8.881 -0.4507  0.5754  0.0640
25107WAT     H1 2233   5.065   1.052   8.876 -2.0052 -0.3493  1.8205
25107WAT     H2 2234   5.060   0.901   8.878  1.0403 -0.7091 -2.6779
25107WAT    EPW 2235   5.106   0.975   8.880 -0.4590  0.2840 -0.0658
25108WAT      O 2236   5.747   7.165   2.096  0.2600  0.3176 -0.6109
25108WAT     H1 2237   5.768   7.179   2.188 -2.7295  0.8630  0.1081
25108WAT     H2 2238   5.832   7.155   2.053  1.7402 -2.1169  2.4885
25108WAT    EPW 2239   5.761   7.166   2.102  0.0608  0.0682 -0.1073
25109WAT      O 2240   5.863   4.847   2.811 -0.1792 -1.0989  0.2511
25109WAT     H1 2241   5.908   4.927   2.784 -0.2543 -1.1194  0.0620
25109WAT     H2 2242   5.860   4.852   2.907 -0.9939 -0.4432  0.2004
25109WAT    EPW 2243   5.869   4.858   2.820 -0.2966 -1.0149  0.2195
25110WAT      O 2244   4.360   6.441   0.232 -0.4082  0.0644  0.5144
25110WAT     H1 2245   4.410   6.520   0.215  1.2523 -0.9863  0.2486
25110WAT     H2 2246   4.320   6.419   0.148 -0.4288  0.3142  0.4578
25110WAT    EPW 2247   4.362   6.448   0.219 -0.1919 -0.0410  0.4719
25111WAT      O 2248   7.589   5.908   3.452  0.0952 -0.4939 -0.2836
25111WAT     H1 2249   7.676   5.926   3.489  0.2474  0.6138 -1.1451
25111WAT     H2 2250   7.602   5.911   3.358 -0.9508 -0.0234 -0.4169
25111WAT    EPW 2251   7.603   5.910   3.445 -0.0226 -0.2859 -0.4148
25112WAT      O 2252   9.214   6.922   2.316  0.1519 -0.2709  1.1986
25112WAT     H1 2253   9.244   6.837   2.283 -1.0926 -0.0293 -0.7510
25112WAT     H2 2254   9.283   6.983   2.290 -1.2324  0.0941 -2.2313
25112WAT    EPW 2255   9.227   6.919   2.308 -0.1950 -0.1907  0.4891
25113WAT      O 2256   2.542   0.388   8.827 -0.1740  0.1227 -0.2073
25113WAT     H1 2257   2.531   0.360   8.736 -0.8246  1.7157 -0.6587
25113WAT     H2 2258   2.621   0.342   8.857  2.0776  2.0286 -2.6566
25113WAT    EPW 2259   2.551   0.378   8.819  0.0371  0.5841 -0.5903
25114WAT      O 2260   0.689   9.623   8.581 -0.2370 -0.3271  0.0613
25114WAT     H1 2261   0.677   9.716   8.600 -1.0264 -0.2668 -0.6930
25114WAT     H2 2262   0.662   9.613   8.490  0.0412 -1.2629  0.0677
25114WAT    EPW 2263   0.684   9.634   8.571 -0.3044 -0.4425 -0.0377
25115WAT      O 2264   8.462   6.821   2.429 -0.6444  0.2796 -0.0700
25115WAT     H1 2265   8.374   6.857   2.417 -1.3968 -1.5210 -0.2515
25115WAT     H2 2266   8.513   6.858   2.357 -0.8167  2.5196  0.8808
25115WAT    EPW 2267   8.457   6.830   2.418 -0.7658  0.3374  0.0315
25116WAT      O 2268   8.622   7.562   1.588 -0.3989 -0.6456 -0.5467
25116WAT     H1 2269   8.605   7.553   1.495  0.0134  4.1610 -1.3420
25116WAT     H2 2270   8.540   7.537   1.631 -1.2991 -0.9191 -2.3559
25116WAT    EPW 2271   8.609   7.557   1.582 -0.4630 -0.0479 -0.8902
25117WAT      O 2272   4.290   1.836   8.123 -0.1236 -0.7662  0.1598
25117WAT     H1 2273   4.324   1.838   8.212  0.1172  2.5360  0.1323
25117WAT     H2 2274   4.366   1.818   8.068  0.7673  1.7654  0.4198
25117WAT    EPW 2275   4.305   1.834   8.127  0.0260  0.0033  0.1903
25118WAT      O 2276   6.130   4.124   0.214  0.0094  0.8243  0.8819
25118WAT     H1 2277   6.179   4.178   0.152 -1.3942  0.6129 -0.4681
25118WAT     H2 2278   6.151   4.034   0.190  0.2914  0.7321  1.4368
25118WAT    EPW 2279   6.140   4.120   0.203 -0.1385  0.7844  0.7771
25119WAT      O 2280   7.312   6.933   0.096 -0.4461 -0.0160 -0.8535
25119WAT     H1 2281   7.266   6.859   0.056  0.3471 -0.9129 -0.1529
25119WAT     H2 2282   7.270   7.011   0.059 -1.1014 -0.8176 -1.8223
25119WAT    EPW 2283   7.300   6.934   0.086 -0.4277 -0.2401 -0.8888
25120WAT      O 2284   6.617   2.809   2.255  0.5900 -0.4916  0.1335
25120WAT     H1 2285   6.535   2.817   2.303 -0.3116  1.0657 -1.5626
25120WAT     H2 2286   6.593   2.825   2.164  2.3454 -2.6559 -0.8169
25120WAT    EPW 2287   6.603   2.812   2.250  0.7026 -0.5718 -0.2154
25121WAT      O 2288   9.467   6.290   2.976  0.5494  0.0804 -0.7194
25121WAT     H1 2289   9.393   6.229   2.985  0.9540 -0.3651 -0.3425
25121WAT     H2 2290   9.458   6.326   2.888  0.8844 -1.3034 -1.3587
25121WAT    EPW 2291   9.456   6.286   2.966  0.6471 -0.1607 -0.7540
25122WAT      O 2292   8.189   5.134   0.139 -0.5186 -0.3414 -0.4831
25122WAT     H1 2293   8.265   5.112   0.084 -0.6179  0.4354 -0.9411
25122WAT     H2 2294   8.214   5.215   0.183 -0.6453 -0.6919  0.2323
25122WAT    EPW 2295   8.202   5.142   0.137 -0.5479 -0.2851 -0.4492
25123WAT      O 2296   5.885   5.490   3.242  0.0581 -0.3426  0.0255
25123WAT     H1 2297   5.920   5.466   3.328  0.4656  1.2481  0.3180
25123WAT     H2 2298   5.946   5.451   3.180  1.2704  0.7385  0.5060
25123WAT    EPW 2299   5.898   5.481   3.245  0.2718  0.0098  0.1276
25124WAT      O 2300   3.386   3.397   7.299 -0.6565  0.1650  0.2828
25124WAT     H1 2301   3.350   3.312   7.272 -0.0268  0.2083 -0.7312
25124WAT     H2 2302   3.450   3.375   7.367  1.0006 -0.4226 -1.3642
25124WAT    EPW 2303   3.390   3.383   7.304 -0.3550  0.0932 -0.0682
25125WAT      O 2304   0.212   4.224   3.349 -0.1403 -0.3855  0.0707
25125WAT     H1 2305   0.262   4.147   3.376  0.5320  0.5062  1.4884
25125WAT     H2 2306   0.262   4.262   3.277  0.8561  0.0836  0.9883
25125WAT    EPW 2307   0.225   4.219   3.343  0.0798 -0.2058  0.3786
25126WAT      O 2308   7.511   4.183   1.531 -0.7030  0.1872  0.1865
25126WAT     H1 2309   7.433   4.136   1.559 -0.9941  0.6677  0.1993
25126WAT     H2 2310   7.584   4.135   1.570 -0.9738 -0.4226 -0.0561
25126WAT    EPW 2311   7.510   4.171   1.540 -0.7772  0.1702  0.1562
25127WAT      O 2312   5.401   5.864   0.954 -0.2151  0.6430  0.2533
25127WAT     H1 2313   5.322   5.833   0.910 -0.8589  1.5815  0.7070
25127WAT     H2 2314   5.371   5.934   1.011  0.7543  0.1734  1.3985
25127WAT    EPW 2315   5.387   5.869   0.956 -0.1719  0.7048  0.4641
25128WAT      O 2316   3.766   4.502   2.328  0.4119 -0.1977  0.0395
25128WAT     H1 2317   3.761   4.434   2.396 -0.8120  0.4000  0.5740
25128WAT     H2 2318   3.676   4.530   2.315  0.5946 -0.3802 -1.9492
25128WAT    EPW 2319   3.754   4.497   2.335  0.2747 -0.1428 -0.1525
25129WAT      O 2320   8.651   7.567   3.588 -0.4740 -0.4538 -0.3117
25129WAT     H1 2321   8.595   7.638   3.554 -0.1452  1.3157  2.4567
25129WAT     H2 2322   8.738   7.606   3.591  0.3809 -2.1455 -1.6764
25129WAT    EPW 2323   8.655   7.582   3.584 -0.3181 -0.4435 -0.1266
25130WAT      O 2324   4.617   1.989   6.540 -0.0206 -0.0597 -0.1425
25130WAT     H1 2325   4.631   2.052   6.469 -0.3947  0.0211 -0.1426
25130WAT     H2 2326   4.629   1.904   6.500  0.4253  0.0063 -0.1575
25130WAT    EPW 2327   4.621   1.986   6.526 -0.0110 -0.0403 -0.1445
25131WAT      O 2328   8.862   6.187   4.501 -0.2138  0.3319 -0.2939
25131WAT     H1 2329   8.835   6.164   4.412 -0.4542 -0.2803 -0.0734
25131WAT     H2 2330   8.837   6.279   4.511 -3.5833 -0.4826  0.3270
25131WAT    EPW 2331   8.855   6.196   4.491 -0.6900  0.1438 -0.1829
25132WAT      O 2332   4.994   4.211   2.679 -0.4052  0.3060  0.1040
25132WAT     H1 2333   5.027   4.193   2.766 -0.8440 -0.2973  0.1515
25132WAT     H2 2334   4.912   4.258   2.693 -1.4137 -1.3796  0.0702
25132WAT    EPW 2335   4.988   4.215   2.692 -0.5958  0.0043  0.1057
25133WAT      O 2336   7.461   3.820   3.829 -0.2262 -0.1171 -0.0121
25133WAT     H1 2337   7.401   3.787   3.762  0.1659 -1.6793  0.3427
25133WAT     H2 2338   7.463   3.914   3.816 -4.1076  0.3091  1.0673
25133WAT    EPW 2339   7.453   3.828   3.818 -0.6864 -0.2670  0.1771
25134WAT      O 2340   8.780   7.277   3.074 -0.1422 -0.2850  0.2014
25134WAT     H1 2341   8.745   7.341   3.012  2.9473  0.9592 -0.4524
25134WAT     H2 2342   8.817   7.208   3.020 -1.0537 -1.3093  0.8400
25134WAT    EPW 2343   8.780   7.277   3.059  0.1450 -0.2561  0.1993
25135WAT      O 2344   3.529   2.789   0.406 -0.4514 -0.1142  0.1163
25135WAT     H1 2345   3.485   2.866   0.441  1.0126  0.2827  1.1960
25135WAT     H2 2346   3.619   2.796   0.439  0.1334 -1.4546 -1.0856
25135WAT    EPW 2347   3.535   2.800   0.415 -0.1813 -0.2385  0.1002
25136WAT      O 2348   7.033   2.045   8.839 -0.1706  0.4691  0.0987
25136WAT     H1 2349   7.045   1.957   8.876 -3.0679  0.8770  2.3671
25136WAT     H2 2350   7.080   2.102   8.900  0.2707  0.6610 -0.4125
25136WAT    EPW 2351   7.041   2.041   8.852 -0.4947  0.5481  0.3304
25137WAT      O 2352   9.168   3.137   2.508 -0.3524  0.0682 -0.4884
25137WAT     H1 2353   9.146   3.187   2.587  1.9181 -1.8537  1.5122
25137WAT     H2 2354   9.213   3.199   2.451  2.2189  0.5306  1.8431
25137WAT    EPW 2355   9.171   3.151   2.511  0.2856 -0.1245  0.0831
25138WAT      O 2356   5.813   4.832   1.515  0.2619 -0.3345 -0.1478
25138WAT     H1 2357   5.903   4.805   1.532  0.4589  0.2476 -0.2690
25138WAT     H2 2358   5.803   4.915   1.562  0.3052  0.4499 -1.4991
25138WAT    EPW 2359   5.824   4.839   1.524  0.2937 -0.1543 -0.3421
25139WAT      O 2360   7.247   7.334   3.726 -0.1617 -0.9943 -0.6676
25139WAT     H1 2361   7.280   7.395   3.792  0.8354 -2.6480  0.4271
25139WAT     H2 2362   7.294   7.357   3.646  1.1687 -1.1437  0.0497
25139WAT    EPW 2363   7.257   7.345   3.724  0.1454 -1.2319 -0.4287
25140WAT      O 2364   0.514   9.352   8.148  0.1156 -0.3513 -0.0045
25140WAT     H1 2365   0.587   9.376   8.205  0.1652 -1.6381  0.5164
25140WAT     H2 2366   0.480   9.435   8.116  1.3385  0.3055  0.3342
25140WAT    EPW 2367   0.519   9.366   8.151  0.2834 -0.4339  0.1087
25141WAT      O 2368   6.340   6.649   2.200  0.1387  0.0735  0.1485
25141WAT     H1 2369   6.255   6.629   2.240 -0.0491  1.3130  0.4085
25141WAT     H2 2370   6.334   6.613   2.111 -0.1012 -1.1403  0.6487
25141WAT    EPW 2371   6.328   6.642   2.193  0.0823  0.0770  0.2488
25142WAT      O 2372   5.764   9.244   1.265  0.2478  0.0199 -0.3705
25142WAT     H1 2373   5.825   9.172   1.273  1.2650  0.6130 -2.1575
25142WAT     H2 2374   5.739   9.265   1.355  1.1393 -1.5132  0.2648
25142WAT    EPW 2375   5.769   9.238   1.278  0.4995 -0.1044 -0.5224
25143WAT      O 2376   8.355   6.761   2.869 -0.8444  0.7366 -0.1093
25143WAT     H1 2377   8.431   6.714   2.903  0.1863  2.7116  0.4851
25143WAT     H2 2378   8.282   6.731   2.923 -0.4179 -0.8128 -0.3497
25143WAT    EPW 2379   8.355   6.751   2.881 -0.6523  0.7927 -0.0626
25144WAT      O 2380   1.536   9.444   6.158  0.2443 -0.1553 -0.0870
25144WAT     H1 2381   1.567   9.426   6.070 -0.5414  3.0284 -1.1572
25144WAT     H2 2382   1.600   9.402   6.216  1.4107 -1.3522 -2.1397
25144WAT    EPW 2383   1.548   9.436   6.154  0.2946  0.1073 -0.4988
25145WAT      O 2384   4.847   5.416   2.021  0.1378 -0.1593 -0.1898
25145WAT     H1 2385   4.769   5.447   1.975  0.6222  0.7992 -0.3837
25145WAT     H2 2386   4.918   5.468   1.985  0.4285  1.2878  2.2435
25145WAT    EPW 2387   4.846   5.426   2.010  0.2401  0.1581  0.1055
25146WAT      O 2388   6.139   5.874   1.566  0.6122 -0.0560 -0.5454
25146WAT     H1 2389   6.234   5.871   1.576  0.8563  1.1293 -2.1620
25146WAT     H2 2390   6.110   5.787   1.595  1.9154  0.2628  2.0162
25146WAT    EPW 2391   6.148   5.862   1.571  0.8163  0.1423 -0.4207
25147WAT      O 2392   5.603   6.136   2.821  0.0245 -0.8174 -0.8792
25147WAT     H1 2393   5.582   6.063   2.879 -0.3116 -2.7313 -3.2346
25147WAT     H2 2394   5.698   6.148   2.831 -0.0361 -1.0653  0.0859
25147WAT    EPW 2395   5.613   6.128   2.830 -0.0279 -1.1024 -1.0626
25148WAT      O 2396   6.722   7.341   3.122 -0.5734 -0.2377  0.2826
25148WAT     H1 2397   6.722   7.358   3.216 -0.7037 -1.8291  0.6106
25148WAT     H2 2398   6.629   7.328   3.101 -0.5146 -0.2142  0.0165
25148WAT    EPW 2399   6.710   7.341   3.132 -0.5829 -0.4444  0.2906
25149WAT      O 2400   4.992   3.439   3.245  0.9286  0.0486 -0.3419
25149WAT     H1 2401   5.061   3.444   3.311  0.6977 -0.5359 -0.0619
25149WAT     H2 2402   4.966   3.348   3.243 -1.7763  0.6771  1.5338
25149WAT    EPW 2403   4.998   3.428   3.253  0.5414  0.0544 -0.0575
25150WAT      O 2404  10.062   6.016   2.210  0.1723 -0.0021  0.7270
25150WAT     H1 2405  10.130   6.013   2.277  3.9813 -0.4546 -2.7978
25150WAT     H2 2406  10.044   5.924   2.190  2.1971  0.0325 -1.5940
25150WAT    EPW 2407  10.068   6.003   2.217  0.9418 -0.0572 -0.0440
25151WAT      O 2408  10.679   6.083   1.870  0.0054 -0.0736 -0.1629
25151WAT     H1 2409  10.675   6.143   1.945  1.3402 -0.0214 -0.1150
25151WAT     H2 2410  10.663   6.139   1.794  0.3316  0.1782 -0.0474
25151WAT    EPW 2411  10.676   6.098   1.870  0.2251 -0.0334 -0.1413
25152WAT      O 2412   7.682   6.282   0.155 -0.2531 -0.2568  0.3698
25152WAT     H1 2413   7.702   6.231   0.078 -2.4063 -0.2572 -0.2738
25152WAT     H2 2414   7.624   6.226   0.207  0.6985 -0.0430  1.7213
25152WAT    EPW 2415   7.677   6.268   0.152 -0.4115 -0.2289  0.4632
25153WAT      O 2416   6.245   4.588   2.060  0.9076  0.0366  1.2581
25153WAT     H1 2417   6.236   4.533   1.983  1.3626  2.0954 -0.3560
25153WAT     H2 2418   6.156   4.618   2.079  0.6783 -1.0947  2.0627
25153WAT    EPW 2419   6.232   4.585   2.052  0.9375  0.1588  1.1513
25154WAT      O 2420  10.096   6.634   2.415  0.5326  0.3331  0.1529
25154WAT     H1 2421  10.057   6.554   2.380  5.3664 -2.2838 -0.1123
25154WAT     H2 2422  10.171   6.651   2.359  0.3243  4.6228  0.8315
25154WAT    EPW 2423  10.100   6.625   2.403  1.1420  0.5538  0.2075
25155WAT      O 2424   8.158   9.673   5.252  0.1551 -0.4191  0.1481
25155WAT     H1 2425   8.249   9.667   5.281  0.0588 -0.5828  0.4260
25155WAT     H2 2426   8.139   9.587   5.216  0.0051 -0.5001  0.4136
25155WAT    EPW 2427   8.167   9.661   5.251  0.1230 -0.4516  0.2196
25156WAT      O 2428   7.334   4.407   1.614 -0.6264  0.8189  0.3249
25156WAT     H1 2429   7.388   4.333   1.585  1.7379  2.6316 -0.2546
25156WAT     H2 2430   7.246   4.385   1.584  0.2663 -1.0524 -1.1840
25156WAT    EPW 2431   7.329   4.394   1.606 -0.1967  0.8111  0.0495
25157WAT      O 2432   3.740   1.281   6.609 -0.7232 -0.2875  0.0745
25157WAT     H1 2433   3.719   1.365   6.569 -0.6393 -0.7029 -0.8727
25157WAT     H2 2434   3.812   1.300   6.670 -1.3236  0.4739  0.5641
25157WAT    EPW 2435   3.747   1.294   6.612 -0.7913 -0.2419  0.0141
25158WAT      O 2436   9.540   6.769   2.786  0.0518 -0.1719 -0.4308
25158WAT     H1 2437   9.624   6.787   2.743  2.1983 -2.2039  2.4710
25158WAT     H2 2438   9.564   6.752   2.878 -3.7193  0.1875  0.7698
25158WAT    EPW 2439   9.554   6.769   2.793 -0.1626 -0.3927  0.1104
25159WAT      O 2440   5.660   2.895   8.272  0.2383  0.5635 -0.4264
25159WAT     H1 2441   5.689   2.871   8.184  0.6116  1.1503 -0.4628
25159WAT     H2 2442   5.711   2.838   8.330 -1.4836 -1.3351 -0.6395
25159WAT    EPW 2443   5.670   2.884   8.268  0.0603  0.3905 -0.4592
25160WAT      O 2444   7.118   6.740   3.664 -0.2842  0.2041 -1.1342
25160WAT     H1 2445   7.073   6.663   3.630 -2.4768  1.4133 -1.1422
25160WAT     H2 2446   7.080   6.814   3.617  1.9020  1.3386 -1.2766
25160WAT    EPW 2447   7.107   6.740   3.654 -0.2851  0.5133 -1.1539
25161WAT      O 2448   2.098   0.639   6.937  0.1656 -0.2542  0.0475
25161WAT     H1 2449   2.104   0.581   7.013  0.2629 -1.9858 -1.2234
25161WAT     H2 2450   2.141   0.591   6.867  0.7620  1.6387 -0.9394
25161WAT    EPW 2451   2.104   0.625   6.938  0.2571 -0.2330 -0.2503
25162WAT      O 2452   8.221   1.025   6.964  0.2650 -0.5871 -0.0328
25162WAT     H1 2453   8.282   0.962   6.925 -0.9179 -0.9944 -1.2898
25162WAT     H2 2454   8.192   1.079   6.890 -0.2781  0.1277  0.6884
25162WAT    EPW 2455   8.226   1.024   6.949  0.0372 -0.5465 -0.1032
25163WAT      O 2456   2.315   0.069   7.605  0.3334 -0.4578 -0.0162
25163WAT     H1 2457   2.337   0.102   7.692  0.7459 -0.4219 -0.1325
25163WAT     H2 2458   2.273  -0.016   7.622 -1.2182  0.3377  0.3113
25163WAT    EPW 2459   2.312   0.062   7.619  0.1832 -0.3482  0.0117
25164WAT      O 2460   8.374  10.148   7.740 -0.2214 -0.7775 -0.1709
25164WAT     H1 2461   8.369  10.179   7.649  2.2439 -2.5387 -1.0199
25164WAT     H2 2462   8.289  10.171   7.778 -0.9760  0.8841 -2.6131
25164WAT    EPW 2463   8.362  10.155   7.733  0.0038 -0.7906 -0.6049
25165WAT      O 2464   8.902   5.192   2.611 -0.1230 -0.3006 -0.6890
25165WAT     H1 2465   8.947   5.270   2.643 -1.2074  1.0876 -2.3541
25165WAT     H2 2466   8.830   5.226   2.557  1.0237 -2.4006 -3.8230
25165WAT    EPW 2467   8.898   5.206   2.608 -0.1149 -0.3941 -1.3220
25166WAT      O 2468   9.374   5.756   2.153 -0.1858  0.0469  0.4224
25166WAT     H1 2469   9.307   5.817   2.124  1.1470  1.1003 -0.5684
25166WAT     H2 2470   9.392   5.781   2.244 -0.2076  0.6033  0.2731
25166WAT    EPW 2471   9.368   5.767   2.162 -0.0134  0.2589  0.2720
25167WAT      O 2472   4.927   6.139   2.386 -0.3179 -0.6153  0.5894
25167WAT     H1 2473   4.885   6.180   2.462  0.5788 -0.7245  1.1571
25167WAT     H2 2474   4.856   6.090   2.344 -1.0217  0.1310  0.8594
25167WAT    EPW 2475   4.912   6.138   2.390 -0.2925 -0.5317  0.6999
25168WAT      O 2476   1.788   9.687   4.863  0.5584 -0.8635  0.0332
25168WAT     H1 2477   1.703   9.704   4.903 -0.0415  0.0882 -1.5680
25168WAT     H2 2478   1.852   9.712   4.930 -0.4024  0.5725  0.4381
25168WAT    EPW 2479   1.785   9.692   4.877  0.3526 -0.5488 -0.1242
25169WAT      O 2480   8.133   6.641   2.547  0.1253 -0.1916 -0.0329
25169WAT     H1 2481   8.227   6.645   2.564 -0.4243  0.8040  3.6812
25169WAT     H2 2482   8.100   6.725   2.578 -2.2781 -1.5260  1.3043
25169WAT    EPW 2483   8.141   6.653   2.553 -0.2642 -0.2363  0.6334
25170WAT      O 2484   9.436   7.604   1.212 -0.0098 -0.0636 -0.1029
25170WAT     H1 2485   9.461   7.625   1.302  2.8873 -1.8244 -0.3451
25170WAT     H2 2486   9.341   7.599   1.213 -0.2101  2.2212  2.2710
25170WAT    EPW 2487   9.427   7.606   1.224  0.3457  0.0057  0.1783
25171WAT      O 2488   6.350   7.890   8.754 -0.5564 -0.3697  0.1079
25171WAT     H1 2489   6.390   7.852   8.675  3.4630 -0.8913  2.1569
25171WAT     H2 2490   6.274   7.834   8.771 -0.1533 -1.6946 -2.0393
25171WAT    EPW 2491   6.345   7.878   8.746  0.0269 -0.6135  0.0949
25172WAT      O 2492   5.045   4.148   0.297  0.4172 -1.0248 -0.6873
25172WAT     H1 2493   5.070   4.084   0.231  1.3827 -0.9552 -0.3993
25172WAT     H2 2494   4.969   4.109   0.341 -0.3104 -1.0147 -1.8996
25172WAT    EPW 2495   5.038   4.134   0.294  0.4487 -1.0140 -0.8092
25173WAT      O 2496   2.230   1.519   7.142 -0.2083  0.2071  0.0065
25173WAT     H1 2497   2.171   1.590   7.167 -2.9572 -1.4134 -1.4061
25173WAT     H2 2498   2.234   1.525   7.046  0.3563 -0.8956 -0.0508
25173WAT    EPW 2499   2.223   1.529   7.133 -0.4966 -0.1521 -0.1872
25174WAT      O 2500   8.806   6.733   2.018  0.4685  0.6322 -0.6537
25174WAT     H1 2501   8.884   6.678   2.012  0.2131  0.0934  0.6191
25174WAT     H2 2502   8.765   6.725   1.932  1.1585 -0.0810 -0.9331
25174WAT    EPW 2503   8.811   6.725   2.006  0.5250  0.4673 -0.5227
25175WAT      O 2504   3.312   6.163   1.178 -0.4221  0.5747 -0.4497
25175WAT     H1 2505   3.402   6.164   1.146  0.3680 -0.1033  1.5575
25175WAT     H2 2506   3.310   6.230   1.246 -0.6990 -1.0221  1.2017
25175WAT    EPW 2507   3.324   6.172   1.183 -0.3545  0.2747  0.0329
25176WAT      O 2508   8.492   8.658   3.303 -0.5719  0.2685 -0.0541
25176WAT     H1 2509   8.468   8.568   3.324  0.2336  0.0981  0.1624
25176WAT     H2 2510   8.413   8.709   3.323 -0.7787 -0.2820  0.5605
25176WAT    EPW 2511   8.478   8.653   3.308 -0.4926  0.1740  0.0556
25177WAT      O 2512   8.575   4.314   0.381 -0.2985  0.6982 -0.2148
25177WAT     H1 2513   8.518   4.385   0.412 -0.5088  0.7558 -0.7264
25177WAT     H2 2514   8.643   4.357   0.330 -0.6842  0.5046 -0.9135
25177WAT    EPW 2515   8.576   4.329   0.379 -0.3772  0.6804 -0.3744
25178WAT      O 2516   8.195   6.707   0.982 -0.2248  0.1441  0.1245
25178WAT     H1 2517   8.125   6.763   0.950 -0.9826 -1.1155 -0.4714
25178WAT     H2 2518   8.179   6.700   1.076 -1.9163 -1.4357 -0.2240
25178WAT    EPW 2519   8.184   6.713   0.991 -0.5479 -0.2303 -0.0001
25179WAT      O 2520   8.609   1.991   1.399 -0.2251 -0.2935 -0.5977
25179WAT     H1 2521   8.675   1.937   1.443 -0.3509 -2.6268 -3.0728
25179WAT     H2 2522   8.660   2.052   1.345 -0.1274  0.8867  0.7407
25179WAT    EPW 2523   8.624   1.992   1.398 -0.2289 -0.4455 -0.7477
25180WAT      O 2524   0.245   6.947   3.704 -0.4778  0.3103 -0.3156
25180WAT     H1 2525   0.184   6.873   3.701 -1.9728  1.5043 -0.6530
25180WAT     H2 2526   0.223   6.992   3.785 -0.7440  1.3211 -0.9386
25180WAT    EPW 2527   0.234   6.943   3.714 -0.7101  0.6011 -0.4421
25181WAT      O 2528   3.253   6.642   1.800  0.1240 -0.2773  0.3357
25181WAT     H1 2529   3.251   6.651   1.704 -1.8700  2.6122  0.4855
25181WAT     H2 2530   3.336   6.682   1.826  0.0426  0.2107 -0.1347
25181WAT    EPW 2531   3.264   6.649   1.790 -0.1497  0.1683  0.2934
25182WAT      O 2532   8.844   9.873   2.189  0.3722  0.5223  0.0742
25182WAT     H1 2533   8.928   9.915   2.201  0.2786  0.8405 -0.3649
25182WAT     H2 2534   8.791   9.901   2.263  0.7221  0.1326  0.4777
25182WAT    EPW 2535   8.848   9.882   2.200  0.4058  0.5126  0.0696
25183WAT      O 2536   4.221   9.291   5.318  1.0029  0.2880  0.0872
25183WAT     H1 2537   4.208   9.225   5.386  0.8332  0.9145  0.6748
25183WAT     H2 2538   4.315   9.307   5.318  1.7043 -2.7206 -2.7264
25183WAT    EPW 2539   4.232   9.284   5.327  1.0729 -0.0267 -0.2065
25184WAT      O 2540   6.484   7.212   3.081 -0.1359  0.0837  0.2412
25184WAT     H1 2541   6.410   7.247   3.131 -1.1769 -1.3747 -0.2205
25184WAT     H2 2542   6.519   7.143   3.136 -0.1047 -0.2774 -0.2286
25184WAT    EPW 2543   6.479   7.208   3.095 -0.2689 -0.1562  0.1184
25185WAT      O 2544   4.474   1.215   6.510  0.2199 -0.2809  0.2899
25185WAT     H1 2545   4.457   1.131   6.467  1.9490  0.1980 -1.4487
25185WAT     H2 2546   4.416   1.214   6.587 -0.2563 -2.7787 -0.0002
25185WAT    EPW 2547   4.464   1.204   6.515  0.3853 -0.5472  0.0224
25186WAT      O 2548  10.512   7.380   3.068  0.5172 -0.3584  0.2230
25186WAT     H1 2549  10.506   7.320   2.994 -1.5750 -0.1682  0.1581
25186WAT     H2 2550  10.479   7.330   3.142 -0.9516  0.5440  0.2292
25186WAT    EPW 2551  10.507   7.366   3.068  0.0472 -0.2143  0.2153
25187WAT      O 2552   0.480   0.462   0.974  0.1149 -0.7542 -0.3095
25187WAT     H1 2553   0.458   0.547   0.936  0.9677 -0.4348 -0.1217
25187WAT     H2 2554   0.564   0.476   1.018 -0.7584 -1.1330  1.5924
25187WAT    EPW 2555   0.488   0.475   0.975  0.1122 -0.7620 -0.0339
25188WAT      O 2556   7.780   5.413   0.631  0.6192 -0.2275 -0.9261
25188WAT     H1 2557   7.862   5.458   0.609  1.1053  0.0171  1.2395
25188WAT     H2 2558   7.717   5.447   0.567  1.3976  2.2065 -0.5058
25188WAT    EPW 2559   7.783   5.423   0.619  0.7861  0.1259 -0.5850
25189WAT      O 2560  10.109   5.617   2.957 -0.1296 -0.2819  0.3756
25189WAT     H1 2561  10.116   5.589   2.865  1.2803 -1.7980  0.9023
25189WAT     H2 2562  10.015   5.625   2.972 -0.5172 -2.5070 -0.5234
25189WAT    EPW 2563  10.098   5.614   2.946  0.0052 -0.7753  0.3265
25190WAT      O 2564   7.571   8.711   2.466 -0.5571  0.0320 -0.3934
25190WAT     H1 2565   7.635   8.760   2.414 -0.0122  2.3139  2.2027
25190WAT     H2 2566   7.620   8.634   2.497 -0.2517 -0.2249 -1.4749
25190WAT    EPW 2567   7.586   8.707   2.463 -0.4447  0.2990 -0.1936
25191WAT      O 2568  10.275   5.639   2.285  0.2393  0.1528 -0.9620
25191WAT     H1 2569  10.270   5.550   2.250  1.4635 -0.5232  0.4308
25191WAT     H2 2570  10.347   5.680   2.238  0.5933 -0.0883 -0.6403
25191WAT    EPW 2571  10.284   5.632   2.274  0.4478  0.0319 -0.7359
25192WAT      O 2572   5.460   2.858   7.259  0.0669  0.0408  0.0597
25192WAT     H1 2573   5.410   2.776   7.256  2.1336 -1.4369  2.4167
25192WAT     H2 2574   5.500   2.865   7.172 -1.5457 -0.4506 -0.7626
25192WAT    EPW 2575   5.459   2.848   7.247  0.1271 -0.2190  0.2623
25193WAT      O 2576  10.173   9.163   4.765 -0.2385 -0.2360  0.0721
25193WAT     H1 2577  10.235   9.100   4.729  0.8178  0.7011  0.1873
25193WAT     H2 2578  10.222   9.207   4.835 -0.0451  2.4011 -1.5890
25193WAT    EPW 2579  10.188   9.161   4.769 -0.0744  0.2351 -0.1318
25194WAT      O 2580  10.569   9.116   0.332  0.5905  0.3169  0.1040
25194WAT     H1 2581  10.599   9.140   0.244  1.0027 -1.3058 -0.2255
25194WAT     H2 2582  10.650   9.098   0.381  0.2930 -2.2434 -0.2421
25194WAT    EPW 2583  10.584   9.117   0.327  0.6056 -0.2341  0.0149
25195WAT      O 2584   1.435   6.172   2.391 -0.2450 -0.1714  0.2650
25195WAT     H1 2585   1.374   6.245   2.388 -3.1137 -2.1516  3.3297
25195WAT     H2 2586   1.423   6.127   2.307 -0.6191  1.1941 -0.4421
25195WAT    EPW 2587   1.425   6.176   2.379 -0.6728 -0.2525  0.5758
25196WAT      O 2588   7.390   8.675   1.695 -0.1821  0.3778  0.7277
25196WAT     H1 2589   7.471   8.625   1.702 -0.2423  0.4045  1.8707
25196WAT     H2 2590   7.320   8.610   1.707 -0.3022  0.5161  0.7794
25196WAT    EPW 2591   7.391   8.660   1.697 -0.2058  0.3991  0.8853
25197WAT      O 2592  10.599   4.242   1.575  0.0610  0.6968 -0.2805
25197WAT     H1 2593  10.667   4.298   1.537 -0.2460  0.8105 -0.6729
25197WAT     H2 2594  10.579   4.283   1.659  0.4337  0.6975 -0.1888
25197WAT    EPW 2595  10.605   4.255   1.581  0.0696  0.7119 -0.3201
25198WAT      O 2596   7.637   6.100   2.609  0.2685 -0.1070  0.2205
25198WAT     H1 2597   7.614   6.057   2.526  1.7459  2.8146 -1.8954
25198WAT     H2 2598   7.693   6.037   2.654  1.2501 -1.0100 -2.0915
25198WAT    EPW 2599   7.642   6.086   2.604  0.5927  0.1595 -0.3635
25199WAT      O 2600   3.368   0.773   8.966 -0.0428  0.0576 -0.2938
25199WAT     H1 2601   3.344   0.710   8.898 -0.7734 -0.5914  0.5269
25199WAT     H2 2602   3.286   0.788   9.014  0.4501  0.5210  0.4165
25199WAT    EPW 2603   3.354   0.767   8.964 -0.0741  0.0331 -0.0916
25200WAT      O 2604   7.918   9.325   8.894 -0.0573 -0.2013 -0.1170
25200WAT     H1 2605   7.898   9.367   8.978 -0.2818 -1.9930  0.7767
25200WAT     H2 2606   8.008   9.353   8.874  0.7082 -1.1960  1.6989
25200WAT    EPW 2607   7.928   9.334   8.903  0.0141 -0.5689  0.2403
25201WAT      O 2608   1.237   8.927   0.104 -0.1330  0.4737  0.0366
25201WAT     H1 2609   1.250   8.924   0.198  0.9070  2.8085  0.0304
25201WAT     H2 2610   1.152   8.970   0.092 -0.9172 -1.0265 -0.1357
25201WAT    EPW 2611   1.228   8.932   0.115 -0.0993  0.5841  0.0131
25202WAT      O 2612   6.702   2.223   6.619  0.3291  0.1742 -1.2393
25202WAT     H1 2613   6.748   2.156   6.670 -0.5450  1.2872  1.1403
25202WAT     H2 2614   6.761   2.298   6.619 -0.9972  1.3238  1.1285
25202WAT    EPW 2615   6.716   2.224   6.626  0.0391  0.4727 -0.6132
25203WAT      O 2616   8.715   5.327   3.231  0.0158  0.3666 -0.6763
25203WAT     H1 2617   8.714   5.407   3.178  0.0059  0.9207  0.1552
25203WAT     H2 2618   8.642   5.337   3.292  0.5505  0.1217  0.0199
25203WAT    EPW 2619   8.705   5.339   3.232  0.0849  0.4075 -0.4748
25204WAT      O 2620   0.670   8.382   8.118  0.1857 -0.2209  0.4063
25204WAT     H1 2621   0.630   8.426   8.194 -0.4477 -0.0536 -0.0120
25204WAT     H2 2622   0.762   8.372   8.142 -0.4658 -2.5680  2.3196
25204WAT    EPW 2623   0.676   8.387   8.132  0.0162 -0.5083  0.6032
25205WAT      O 2624  10.218   9.007   0.371  0.1425  0.3152  0.1093
25205WAT     H1 2625  10.127   8.982   0.357 -0.2751  0.6822  1.9251
25205WAT     H2 2626  10.228   9.088   0.320 -0.6832  0.5271  0.2649
25205WAT    EPW 2627  10.207   9.014   0.362 -0.0215  0.3920  0.3693
25206WAT      O 2628   4.751   2.709   8.284  0.9922 -0.6863 -0.2254
25206WAT     H1 2629   4.793   2.779   8.235 -2.2403 -0.4344 -3.0503
25206WAT     H2 2630   4.716   2.752   8.362  4.2016 -0.5712  1.2665
25206WAT    EPW 2631   4.752   2.724   8.288  0.9892 -0.6379 -0.4015
25207WAT      O 2632   5.657   6.370   0.520  0.2358 -0.3424  0.4426
25207WAT     H1 2633   5.676   6.444   0.463 -0.8220 -1.3348 -1.2970
25207WAT     H2 2634   5.735   6.314   0.513  0.8918  0.4139  1.4900
25207WAT    EPW 2635   5.670   6.372   0.511  0.1826 -0.3736  0.3513
25208WAT      O 2636   9.304   8.587   0.962  0.2698  0.3291  0.0766
25208WAT     H1 2637   9.361   8.523   0.919 -0.6810  0.6939 -1.8426
25208WAT     H2 2638   9.232   8.535   0.998 -0.6536  0.2844 -1.7343
25208WAT    EPW 2639   9.302   8.572   0.961  0.0224  0.3715 -0.4154
25209WAT      O 2640   1.770   3.810   7.707  0.0397  0.6754  0.1682
25209WAT     H1 2641   1.686   3.853   7.724 -0.6183 -0.4604 -0.0525
25209WAT     H2 2642   1.747   3.717   7.695  1.2951  0.3860 -0.1712
25209WAT    EPW 2643   1.756   3.803   7.708  0.1184  0.4874  0.0942
25210WAT      O 2644   7.916   9.931   2.498 -0.0524 -0.0273  0.6956
25210WAT     H1 2645   7.936  10.024   2.494 -1.8772  0.4437  1.3799
25210WAT     H2 2646   7.827   9.927   2.534  1.5232 -2.2081  5.1198
25210WAT    EPW 2647   7.907   9.943   2.502 -0.0854 -0.2532  1.3695
25211WAT      O 2648   0.242   7.164   1.485  0.6427  0.0745 -0.3025
25211WAT     H1 2649   0.233   7.251   1.525  0.7872  0.0350 -0.1833
25211WAT     H2 2650   0.286   7.182   1.402 -0.3779  0.2509 -0.8246
25211WAT    EPW 2651   0.247   7.178   1.479  0.5271  0.0927 -0.3557
25212WAT      O 2652  10.026   8.887   4.230  0.1502 -0.7521  0.5494
25212WAT     H1 2653  10.010   8.912   4.321 -0.3585  0.0625  0.2426
25212WAT     H2 2654  10.099   8.943   4.203  1.8396 -2.5555  1.1141
25212WAT    EPW 2655  10.034   8.897   4.238  0.3061 -0.8821  0.5834
25213WAT      O 2656   4.838   1.641   7.651  0.4581 -0.4637  0.2462
25213WAT     H1 2657   4.926   1.639   7.687  0.3976  0.5698  0.4745
25213WAT     H2 2658   4.782   1.607   7.721  0.4785  0.4721  0.7322
25213WAT    EPW 2659   4.842   1.637   7.665  0.4528 -0.2040  0.3402
25214WAT      O 2660   4.720   2.152   7.935  0.5962  0.9301 -0.3255
25214WAT     H1 2661   4.645   2.172   7.991  0.3697 -0.1915 -0.2063
25214WAT     H2 2662   4.768   2.235   7.928 -0.1603  1.4321  0.3396
25214WAT    EPW 2663   4.717   2.165   7.941  0.4663  0.8484 -0.2222
25215WAT      O 2664   0.919   5.759   2.761 -0.2168 -0.4647 -0.0539
25215WAT     H1 2665   0.856   5.713   2.817 -1.0637  3.3090  2.4875
25215WAT     H2 2666   0.953   5.829   2.817  0.6711  2.2003 -3.6012
25215WAT    EPW 2667   0.915   5.762   2.776 -0.2114  0.3846 -0.1866
25216WAT      O 2668   6.730   6.389   1.108  0.4147  0.5286 -0.2817
25216WAT     H1 2669   6.804   6.447   1.091  1.4750 -1.1490 -1.7679
25216WAT     H2 2670   6.760   6.330   1.176  0.5609 -0.3125 -1.0598
25216WAT    EPW 2671   6.743   6.389   1.115  0.5741  0.1962 -0.5803
25217WAT      O 2672   1.571   0.865   1.612 -0.2808 -0.6014 -0.3621
25217WAT     H1 2673   1.628   0.790   1.630 -1.0712 -1.5991 -1.8395
25217WAT     H2 2674   1.483   0.827   1.604 -0.5339  0.2738 -2.3539
25217WAT    EPW 2675   1.567   0.850   1.614 -0.4184 -0.6176 -0.8197
25218WAT      O 2676   8.882   6.485   1.612 -0.2293 -0.1174  0.1104
25218WAT     H1 2677   8.973   6.502   1.588 -1.1740  1.3839 -3.0233
25218WAT     H2 2678   8.886   6.412   1.674  3.1039  0.4000  0.6734
25218WAT    EPW 2679   8.895   6.478   1.617  0.0854  0.1490 -0.2286
25219WAT      O 2680  10.928   6.870   3.453  0.1974  0.6516 -0.5397
25219WAT     H1 2681  10.997   6.930   3.425  2.0248 -0.7738  0.6047
25219WAT     H2 2682  10.967   6.783   3.445 -1.2845 -0.1832  0.6772
25219WAT    EPW 2683  10.942   6.866   3.449  0.2427  0.3536 -0.2283
25220WAT      O 2684   4.951   2.488   7.508 -0.0993  0.1676  0.3202
25220WAT     H1 2685   4.941   2.583   7.498  2.5438  0.7010  1.7577
25220WAT     H2 2686   4.931   2.453   7.422 -2.0072  1.9155 -0.0311
25220WAT    EPW 2687   4.947   2.496   7.496 -0.0021  0.4686  0.4635
25221WAT      O 2688   8.516   4.643   2.340 -0.4168 -0.1604 -0.2355
25221WAT     H1 2689   8.612   4.653   2.339 -0.2288 -1.0823  2.0748
25221WAT     H2 2690   8.484   4.729   2.366 -0.0830 -0.2684  0.5734
25221WAT    EPW 2691   8.525   4.656   2.343 -0.3481 -0.2961  0.1758
25222WAT      O 2692   0.171   9.280   0.054 -0.3372  0.0970  0.2418
25222WAT     H1 2693   0.251   9.328   0.030  0.7727 -0.2696  2.9140
25222WAT     H2 2694   0.200   9.217   0.120 -2.4458 -1.7464 -0.4611
25222WAT    EPW 2695   0.186   9.278   0.059 -0.4689 -0.1945  0.5015
25223WAT      O 2696   8.548   7.548   3.872  0.1595 -0.2153 -0.4493
25223WAT     H1 2697   8.553   7.515   3.782 -0.6505  1.1268 -1.0187
25223WAT     H2 2698   8.458   7.578   3.881  0.5609  0.7666  0.4160
25223WAT    EPW 2699   8.537   7.547   3.861  0.1059  0.0911 -0.4102
25224WAT      O 2700   4.982   1.793   8.265  0.4678 -0.3089 -0.5085
25224WAT     H1 2701   4.960   1.851   8.192  3.2043  2.8405  0.9551
25224WAT     H2 2702   5.060   1.745   8.235  0.3469 -0.5819 -0.3912
25224WAT    EPW 2703   4.989   1.794   8.251  0.8128  0.0706 -0.2999
25225WAT      O 2704  10.971   0.493   2.299  0.8546  0.1780 -0.1904
25225WAT     H1 2705  10.902   0.427   2.308  1.4236 -0.7076 -1.8419
25225WAT     H2 2706  11.005   0.504   2.387 -1.2214  0.4793  0.6372
25225WAT    EPW 2707  10.966   0.486   2.311  0.6566  0.1009 -0.2990
25226WAT      O 2708   8.119   6.311   3.405 -0.5909 -0.0845 -0.1247
25226WAT     H1 2709   8.085   6.236   3.454 -0.8270  0.7654  1.0848
25226WAT     H2 2710   8.152   6.274   3.324  0.5308 -1.6923  1.0011
25226WAT    EPW 2711   8.119   6.296   3.401 -0.4740 -0.1843  0.1833
25227WAT      O 2712   6.243   5.854   0.921 -0.3219 -0.8900  0.0557
25227WAT     H1 2713   6.205   5.870   1.007  0.1106  0.0077  0.0911
25227WAT     H2 2714   6.200   5.775   0.890 -2.7785  0.4570 -0.2062
25227WAT    EPW 2715   6.232   5.846   0.928 -0.5891 -0.5937  0.0258
25228WAT      O 2716   2.023   8.155   8.412 -0.5104  0.2623  0.0655
25228WAT     H1 2717   1.976   8.164   8.495  2.0732 -0.7682  1.7543
25228WAT     H2 2718   2.029   8.244   8.379  0.1503  1.0156  2.0556
25228WAT    EPW 2719   2.018   8.168   8.419 -0.0825  0.2260  0.5503
25229WAT      O 2720   6.194   5.546   1.640 -0.5011 -0.0975 -0.1162
25229WAT     H1 2721   6.253   5.505   1.703 -1.8422  0.1371  1.3526
25229WAT     H2 2722   6.229   5.519   1.554  1.8581  0.2473  0.6490
25229WAT    EPW 2723   6.207   5.537   1.637 -0.3669 -0.0210  0.1785
25230WAT      O 2724   2.883   1.190   7.491  0.1524 -0.0612  0.7692
25230WAT     H1 2725   2.971   1.168   7.461  0.0683 -1.5381  1.4693
25230WAT     H2 2726   2.844   1.238   7.419  1.8662  1.5403  0.8452
25230WAT    EPW 2727   2.890   1.193   7.478  0.3673 -0.0448  0.8714
25231WAT      O 2728   9.126   8.824   0.909  0.0670  0.2980  0.0480
25231WAT     H1 2729   9.165   8.911   0.924  0.0300 -0.0045  2.4088
25231WAT     H2 2730   9.195   8.763   0.935  0.5145 -0.4692 -2.7157
25231WAT    EPW 2731   9.140   8.828   0.915  0.1211  0.1569 -0.0051
25232WAT      O 2732   8.336   6.812   3.554 -0.6120 -0.1473 -0.0680
25232WAT     H1 2733   8.287   6.828   3.473  0.7488  0.0352 -0.8808
25232WAT     H2 2734   8.362   6.899   3.584 -1.2351 -0.2021  0.6733
25232WAT    EPW 2735   8.333   6.826   3.547 -0.5150 -0.1304 -0.0775
25233WAT      O 2736   7.116   7.903   4.212  0.0768  0.0169 -0.6040
25233WAT     H1 2737   7.081   7.941   4.293 -2.5394 -2.2701 -0.4916
25233WAT     H2 2738   7.040   7.891   4.156  1.2333 -1.9049 -1.8956
25233WAT    EPW 2739   7.102   7.906   4.216 -0.1154 -0.5381 -0.7596
25234WAT      O 2740   8.287   5.372   0.239 -0.0242 -0.4969  0.7115
25234WAT     H1 2741   8.247   5.452   0.207 -1.5474 -1.0340  1.1658
25234WAT     H2 2742   8.379   5.396   0.256  0.0581  0.5931 -1.0105
25234WAT    EPW 2743   8.294   5.386   0.237 -0.2141 -0.4239  0.5443
25235WAT      O 2744   8.593   5.004   2.398  0.6404  1.4543 -0.2354
25235WAT     H1 2745   8.569   4.950   2.323  0.7509 -2.1733  2.0833
25235WAT     H2 2746   8.509   5.024   2.441  0.7891 -0.5847  1.1385
25235WAT    EPW 2747   8.579   5.000   2.394  0.6747  0.7069  0.2515
25236WAT      O 2748  10.697   7.721   3.254  0.2951 -0.1059  0.0793
25236WAT     H1 2749  10.745   7.778   3.313 -0.6677  0.1761  0.6145
25236WAT     H2 2750  10.675   7.644   3.306  0.4902 -0.4076 -0.2727
25236WAT    EPW 2751  10.700   7.718   3.268  0.1941 -0.1087  0.1035
25237WAT      O 2752   8.847   9.062   4.979 -0.1242 -0.2539  0.1721
25237WAT     H1 2753   8.789   9.087   4.906  2.0776  1.0034 -1.2753
25237WAT     H2 2754   8.930   9.042   4.937  0.3829 -2.6251  2.1206
25237WAT    EPW 2755   8.850   9.063   4.963  0.2332 -0.4010  0.2382
25238WAT      O 2756   5.905   5.652   1.614 -0.0762  0.0242 -0.3640
25238WAT     H1 2757   5.995   5.620   1.609 -0.0699 -0.0604  0.2828
25238WAT     H2 2758   5.854   5.577   1.644 -0.3210  0.1483 -0.4626
25238WAT    EPW 2759   5.910   5.638   1.617 -0.1078  0.0293 -0.2917
25239WAT      O 2760   5.276   0.507   6.799 -0.6642 -0.5951 -0.3247
25239WAT     H1 2761   5.324   0.425   6.813 -0.4616 -0.4452 -0.1551
25239WAT     H2 2762   5.321   0.571   6.853 -1.0790 -0.4615 -0.1356
25239WAT    EPW 2763   5.288   0.504   6.808 -0.6921 -0.5577 -0.2775
25240WAT      O 2764   7.696   7.757   1.086 -0.2985  0.5644  0.5812
25240WAT     H1 2765   7.628   7.730   1.025  1.6807  0.2344 -1.6387
25240WAT     H2 2766   7.662   7.835   1.129 -2.1777  0.1975 -0.1668
25240WAT    EPW 2767   7.683   7.764   1.084 -0.2854  0.4725  0.1897
25241WAT      O 2768   3.343   2.195   8.460  0.6998  0.5416  0.3003
25241WAT     H1 2769   3.325   2.282   8.424 -2.3739 -0.6646 -1.4514
25241WAT     H2 2770   3.258   2.163   8.490  1.5794 -2.1417  0.2165
25241WAT    EPW 2771   3.329   2.202   8.459  0.4106  0.0286  0.0582
25242WAT      O 2772   8.506   4.537   1.029  0.1602 -0.1432 -0.2014
25242WAT     H1 2773   8.419   4.497   1.040 -0.0605  0.7424  1.5858
25242WAT     H2 2774   8.558   4.499   1.100  0.6734  0.7807 -0.0777
25242WAT    EPW 2775   8.501   4.526   1.040  0.1988  0.0956  0.0506
25243WAT      O 2776   1.844   1.329   7.975 -0.0480  0.3436  0.4067
25243WAT     H1 2777   1.919   1.388   7.984 -0.7410  1.2933  0.2187
25243WAT     H2 2778   1.841   1.306   7.883  0.0752  0.2257  0.4325
25243WAT    EPW 2779   1.853   1.334   7.964 -0.1232  0.4534  0.3853
25244WAT      O 2780   1.055   1.166   2.418 -0.1031 -1.2010  0.4111
25244WAT     H1 2781   1.035   1.109   2.493  0.4637 -1.7278  0.1719
25244WAT     H2 2782   1.068   1.252   2.457 -1.9846 -0.9942  0.6639
25244WAT    EPW 2783   1.054   1.170   2.433 -0.2766 -1.2432  0.4129
25245WAT      O 2784   7.131   7.837   2.900  0.3888  0.3042  0.3608
25245WAT     H1 2785   7.084   7.919   2.914  1.8374  1.2687 -0.2346
25245WAT     H2 2786   7.203   7.860   2.843  0.9893 -1.3466  0.4018
25245WAT    EPW 2787   7.134   7.851   2.895  0.6592  0.2136  0.2875
25246WAT      O 2788   7.291   7.758   1.104 -0.0444  0.3206 -0.3497
25246WAT     H1 2789   7.219   7.696   1.116 -0.3445  0.1424 -2.5620
25246WAT     H2 2790   7.320   7.780   1.193 -2.8662  0.4577  0.6225
25246WAT    EPW 2791   7.285   7.753   1.117 -0.4563  0.3152 -0.5133
25247WAT      O 2792   9.434   8.873   0.721 -0.7144  0.4504 -0.3504
25247WAT     H1 2793   9.489   8.828   0.785 -2.0810  0.1857  0.6590
25247WAT     H2 2794   9.454   8.830   0.638 -1.1999 -1.3263  0.4068
25247WAT    EPW 2795   9.444   8.862   0.719 -0.9584  0.1817 -0.1174
25248WAT      O 2796   9.653   6.565   2.079 -0.0315  0.2055  0.1077
25248WAT     H1 2797   9.564   6.579   2.045 -0.6288  4.7764  2.7376
25248WAT     H2 2798   9.640   6.516   2.160  0.0603 -0.3594 -0.2118
25248WAT    EPW 2799   9.639   6.560   2.085 -0.0982  0.7339  0.4125
25249WAT      O 2800  10.625   7.092   5.462 -0.2909 -0.1243  0.0316
25249WAT     H1 2801  10.624   7.098   5.367  1.1900 -1.2410 -0.0773
25249WAT     H2 2802  10.631   7.183   5.492 -1.7006  0.3041 -0.8834
25249WAT    EPW 2803  10.625   7.105   5.453 -0.2809 -0.2153 -0.1037
25250WAT      O 2804   1.659   2.865   7.165  0.0616  0.2789 -0.3328
25250WAT     H1 2805   1.686   2.790   7.218 -1.3837  0.6865  1.0463
25250WAT     H2 2806   1.622   2.826   7.086  1.1516 -0.3759 -0.5494
25250WAT    EPW 2807   1.658   2.850   7.162  0.0148  0.2463 -0.1798
25251WAT      O 2808   8.977   5.564   0.386 -0.0007  0.0402  0.7547
25251WAT     H1 2809   9.018   5.484   0.419 -1.1473 -1.9217 -2.2185
25251WAT     H2 2810   8.925   5.596   0.460 -1.4581 -3.3777  1.3756
25251WAT    EPW 2811   8.976   5.558   0.400 -0.3443 -0.6695  0.4444
25252WAT      O 2812   5.411   4.858   3.649  0.1579  0.6068 -0.0922
25252WAT     H1 2813   5.358   4.904   3.714 -2.1567 -0.2475 -1.2611
25252WAT     H2 2814   5.434   4.775   3.691 -0.4977  0.4626 -0.0122
25252WAT    EPW 2815   5.407   4.853   3.663 -0.2337  0.4752 -0.2358
25253WAT      O 2816   9.976   3.481   1.420 -0.2107  0.9763  0.5487
25253WAT     H1 2817  10.061   3.496   1.379 -1.6549  3.6050 -1.8255
25253WAT     H2 2818   9.918   3.456   1.348 -1.4830 -0.9849  2.1348
25253WAT    EPW 2819   9.979   3.480   1.405 -0.5689  1.0644  0.4447
25254WAT      O 2820   9.823   9.336   3.835  1.0009 -0.3261 -0.3347
25254WAT     H1 2821   9.788   9.334   3.746  1.3821 -0.6165 -0.4797
25254WAT     H2 2822   9.786   9.416   3.873  1.7451  0.4222 -1.1306
25254WAT    EPW 2823   9.813   9.346   3.828  1.1497 -0.2661 -0.4587
25255WAT      O 2824   8.903   9.160   2.716  0.4631 -0.0835 -0.4112
25255WAT     H1 2825   8.836   9.114   2.766 -0.1682  1.2408  0.0084
25255WAT     H2 2826   8.859   9.183   2.634  1.6891 -2.8346 -1.9613
25255WAT    EPW 2827   8.888   9.157   2.712  0.5422 -0.2713 -0.5604
25256WAT      O 2828  10.968  10.060   6.459  0.3114 -0.9317 -0.2856
25256WAT     H1 2829  10.921  10.124   6.513 -0.5791 -3.4043  2.0877
25256WAT     H2 2830  10.957   9.977   6.506  2.3139 -2.6535 -2.6487
25256WAT    EPW 2831  10.960  10.058   6.472  0.4582 -1.4849 -0.2842
25257WAT      O 2832   0.197   6.197   2.439 -0.0948  0.1543 -0.1455
25257WAT     H1 2833   0.151   6.280   2.427  0.7470  0.3126 -2.9632
25257WAT     H2 2834   0.287   6.223   2.462  0.3355  0.1014 -1.6636
25257WAT    EPW 2835   0.203   6.212   2.441  0.0730  0.1681 -0.7175
25258WAT      O 2836   6.356   1.367   8.653 -0.2991  0.7712 -0.4449
25258WAT     H1 2837   6.383   1.281   8.684  0.0657  1.2611  0.6752
25258WAT     H2 2838   6.277   1.352   8.602  0.8239 -0.4508 -1.9291
25258WAT    EPW 2839   6.349   1.354   8.650 -0.1030  0.6747 -0.4926
25259WAT      O 2840   1.071   7.871   7.848  0.1627  0.1266 -0.0101
25259WAT     H1 2841   0.987   7.915   7.856  0.9518  1.4708  1.3449
25259WAT     H2 2842   1.105   7.868   7.937  2.4502  1.4876 -0.7506
25259WAT    EPW 2843   1.064   7.876   7.861  0.5685  0.4838  0.0708
25260WAT      O 2844   6.545   5.075   3.813  0.6494 -0.0329 -0.3222
25260WAT     H1 2845   6.458   5.036   3.822 -0.3415  1.9559 -0.8349
25260WAT     H2 2846   6.598   5.005   3.774 -1.4586 -0.4541 -2.7526
25260WAT    EPW 2847   6.541   5.060   3.809  0.2406  0.1740 -0.7104
25261WAT      O 2848   0.988   0.087   3.300 -0.3192 -0.0354  0.0269
25261WAT     H1 2849   0.917   0.061   3.241 -0.4546 -0.0182  0.1808
25261WAT     H2 2850   1.008   0.177   3.275  0.0891 -0.2538 -0.4464
25261WAT    EPW 2851   0.981   0.095   3.289 -0.2832 -0.0620 -0.0153
25262WAT      O 2852   6.714   5.848   2.251 -0.6135 -0.4236  0.7441
25262WAT     H1 2853   6.762   5.775   2.292  1.7444 -1.2917 -3.0698
25262WAT     H2 2854   6.782   5.907   2.220 -2.3802  1.8786  0.9860
25262WAT    EPW 2855   6.729   5.846   2.252 -0.5355 -0.2346  0.2730
25263WAT      O 2856   6.238   0.572   5.449 -0.2218  0.7084  0.0711
25263WAT     H1 2857   6.327   0.543   5.466 -0.5767  0.2879  1.3327
25263WAT     H2 2858   6.242   0.667   5.456 -0.3479  0.6043  2.9598
25263WAT    EPW 2859   6.250   0.581   5.452 -0.2854  0.6392  0.6185
25264WAT      O 2860   2.141   0.192   0.108  0.3029 -0.2900  0.5280
25264WAT     H1 2861   2.052   0.158   0.094  0.9136 -2.3941  1.4253
25264WAT     H2 2862   2.156   0.249   0.032 -0.9511 -1.7270 -0.8798
25264WAT    EPW 2863   2.131   0.195   0.096  0.2182 -0.7571  0.4607
25265WAT      O 2864   9.305   6.987   6.221 -0.3252  0.5491  0.7545
25265WAT     H1 2865   9.275   7.015   6.308 -1.4592  1.8262 -0.0082
25265WAT     H2 2866   9.325   7.068   6.175 -1.0041 -0.0128 -0.5995
25265WAT    EPW 2867   9.304   7.001   6.226 -0.5646  0.6435  0.4754
25266WAT      O 2868   0.261   9.614   8.534 -0.0067 -0.5644 -0.0289
25266WAT     H1 2869   0.285   9.609   8.442  0.2867 -3.3505  0.1162
25266WAT     H2 2870   0.268   9.524   8.566  0.2862  0.3612  2.8336
25266WAT    EPW 2871   0.265   9.601   8.526  0.0706 -0.8097  0.3676
25267WAT      O 2872   7.405   0.180   1.191  0.6621  0.1949 -0.1396
25267WAT     H1 2873   7.396   0.271   1.217  1.7720 -0.2186  1.8983
25267WAT     H2 2874   7.437   0.184   1.101  1.6717  1.8396  0.2539
25267WAT    EPW 2875   7.408   0.193   1.182  0.9418  0.3573  0.1811
25268WAT      O 2876   9.519   8.051   3.907  0.1596  0.0879  0.2939
25268WAT     H1 2877   9.583   8.116   3.934 -1.2769  1.5560  0.2774
25268WAT     H2 2878   9.440   8.073   3.956 -1.1781  0.0886 -1.7521
25268WAT    EPW 2879   9.517   8.062   3.917 -0.2065  0.2813  0.0219
25269WAT      O 2880   5.710   4.352   0.802 -0.7797 -0.6973  1.1961
25269WAT     H1 2881   5.789   4.298   0.805 -1.4977 -1.7629  1.7376
25269WAT     H2 2882   5.742   4.441   0.789  0.5672 -0.9719  2.3757
25269WAT    EPW 2883   5.725   4.357   0.801 -0.6969 -0.8740  1.4231
25270WAT      O 2884   7.852   5.887   3.574  0.2666 -0.2138 -0.0564
25270WAT     H1 2885   7.814   5.869   3.659 -0.1965  1.5893  0.1518
25270WAT     H2 2886   7.911   5.813   3.558  0.7551 -0.3490  2.0562
25270WAT    EPW 2887   7.855   5.875   3.583  0.2701  0.0062  0.2497
25271WAT      O 2888   1.831   2.143   7.941  0.3179 -0.3652  0.0520
25271WAT     H1 2889   1.925   2.141   7.920  0.1659 -2.2302 -0.6288
25271WAT     H2 2890   1.827   2.118   8.033  0.4183 -2.1427 -0.3904
25271WAT    EPW 2891   1.843   2.140   7.950  0.3111 -0.8457 -0.0961
25272WAT      O 2892  10.425   5.389   4.993 -0.2640  0.0560 -0.2815
25272WAT     H1 2893  10.448   5.378   5.085 -0.1630 -0.2922 -0.3475
25272WAT     H2 2894  10.477   5.464   4.964  1.9197 -1.5309 -0.7938
25272WAT    EPW 2895  10.435   5.397   5.001  0.0372 -0.1993 -0.3576
25273WAT      O 2896   4.740   1.881   7.718 -0.2572 -0.0004  0.0275
25273WAT     H1 2897   4.655   1.890   7.674 -0.3381 -0.1729  0.1496
25273WAT     H2 2898   4.762   1.788   7.708 -1.6982 -0.7851  2.9706
25273WAT    EPW 2899   4.732   1.870   7.711 -0.4580 -0.1266  0.4315
25274WAT      O 2900   6.592   7.673   0.821 -0.3928 -0.2137  0.2077
25274WAT     H1 2901   6.606   7.665   0.916 -2.2523 -0.4295  0.5185
25274WAT     H2 2902   6.545   7.593   0.798 -2.5954  1.1483 -0.3054
25274WAT    EPW 2903   6.587   7.661   0.831 -0.9284 -0.0625  0.1810
25275WAT      O 2904   0.548   7.495   3.464 -0.3078  0.0189  0.2327
25275WAT     H1 2905   0.527   7.419   3.411  1.2129  0.5625 -1.2393
25275WAT     H2 2906   0.514   7.570   3.414 -0.1443  0.4546  0.7556
25275WAT    EPW 2907   0.540   7.495   3.450 -0.0857  0.1483  0.1076
25276WAT      O 2908   8.491   8.649   1.415 -0.1373  0.0534 -0.6184
25276WAT     H1 2909   8.445   8.589   1.355  3.8348 -1.6076 -2.3907
25276WAT     H2 2910   8.563   8.683   1.363  1.2194  1.7225  2.1607
25276WAT    EPW 2911   8.494   8.645   1.400  0.5660  0.0548 -0.4856
25277WAT      O 2912   6.305   9.090   1.849 -0.2554 -0.1120 -0.1403
25277WAT     H1 2913   6.300   9.010   1.902 -0.3603  0.5970  0.9561
25277WAT     H2 2914   6.347   9.062   1.768  0.4570 -1.1238  0.5412
25277WAT    EPW 2915   6.310   9.075   1.846 -0.1750 -0.1521  0.0942
25278WAT      O 2916   8.706   4.565   1.558 -0.3983 -0.6317  0.2409
25278WAT     H1 2917   8.704   4.527   1.470  0.3939 -2.4219  0.9457
25278WAT     H2 2918   8.729   4.492   1.615  2.4043  1.0994  1.5728
25278WAT    EPW 2919   8.709   4.551   1.554  0.0753 -0.6394  0.5096
25279WAT      O 2920   9.146   3.595   3.329  0.0198 -0.6416 -0.3238
25279WAT     H1 2921   9.240   3.598   3.313 -0.3348  2.1927 -2.6604
25279WAT     H2 2922   9.137   3.624   3.420  1.3423  0.3484 -0.4834
25279WAT    EPW 2923   9.157   3.599   3.339  0.1473 -0.1372 -0.6530
25280WAT      O 2924   8.675   9.008   1.702 -0.0158 -0.1384 -0.2379
25280WAT     H1 2925   8.636   9.031   1.618  0.5276  0.7226 -0.2651
25280WAT     H2 2926   8.757   9.058   1.705  0.6059 -1.1581  0.2410
25280WAT    EPW 2927   8.681   9.018   1.691  0.1378 -0.1593 -0.1784
25281WAT      O 2928   1.345   0.827   8.186  0.1635 -0.6410 -0.2059
25281WAT     H1 2929   1.377   0.801   8.272 -1.1463 -0.7676  0.2690
25281WAT     H2 2930   1.312   0.916   8.200  1.8944  0.1914 -1.1086
25281WAT    EPW 2931   1.345   0.836   8.199  0.2190 -0.5479 -0.2623
25282WAT      O 2932   9.568   7.663   1.448  0.3883  0.3981  0.1233
25282WAT     H1 2933   9.639   7.627   1.396  0.3422 -1.4383  1.2468
25282WAT     H2 2934   9.574   7.758   1.435  1.7847  0.1453 -1.3576
25282WAT    EPW 2935   9.578   7.671   1.439  0.5665  0.1228  0.0762
25283WAT      O 2936   6.699   5.826   2.637 -0.3629 -0.0675 -0.8788
25283WAT     H1 2937   6.775   5.872   2.603  0.1910 -0.1361  0.2247
25283WAT     H2 2938   6.735   5.763   2.700 -1.4216  1.1717  1.0879
25283WAT    EPW 2939   6.713   5.823   2.641 -0.4294  0.0868 -0.4739
25284WAT      O 2940   4.730   1.512   7.147 -0.3733  0.3718  0.5416
25284WAT     H1 2941   4.742   1.591   7.094 -2.7168  1.4312  1.4535
25284WAT     H2 2942   4.688   1.449   7.088  1.4085 -0.2321 -0.1571
25284WAT    EPW 2943   4.726   1.514   7.132 -0.4475  0.4319  0.5698
25285WAT      O 2944   3.357  10.110   8.122 -0.0961 -0.2986  0.5528
25285WAT     H1 2945   3.266  10.082   8.111  0.1999 -0.7008 -1.3001
25285WAT     H2 2946   3.384  10.140   8.035  0.8062  2.2192  1.6122
25285WAT    EPW 2947   3.349  10.110   8.109  0.0620 -0.0196  0.4482
25286WAT      O 2948   8.354   8.417   1.329  0.4830  0.0324  0.1754
25286WAT     H1 2949   8.400   8.333   1.332 -0.7579 -0.6656  2.1993
25286WAT     H2 2950   8.315   8.420   1.242  2.6523 -0.2471 -0.8715
25286WAT    EPW 2951   8.355   8.406   1.318  0.6056 -0.0963  0.3042
25287WAT      O 2952   5.453   1.048   8.258 -0.1612  0.0482 -0.3875
25287WAT     H1 2953   5.380   1.106   8.279  1.5693  1.2568  3.0888
25287WAT     H2 2954   5.428   0.964   8.297  0.1856  0.4228  0.6778
25287WAT    EPW 2955   5.440   1.044   8.266  0.1128  0.2570  0.2112
25288WAT      O 2956   6.511   7.064   2.217  0.0905  0.4550  0.1859
25288WAT     H1 2957   6.577   6.998   2.239  0.7233  0.8993 -0.3320
25288WAT     H2 2958   6.443   7.016   2.171  0.6640  0.1998 -0.4093
25288WAT    EPW 2959   6.511   7.049   2.214  0.2499  0.4799  0.0391
25289WAT      O 2960   0.411   0.188   0.914  0.2581 -0.6878  0.4715
25289WAT     H1 2961   0.338   0.178   0.975  0.8366 -0.9477  1.1398
25289WAT     H2 2962   0.442   0.278   0.929 -0.3565 -0.3345 -0.3154
25289WAT    EPW 2963   0.406   0.199   0.924  0.2534 -0.6755  0.4558
25290WAT      O 2964   9.886   6.792   2.285 -0.0571 -0.6315 -0.0403
25290WAT     H1 2965   9.930   6.876   2.301 -0.6397 -0.5548  1.2834
25290WAT     H2 2966   9.942   6.727   2.328  1.1916 -1.1648 -2.3172
25290WAT    EPW 2967   9.899   6.795   2.293  0.0310 -0.6917 -0.1661
25291WAT      O 2968   9.229   7.697   0.466  0.3489  0.4009  0.3753
25291WAT     H1 2969   9.206   7.785   0.437 -2.3776 -0.8690 -1.8559
25291WAT     H2 2970   9.169   7.679   0.539 -1.8156 -0.7928 -1.5657
25291WAT    EPW 2971   9.218   7.706   0.472 -0.2956  0.0758 -0.1750
25292WAT      O 2972   5.648   6.917   2.064 -0.0299 -0.2651  0.3604
25292WAT     H1 2973   5.569   6.943   2.112 -1.9255  0.4410 -2.8369
25292WAT     H2 2974   5.701   6.996   2.061 -0.4871  0.0427  0.2427
25292WAT    EPW 2975   5.645   6.931   2.070 -0.3402 -0.1314 -0.0768
25293WAT      O 2976  10.426   9.001   1.838  0.2573 -0.1919 -0.0899
25293WAT     H1 2977  10.431   8.964   1.750 -2.4316  0.9827 -0.8183
25293WAT     H2 2978  10.415   9.095   1.824 -3.5397 -0.2802  1.2747
25293WAT    EPW 2979  10.426   9.009   1.825 -0.5980 -0.0486 -0.0060
25294WAT      O 2980   8.082   7.924   4.210 -0.0421  0.0225  0.2154
25294WAT     H1 2981   8.108   7.867   4.137 -2.1575  0.8227 -1.2379
25294WAT     H2 2982   8.120   7.882   4.287 -0.2664 -2.5317 -0.9682
25294WAT    EPW 2983   8.091   7.911   4.211 -0.3505 -0.2089 -0.1323
25295WAT      O 2984   5.806   4.110   2.842 -0.2144  0.1611 -0.3679
25295WAT     H1 2985   5.827   4.017   2.848 -0.1582 -0.1046 -3.3128
25295WAT     H2 2986   5.878   4.154   2.888  0.5336 -1.1805 -0.2042
25295WAT    EPW 2987   5.818   4.104   2.849 -0.1082 -0.0508 -0.7347
25296WAT      O 2988   9.586   5.349   3.698 -0.4980 -0.1625  0.4288
25296WAT     H1 2989   9.652   5.368   3.631 -1.2663  0.3685 -0.2051
25296WAT     H2 2990   9.632   5.297   3.763  0.5883  0.3255  0.0790
25296WAT    EPW 2991   9.601   5.345   3.697 -0.4554 -0.0281  0.2991
25297WAT      O 2992   7.734   8.331   3.544 -0.2662 -0.5965 -0.0215
25297WAT     H1 2993   7.674   8.299   3.478 -0.9913 -1.6820  1.1288
25297WAT     H2 2994   7.808   8.366   3.494 -0.5751 -1.8095 -1.3808
25297WAT    EPW 2995   7.736   8.331   3.529 -0.4022 -0.8993 -0.0490
25298WAT      O 2996   3.870   0.059   1.836  0.2047  0.3758  0.9072
25298WAT     H1 2997   3.798   0.030   1.781  0.2067  0.5092  0.8344
25298WAT     H2 2998   3.875  -0.006   1.906  0.6856 -0.2212  0.3363
25298WAT    EPW 2999   3.861   0.046   1.838  0.2685  0.3147  0.8224
25299WAT      O 3000   9.785   8.490   4.328 -0.4240 -0.5818  0.4679
25299WAT     H1 3001   9.751   8.403   4.307 -1.7883  0.1839 -0.6247
25299WAT     H2 3002   9.872   8.473   4.366  0.9087 -2.2762 -2.9436
25299WAT    EPW 3003   9.792   8.476   4.330 -0.4287 -0.7038 -0.1261
25300WAT      O 3004  10.059   8.382   5.041 -0.4745 -0.1329  0.0667
25300WAT     H1 3005   9.968   8.358   5.022 -0.4471  0.0350 -0.2672
25300WAT     H2 3006  10.100   8.300   5.066 -0.7759 -0.1731  0.4597
25300WAT    EPW 3007  10.052   8.368   5.042 -0.5112 -0.1159  0.0746
25301WAT      O 3008   9.877   7.710   0.174  0.0899  0.1510 -0.5806
25301WAT     H1 3009   9.874   7.732   0.081  0.5147 -1.0098 -0.8830
25301WAT     H2 3010   9.879   7.795   0.219 -0.5986  0.7303 -1.5997
25301WAT    EPW 3011   9.877   7.724   0.168  0.0553  0.0741 -0.7549
25302WAT      O 3012   7.859   6.624   3.572 -0.2559 -0.6682  0.0940
25302WAT     H1 3013   7.900   6.618   3.487  1.2911 -1.7710  0.8762
25302WAT     H2 3014   7.875   6.714   3.601 -0.2581 -0.4751 -0.5037
25302WAT    EPW 3015   7.866   6.635   3.565 -0.0522 -0.7882  0.1183
25303WAT      O 3016   8.684   3.068   0.001  0.0689  0.5012  0.6734
25303WAT     H1 3017   8.707   3.074   0.094  1.9976 -0.0213  0.2766
25303WAT     H2 3018   8.769   3.069  -0.044 -0.7650 -0.7088 -1.0023
25303WAT    EPW 3019   8.698   3.069   0.008  0.2134  0.2728  0.3996
25304WAT      O 3020   6.880   0.881   0.235 -0.1635  0.1182  0.2510
25304WAT     H1 3021   6.836   0.797   0.230 -2.2996  1.0863  1.4687
25304WAT     H2 3022   6.848   0.929   0.159 -0.0418  0.3114  0.3202
25304WAT    EPW 3023   6.870   0.877   0.224 -0.4294  0.2714  0.4207
25305WAT      O 3024  10.396   2.957   1.309  0.1036  0.2377 -0.7186
25305WAT     H1 3025  10.458   3.030   1.300  2.1508 -1.0767  1.5299
25305WAT     H2 3026  10.349   2.976   1.390  0.5673 -0.8466 -0.1805
25305WAT    EPW 3027  10.398   2.969   1.318  0.4344 -0.0787 -0.3511
25306WAT      O 3028   7.397   6.749   8.447 -0.4135  0.2363 -0.0885
25306WAT     H1 3029   7.462   6.814   8.473 -1.1226  0.9555 -0.0590
25306WAT     H2 3030   7.415   6.673   8.502  0.2190  0.5258  0.1103
25306WAT    EPW 3031   7.408   6.747   8.458 -0.4239  0.3693 -0.0587
25307WAT      O 3032   4.119   4.818   1.067  0.2663 -0.1574  0.5143
25307WAT     H1 3033   4.176   4.741   1.075 -0.4118 -0.5719  1.7187
25307WAT     H2 3034   4.030   4.781   1.068 -0.0564  0.5329 -0.5819
25307WAT    EPW 3035   4.115   4.803   1.068  0.1345 -0.1209  0.5286
25308WAT      O 3036   9.393   5.944   6.077  0.2904 -0.0749  0.4153
25308WAT     H1 3037   9.446   5.886   6.131 -0.4186  1.6688  3.2188
25308WAT     H2 3038   9.442   6.026   6.073 -0.5765  0.4498  0.0420
25308WAT    EPW 3039   9.406   5.947   6.083  0.0830  0.2244  0.7358
25309WAT      O 3040   5.222   2.597   0.703  0.1167 -0.6933 -0.9289
25309WAT     H1 3041   5.310   2.631   0.685  0.4087 -0.7783  0.2421
25309WAT     H2 3042   5.236   2.503   0.717  0.4628 -0.2467  2.6806
25309WAT    EPW 3043   5.235   2.589   0.703  0.2010 -0.6456 -0.2984
25310WAT      O 3044   8.359   2.730   2.905  0.2804  0.0894 -0.4277
25310WAT     H1 3045   8.328   2.805   2.855  1.6184  0.8650 -0.1260
25310WAT     H2 3046   8.299   2.659   2.881 -0.4187  0.9945 -1.4492
25310WAT    EPW 3047   8.347   2.731   2.895  0.3648  0.3111 -0.5226
25311WAT      O 3048   9.418   4.593   2.263  0.4351 -0.8528 -0.1878
25311WAT     H1 3049   9.417   4.529   2.192  1.0338 -1.8562  0.6724
25311WAT     H2 3050   9.346   4.653   2.243 -0.0185 -1.6820 -1.1176
25311WAT    EPW 3051   9.408   4.592   2.251  0.4544 -1.0946 -0.1969
25312WAT      O 3052   8.886   2.562   2.941  0.1831 -0.5268  0.3643
25312WAT     H1 3053   8.806   2.589   2.898  1.7448  1.3190 -1.6245
25312WAT     H2 3054   8.898   2.625   3.012 -1.1954 -2.1676  2.1509
25312WAT    EPW 3055   8.877   2.574   2.945  0.2069 -0.4998  0.3376
25313WAT      O 3056   5.767   2.724   2.404 -0.5519 -0.3887 -0.2223
25313WAT     H1 3057   5.791   2.661   2.335 -0.1826 -0.3032 -0.1717
25313WAT     H2 3058   5.850   2.749   2.444 -0.8299 -0.9998  0.7515
25313WAT    EPW 3059   5.781   2.719   2.400 -0.5400 -0.4580 -0.0871
25314WAT      O 3060   5.510   6.075   1.433  1.2606 -0.0279  0.2090
25314WAT     H1 3061   5.516   6.072   1.529  2.9177  0.5552  0.1547
25314WAT     H2 3062   5.443   6.142   1.415 -1.7542 -2.6051  0.9230
25314WAT    EPW 3063   5.502   6.083   1.444  1.0815 -0.2906  0.2959
25315WAT      O 3064   7.450   2.319   1.158  0.8317 -0.1750 -0.2963
25315WAT     H1 3065   7.400   2.390   1.198 -2.4161 -2.1398 -0.5903
25315WAT     H2 3066   7.446   2.336   1.064 -1.2622 -1.4413 -0.4860
25315WAT    EPW 3067   7.443   2.331   1.151  0.1271 -0.6011 -0.3601
25316WAT      O 3068   2.580  10.166   8.048  0.8179  0.5207  0.4281
25316WAT     H1 3069   2.549  10.173   7.957 -0.1460 -3.5051  0.2667
25316WAT     H2 3070   2.519  10.221   8.098 -1.7189 -0.9028 -0.8789
25316WAT    EPW 3071   2.568  10.174   8.042  0.3561 -0.1979  0.2346
25317WAT      O 3072  10.055   7.254   8.858  0.1006  0.1471  0.0066
25317WAT     H1 3073   9.999   7.209   8.921  0.3336  1.2568  1.0261
25317WAT     H2 3074  10.098   7.183   8.809 -1.5394 -0.7262 -0.2411
25317WAT    EPW 3075  10.053   7.239   8.860 -0.0854  0.1781  0.1087
25318WAT      O 3076   9.783   5.438   5.385 -0.2118  0.0019 -0.5644
25318WAT     H1 3077   9.820   5.475   5.466  0.8065 -1.5344 -0.2799
25318WAT     H2 3078   9.724   5.369   5.415 -0.9364  0.3848 -1.1087
25318WAT    EPW 3079   9.780   5.434   5.400 -0.1736 -0.1502 -0.5987
25319WAT      O 3080   5.426   3.057   2.751 -0.0217  0.1865 -0.3073
25319WAT     H1 3081   5.510   3.017   2.726  0.6756  1.2462  0.2665
25319WAT     H2 3082   5.388   2.994   2.812  2.2014  1.3565  2.5319
25319WAT    EPW 3083   5.432   3.043   2.756  0.3636  0.4804  0.1429
25320WAT      O 3084   8.952   1.670   1.879 -0.4672  0.1446 -0.0184
25320WAT     H1 3085   8.960   1.666   1.974 -2.6189 -1.6228  0.1436
25320WAT     H2 3086   9.010   1.601   1.847 -1.9716 -1.2893  0.2265
25320WAT    EPW 3087   8.961   1.661   1.887 -0.9489 -0.2777  0.0353
25321WAT      O 3088   7.796   8.806   8.791 -0.1868  0.4750  0.4809
25321WAT     H1 3089   7.745   8.841   8.718  2.3367  0.0568 -1.6824
25321WAT     H2 3090   7.834   8.882   8.834  0.4044  0.6581 -0.3446
25321WAT    EPW 3091   7.795   8.820   8.787  0.2244  0.4435  0.0868
25322WAT      O 3092   0.374   6.932   7.075  0.2331 -0.3653 -0.1664
25322WAT     H1 3093   0.393   6.935   6.981 -0.6845  1.4912 -0.3375
25322WAT     H2 3094   0.457   6.956   7.116  0.2181  0.4589 -0.5925
25322WAT    EPW 3095   0.388   6.935   7.068  0.1101 -0.0117 -0.2451
25323WAT      O 3096   0.307   5.891   6.655  0.2783  1.0033  0.2887
25323WAT     H1 3097   0.334   5.875   6.746 -1.9041 -1.4868  0.6147
25323WAT     H2 3098   0.213   5.909   6.660 -0.1755 -0.5192 -1.5490
25323WAT    EPW 3099   0.298   5.891   6.668 -0.0694  0.4742  0.0899
25324WAT      O 3100   2.637   1.092   0.155 -0.7596 -0.0947 -0.2366
25324WAT     H1 3101   2.638   1.045   0.072 -0.6421  0.9051 -0.8161
25324WAT     H2 3102   2.593   1.032   0.216  4.3299 -3.5029  0.6796
25324WAT    EPW 3103   2.631   1.078   0.152 -0.0730 -0.4123 -0.1922
25325WAT      O 3104   7.917   8.325   8.204  0.5072 -0.5160 -0.1444
25325WAT     H1 3105   7.918   8.268   8.281 -1.7410 -2.1963 -1.2508
25325WAT     H2 3106   7.930   8.266   8.130  0.6464  0.7829 -1.2040
25325WAT    EPW 3107   7.919   8.310   8.204  0.2291 -0.5665 -0.4301
25326WAT      O 3108   0.817   9.837   8.190 -0.0056 -0.4633  0.2047
25326WAT     H1 3109   0.850   9.755   8.227  0.2799 -0.2662  0.3942
25326WAT     H2 3110   0.844   9.904   8.253 -0.9588 -0.3158  0.4726
25326WAT    EPW 3111   0.825   9.835   8.203 -0.0937 -0.4177  0.2646
25327WAT      O 3112   0.771   5.922   7.951  0.3029  0.6863  0.2287
25327WAT     H1 3113   0.717   5.990   7.911  1.2631  0.1890 -2.0741
25327WAT     H2 3114   0.844   5.910   7.890  0.7913 -1.5741  1.1562
25327WAT    EPW 3115   0.774   5.929   7.938  0.4939  0.3226  0.0472
25328WAT      O 3116   5.542   8.241   0.215  0.3409 -0.0171 -0.4634
25328WAT     H1 3117   5.636   8.222   0.213  0.0364 -1.6716 -0.1144
25328WAT     H2 3118   5.529   8.301   0.141  1.6205  0.0236 -0.6832
25328WAT    EPW 3119   5.553   8.247   0.205  0.4694 -0.2298 -0.4464
25329WAT      O 3120   3.764   3.310   3.938  0.2521 -0.0645  0.4815
25329WAT     H1 3121   3.675   3.339   3.916 -0.4705 -1.5089  1.3452
25329WAT     H2 3122   3.809   3.390   3.964 -0.6496  0.7644 -0.4112
25329WAT    EPW 3123   3.758   3.324   3.939  0.0380 -0.1457  0.4776
25330WAT      O 3124   5.679   6.020   0.147  0.1625 -0.4622  0.1252
25330WAT     H1 3125   5.716   5.932   0.133  1.2918 -0.1805  1.0783
25330WAT     H2 3126   5.755   6.078   0.142 -0.8707  0.7839 -2.7528
25330WAT    EPW 3127   5.694   6.016   0.145  0.1752 -0.2608 -0.1287
25331WAT      O 3128   1.439   8.858   7.211 -0.4113 -0.6382  0.0423
25331WAT     H1 3129   1.431   8.942   7.255  1.1726 -0.9793  1.0804
25331WAT     H2 3130   1.456   8.880   7.119 -3.2110  0.0825 -0.3896
25331WAT    EPW 3131   1.440   8.872   7.205 -0.5717 -0.5884  0.1223
25332WAT      O 3132   8.625   6.445   8.261  0.6083  0.1115 -0.2293
25332WAT     H1 3133   8.647   6.472   8.172  0.8701  2.9774  0.6086
25332WAT     H2 3134   8.613   6.350   8.254  0.3355  0.2473 -3.3458
25332WAT    EPW 3135   8.626   6.436   8.248  0.6070  0.5076 -0.5298
25333WAT      O 3136  10.691   8.533   8.896  0.0946 -0.0579 -0.1575
25333WAT     H1 3137  10.612   8.522   8.843  0.3429  0.8353 -0.7261
25333WAT     H2 3138  10.697   8.627   8.911  1.5598  0.0004 -0.9231
25333WAT    EPW 3139  10.682   8.544   8.891  0.3204  0.0677 -0.3343
25334WAT      O 3140   6.396   3.621   3.829  0.2258  0.2806 -0.1874
25334WAT     H1 3141   6.433   3.533   3.833  0.3793  0.3796  1.0938
25334WAT     H2 3142   6.470   3.679   3.849  0.0659  0.6872 -0.7487
25334WAT    EPW 3143   6.410   3.617   3.833  0.2248  0.3473 -0.0925
25335WAT      O 3144  10.655   7.453   8.446  0.5851 -0.1512 -0.9339
25335WAT     H1 3145  10.748   7.476   8.445  0.5312  0.0425 -1.2519
25335WAT     H2 3146  10.625   7.465   8.356  0.5130 -1.2761 -1.0749
25335WAT    EPW 3147  10.663   7.457   8.434  0.5684 -0.2742 -0.9947
25336WAT      O 3148   4.355   9.350   0.068 -0.5791 -0.8032 -0.9493
25336WAT     H1 3149   4.334   9.266   0.027 -1.2281 -0.9721 -0.2780
25336WAT     H2 3150   4.281   9.406   0.047  0.4055  0.0127 -2.4633
25336WAT    EPW 3151   4.343   9.346   0.060 -0.5350 -0.7181 -1.0605
25337WAT      O 3152   0.082   8.190   6.221  0.2693  0.3269  0.0731
25337WAT     H1 3153   0.021   8.116   6.223  0.2033  0.3118 -1.3668
25337WAT     H2 3154   0.030   8.262   6.186  0.7650  0.6338 -0.0337
25337WAT    EPW 3155   0.067   8.189   6.217  0.3260  0.3657 -0.1309
25338WAT      O 3156   7.537   2.100   2.223  0.2803 -0.1893 -0.1729
25338WAT     H1 3157   7.609   2.133   2.276  2.2972  0.3768 -3.0205
25338WAT     H2 3158   7.472   2.171   2.224  0.7666  0.2538  0.6454
25338WAT    EPW 3159   7.538   2.114   2.230  0.6106 -0.0563 -0.4406
25339WAT      O 3160   6.231   2.393   0.937 -0.0279 -0.2524 -0.2071
25339WAT     H1 3161   6.234   2.300   0.959 -0.8003 -0.0748  0.7017
25339WAT     H2 3162   6.311   2.408   0.886 -0.9514 -1.8665 -2.2528
25339WAT    EPW 3163   6.242   2.382   0.934 -0.2515 -0.4420 -0.3571
25340WAT      O 3164   7.090   5.687   6.404 -0.4795  0.0616  0.3781
25340WAT     H1 3165   7.068   5.732   6.486  0.3166  0.0779  0.5872
25340WAT     H2 3166   7.185   5.696   6.396 -0.3390 -1.3018  0.2612
25340WAT    EPW 3167   7.099   5.694   6.414 -0.3562 -0.1161  0.3903
25341WAT      O 3168   2.086   6.834   8.402  0.0419  0.9477  0.4767
25341WAT     H1 3169   1.999   6.846   8.442 -0.2240  0.9989 -0.1068
25341WAT     H2 3170   2.104   6.919   8.360  0.1590  0.7802  0.1874
25341WAT    EPW 3171   2.077   6.847   8.402  0.0223  0.9325  0.3614
25342WAT      O 3172   1.426   9.173   6.408 -0.4592  0.4730  0.3173
25342WAT     H1 3173   1.360   9.231   6.446  0.4385  0.1013  2.6189
25342WAT     H2 3174   1.430   9.099   6.468  2.3064  0.6559  0.4955
25342WAT    EPW 3175   1.418   9.171   6.421  0.0240  0.4487  0.6444
25343WAT      O 3176   7.591   3.484   2.913  0.7641  1.2922  0.3035
25343WAT     H1 3177   7.632   3.398   2.922  0.4299  0.8645 -1.7368
25343WAT     H2 3178   7.658   3.546   2.943 -0.0919  0.3130  5.0280
25343WAT    EPW 3179   7.605   3.481   2.918  0.6068  1.1066  0.6576
25344WAT      O 3180   0.221   7.512   8.689 -0.2147 -0.4194 -0.5735
25344WAT     H1 3181   0.224   7.541   8.598  1.7206  0.8479 -0.1757
25344WAT     H2 3182   0.289   7.445   8.695  1.7615  1.5207  0.4787
25344WAT    EPW 3183   0.230   7.507   8.678  0.3012  0.0036 -0.3824
25345WAT      O 3184   1.383   7.262   8.318 -0.4574 -0.4769  0.2036
25345WAT     H1 3185   1.358   7.207   8.244 -2.0105  0.6769 -0.1545
25345WAT     H2 3186   1.464   7.304   8.290 -1.2390  0.2635 -1.0271
25345WAT    EPW 3187   1.391   7.260   8.305 -0.7654 -0.2267 -0.0057
25346WAT      O 3188   3.702   6.816   0.193 -0.4185  0.7137 -0.4999
25346WAT     H1 3189   3.702   6.810   0.097  3.2236  3.1662 -0.8525
25346WAT     H2 3190   3.728   6.728   0.223 -2.8416 -0.4606 -1.5459
25346WAT    EPW 3191   3.705   6.803   0.184 -0.2578  0.8824 -0.6844
25347WAT      O 3192   9.599   3.205   2.499  0.4085  0.2536  0.2105
25347WAT     H1 3193   9.541   3.224   2.572 -0.0149 -2.8464  0.8226
25347WAT     H2 3194   9.685   3.235   2.529  0.3048 -1.1967  2.1776
25347WAT    EPW 3195   9.603   3.211   2.513  0.3390 -0.3465  0.5507
25348WAT      O 3196   7.920   3.445   2.109  0.1953 -0.2664 -0.0075
25348WAT     H1 3197   7.841   3.392   2.102  0.1815 -0.1058 -1.2723
25348WAT     H2 3198   7.983   3.390   2.156  0.7742 -2.1536 -2.7682
25348WAT    EPW 3199   7.918   3.431   2.115  0.2701 -0.4942 -0.5385
25349WAT      O 3200   7.752   3.440   3.377  0.0421  0.3185  0.3625
25349WAT     H1 3201   7.706   3.356   3.370  0.6407 -0.1485  1.6796
25349WAT     H2 3202   7.691   3.503   3.339  1.2740 -1.1444 -4.8243
25349WAT    EPW 3203   7.738   3.437   3.371  0.2835  0.0639 -0.1478
25350WAT      O 3204  10.280  10.366   8.750  0.3449 -0.1111  0.4392
25350WAT     H1 3205  10.198  10.378   8.702 -0.1076 -1.3557  0.8625
25350WAT     H2 3206  10.348  10.364   8.683  0.1687  1.8929  0.1465
25350WAT    EPW 3207  10.278  10.367   8.735  0.2618 -0.0110  0.4563
25351WAT      O 3208   1.046   5.965   7.827  0.8087 -0.6053 -0.7986
25351WAT     H1 3209   1.074   6.055   7.843  0.7867 -0.7361  0.0123
25351WAT     H2 3210   1.125   5.912   7.840  0.1466 -1.0505  2.1860
25351WAT    EPW 3211   1.060   5.970   7.830  0.7185 -0.6812 -0.2980
25352WAT      O 3212   6.176   6.188   0.060  0.0715 -0.4055 -0.0665
25352WAT     H1 3213   6.176   6.269   0.011 -1.3097 -0.0888  0.4070
25352WAT     H2 3214   6.220   6.209   0.143  0.4034 -0.3608 -0.2511
25352WAT    EPW 3215   6.182   6.201   0.064 -0.0670 -0.3579 -0.0284
25353WAT      O 3216   5.614   5.007   0.047 -0.1477  0.8163 -0.0267
25353WAT     H1 3217   5.523   5.034   0.054 -0.3094  0.2206  0.2670
25353WAT     H2 3218   5.650   5.061  -0.024 -1.2496 -0.3262 -1.5209
25353WAT    EPW 3219   5.607   5.018   0.038 -0.3142  0.5872 -0.1851
25354WAT      O 3220   1.143   7.599   7.348 -0.3881  0.0656 -0.3579
25354WAT     H1 3221   1.195   7.541   7.403  1.2390  0.9572 -0.8919
25354WAT     H2 3222   1.096   7.539   7.289 -0.0201 -0.7596  0.1633
25354WAT    EPW 3223   1.143   7.583   7.347 -0.1249  0.0746 -0.3595
25355WAT      O 3224   7.817   4.098   0.681  0.2790  0.2337 -0.1352
25355WAT     H1 3225   7.737   4.143   0.708 -0.1626 -1.0526  0.7971
25355WAT     H2 3226   7.858   4.157   0.617 -2.0143  0.3855 -1.5631
25355WAT    EPW 3227   7.812   4.112   0.676 -0.0818  0.0842 -0.2006
25356WAT      O 3228   7.494   3.186   1.737 -0.4309 -0.6324 -0.7439
25356WAT     H1 3229   7.583   3.155   1.722  0.7675  2.8114 -1.6650
25356WAT     H2 3230   7.445   3.158   1.660  0.0331 -1.7446 -0.6609
25356WAT    EPW 3231   7.499   3.178   1.725 -0.2115 -0.3248 -0.8544
25357WAT      O 3232   2.330   5.426   6.049  0.0601 -0.4473  0.0990
25357WAT     H1 3233   2.273   5.429   5.972  0.2555 -0.1892 -0.0374
25357WAT     H2 3234   2.281   5.376   6.114 -0.8437  0.8072  0.4043
25357WAT    EPW 3235   2.316   5.420   6.047 -0.0335 -0.2480  0.1214
25358WAT      O 3236   5.163   3.569   2.663 -0.0067 -0.9231  0.5342
25358WAT     H1 3237   5.099   3.584   2.593 -0.8358 -0.0225  1.4508
25358WAT     H2 3238   5.144   3.481   2.693 -1.0318 -0.5710  0.9779
25358WAT    EPW 3239   5.152   3.560   2.658 -0.2513 -0.7579  0.7137
25359WAT      O 3240   9.740   7.937   7.021  0.0014 -0.4606 -0.0239
25359WAT     H1 3241   9.669   7.997   6.997  0.7900  0.1396 -0.9200
25359WAT     H2 3242   9.756   7.956   7.114  0.4241  0.9532 -0.3507
25359WAT    EPW 3243   9.733   7.948   7.030  0.1612 -0.1948 -0.1848
25360WAT      O 3244   9.091   3.123   1.070 -0.2038  0.7109 -0.3911
25360WAT     H1 3245   9.155   3.054   1.052 -0.2817  0.4768  0.2115
25360WAT     H2 3246   9.037   3.087   1.140 -2.0535  0.2037 -1.9833
25360WAT    EPW 3247   9.092   3.109   1.077 -0.4582  0.6131 -0.5215
25361WAT      O 3248   6.059   4.012   1.564  0.2416 -0.1642 -0.4355
25361WAT     H1 3249   6.044   3.993   1.471  0.2681 -0.3383 -0.4034
25361WAT     H2 3250   5.992   4.076   1.586 -0.8089 -1.3390 -0.1519
25361WAT    EPW 3251   6.048   4.018   1.554  0.1063 -0.3421 -0.3939
25362WAT      O 3252   0.424   4.233   7.706  0.5911  0.2788 -0.0976
25362WAT     H1 3253   0.431   4.218   7.611 -1.3389  3.1168 -0.8645
25362WAT     H2 3254   0.514   4.232   7.738  1.2334 -1.5990 -1.7755
25362WAT    EPW 3255   0.437   4.231   7.697  0.4212  0.4053 -0.4201
25363WAT      O 3256   6.306   5.779   0.014 -0.0588  0.0935 -0.1267
25363WAT     H1 3257   6.279   5.860  -0.030  0.0796  0.7065  0.9005
25363WAT     H2 3258   6.295   5.711  -0.053  0.5651  1.0667 -1.2466
25363WAT    EPW 3259   6.301   5.781  -0.001  0.0417  0.3027 -0.1392
25364WAT      O 3260   6.570   0.201   0.611  0.1213 -0.0389  0.3335
25364WAT     H1 3261   6.529   0.268   0.666  0.2493 -0.2308  0.6648
25364WAT     H2 3262   6.655   0.238   0.589 -0.3480  0.5107 -0.6399
25364WAT    EPW 3263   6.576   0.215   0.615  0.0763  0.0083  0.2488
25365WAT      O 3264   8.553   1.783   2.467  0.5107  0.4042 -0.4371
25365WAT     H1 3265   8.488   1.714   2.462 -0.4138  1.2904 -1.2810
25365WAT     H2 3266   8.543   1.820   2.555 -0.4166  0.7737 -0.6800
25365WAT    EPW 3267   8.543   1.779   2.478  0.2661  0.5699 -0.5804
25366WAT      O 3268   3.635   1.472   8.144  0.1183 -0.5887  0.2138
25366WAT     H1 3269   3.694   1.537   8.184  0.2398 -0.9254  0.5876
25366WAT     H2 3270   3.551   1.487   8.187  0.4560 -1.5171  1.2345
25366WAT    EPW 3271   3.632   1.483   8.155  0.1791 -0.7556  0.3982
25367WAT      O 3272  10.503   6.312   7.074  0.5876 -0.4158 -0.1064
25367WAT     H1 3273  10.585   6.355   7.052  1.9643 -2.2353  1.1571
25367WAT     H2 3274  10.485   6.338   7.164 -0.1265 -0.1999 -0.3030
25367WAT    EPW 3275  10.512   6.321   7.083  0.6757 -0.6270  0.0343
25368WAT      O 3276   9.154   5.219   7.482  0.0982  0.5468  0.0310
25368WAT     H1 3277   9.109   5.136   7.462 -0.7108 -0.0279  3.5405
25368WAT     H2 3278   9.089   5.286   7.463  0.0988  0.2549 -1.0693
25368WAT    EPW 3279   9.139   5.217   7.477 -0.0081  0.4325  0.3488
25369WAT      O 3280   6.690   7.523   8.935  0.3381 -0.2038 -0.0163
25369WAT     H1 3281   6.724   7.592   8.992  1.5993  0.6838 -1.7257
25369WAT     H2 3282   6.609   7.559   8.899  0.1171 -0.3094  0.3787
25369WAT    EPW 3283   6.684   7.537   8.938  0.4752 -0.1006 -0.1893
25370WAT      O 3284   8.658   2.259   2.038 -0.2563 -0.4728  0.4334
25370WAT     H1 3285   8.653   2.327   1.971  2.2503 -1.0152 -0.3870
25370WAT     H2 3286   8.577   2.270   2.088  0.2571  3.5483  0.7523
25370WAT    EPW 3287   8.647   2.269   2.036  0.1421 -0.0139  0.3674
25371WAT      O 3288   9.713   4.014   0.869  0.2064  0.8021  0.2588
25371WAT     H1 3289   9.637   4.050   0.823  1.7629  1.9309 -1.5722
25371WAT     H2 3290   9.779   4.083   0.864  1.6504 -0.4605  1.0512
25371WAT    EPW 3291   9.711   4.028   0.863  0.6022  0.7844  0.1219
25372WAT      O 3292   7.308   2.457   1.482 -0.1897 -0.3315  0.6602
25372WAT     H1 3293   7.247   2.383   1.475  0.9776 -1.2808  0.1760
25372WAT     H2 3294   7.392   2.420   1.457  0.2519  1.4161 -0.5819
25372WAT    EPW 3295   7.311   2.442   1.477  0.0224 -0.2261  0.4324
25373WAT      O 3296   7.025   4.850   0.231  0.1728 -0.5851  0.7885
25373WAT     H1 3297   7.023   4.767   0.277 -0.3030 -1.2609 -0.3867
25373WAT     H2 3298   6.943   4.851   0.181  0.5613  0.2008  0.1377
25373WAT    EPW 3299   7.014   4.839   0.230  0.1612 -0.5705  0.5477
25374WAT      O 3300   1.516   9.360   3.147  0.2847 -0.3531 -0.1848
25374WAT     H1 3301   1.441   9.307   3.118  0.8056 -0.5928 -1.1059
25374WAT     H2 3302   1.481   9.449   3.152  0.5173  0.0308 -3.1796
25374WAT    EPW 3303   1.501   9.364   3.144  0.3841 -0.3338 -0.7013
25375WAT      O 3304   8.607   3.361   1.860  0.5552  0.1885 -0.4507
25375WAT     H1 3305   8.530   3.393   1.907 -0.7713 -3.0943 -0.1443
25375WAT     H2 3306   8.571   3.318   1.782  2.1493 -0.6297 -0.7827
25375WAT    EPW 3307   8.592   3.360   1.856  0.5903 -0.3524 -0.4541
25376WAT      O 3308   9.643   2.601   2.734  0.0608  0.0399  0.2191
25376WAT     H1 3309   9.717   2.571   2.680 -0.4616 -1.2123  0.1615
25376WAT     H2 3310   9.573   2.538   2.716  0.6014 -1.9988  4.1229
25376WAT    EPW 3311   9.644   2.589   2.725  0.0629 -0.3942  0.7265
25377WAT      O 3312   7.710   1.080   1.261 -0.4484 -0.2512 -0.0852
25377WAT     H1 3313   7.760   1.033   1.328  2.8835  0.8588 -1.5662
25377WAT     H2 3314   7.759   1.066   1.180 -2.0523  1.7508 -1.5138
25377WAT    EPW 3315   7.723   1.072   1.260 -0.2201  0.1591 -0.4690
25378WAT      O 3316   6.781   4.002   2.269 -0.1761 -0.5263  0.1507
25378WAT     H1 3317   6.807   3.921   2.225  0.3086  0.8225 -2.1744
25378WAT     H2 3318   6.768   4.065   2.199  1.0993  1.9271  1.9397
25378WAT    EPW 3319   6.783   4.000   2.254  0.0560 -0.0248  0.0800
25379WAT      O 3320   8.519   8.944   8.173  0.3301  0.1223  0.0633
25379WAT     H1 3321   8.501   9.021   8.120  0.8476 -1.1322 -2.0527
25379WAT     H2 3322   8.446   8.940   8.235 -0.8487  1.1304 -1.1930
25379WAT    EPW 3323   8.507   8.954   8.174  0.2427  0.0901 -0.3815
25380WAT      O 3324   3.239   0.245   0.474  0.0984 -0.3121  0.0860
25380WAT     H1 3325   3.213   0.195   0.551  3.0729  0.3399  1.6747
25380WAT     H2 3326   3.333   0.229   0.466  0.1431  0.7751 -2.5978
25380WAT    EPW 3327   3.248   0.236   0.483  0.4965 -0.0827 -0.0584
25381WAT      O 3328   6.310   5.585   1.386 -0.2181 -0.5457 -0.5765
25381WAT     H1 3329   6.275   5.651   1.327  1.5995  0.0818 -1.0261
25381WAT     H2 3330   6.401   5.574   1.358  0.2644 -1.3148  1.1624
25381WAT    EPW 3331   6.318   5.592   1.375  0.0854 -0.5643 -0.4065
25382WAT      O 3332   4.586   3.326   0.471  0.6109 -0.0719  0.5711
25382WAT     H1 3333   4.654   3.274   0.429  0.2960  0.2158 -0.3025
25382WAT     H2 3334   4.522   3.343   0.403  0.7294  1.5024  0.8026
25382WAT    EPW 3335   4.587   3.322   0.457  0.5848  0.1737  0.4864
25383WAT      O 3336   5.117   3.974   0.099  0.0052 -0.1453 -0.5405
25383WAT     H1 3337   5.142   3.894   0.145 -1.6983 -1.4615 -1.7776
25383WAT     H2 3338   5.195   4.000   0.050  1.1064 -0.0318  1.1984
25383WAT    EPW 3339   5.131   3.967   0.098 -0.0744 -0.3039 -0.4743
25384WAT      O 3340   7.411   4.118   3.109 -0.2817 -0.8741  0.7136
25384WAT     H1 3341   7.328   4.109   3.155 -0.3040  0.8987  1.0813
25384WAT     H2 3342   7.476   4.130   3.178  0.0313 -0.5929  0.3752
25384WAT    EPW 3343   7.409   4.118   3.124 -0.2432 -0.6032  0.7174
25385WAT      O 3344   9.742   5.388   3.436 -0.8689  0.0322  0.0838
25385WAT     H1 3345   9.827   5.346   3.446 -0.4024  0.8276 -0.4159
25385WAT     H2 3346   9.761   5.471   3.393 -1.6218  1.2193  1.8956
25385WAT    EPW 3347   9.755   5.394   3.432 -0.9065  0.2935  0.2569
25386WAT      O 3348   0.009   8.867   8.980  0.6590  0.4265  0.1661
25386WAT     H1 3349   0.036   8.901   9.066  1.2531 -2.3094  1.1980
25386WAT     H2 3350   0.090   8.864   8.929  0.7614 -0.0972  0.3508
25386WAT    EPW 3351   0.023   8.871   8.985  0.7515 -0.0038  0.3262
25387WAT      O 3352   6.079   1.367   2.044  0.1518  0.7933  0.2809
25387WAT     H1 3353   6.159   1.407   2.078  0.7952  0.6313 -1.0226
25387WAT     H2 3354   6.050   1.426   1.974  0.5145 -0.4315 -0.9372
25387WAT    EPW 3355   6.086   1.380   2.040  0.2844  0.6104 -0.0515
25388WAT      O 3356   7.658   8.483   7.953  0.0622 -0.0912 -0.1011
25388WAT     H1 3357   7.565   8.495   7.932 -0.7005 -3.2684  0.9901
25388WAT     H2 3358   7.676   8.551   8.017 -1.1868  1.2615 -1.1025
25388WAT    EPW 3359   7.648   8.494   7.958 -0.2029 -0.3319 -0.0892
25389WAT      O 3360   5.892   5.710   2.049 -0.4616  0.4268  0.3964
25389WAT     H1 3361   5.926   5.790   2.008  2.2278 -0.1159  1.3727
25389WAT     H2 3362   5.848   5.740   2.128  1.9945  0.9483  1.6765
25389WAT    EPW 3363   5.891   5.725   2.054  0.2172  0.4241  0.6940
25390WAT      O 3364   7.266   1.203   0.002 -0.6714 -0.0721  0.1609
25390WAT     H1 3365   7.262   1.114  -0.032  1.5070 -0.1221 -0.1406
25390WAT     H2 3366   7.261   1.259  -0.076  1.3957 -0.0963 -0.0535
25390WAT    EPW 3367   7.265   1.198  -0.013 -0.1113 -0.0820  0.0928
25391WAT      O 3368   4.617   0.636   2.562 -0.1056 -0.3154  0.0162
25391WAT     H1 3369   4.691   0.684   2.601 -1.2579  1.9589 -0.4696
25391WAT     H2 3370   4.574   0.595   2.637  1.7658 -1.9591  0.2815
25391WAT    EPW 3371   4.621   0.637   2.577 -0.0110 -0.2323 -0.0129
25392WAT      O 3372   8.427   1.323   1.649 -0.0245  0.4508  0.6323
25392WAT     H1 3373   8.503   1.361   1.606 -0.8318 -0.1451 -1.4467
25392WAT     H2 3374   8.355   1.336   1.587 -0.7702 -2.5496  0.7043
25392WAT    EPW 3375   8.427   1.330   1.635 -0.2294 -0.0235  0.3676
25393WAT      O 3376   6.506   3.726   2.531  0.3231  0.4468  0.0486
25393WAT     H1 3377   6.503   3.752   2.623  0.4950 -0.6149  0.3708
25393WAT     H2 3378   6.502   3.808   2.482 -0.0060  1.0077  0.9980
25393WAT    EPW 3379   6.505   3.740   2.537  0.3023  0.3808  0.2162
25394WAT      O 3380   5.593   2.268   0.545  0.0366  0.1194  0.2308
25394WAT     H1 3381   5.670   2.291   0.492 -1.3826 -0.9669 -2.5535
25394WAT     H2 3382   5.525   2.330   0.516 -1.8972 -2.8974 -2.3694
25394WAT    EPW 3383   5.594   2.279   0.534 -0.4058 -0.4218 -0.4793
25395WAT      O 3384   9.281   1.826   0.929  0.0825  0.8907  0.0813
25395WAT     H1 3385   9.234   1.765   0.987  0.0725  0.8922  0.0746
25395WAT     H2 3386   9.213   1.881   0.892  0.2850  2.4748  1.9016
25395WAT    EPW 3387   9.266   1.825   0.932  0.1082  1.0999  0.3205
25396WAT      O 3388   0.844   9.237   8.050 -0.0099 -0.5821 -0.1310
25396WAT     H1 3389   0.787   9.260   8.123  1.1217 -3.1094  1.7105
25396WAT     H2 3390   0.805   9.158   8.013  0.6440 -0.5879 -0.8483
25396WAT    EPW 3391   0.831   9.230   8.055  0.2256 -0.9165  0.0172
25397WAT      O 3392   6.823   3.269   1.961 -0.4251 -0.5524  0.6084
25397WAT     H1 3393   6.815   3.175   1.974 -1.4443 -0.6384 -0.5114
25397WAT     H2 3394   6.913   3.281   1.928 -1.6003 -1.7678 -3.7295
25397WAT    EPW 3395   6.834   3.258   1.958 -0.7143 -0.7238 -0.1115
25398WAT      O 3396   6.266   1.232   0.373 -0.5669 -0.3942 -0.2593
25398WAT     H1 3397   6.222   1.245   0.457 -1.2257  2.3091 -0.9366
25398WAT     H2 3398   6.333   1.165   0.392 -2.4586 -1.8966  1.6896
25398WAT    EPW 3399   6.269   1.225   0.387 -0.9034 -0.2358 -0.0916
25399WAT      O 3400   6.255   4.125   2.677  0.6606 -0.6951 -0.0804
25399WAT     H1 3401   6.214   4.059   2.621 -0.0368  0.8162 -1.4460
25399WAT     H2 3402   6.349   4.104   2.674  0.6442 -0.6444 -1.8621
25399WAT    EPW 3403   6.262   4.113   2.669  0.5662 -0.4890 -0.4956
25400WAT      O 3404   3.991   1.964   3.755  0.1169  0.3045 -0.0094
25400WAT     H1 3405   4.008   1.894   3.691 -1.4055 -0.6820  0.6015
25400WAT     H2 3406   4.077   1.997   3.777  0.7087  0.8314 -2.7050
25400WAT    EPW 3407   4.004   1.959   3.749 -0.0057  0.2438 -0.2844
25401WAT      O 3408   6.112   2.668   3.226  0.0228 -0.2716 -0.0885
25401WAT     H1 3409   6.078   2.725   3.295 -1.6498 -1.3698  0.0529
25401WAT     H2 3410   6.203   2.651   3.252 -0.0523  0.7305  0.8943
25401WAT    EPW 3411   6.119   2.673   3.239 -0.2077 -0.2843  0.0596
25402WAT      O 3412   6.756   3.012   1.634  0.5373  0.1044  0.3043
25402WAT     H1 3413   6.839   3.018   1.587  0.4667 -1.1541 -0.0421
25402WAT     H2 3414   6.781   2.992   1.724  0.6522 -3.1408 -0.3223
25402WAT    EPW 3415   6.771   3.010   1.639  0.5431 -0.4896  0.1760
25403WAT      O 3416   5.919   4.539   0.814 -0.0785 -0.2470  0.2122
25403WAT     H1 3417   5.991   4.481   0.838  0.3186  0.2259  0.1728
25403WAT     H2 3418   5.922   4.610   0.879  2.1374  2.0288 -2.1406
25403WAT    EPW 3419   5.929   4.541   0.826  0.2658  0.1156 -0.1033
25404WAT      O 3420   1.378   7.726   7.191 -0.5570 -0.7283 -0.1467
25404WAT     H1 3421   1.394   7.766   7.276 -0.8912  0.8495 -0.7914
25404WAT     H2 3422   1.295   7.679   7.202  0.4760 -2.4019  0.9824
25404WAT    EPW 3423   1.369   7.725   7.204 -0.4648 -0.7408 -0.0825
25405WAT      O 3424  10.568   7.745   6.062  0.2471 -0.5863  0.2322
25405WAT     H1 3425  10.554   7.775   6.152 -0.3296  1.0851 -0.3667
25405WAT     H2 3426  10.562   7.650   6.067  0.9539 -0.5752  2.0710
25405WAT    EPW 3427  10.565   7.737   6.074  0.2642 -0.3643  0.3955
25406WAT      O 3428   0.853   8.109   8.524 -0.1002  0.7032 -0.1558
25406WAT     H1 3429   0.857   8.129   8.618  0.2045  0.2281 -0.0619
25406WAT     H2 3430   0.896   8.024   8.516 -2.4206 -0.5304 -0.3664
25406WAT    EPW 3431   0.860   8.100   8.536 -0.3660  0.4783 -0.1707
25407WAT      O 3432   8.755   2.876   0.300 -0.1486  0.6656  0.3309
25407WAT     H1 3433   8.742   2.970   0.306 -1.7572  0.4866  0.0723
25407WAT     H2 3434   8.841   2.861   0.340  0.4825  2.3029 -0.3305
25407WAT    EPW 3435   8.765   2.886   0.306 -0.2775  0.8579  0.2095
25408WAT      O 3436   1.702   8.605   1.639  0.1943  0.1514 -0.6980
25408WAT     H1 3437   1.786   8.646   1.663 -0.5685  0.9360  0.7912
25408WAT     H2 3438   1.690   8.629   1.547  1.1142  0.9362 -0.6375
25408WAT    EPW 3439   1.712   8.614   1.630  0.2150  0.3591 -0.4935
25409WAT      O 3440   5.967   2.127   2.908 -1.3830  0.0382  0.1083
25409WAT     H1 3441   5.948   2.195   2.972  1.6459  1.5542 -0.3920
25409WAT     H2 3442   6.049   2.155   2.867 -1.3313 -2.6592 -1.9523
25409WAT    EPW 3443   5.976   2.140   2.911 -0.9768 -0.1177 -0.2296
25410WAT      O 3444  10.022   5.642   1.888 -0.5853  0.3436 -0.1795
25410WAT     H1 3445  10.051   5.670   1.975  2.1835  1.7901 -1.4281
25410WAT     H2 3446   9.990   5.553   1.902 -1.4115  0.9415  2.4873
25410WAT    EPW 3447  10.021   5.634   1.902 -0.3295  0.6132  0.0076
25411WAT      O 3448   5.073   1.106   0.990  0.1981  0.9269 -0.8557
25411WAT     H1 3449   5.038   1.180   1.039 -0.0357  0.5687 -0.4726
25411WAT     H2 3450   5.161   1.133   0.964 -0.1187  1.5840 -1.2702
25411WAT    EPW 3451   5.080   1.119   0.993  0.1256  0.9664 -0.8598
25412WAT      O 3452  10.371   4.202   1.425  0.2633 -0.3486 -0.1347
25412WAT     H1 3453  10.280   4.172   1.432 -1.1724  3.6374  0.8848
25412WAT     H2 3454  10.412   4.174   1.507 -1.1731  0.8314  1.0447
25412WAT    EPW 3455  10.364   4.194   1.437 -0.1154  0.3328  0.1553
25413WAT      O 3456   3.938   5.490   1.120 -0.3181 -0.0768 -0.1437
25413WAT     H1 3457   3.935   5.481   1.025 -2.1018 -0.7428 -0.0727
25413WAT     H2 3458   3.846   5.498   1.146  0.0731 -0.7294  1.5893
25413WAT    EPW 3459   3.926   5.490   1.111 -0.5016 -0.2506  0.0942
25414WAT      O 3460   9.342   4.227   2.901 -0.5342  0.1992  0.3614
25414WAT     H1 3461   9.261   4.215   2.851 -1.4693  2.2213  1.2518
25414WAT     H2 3462   9.410   4.190   2.845 -2.0590 -1.6460 -0.3846
25414WAT    EPW 3463   9.340   4.221   2.887 -0.8593  0.2227  0.3805
25415WAT      O 3464   1.796   5.349   8.405  0.4821 -0.3082  0.6586
25415WAT     H1 3465   1.754   5.266   8.384  0.9259 -0.4384  0.2656
25415WAT     H2 3466   1.731   5.396   8.458 -1.6431  0.9555 -2.7529
25415WAT    EPW 3467   1.782   5.344   8.409  0.2604 -0.1588  0.1569
25416WAT      O 3468   8.708   5.769   0.855  0.5943  0.1776  0.3133
25416WAT     H1 3469   8.718   5.835   0.785  1.2572 -0.6257 -0.3782
25416WAT     H2 3470   8.795   5.762   0.893  0.7138 -0.7900 -0.0928
25416WAT    EPW 3471   8.721   5.777   0.851  0.6976 -0.0558  0.1685
25417WAT      O 3472   8.485   7.967   7.360 -0.0597  0.2800 -0.1343
25417WAT     H1 3473   8.509   7.980   7.452  0.2005 -0.2730 -0.1209
25417WAT     H2 3474   8.465   7.874   7.353  0.7175  0.1460 -0.8170
25417WAT    EPW 3475   8.486   7.957   7.371  0.0772  0.1893 -0.2224
25418WAT      O 3476   4.893   1.436   0.833 -0.1871 -1.1672 -0.2284
25418WAT     H1 3477   4.925   1.396   0.913  2.5221 -2.0018 -1.6084
25418WAT     H2 3478   4.931   1.523   0.832 -1.6759 -0.4872  0.2005
25418WAT    EPW 3479   4.902   1.442   0.843 -0.0262 -1.1876 -0.3538
25419WAT      O 3480   3.638   1.923   8.095  0.1959 -0.4634  0.0529
25419WAT     H1 3481   3.565   1.909   8.155 -0.0378 -3.3301 -0.7444
25419WAT     H2 3482   3.601   1.912   8.008  1.0556  0.9621 -0.5401
25419WAT    EPW 3483   3.624   1.920   8.092  0.2785 -0.6535 -0.1307
25420WAT      O 3484   5.638   5.330   0.757  0.0655  0.3429  0.3621
25420WAT     H1 3485   5.641   5.253   0.814  1.9328  0.9898  1.2333
25420WAT     H2 3486   5.725   5.369   0.766 -0.2467  1.5703 -1.4503
25420WAT    EPW 3487   5.650   5.325   0.766  0.2706  0.5903  0.2379
25421WAT      O 3488   0.260   9.796   7.384 -0.8530  0.5998 -0.4774
25421WAT     H1 3489   0.353   9.787   7.406 -0.5386  1.2777 -1.4449
25421WAT     H2 3490   0.240   9.888   7.398 -1.3956  0.4490 -0.2288
25421WAT    EPW 3491   0.270   9.807   7.388 -0.8831  0.6690 -0.5724
25422WAT      O 3492   6.047   8.048   0.539  0.4386  0.1109  0.1418
25422WAT     H1 3493   6.079   8.007   0.619  0.2785 -2.2153 -0.9105
25422WAT     H2 3494   5.952   8.051   0.550  0.4487  0.2019  0.2083
25422WAT    EPW 3495   6.038   8.043   0.551  0.4189 -0.1836  0.0118
25423WAT      O 3496   7.791   4.586   0.055 -0.0151 -0.3242  0.4794
25423WAT     H1 3497   7.783   4.665   0.000 -0.6592 -0.0438  0.9607
25423WAT     H2 3498   7.721   4.528   0.024  1.9013 -1.7271 -1.4641
25423WAT    EPW 3499   7.781   4.589   0.044  0.1526 -0.4723  0.2865
25424WAT      O 3500   4.552   0.933   8.011  0.0873 -0.5787 -0.4744
25424WAT     H1 3501   4.571   0.844   7.979 -2.0238 -1.3617  0.2676
25424WAT     H2 3502   4.472   0.923   8.062 -0.0304  1.7330 -0.1174
25424WAT    EPW 3503   4.544   0.920   8.013 -0.2067 -0.3771 -0.3295
25425WAT      O 3504   6.555   1.563   1.665 -0.0722 -0.0234 -0.1488
25425WAT     H1 3505   6.620   1.619   1.623  0.6082  0.5666  1.6168
25425WAT     H2 3506   6.572   1.476   1.628  0.9797  0.3316 -0.5559
25425WAT    EPW 3507   6.566   1.558   1.655  0.1564  0.1012  0.0303
25426WAT      O 3508   3.457   7.290   1.493 -0.5712  0.3351  0.0183
25426WAT     H1 3509   3.523   7.295   1.562 -1.8035  1.5157  1.1790
25426WAT     H2 3510   3.387   7.236   1.530 -0.9884  0.4875 -0.5281
25426WAT    EPW 3511   3.456   7.284   1.507 -0.7888  0.5109  0.0993
25427WAT      O 3512   4.581   2.763   1.102 -0.6793 -0.8527  0.2901
25427WAT     H1 3513   4.626   2.687   1.137 -0.9649 -1.1950 -0.0790
25427WAT     H2 3514   4.556   2.738   1.013  0.3949  0.1461 -0.3250
25427WAT    EPW 3515   4.584   2.750   1.095 -0.5753 -0.7662  0.1603
25428WAT      O 3516   4.138   6.199   1.731 -0.1968 -0.1907 -0.4694
25428WAT     H1 3517   4.069   6.191   1.798 -1.1223  1.5012 -1.1477
25428WAT     H2 3518   4.179   6.113   1.728  0.5022 -0.1123  2.9124
25428WAT    EPW 3519   4.134   6.187   1.739 -0.2265  0.0427 -0.1128
25429WAT      O 3520   1.234  10.224   8.539  0.4202 -0.9925 -0.1641
25429WAT     H1 3521   1.208  10.143   8.582 -2.6556 -0.0811 -0.0618
25429WAT     H2 3522   1.236  10.202   8.445  2.0653 -1.7091 -0.0081
25429WAT    EPW 3523   1.231  10.210   8.532  0.2314 -0.9670 -0.1302
25430WAT      O 3524   7.669   3.435   2.006  0.8908 -0.1923  0.1837
25430WAT     H1 3525   7.644   3.500   2.072  0.8455  1.4649 -1.3758
25430WAT     H2 3526   7.619   3.357   2.029 -1.2439  1.1797  0.5539
25430WAT    EPW 3527   7.659   3.433   2.018  0.6034  0.2073  0.0267
25431WAT      O 3528   8.019   7.599   6.420 -0.8746  0.1870  0.3710
25431WAT     H1 3529   8.069   7.521   6.395 -0.3536  0.2412  1.1796
25431WAT     H2 3530   7.946   7.602   6.359  1.0192  1.0825 -1.9873
25431WAT    EPW 3531   8.016   7.589   6.409 -0.5560  0.3123  0.1667
25432WAT      O 3532   0.571  10.320   8.538 -0.2999  0.2330  0.0317
25432WAT     H1 3533   0.584  10.345   8.630 -0.7327 -1.0276  0.4617
25432WAT     H2 3534   0.485  10.277   8.537 -1.0622  1.6863 -1.2936
25432WAT    EPW 3535   0.561  10.317   8.550 -0.4576  0.2584 -0.0858
25433WAT      O 3536   8.771   5.399   0.816 -0.3643  0.5726  0.1105
25433WAT     H1 3537   8.766   5.382   0.910 -1.6364 -0.2085 -0.0660
25433WAT     H2 3538   8.680   5.409   0.789 -0.2910 -2.1077 -1.5230
25433WAT    EPW 3539   8.758   5.398   0.825 -0.5221  0.1159 -0.1282
25434WAT      O 3540   9.917   5.358   6.475  1.2111 -0.1695 -0.0998
25434WAT     H1 3541   9.898   5.360   6.569  0.7960  1.3109 -0.1906
25434WAT     H2 3542   9.999   5.309   6.469  1.5736  0.2386  1.1001
25434WAT    EPW 3543   9.926   5.352   6.487  1.2040  0.0794  0.0465
25435WAT      O 3544   5.291   1.932   2.465 -0.0071  0.0964 -0.0051
25435WAT     H1 3545   5.336   1.998   2.412  1.5703  0.7564  1.9906
25435WAT     H2 3546   5.351   1.857   2.465 -0.9717 -0.6969 -0.8269
25435WAT    EPW 3547   5.305   1.931   2.458  0.0741  0.0788  0.1497
25436WAT      O 3548  10.700   9.664   8.160 -0.1324  0.1408  0.1557
25436WAT     H1 3549  10.654   9.741   8.195  1.3048  1.0909  0.0512
25436WAT     H2 3550  10.637   9.624   8.100 -0.8369  1.3974  0.0097
25436WAT    EPW 3551  10.686   9.669   8.157 -0.0358  0.4315  0.1225
25437WAT      O 3552   9.868   4.842   1.128 -0.0661  0.4690 -0.4023
25437WAT     H1 3553   9.942   4.868   1.072 -0.3200 -0.2116 -1.0667
25437WAT     H2 3554   9.901   4.769   1.179 -0.9551 -1.4183 -2.3983
25437WAT    EPW 3555   9.882   4.836   1.127 -0.2170  0.1307 -0.7532
25438WAT      O 3556   6.266   2.211   2.866  0.3988 -0.2153  0.7927
25438WAT     H1 3557   6.297   2.260   2.790 -1.1717 -1.6009 -0.8339
25438WAT     H2 3558   6.316   2.129   2.864 -1.3824 -1.3396 -0.3177
25438WAT    EPW 3559   6.277   2.207   2.856 -0.0429 -0.5463  0.4318
25439WAT      O 3560   7.000   5.203   2.140 -0.2394  0.6324  0.0316
25439WAT     H1 3561   7.082   5.155   2.152 -0.1632 -0.0019 -2.4543
25439WAT     H2 3562   6.932   5.135   2.147 -0.2970  0.5552 -1.0861
25439WAT    EPW 3563   7.002   5.188   2.143 -0.2370  0.5383 -0.4436
25440WAT      O 3564   5.369   1.650   8.363  0.3747  0.3506  0.4511
25440WAT     H1 3565   5.367   1.561   8.329  1.4046 -0.7973  3.1335
25440WAT     H2 3566   5.459   1.663   8.393 -0.3267  1.3237  2.3744
25440WAT    EPW 3567   5.381   1.640   8.363  0.4182  0.3275  1.0591
25441WAT      O 3568   9.876   6.308   6.564 -1.4431 -0.1607  0.4952
25441WAT     H1 3569   9.877   6.324   6.658 -0.6829  1.2061  0.2759
25441WAT     H2 3570   9.969   6.309   6.539 -1.7055  1.0462 -0.5067
25441WAT    EPW 3571   9.889   6.310   6.573 -1.3781  0.1788  0.3343
25442WAT      O 3572   6.856   2.620   1.446  0.2095 -0.3192 -0.0408
25442WAT     H1 3573   6.772   2.605   1.490 -0.1546  0.0893 -0.5829
25442WAT     H2 3574   6.835   2.680   1.374  0.8894 -0.5626 -0.4523
25442WAT    EPW 3575   6.842   2.626   1.442  0.2511 -0.2975 -0.1665
25443WAT      O 3576   3.802   5.046   2.243  0.3324 -0.5621  0.8438
25443WAT     H1 3577   3.712   5.068   2.270 -0.2453  4.0454 -3.2705
25443WAT     H2 3578   3.857   5.101   2.299  0.0979  0.2595  0.2957
25443WAT    EPW 3579   3.797   5.056   2.254  0.2253  0.1538  0.2289
25444WAT      O 3580   8.221   8.749   8.960 -0.3838  1.1397  0.1774
25444WAT     H1 3581   8.251   8.704   8.882 -1.2198  0.5779  0.1737
25444WAT     H2 3582   8.214   8.681   9.027  0.2052  1.5931  0.7149
25444WAT    EPW 3583   8.224   8.734   8.959 -0.4163  1.1253  0.2475
25445WAT      O 3584   0.065   9.499   7.874 -0.7703  0.0396 -0.2813
25445WAT     H1 3585  -0.002   9.559   7.906 -1.1917 -1.1564  1.1520
25445WAT     H2 3586   0.120   9.554   7.818 -2.3133  1.2854 -0.6652
25445WAT    EPW 3587   0.063   9.514   7.870 -1.0294  0.0463 -0.1428
25446WAT      O 3588   3.251   1.245   8.003 -0.0820 -0.1683  0.2276
25446WAT     H1 3589   3.233   1.316   8.066  0.1058 -0.5546  0.7204
25446WAT     H2 3590   3.346   1.242   7.998 -0.0817 -0.6052  0.4622
25446WAT    EPW 3591   3.261   1.254   8.011 -0.0572 -0.2768  0.3228
25447WAT      O 3592   0.286   6.184   0.901 -0.0065 -0.0948  0.0131
25447WAT     H1 3593   0.234   6.114   0.942 -3.3581  2.2577  0.2263
25447WAT     H2 3594   0.221   6.241   0.860  2.0403  4.5179  2.3634
25447WAT    EPW 3595   0.270   6.182   0.901 -0.1786  0.8240  0.3512
25448WAT      O 3596   5.157   2.761   8.354  0.3277  0.2694 -0.0182
25448WAT     H1 3597   5.119   2.776   8.441 -1.0106 -1.6610 -0.2037
25448WAT     H2 3598   5.104   2.815   8.295  0.5290  0.7457  0.2382
25448WAT    EPW 3599   5.145   2.770   8.358  0.1776  0.0776 -0.0086
25449WAT      O 3600  10.804   8.445   3.438 -0.3703 -0.3666  0.1632
25449WAT     H1 3601  10.844   8.405   3.361 -1.6561  0.2819 -0.8834
25449WAT     H2 3602  10.774   8.370   3.490 -1.3615 -0.8251 -1.0120
25449WAT    EPW 3603  10.805   8.430   3.435 -0.6709 -0.3419 -0.1298
25450WAT      O 3604   4.837   5.570   1.484 -0.5667  0.5101  0.3694
25450WAT     H1 3605   4.908   5.626   1.452 -1.5303  1.2744 -0.5356
25450WAT     H2 3606   4.850   5.486   1.439  1.1761 -0.2171  2.1123
25450WAT    EPW 3607   4.848   5.566   1.474 -0.4640  0.5147  0.4799
25451WAT      O 3608   4.701   4.869   0.033  0.4832  0.6636 -0.2126
25451WAT     H1 3609   4.758   4.916  -0.028 -2.2724  0.3448 -3.2834
25451WAT     H2 3610   4.630   4.930   0.051  0.7124  0.3664  2.0334
25451WAT    EPW 3611   4.699   4.883   0.027  0.1502  0.5822 -0.3214
25452WAT      O 3612   0.034   9.977   7.088 -0.1284 -0.2055  0.6918
25452WAT     H1 3613   0.108   9.938   7.134  0.7259  0.8306  0.2437
25452WAT     H2 3614  -0.008   9.904   7.043  1.4534 -0.6216 -0.1702
25452WAT    EPW 3615   0.038   9.962   7.088  0.1929 -0.1235  0.5190
25453WAT      O 3616   7.862   7.187   0.257  0.4624 -0.3204  0.4378
25453WAT     H1 3617   7.941   7.136   0.239 -0.0225 -0.7100 -0.6788
25453WAT     H2 3618   7.790   7.131   0.227 -0.1406  0.6197  0.0809
25453WAT    EPW 3619   7.863   7.173   0.251  0.3192 -0.2480  0.2435
25454WAT      O 3620   2.698   9.655   8.719 -0.1218 -0.1242  0.4317
25454WAT     H1 3621   2.776   9.651   8.775 -0.7628  1.1949  1.4847
25454WAT     H2 3622   2.677   9.748   8.714 -0.3800 -0.2582 -1.6476
25454WAT    EPW 3623   2.705   9.667   8.726 -0.2406  0.0324  0.2966
25455WAT      O 3624   8.853   6.493   8.439 -0.5782 -0.1042  0.1011
25455WAT     H1 3625   8.772   6.488   8.387  0.0285 -1.9514 -0.7404
25455WAT     H2 3626   8.910   6.426   8.401  0.8906  0.2996  1.4952
25455WAT    EPW 3627   8.850   6.484   8.427 -0.3047 -0.2947  0.1745
25456WAT      O 3628   7.255   7.851   8.511 -0.2645  0.4743 -0.4206
25456WAT     H1 3629   7.285   7.825   8.424 -1.4439 -0.0092 -0.6883
25456WAT     H2 3630   7.335   7.854   8.564  0.7652  2.5951 -1.9360
25456WAT    EPW 3631   7.270   7.848   8.506 -0.2842  0.6902 -0.6561
25457WAT      O 3632  10.904   9.521   8.284  0.4978  0.6127  0.7830
25457WAT     H1 3633  10.882   9.427   8.279  0.6809  0.5643  0.8707
25457WAT     H2 3634  10.835   9.564   8.234 -0.2992  0.5418  1.7771
25457WAT    EPW 3635  10.892   9.514   8.277  0.4168  0.5975  0.9255
25458WAT      O 3636  10.227   5.594   8.901 -0.2939  0.2495 -0.0674
25458WAT     H1 3637  10.314   5.623   8.872 -1.0841  1.0039 -1.8544
25458WAT     H2 3638  10.244   5.533   8.973  1.7081  0.4157 -0.3542
25458WAT    EPW 3639  10.241   5.590   8.907 -0.1345  0.3707 -0.3409
25459WAT      O 3640   7.570   3.828   3.103 -0.2029 -0.1786  1.1038
25459WAT     H1 3641   7.514   3.751   3.115 -0.9848  0.2989  0.5522
25459WAT     H2 3642   7.511   3.903   3.115 -0.0104  0.3385 -0.8314
25459WAT    EPW 3643   7.555   3.828   3.106 -0.2806 -0.0474  0.7758
25460WAT      O 3644   2.837   2.060   0.546  0.5646 -0.3956 -0.2899
25460WAT     H1 3645   2.859   1.971   0.518  0.3584  0.3049 -2.9378
25460WAT     H2 3646   2.771   2.048   0.614  2.2250 -2.2917  1.0933
25460WAT    EPW 3647   2.831   2.047   0.551  0.7564 -0.5533 -0.4567
25461WAT      O 3648   7.480   3.212   2.037  0.0709  0.8052  0.1236
25461WAT     H1 3649   7.398   3.202   2.085  0.4413  1.3527  0.9087
25461WAT     H2 3650   7.455   3.211   1.945 -0.9960  2.3250  0.3526
25461WAT    EPW 3651   7.466   3.211   2.031 -0.0210  1.0779  0.2574
25462WAT      O 3652   7.153   0.169   1.848  0.3162  0.1922  0.2672
25462WAT     H1 3653   7.226   0.133   1.899 -0.8827 -0.9921  1.2200
25462WAT     H2 3654   7.090   0.097   1.842 -0.9274  1.2793 -0.2568
25462WAT    EPW 3655   7.154   0.155   1.854 -0.0062  0.1794  0.3238
25463WAT      O 3656   9.293   5.935   1.681 -0.6008 -0.1272 -0.6527
25463WAT     H1 3657   9.333   5.901   1.761 -0.9156 -2.2265 -1.3289
25463WAT     H2 3658   9.350   6.008   1.655  0.2903 -0.3000  0.7079
25463WAT    EPW 3659   9.306   5.940   1.688 -0.5250 -0.4268 -0.5624
25464WAT      O 3660   6.913   0.941   0.944 -0.1130 -0.4251 -0.2387
25464WAT     H1 3661   6.963   0.895   0.877 -0.2878 -0.4153 -0.3758
25464WAT     H2 3662   6.975   0.955   1.016 -0.1655 -1.2394 -0.0241
25464WAT    EPW 3663   6.928   0.937   0.945 -0.1431 -0.5313 -0.2285
25465WAT      O 3664   8.760   3.678   2.120 -0.4018  0.5935  0.2467
25465WAT     H1 3665   8.836   3.693   2.063 -0.4593  0.4541  0.1308
25465WAT     H2 3666   8.698   3.746   2.095 -1.1550 -0.5407 -1.1386
25465WAT    EPW 3667   8.762   3.689   2.109 -0.5088  0.4255  0.0488
25466WAT      O 3668   8.190   9.343   8.804  0.2484 -0.0979  0.9364
25466WAT     H1 3669   8.236   9.259   8.810 -0.9201 -0.8868 -0.6009
25466WAT     H2 3670   8.165   9.350   8.712 -0.8599  1.2920  1.3185
25466WAT    EPW 3671   8.193   9.332   8.793 -0.0510 -0.0186  0.7834
25467WAT      O 3672   2.584   5.930   8.645 -0.3785 -0.2683  0.7334
25467WAT     H1 3673   2.622   6.017   8.639 -0.4222 -0.2876  0.0464
25467WAT     H2 3674   2.657   5.874   8.671  1.2002 -0.9565 -4.0697
25467WAT    EPW 3675   2.598   5.934   8.648 -0.1761 -0.3612  0.0095
25468WAT      O 3676   2.116   5.801   8.308  0.8431 -0.4142 -0.1190
25468WAT     H1 3677   2.037   5.752   8.332  1.3402 -0.1472  2.3522
25468WAT     H2 3678   2.108   5.883   8.356  1.2065  0.9529 -2.2628
25468WAT    EPW 3679   2.104   5.805   8.318  0.9567 -0.1984 -0.0758
25469WAT      O 3680   1.375   0.670   5.466 -0.3141 -0.6200 -0.4147
25469WAT     H1 3681   1.306   0.726   5.500  1.2667 -0.0173  2.0491
25469WAT     H2 3682   1.331   0.589   5.442 -2.0235  0.1590 -0.0069
25469WAT    EPW 3683   1.360   0.667   5.467 -0.3310 -0.4378 -0.0362
25470WAT      O 3684   8.449   2.191   0.978 -0.7545 -0.4676 -0.3164
25470WAT     H1 3685   8.481   2.266   1.028 -2.1620  0.4309 -0.7214
25470WAT     H2 3686   8.380   2.153   1.032 -0.8174 -0.7883 -0.6199
25470WAT    EPW 3687   8.444   2.196   0.991 -0.9489 -0.3912 -0.4099
25471WAT      O 3688   4.593   1.334   7.716 -0.0220 -0.1345 -0.0581
25471WAT     H1 3689   4.538   1.330   7.637 -0.4887  0.7434  0.2101
25471WAT     H2 3690   4.587   1.425   7.745  1.8149  0.0653 -0.1772
25471WAT    EPW 3691   4.585   1.345   7.709  0.1588  0.0076 -0.0386
25472WAT      O 3692  10.910   4.618   0.328  0.2371 -0.0949 -0.1392
25472WAT     H1 3693  10.904   4.538   0.276  0.1052 -0.2135  0.0592
25472WAT     H2 3694  10.972   4.597   0.397  1.0711  0.3349 -0.7353
25472WAT    EPW 3695  10.917   4.605   0.330  0.3295 -0.0539 -0.1917
25473WAT      O 3696   0.572   7.613   6.415  0.6328  0.4597  0.0715
25473WAT     H1 3697   0.580   7.649   6.326 -0.8637 -4.5476 -2.4296
25473WAT     H2 3698   0.486   7.571   6.416  0.4574  0.5831  4.1384
25473WAT    EPW 3699   0.562   7.612   6.403  0.4123 -0.1845  0.2780
25474WAT      O 3700   0.689  10.227   8.266  0.4007 -0.1534  0.1945
25474WAT     H1 3701   0.655  10.265   8.347  0.2127 -0.7584  0.4095
25474WAT     H2 3702   0.617  10.175   8.232  0.6898 -0.4130 -0.0302
25474WAT    EPW 3703   0.675  10.225   8.273  0.4140 -0.2675  0.1931
25475WAT      O 3704   6.534   3.953   2.392  0.3916 -0.4438 -0.5363
25475WAT     H1 3705   6.464   3.959   2.327 -0.6836  0.8134  0.6785
25475WAT     H2 3706   6.614   3.976   2.345 -0.2202 -0.4818 -1.6160
25475WAT    EPW 3707   6.535   3.957   2.377  0.1693 -0.2831 -0.5184
25476WAT      O 3708   7.970   3.770   1.205  0.3431  0.1643 -0.4216
25476WAT     H1 3709   7.950   3.732   1.291 -3.0597 -0.3261 -1.2711
25476WAT     H2 3710   8.056   3.735   1.183  0.2148 -1.7666  1.6932
25476WAT    EPW 3711   7.979   3.760   1.214 -0.1221 -0.1552 -0.2547
25477WAT      O 3712   7.115   3.439   2.884 -0.2111  0.2886 -0.0354
25477WAT     H1 3713   7.035   3.486   2.860 -1.2089 -1.8809 -1.2863
25477WAT     H2 3714   7.184   3.505   2.880 -1.3318  1.4339 -2.7733
25477WAT    EPW 3715   7.114   3.454   2.881 -0.4907  0.1534 -0.5615
25478WAT      O 3716   1.216   7.109   7.432 -0.5890 -0.4947 -0.2163
25478WAT     H1 3717   1.200   7.198   7.465 -0.3113  0.0538 -1.5317
25478WAT     H2 3718   1.311   7.104   7.422 -0.4374 -1.5061  1.3237
25478WAT    EPW 3719   1.226   7.120   7.435 -0.5324 -0.5555 -0.1867
25479WAT      O 3720   7.906   2.089   2.627 -0.0717  0.2033 -0.0083
25479WAT     H1 3721   7.899   2.015   2.568  2.4670 -1.6298  1.7862
25479WAT     H2 3722   7.865   2.058   2.708  1.9003  0.2893  1.0824
25479WAT    EPW 3723   7.899   2.075   2.630  0.5233 -0.0272  0.3723
25480WAT      O 3724   6.106   5.088   1.109 -0.4782 -0.4235  0.0429
25480WAT     H1 3725   6.016   5.115   1.094 -0.9881 -0.3121  2.7632
25480WAT     H2 3726   6.106   5.051   1.197  1.7265 -2.4264 -0.6910
25480WAT    EPW 3727   6.094   5.087   1.119 -0.2549 -0.6731  0.3050
25481WAT      O 3728  10.676   9.940   7.229 -0.6607  0.5427 -1.2300
25481WAT     H1 3729  10.730   9.876   7.276 -2.6213  0.6247  1.3427
25481WAT     H2 3730  10.738  10.008   7.201  1.1004 -1.2367 -1.8844
25481WAT    EPW 3731  10.692   9.940   7.232 -0.6871  0.3185 -0.9770
25482WAT      O 3732   8.226   6.290   1.589 -0.0466 -0.4517 -0.3534
25482WAT     H1 3733   8.182   6.210   1.561 -1.2345 -0.0428  0.2539
25482WAT     H2 3734   8.155   6.354   1.598  0.3810 -0.2429  2.4514
25482WAT    EPW 3735   8.211   6.288   1.587 -0.1469 -0.3705  0.0966
25483WAT      O 3736   8.207   8.772   8.643  0.2110  0.3194  0.5705
25483WAT     H1 3737   8.130   8.783   8.586 -0.6130 -1.2660  1.3123
25483WAT     H2 3738   8.248   8.691   8.613  1.4647  1.0070  0.3654
25483WAT    EPW 3739   8.202   8.763   8.632  0.2675  0.2017  0.6413
25484WAT      O 3740   2.952   0.954   8.384  0.5101  0.5712  0.7485
25484WAT     H1 3741   2.944   0.870   8.430 -1.4759 -1.5054 -2.9376
25484WAT     H2 3742   3.035   0.948   8.337 -0.3539 -0.1507 -0.7724
25484WAT    EPW 3743   2.962   0.942   8.384  0.1342  0.2021  0.0615
25485WAT      O 3744   6.743   2.168   2.727  0.1697  0.2336 -0.3800
25485WAT     H1 3745   6.715   2.205   2.643 -2.4530 -1.3298 -0.2940
25485WAT     H2 3746   6.677   2.198   2.790  0.5777 -0.8144  0.5772
25485WAT    EPW 3747   6.731   2.177   2.724 -0.1225 -0.1109 -0.2424
25486WAT      O 3748   7.350   0.080   0.644  0.2782 -0.4212  0.3469
25486WAT     H1 3749   7.279   0.114   0.589 -2.4442 -4.7786  0.6494
25486WAT     H2 3750   7.430   0.100   0.595 -1.5720  0.3082 -2.6570
25486WAT    EPW 3751   7.351   0.087   0.630 -0.3250 -0.8997 -0.0094
25487WAT      O 3752   4.332   5.034   0.606  0.3032 -0.7723 -0.6139
25487WAT     H1 3753   4.288   4.956   0.640 -0.1931  0.1801  1.1040
25487WAT     H2 3754   4.298   5.105   0.660 -0.1673  0.8409 -2.8907
25487WAT    EPW 3755   4.322   5.033   0.618  0.1760 -0.4337 -0.6876
25488WAT      O 3756   0.687   8.807   7.073  0.1194 -0.2860 -0.1579
25488WAT     H1 3757   0.773   8.789   7.033 -0.2056 -3.0579  0.1676
25488WAT     H2 3758   0.708   8.835   7.162  0.7143 -1.5620  0.1265
25488WAT    EPW 3759   0.701   8.808   7.079  0.1550 -0.8197 -0.0775
25489WAT      O 3760   9.528   9.723   7.697 -0.3016 -0.2504  0.4903
25489WAT     H1 3761   9.506   9.630   7.702 -1.7436  0.1269  2.6469
25489WAT     H2 3762   9.447   9.768   7.723  0.8153  1.5439  1.0333
25489WAT    EPW 3763   9.514   9.716   7.701 -0.3443  0.0362  0.8464
25490WAT      O 3764   7.443   5.309   0.705 -0.3174 -0.2002 -0.3707
25490WAT     H1 3765   7.365   5.364   0.713 -1.4490 -1.6695 -0.8482
25490WAT     H2 3766   7.480   5.332   0.620  0.0959  0.8453  0.0613
25490WAT    EPW 3767   7.438   5.320   0.695 -0.4122 -0.2563 -0.3767
25491WAT      O 3768  10.209   4.034   0.140  0.7491 -0.3616 -0.2475
25491WAT     H1 3769  10.143   3.968   0.116 -1.0565  1.3978 -0.3631
25491WAT     H2 3770  10.192   4.107   0.080  3.0450  0.0607 -0.4742
25491WAT    EPW 3771  10.198   4.035   0.129  0.8140 -0.0739 -0.2926
25492WAT      O 3772   9.602   9.041   6.209  0.8007 -0.1410  0.3413
25492WAT     H1 3773   9.696   9.062   6.209  0.4067  1.8837  0.5282
25492WAT     H2 3774   9.581   9.031   6.302  0.6764  0.3076  0.3658
25492WAT    EPW 3775   9.612   9.043   6.222  0.7324  0.1855  0.3693
25493WAT      O 3776   7.770   7.518   8.923  0.0326 -0.8786  0.5837
25493WAT     H1 3777   7.691   7.495   8.874 -1.6375 -3.4558  4.0851
25493WAT     H2 3778   7.739   7.573   8.995  2.4415  3.0666 -1.0385
25493WAT    EPW 3779   7.756   7.522   8.926  0.1302 -0.6983  0.8316
25494WAT      O 3780   7.778   3.239   2.666 -0.1961  0.5406  0.1979
25494WAT     H1 3781   7.721   3.197   2.603  0.5707  0.3700 -0.3935
25494WAT     H2 3782   7.754   3.201   2.750 -1.1636  0.7095  0.0036
25494WAT    EPW 3783   7.767   3.229   2.669 -0.2227  0.5403  0.0943
25495WAT      O 3784   8.054   3.777   0.334 -0.2174  0.7892  0.6573
25495WAT     H1 3785   8.055   3.840   0.406  0.9988 -0.7925  2.0986
25495WAT     H2 3786   8.002   3.703   0.367 -4.4399  2.0971 -2.1202
25495WAT    EPW 3787   8.047   3.775   0.347 -0.6137  0.7530  0.4811
25496WAT      O 3788   2.698   8.823   7.250 -0.4019 -0.0954 -0.1758
25496WAT     H1 3789   2.681   8.903   7.300 -1.8336  0.1697 -1.0262
25496WAT     H2 3790   2.622   8.768   7.269 -0.1921 -0.6160 -0.8280
25496WAT    EPW 3791   2.685   8.826   7.259 -0.5631 -0.1292 -0.3738
25497WAT      O 3792   5.736   3.180   3.122  0.4289  0.3353 -0.1352
25497WAT     H1 3793   5.736   3.267   3.081  1.0757  1.0453  1.2784
25497WAT     H2 3794   5.800   3.188   3.194 -0.4608 -0.9095  0.8388
25497WAT    EPW 3795   5.744   3.193   3.126  0.3970  0.2648  0.1798
25498WAT      O 3796   2.935   9.654   8.852  0.8732 -0.1991 -0.0022
25498WAT     H1 3797   3.001   9.693   8.796  1.8005 -0.6012  0.7726
25498WAT     H2 3798   2.898   9.727   8.900  0.9069  0.0054 -0.2890
25498WAT    EPW 3799   2.939   9.668   8.851  0.9998 -0.2260  0.0620
25499WAT      O 3800   5.135   9.705   7.726  0.4063  0.9413  0.2886
25499WAT     H1 3801   5.101   9.783   7.683  1.1702  0.2320 -1.7560
25499WAT     H2 3802   5.129   9.636   7.659 -1.4678 -1.1370  2.3898
25499WAT    EPW 3803   5.130   9.706   7.711  0.2596  0.5736  0.2961
25500WAT      O 3804   6.952   6.875   3.165 -0.1475 -0.6982 -0.2234
25500WAT     H1 3805   6.940   6.780   3.164 -0.5668 -0.8248  3.4303
25500WAT     H2 3806   6.904   6.904   3.243 -3.1380  3.0825 -3.0829
25500WAT    EPW 3807   6.944   6.866   3.175 -0.5972 -0.2165 -0.1187
25501WAT      O 3808   9.296   5.332   3.733 -0.1351  0.8567 -0.2040
25501WAT     H1 3809   9.259   5.250   3.700  0.3319 -1.2864  3.9341
25501WAT     H2 3810   9.383   5.337   3.694 -0.8005  0.3803 -1.8391
25501WAT    EPW 3811   9.303   5.322   3.724 -0.1616  0.5112  0.1261
25502WAT      O 3812   8.216   4.405   1.027  0.8839 -0.1713 -0.6548
25502WAT     H1 3813   8.128   4.405   1.065  1.4043  0.9585  0.6418
25502WAT     H2 3814   8.212   4.339   0.958 -1.1366  0.2767 -1.0277
25502WAT    EPW 3815   8.204   4.396   1.023  0.6862  0.0370 -0.5329
25503WAT      O 3816   0.499   9.342   7.604  0.5382  0.4291  1.0055
25503WAT     H1 3817   0.546   9.272   7.649  0.0700  0.5263  1.6752
25503WAT     H2 3818   0.463   9.396   7.675  1.4326  1.7264  0.5145
25503WAT    EPW 3819   0.500   9.340   7.619  0.5944  0.6132  1.0290
25504WAT      O 3820   4.821   4.526   1.466  0.4008  0.4527  0.3567
25504WAT     H1 3821   4.788   4.550   1.553 -0.2270  0.9139  0.0046
25504WAT     H2 3822   4.857   4.608   1.432 -3.1488  1.4633 -1.4890
25504WAT    EPW 3823   4.821   4.540   1.473 -0.1502  0.6466  0.0668
25505WAT      O 3824   4.534   3.109   2.956 -0.2161  0.6477 -0.6033
25505WAT     H1 3825   4.523   3.201   2.930 -0.6810  0.6721 -0.3352
25505WAT     H2 3826   4.603   3.076   2.898  0.8246  1.4967  0.0945
25505WAT    EPW 3827   4.542   3.117   2.945 -0.1402  0.7631 -0.4760
25506WAT      O 3828   6.880   3.346   1.138 -0.1316 -1.1349  0.8317
25506WAT     H1 3829   6.908   3.256   1.155  0.2340 -0.9374  1.3043
25506WAT     H2 3830   6.859   3.348   1.045 -0.6707 -1.8527  0.9342
25506WAT    EPW 3831   6.881   3.334   1.128 -0.1543 -1.2037  0.9075
25507WAT      O 3832  10.153   9.446   8.088 -0.0585 -0.2068 -0.1075
25507WAT     H1 3833  10.215   9.375   8.073 -0.2346 -0.4125  0.1263
25507WAT     H2 3834  10.087   9.408   8.146 -0.0647  0.1955  0.1494
25507WAT    EPW 3835  10.152   9.432   8.094 -0.0830 -0.1812 -0.0434
25508WAT      O 3836   6.619   2.735   4.240  0.7879  0.7890 -0.9886
25508WAT     H1 3837   6.539   2.683   4.230  0.5105  1.4323 -2.4770
25508WAT     H2 3838   6.588   2.819   4.275  1.1914  0.1200  1.0912
25508WAT    EPW 3839   6.604   2.739   4.243  0.8044  0.7857 -0.9105
25509WAT      O 3840   1.591   0.530   6.598  0.6611  0.3146 -0.4068
25509WAT     H1 3841   1.509   0.543   6.645  0.2843 -1.2335 -0.5890
25509WAT     H2 3842   1.618   0.618   6.572  0.3529  1.1055  1.7689
25509WAT    EPW 3843   1.584   0.543   6.601  0.5707  0.2148 -0.1435
25510WAT      O 3844   1.213   8.117   7.302 -0.8207 -0.0452 -0.4304
25510WAT     H1 3845   1.268   8.083   7.231  0.2529 -1.4566  0.9918
25510WAT     H2 3846   1.124   8.089   7.280 -0.4717 -0.6499 -1.1074
25510WAT    EPW 3847   1.209   8.109   7.290 -0.6331 -0.3114 -0.3319
25511WAT      O 3848   6.048   2.971   0.635 -0.0813 -0.0524 -0.0782
25511WAT     H1 3849   6.060   3.066   0.644  1.7328 -0.0325 -1.9527
25511WAT     H2 3850   6.097   2.934   0.707  1.6607  0.4009 -0.9848
25511WAT    EPW 3851   6.056   2.979   0.645  0.3879  0.0100 -0.4450
25512WAT      O 3852   6.931   5.863   2.884  0.5046  0.6728  0.2270
25512WAT     H1 3853   6.973   5.794   2.936  0.3695 -0.5139 -1.1706
25512WAT     H2 3854   7.003   5.903   2.835  0.5311  1.3097  0.7731
25512WAT    EPW 3855   6.946   5.859   2.885  0.4904  0.6003  0.1147
25513WAT      O 3856   5.667   1.254   2.409  0.2752 -0.4625 -0.4130
25513WAT     H1 3857   5.623   1.219   2.487  0.1459  0.5042 -0.0441
25513WAT     H2 3858   5.630   1.341   2.397  1.6276  0.1369 -0.4599
25513WAT    EPW 3859   5.656   1.261   2.418  0.4365 -0.2560 -0.3706
25514WAT      O 3860   9.055   9.647   7.932 -0.2744 -0.6642  0.6757
25514WAT     H1 3861   9.015   9.679   8.013 -1.0066 -2.3223  1.0244
25514WAT     H2 3862   9.093   9.562   7.956  1.9538  0.0591 -0.0917
25514WAT    EPW 3863   9.055   9.640   7.946 -0.0772 -0.7877  0.6204
25515WAT      O 3864   8.621   7.577   8.795 -0.3878 -0.4078  0.4476
25515WAT     H1 3865   8.674   7.645   8.836  1.1666 -1.7854  0.8134
25515WAT     H2 3866   8.615   7.603   8.703  1.3384 -0.4316  0.2976
25515WAT    EPW 3867   8.627   7.589   8.789  0.0443 -0.5925  0.4759
25516WAT      O 3868   9.750   9.077   5.731  0.7525  0.2433 -0.6029
25516WAT     H1 3869   9.800   9.035   5.801 -0.0283  0.8870  0.3771
25516WAT     H2 3870   9.669   9.106   5.774  0.5836  1.3208 -1.6063
25516WAT    EPW 3871   9.746   9.075   5.746  0.6270  0.4706 -0.6061
25517WAT      O 3872   4.050   1.682   6.050 -0.4711 -0.0186 -0.7804
25517WAT     H1 3873   4.032   1.752   5.987 -1.2231 -0.2620 -0.8482
25517WAT     H2 3874   4.080   1.728   6.129 -3.2413  0.6054  0.0250
25517WAT    EPW 3875   4.051   1.698   6.052 -0.9358  0.0317 -0.6831
25518WAT      O 3876   6.908   0.377   7.686 -0.5614 -0.0632 -0.0206
25518WAT     H1 3877   6.850   0.329   7.627 -0.3579  1.1992 -1.3177
25518WAT     H2 3878   6.865   0.373   7.771 -1.1616 -1.4418 -0.3564
25518WAT    EPW 3879   6.895   0.370   7.689 -0.6137 -0.0785 -0.2358
25519WAT      O 3880   6.804   3.918   0.630 -0.0975 -0.2640  0.3642
25519WAT     H1 3881   6.735   3.922   0.696  1.9781  3.7575  2.6633
25519WAT     H2 3882   6.765   3.955   0.551 -1.0236  0.5542  1.1841
25519WAT    EPW 3883   6.790   3.923   0.628  0.0541  0.3744  0.7755
25520WAT      O 3884  10.615   8.580   5.637 -0.5053 -0.3323  0.4299
25520WAT     H1 3885  10.543   8.640   5.619 -0.1117  0.2039  0.6192
25520WAT     H2 3886  10.630   8.535   5.554  1.9857  2.8608 -1.0210
25520WAT    EPW 3887  10.607   8.582   5.624 -0.1249  0.1597  0.2637
25521WAT      O 3888   1.637   5.793   8.486  0.3893  0.1477 -0.4650
25521WAT     H1 3889   1.617   5.700   8.496  0.3568  0.3322  1.5032
25521WAT     H2 3890   1.732   5.797   8.483  0.4054  0.0804 -0.0879
25521WAT    EPW 3891   1.647   5.782   8.487  0.3871  0.1631 -0.1550
25522WAT      O 3892   7.273   5.003   0.024 -0.6073 -0.0169 -0.4057
25522WAT     H1 3893   7.284   4.926   0.080 -1.4573  0.8810  1.0602
25522WAT     H2 3894   7.354   5.053   0.037 -1.5554  1.1294  1.6188
25522WAT    EPW 3895   7.285   4.999   0.033 -0.8447  0.2525  0.0547
25523WAT      O 3896   9.277   6.865   0.717 -0.0731 -0.1562  0.0407
25523WAT     H1 3897   9.330   6.935   0.755 -0.6084  0.3025 -0.0474
25523WAT     H2 3898   9.279   6.881   0.623  2.0060 -1.8197 -0.2619
25523WAT    EPW 3899   9.284   6.876   0.710  0.1311 -0.3152 -0.0108
25524WAT      O 3900   9.775   7.432   6.958  0.6405  0.2841  1.1003
25524WAT     H1 3901   9.714   7.506   6.959  0.2200 -0.0550  0.9767
25524WAT     H2 3902   9.744   7.375   7.028  1.1862  0.3978  1.4388
25524WAT    EPW 3903   9.763   7.434   6.967  0.6571  0.2546  1.1289
25525WAT      O 3904   1.023   8.902   7.768  0.0711  0.3086 -0.2109
25525WAT     H1 3905   0.953   8.844   7.736 -0.3616  1.2053 -0.9236
25525WAT     H2 3906   1.084   8.907   7.695 -0.8978  2.3339 -0.9400
25525WAT    EPW 3907   1.022   8.895   7.754 -0.1138  0.6938 -0.4010
25526WAT      O 3908   1.318   7.465   7.534  0.0161  0.1252 -0.2074
25526WAT     H1 3909   1.379   7.393   7.516 -0.8240  0.1572 -3.7488
25526WAT     H2 3910   1.368   7.544   7.512 -0.2262  0.3868  0.1768
25526WAT    EPW 3911   1.333   7.465   7.529 -0.1267  0.1638 -0.6237
25527WAT      O 3912   6.208   6.926   1.003  0.2342 -0.4248  0.1665
25527WAT     H1 3913   6.208   6.831   0.995 -1.3060 -0.3327 -1.8049
25527WAT     H2 3914   6.286   6.954   0.955 -0.5790 -0.6303 -1.3372
25527WAT    EPW 3915   6.218   6.917   0.995 -0.0763 -0.4399 -0.2919
25528WAT      O 3916   0.973   8.892   8.652  0.0964  0.5637 -0.3592
25528WAT     H1 3917   1.034   8.882   8.579  1.2546 -0.3628  0.6944
25528WAT     H2 3918   0.994   8.977   8.689  1.9219 -0.3879  0.9644
25528WAT    EPW 3919   0.984   8.902   8.647  0.4900  0.3157 -0.0463
25529WAT      O 3920   7.525   1.233   2.965  0.4319 -0.0954  0.0966
25529WAT     H1 3921   7.435   1.266   2.965  0.1852 -0.6669  1.7950
25529WAT     H2 3922   7.543   1.213   2.873 -0.1820  2.5664 -0.6878
25529WAT    EPW 3923   7.516   1.234   2.953  0.3183  0.1802  0.2171
25530WAT      O 3924   1.193   8.758   8.520  0.4397  0.2814  0.2329
25530WAT     H1 3925   1.127   8.689   8.522  0.7282  0.0094  0.3928
25530WAT     H2 3926   1.221   8.761   8.429 -0.6377  1.2123 -0.0987
25530WAT    EPW 3927   1.188   8.749   8.509  0.3356  0.3691  0.2103
25531WAT      O 3928   0.845   9.001   8.421  0.0263 -0.2008  0.0897
25531WAT     H1 3929   0.887   8.979   8.504  1.5193 -0.9213 -0.8184
25531WAT     H2 3930   0.915   9.041   8.368 -1.0588  0.8616 -0.6043
25531WAT    EPW 3931   0.860   9.004   8.425  0.0801 -0.1554 -0.1221
25532WAT      O 3932   7.230   3.106   0.999 -0.5482  0.2382 -0.2985
25532WAT     H1 3933   7.285   3.035   0.967 -0.3008  0.7181 -0.9646
25532WAT     H2 3934   7.172   3.127   0.925  2.4321  3.8431 -1.9537
25532WAT    EPW 3935   7.229   3.100   0.985 -0.1223  0.7769 -0.6047
25533WAT      O 3936   7.456   5.061   1.003 -0.1456  0.0641 -0.0057
25533WAT     H1 3937   7.364   5.062   1.028 -0.8714  0.3359 -2.3757
25533WAT     H2 3938   7.490   4.978   1.035 -1.5359 -0.5572 -0.1122
25533WAT    EPW 3939   7.449   5.051   1.010 -0.4246  0.0181 -0.3324
25534WAT      O 3940   4.582   3.213   3.977 -0.5754  0.3446 -0.2144
25534WAT     H1 3941   4.659   3.170   4.013 -1.4593  0.5996  2.1531
25534WAT     H2 3942   4.607   3.235   3.887  1.6130 -0.7397  0.0575
25534WAT    EPW 3943   4.595   3.210   3.970 -0.4034  0.2351  0.1338
25535WAT      O 3944   7.696   3.149   0.220 -0.0800 -0.1077 -0.1898
25535WAT     H1 3945   7.753   3.214   0.261  1.2404 -0.4499 -1.3986
25535WAT     H2 3946   7.743   3.066   0.230  0.4114 -0.1820 -2.4942
25535WAT    EPW 3947   7.710   3.147   0.227  0.1590 -0.1626 -0.6532
25536WAT      O 3948   9.871   4.656   0.321  0.2193  0.3868  0.7546
25536WAT     H1 3949   9.787   4.633   0.360  0.7618 -2.5613  0.4470
25536WAT     H2 3950   9.878   4.598   0.244  1.9545  1.5038  0.0080
25536WAT    EPW 3951   9.861   4.645   0.316  0.5198  0.1452  0.6156
25537WAT      O 3952   0.067   8.553   7.547  0.0989  0.0319 -0.5742
25537WAT     H1 3953   0.118   8.623   7.588  2.1549 -0.8812 -1.4212
25537WAT     H2 3954   0.018   8.513   7.619  2.4106 -0.5268  0.7993
25537WAT    EPW 3955   0.068   8.557   7.562  0.6750 -0.1621 -0.5047
25538WAT      O 3956   9.430   7.805   7.907  0.1532  0.3392  0.1414
25538WAT     H1 3957   9.372   7.730   7.915  1.0445 -0.2459  1.5140
25538WAT     H2 3958   9.510   7.769   7.867 -0.4201  1.1541 -1.8463
25538WAT    EPW 3959   9.433   7.790   7.903  0.1950  0.3695  0.0598
25539WAT      O 3960   7.741   6.305   2.318  0.5084 -0.2485 -0.6259
25539WAT     H1 3961   7.711   6.262   2.238  0.1973  1.9769 -1.7916
25539WAT     H2 3962   7.836   6.304   2.312  0.5891 -2.2646  0.2548
25539WAT    EPW 3963   7.750   6.299   2.307  0.4778 -0.2210 -0.6636
25540WAT      O 3964  10.604   8.140   8.257  0.4627  0.1753 -0.0031
25540WAT     H1 3965  10.601   8.056   8.213 -2.0236  0.2525 -0.0898
25540WAT     H2 3966  10.594   8.119   8.350 -1.0900  0.4048 -0.1038
25540WAT    EPW 3967  10.603   8.126   8.264 -0.0696  0.2155 -0.0277
25541WAT      O 3968   8.118   6.711   1.257 -0.2756  0.0681 -0.4300
25541WAT     H1 3969   8.150   6.696   1.346  0.4416 -0.3523 -0.7472
25541WAT     H2 3970   8.090   6.803   1.256 -2.6071 -0.5509  0.9181
25541WAT    EPW 3971   8.119   6.721   1.268 -0.4888 -0.0689 -0.2940
25542WAT      O 3972   9.755   6.578   3.890  0.1584  0.5583  0.6586
25542WAT     H1 3973   9.781   6.670   3.882  1.2183  0.2762  0.7370
25542WAT     H2 3974   9.742   6.548   3.800 -2.0093  1.2550  0.6751
25542WAT    EPW 3975   9.756   6.586   3.877  0.0119  0.6130  0.6711
25543WAT      O 3976   5.166   2.798   2.680  0.3592  0.4710  0.2793
25543WAT     H1 3977   5.100   2.776   2.615 -0.4453  1.4420  0.7475
25543WAT     H2 3978   5.116   2.816   2.760  1.3434 -1.4012  1.4140
25543WAT    EPW 3979   5.151   2.797   2.682  0.3829  0.3521  0.4908
25544WAT      O 3980   3.075   9.380   2.076  0.3083  0.0637  0.5034
25544WAT     H1 3981   3.129   9.310   2.041  2.0369  1.4261  0.3282
25544WAT     H2 3982   3.117   9.405   2.158 -1.9834 -1.0578  2.1398
25544WAT    EPW 3983   3.087   9.374   2.082  0.2341  0.0954  0.6962
25545WAT      O 3984   3.938   0.054   8.720 -0.4226 -0.3620  1.2324
25545WAT     H1 3985   4.027   0.067   8.751  0.3368 -1.8706 -0.1744
25545WAT     H2 3986   3.933  -0.039   8.698 -1.9342 -0.0484  0.0818
25545WAT    EPW 3987   3.949   0.044   8.721 -0.5219 -0.5196  0.8955
25546WAT      O 3988   5.326   6.112   1.119  0.0668 -0.2861  0.1483
25546WAT     H1 3989   5.278   6.125   1.037  1.6412 -1.1181 -0.9476
25546WAT     H2 3990   5.380   6.191   1.127  2.2085 -1.5007 -1.2997
25546WAT    EPW 3991   5.327   6.124   1.109  0.5569 -0.5562 -0.1872
25547WAT      O 3992   4.767   4.045   0.380  0.6544 -0.4273  0.3025
25547WAT     H1 3993   4.715   4.098   0.440  0.7404 -2.3622  2.2053
25547WAT     H2 3994   4.728   3.958   0.386  0.2994 -0.6036 -2.9604
25547WAT    EPW 3995   4.755   4.040   0.389  0.6187 -0.7060  0.1231
25548WAT      O 3996   5.866   4.379   1.379 -0.0966  0.6247  0.0126
25548WAT     H1 3997   5.838   4.345   1.294  1.0613  4.0112 -1.9396
25548WAT     H2 3998   5.787   4.382   1.431 -0.5888 -2.9163 -0.3167
25548WAT    EPW 3999   5.852   4.375   1.374 -0.0088  0.6042 -0.2884
25549WAT      O 4000  10.930   5.714   6.838 -0.1617  0.4876  0.1521
25549WAT     H1 4001  11.023   5.722   6.861  0.0880 -0.4954 -0.4553
25549WAT     H2 4002  10.931   5.672   6.752 -1.1929 -0.5068  0.6076
25549WAT    EPW 4003  10.942   5.710   6.830 -0.2646  0.2267  0.1323
25550WAT      O 4004   6.422   3.579   1.038 -0.6717  0.5109  0.0705
25550WAT     H1 4005   6.500   3.634   1.047  0.1135 -0.2403 -1.7022
25550WAT     H2 4006   6.355   3.637   1.002 -0.1537  0.5823 -0.8083
25550WAT    EPW 4007   6.424   3.594   1.035 -0.5002  0.4213 -0.2792
25551WAT      O 4008   1.356   7.110   8.545 -0.6031  0.1258  0.1293
25551WAT     H1 4009   1.383   7.154   8.464  1.7550  0.8294  1.2080
25551WAT     H2 4010   1.433   7.058   8.570 -1.6413 -0.8475  1.4164
25551WAT    EPW 4011   1.370   7.109   8.537 -0.4290  0.0904  0.4411
25552WAT      O 4012  10.398   8.164   5.035 -1.1408 -0.9452 -0.1448
25552WAT     H1 4013  10.439   8.225   5.097  3.0165 -3.0590 -0.4461
25552WAT     H2 4014  10.426   8.194   4.949  0.0254 -2.5309 -0.3693
25552WAT    EPW 4015  10.407   8.176   5.032 -0.4387 -1.4334 -0.2141
25553WAT      O 4016   3.059   5.893   1.915  0.1669  0.2038 -0.7764
25553WAT     H1 4017   3.133   5.953   1.912  0.2942  0.1227  0.2966
25553WAT     H2 4018   2.982   5.949   1.924  0.3377  0.2394  0.9501
25553WAT    EPW 4019   3.059   5.908   1.916  0.2062  0.1976 -0.4072
25554WAT      O 4020   6.608   2.837   0.825  0.7755  0.2147  0.3756
25554WAT     H1 4021   6.638   2.897   0.757 -2.2286  0.7334 -0.6443
25554WAT     H2 4022   6.567   2.893   0.890 -0.5239 -0.5585  0.2677
25554WAT    EPW 4023   6.606   2.852   0.824  0.2079  0.1811  0.2269
25555WAT      O 4024   9.014   6.364   7.055 -0.4233  0.0724 -0.2127
25555WAT     H1 4025   9.009   6.447   7.102  0.7700 -0.6299  1.2473
25555WAT     H2 4026   9.107   6.346   7.047 -0.6062 -0.0298 -2.5973
25555WAT    EPW 4027   9.025   6.373   7.060 -0.2904 -0.0334 -0.3350
25556WAT      O 4028   9.056   4.248   0.667 -0.1422  0.2404  0.2725
25556WAT     H1 4029   9.139   4.271   0.626  0.9372 -1.6039  1.2943
25556WAT     H2 4030   8.989   4.289   0.611  1.2742 -1.1586 -2.6440
25556WAT    EPW 4031   9.058   4.256   0.654  0.1874 -0.1874  0.0226
25557WAT      O 4032  10.628   7.327   6.666 -0.1869 -0.0948 -0.2785
25557WAT     H1 4033  10.631   7.233   6.683 -1.1252 -0.1315 -0.2797
25557WAT     H2 4034  10.720   7.353   6.658  0.0724 -1.0661 -0.5788
25557WAT    EPW 4035  10.640   7.318   6.667 -0.2766 -0.2277 -0.3181
25558WAT      O 4036   1.120   9.618   8.896  0.2415  0.1023 -0.3158
25558WAT     H1 4037   1.050   9.625   8.831  0.9585 -2.6113 -1.5578
25558WAT     H2 4038   1.082   9.564   8.966 -0.1731  2.1136  1.1023
25558WAT    EPW 4039   1.105   9.612   8.897  0.2814  0.0095 -0.2923
25559WAT      O 4040   4.881   0.022   8.778  0.1612  0.2600  0.2202
25559WAT     H1 4041   4.937   0.098   8.791 -0.2032  0.4003  1.0473
25559WAT     H2 4042   4.912  -0.017   8.697  1.2430  0.5126  0.5001
25559WAT    EPW 4043   4.892   0.027   8.769  0.2561  0.3118  0.3662
25560WAT      O 4044   4.736   0.802   6.571  0.2482 -0.0635 -0.6811
25560WAT     H1 4045   4.799   0.747   6.618  1.2346 -0.2734 -2.1664
25560WAT     H2 4046   4.719   0.875   6.629  0.3456 -1.0008  0.5667
25560WAT    EPW 4047   4.742   0.804   6.585  0.3912 -0.2148 -0.7124
25561WAT      O 4048   8.116   1.347   3.327  0.5588  0.3137 -0.4420
25561WAT     H1 4049   8.166   1.337   3.246  0.2286  0.6772 -0.6908
25561WAT     H2 4050   8.163   1.292   3.390  0.4118 -0.5237 -1.0467
25561WAT    EPW 4051   8.129   1.338   3.325  0.4964  0.2511 -0.5544
25562WAT      O 4052   5.590   4.921   0.530  0.1705 -0.2406  0.2528
25562WAT     H1 4053   5.540   4.931   0.450 -1.7235 -0.3584  1.3557
25562WAT     H2 4054   5.629   4.834   0.523 -1.7000 -1.1349  0.3194
25562WAT    EPW 4055   5.589   4.911   0.519 -0.3262 -0.3738  0.4070
25563WAT      O 4056  10.759   4.191   0.063 -0.4347 -0.2038  0.1102
25563WAT     H1 4057  10.688   4.178   0.126 -1.8657 -1.0696 -1.5794
25563WAT     H2 4058  10.755   4.285   0.042 -0.4288 -0.0581  0.7249
25563WAT    EPW 4059  10.749   4.202   0.069 -0.6227 -0.2990 -0.0315
25564WAT      O 4060   8.871   5.179   0.094  0.5912 -0.5865 -0.0055
25564WAT     H1 4061   8.898   5.141   0.177  2.4817 -0.4837 -0.5265
25564WAT     H2 4062   8.852   5.104   0.038  1.5522 -0.7132 -0.1690
25564WAT    EPW 4063   8.872   5.164   0.097  0.9670 -0.5896 -0.0958
25565WAT      O 4064   8.084   4.109   0.852  0.0187 -0.9982 -0.0147
25565WAT     H1 4065   8.060   4.072   0.937  0.8029 -1.5406 -0.0220
25565WAT     H2 4066   8.004   4.103   0.800 -0.6526 -0.0690  0.8815
25565WAT    EPW 4067   8.071   4.103   0.856  0.0334 -0.9470  0.1025
25566WAT      O 4068   7.254   4.783   2.372  0.0558 -0.6599  0.0032
25566WAT     H1 4069   7.348   4.793   2.391  0.3083 -1.2810 -0.8546
25566WAT     H2 4070   7.210   4.811   2.452  0.9662 -0.0518  0.3067
25566WAT    EPW 4071   7.261   4.788   2.385  0.2091 -0.6614 -0.0700
25567WAT      O 4072   8.605   1.981   1.060  0.0903 -0.1538 -0.6095
25567WAT     H1 4073   8.679   1.964   1.003  0.0825  1.3151 -1.0894
25567WAT     H2 4074   8.546   2.035   1.008 -1.1035 -0.8829 -0.0686
25567WAT    EPW 4075   8.607   1.986   1.046 -0.0682 -0.0563 -0.6015
25568WAT      O 4076   6.546   2.585   1.543 -0.5118 -0.5273 -0.3760
25568WAT     H1 4077   6.509   2.587   1.455 -0.4270 -2.2510 -0.4722
25568WAT     H2 4078   6.491   2.646   1.593 -0.1463  0.9970 -1.7454
25568WAT    EPW 4079   6.534   2.594   1.538 -0.4523 -0.5535 -0.5692
25569WAT      O 4080  10.705   4.711   1.076  0.7628 -0.1914 -0.1181
25569WAT     H1 4081  10.712   4.719   0.981  1.7952  3.3465  0.1046
25569WAT     H2 4082  10.629   4.765   1.099  0.8994 -0.4893  1.1010
25569WAT    EPW 4083  10.696   4.719   1.067  0.9165  0.2358  0.0721
25570WAT      O 4084   8.574   2.576   1.927 -0.2942  0.3110 -0.4814
25570WAT     H1 4085   8.522   2.558   1.849  0.1898  0.0090 -0.7375
25570WAT     H2 4086   8.659   2.603   1.894 -0.6968  2.1780 -0.0865
25570WAT    EPW 4087   8.578   2.577   1.913 -0.2837  0.5174 -0.4631
25571WAT      O 4088   7.293   2.904   0.045  0.6319  0.8795 -0.4985
25571WAT     H1 4089   7.357   2.972   0.024 -2.1951  3.9959  0.1708
25571WAT     H2 4090   7.240   2.895  -0.034 -1.1645  2.1354  0.4952
25571WAT    EPW 4091   7.295   2.912   0.032  0.0222  1.4561 -0.2791
25572WAT      O 4092  10.650   7.466   5.829  1.5519 -0.0998  0.3415
25572WAT     H1 4093  10.582   7.458   5.762  0.5587  1.0673  1.1576
25572WAT     H2 4094  10.710   7.393   5.812  1.9011  0.7224 -2.4204
25572WAT    EPW 4095  10.649   7.455   5.818  1.4672  0.1626  0.0849
25573WAT      O 4096   2.782   7.631   7.290  0.0704  0.1546 -0.2845
25573WAT     H1 4097   2.733   7.615   7.371 -0.3413  1.3798 -0.2621
25573WAT     H2 4098   2.796   7.545   7.252 -0.9947 -0.3235  0.3694
25573WAT    EPW 4099   2.778   7.618   7.296 -0.1242  0.2532 -0.1955
25574WAT      O 4100   7.482   2.317   0.484 -0.2728 -0.0467  0.1208
25574WAT     H1 4101   7.515   2.394   0.531 -0.0312 -0.4270  0.5887
25574WAT     H2 4102   7.561   2.268   0.459 -0.4233 -1.4520  2.0721
25574WAT    EPW 4103   7.497   2.320   0.487 -0.2608 -0.2823  0.4399
25575WAT      O 4104   9.380   5.922   0.243  0.2318 -0.3940 -0.1193
25575WAT     H1 4105   9.302   5.903   0.296 -0.2055 -1.0662 -0.9766
25575WAT     H2 4106   9.375   6.016   0.226  1.5211  0.3133  2.7769
25575WAT    EPW 4107   9.369   5.932   0.248  0.3443 -0.3891  0.1496
25576WAT      O 4108   4.467   4.610   2.068  0.2070  0.0052 -0.6023
25576WAT     H1 4109   4.551   4.612   2.114  1.3586  1.9134 -2.6398
25576WAT     H2 4110   4.422   4.690   2.097  0.0343  0.1306 -1.2156
25576WAT    EPW 4111   4.472   4.621   2.078  0.3359  0.2732 -0.9519
25577WAT      O 4112   6.638   5.520   3.294 -0.4640  0.2102  0.4927
25577WAT     H1 4113   6.582   5.577   3.348 -1.9763 -0.4643 -0.2909
25577WAT     H2 4114   6.597   5.433   3.301  1.7603 -0.8191  1.6196
25577WAT    EPW 4115   6.625   5.516   3.302 -0.3703 -0.0145  0.5380
25578WAT      O 4116  10.052   4.867   4.479  0.1729 -0.3508  0.2437
25578WAT     H1 4117   9.972   4.899   4.436  1.5617  2.3932 -0.5307
25578WAT     H2 4118  10.056   4.915   4.561 -0.1029 -2.2247  1.4173
25578WAT    EPW 4119  10.042   4.877   4.484  0.3195 -0.2363  0.2964
25579WAT      O 4120   1.748  10.318   8.374 -0.4638 -0.3987  0.3208
25579WAT     H1 4121   1.807  10.326   8.449 -1.4424 -0.9141  1.1704
25579WAT     H2 4122   1.737  10.408   8.343  1.1598 -0.3450 -0.1912
25579WAT    EPW 4123   1.754  10.331   8.380 -0.3787 -0.4597  0.3653
25580WAT      O 4124   5.467   3.580   2.084 -0.9203  0.0583 -0.1012
25580WAT     H1 4125   5.555   3.577   2.049 -1.1510  2.0615 -0.9815
25580WAT     H2 4126   5.414   3.529   2.022 -0.3541 -1.6000  0.7128
25580WAT    EPW 4127   5.471   3.573   2.071 -0.8762  0.1037 -0.1098
25581WAT      O 4128   7.147   5.266   1.215  0.0683  0.4140  0.1324
25581WAT     H1 4129   7.104   5.217   1.285  1.9185 -0.4963  0.7116
25581WAT     H2 4130   7.084   5.265   1.142 -2.1138  1.8322  1.8744
25581WAT    EPW 4131   7.133   5.259   1.214  0.0246  0.4809  0.4386
25582WAT      O 4132   7.277   4.305   1.965 -0.4650  0.0707 -0.2559
25582WAT     H1 4133   7.210   4.288   1.899 -2.3667  1.3949  1.2042
25582WAT     H2 4134   7.228   4.337   2.041  1.5943 -1.3247  1.8138
25582WAT    EPW 4135   7.262   4.307   1.967 -0.4444  0.0610  0.2097
25583WAT      O 4136  10.405   8.832   8.278  0.3659  0.0939  0.4396
25583WAT     H1 4137  10.433   8.760   8.220  2.2314 -1.9567  3.6188
25583WAT     H2 4138  10.310   8.821   8.284  0.6585 -2.9842  1.6616
25583WAT    EPW 4139  10.396   8.821   8.271  0.6509 -0.5827  1.0204
25584WAT      O 4140   1.084   9.669   8.272 -0.5834  0.1242 -0.6638
25584WAT     H1 4141   1.125   9.719   8.201  1.3226 -1.2867 -0.6399
25584WAT     H2 4142   1.155   9.616   8.308 -2.1189 -1.2395  0.5122
25584WAT    EPW 4143   1.099   9.669   8.268 -0.5346 -0.2413 -0.5059
25585WAT      O 4144   9.878   7.954   7.775 -0.2328 -0.1171 -0.0460
25585WAT     H1 4145   9.911   7.960   7.686  1.2352 -1.0968  0.3824
25585WAT     H2 4146   9.943   8.002   7.827  0.2245 -1.5348  0.7500
25585WAT    EPW 4147   9.891   7.961   7.770  0.0210 -0.4334  0.1154
25586WAT      O 4148   5.112   1.942   1.772  0.1139 -0.0601 -0.7904
25586WAT     H1 4149   5.154   1.869   1.727  1.3844  0.5805 -0.6673
25586WAT     H2 4150   5.141   2.019   1.724  0.0085  0.4867  0.0183
25586WAT    EPW 4151   5.121   1.942   1.759  0.2675  0.0966 -0.6675
25587WAT      O 4152   9.357   4.471   3.070  0.1078 -0.6313  0.5236
25587WAT     H1 4153   9.376   4.538   3.005 -0.1911 -0.8365  0.2231
25587WAT     H2 4154   9.329   4.395   3.019 -0.0500 -0.8191  0.8848
25587WAT    EPW 4155   9.356   4.470   3.055  0.0472 -0.6831  0.5318
25588WAT      O 4156   8.703   4.142   0.064 -0.4896 -0.5268  0.6084
25588WAT     H1 4157   8.625   4.168   0.015 -0.0044  0.6324  0.4174
25588WAT     H2 4158   8.673   4.131   0.154 -0.2478  4.0531  1.5230
25588WAT    EPW 4159   8.689   4.144   0.069 -0.3939  0.2301  0.7039
25589WAT      O 4160   0.763   2.134   5.610  0.6789  0.1785  0.0534
25589WAT     H1 4161   0.758   2.094   5.697 -0.6754  0.1799  0.0047
25589WAT     H2 4162   0.709   2.077   5.554  2.6320 -0.6055 -1.1244
25589WAT    EPW 4163   0.755   2.121   5.614  0.7579  0.0752 -0.1085
25590WAT      O 4164   2.390   1.628   0.025 -0.0779 -0.0789 -0.6334
25590WAT     H1 4165   2.304   1.605   0.062  1.1040 -0.6337  1.9951
25590WAT     H2 4166   2.393   1.580  -0.057 -1.4465 -1.8563  0.2568
25590WAT    EPW 4167   2.379   1.619   0.019 -0.1023 -0.3865 -0.1693
25591WAT      O 4168   1.777   6.421   8.310 -0.2792 -0.3376  0.1086
25591WAT     H1 4169   1.815   6.452   8.392 -3.0191  1.2512  0.9122
25591WAT     H2 4170   1.820   6.473   8.242  2.3188 -1.9534  0.3767
25591WAT    EPW 4171   1.788   6.432   8.311 -0.2980 -0.3412  0.2503
25592WAT      O 4172   0.716   9.744   7.249 -0.2107  0.2152  0.0701
25592WAT     H1 4173   0.767   9.678   7.202 -2.1923 -1.1503 -0.2774
25592WAT     H2 4174   0.782   9.799   7.292  1.6553 -3.6425  2.7755
25592WAT    EPW 4175   0.732   9.742   7.249 -0.2260 -0.4735  0.3810
25593WAT      O 4176  10.981   4.680   5.992 -0.3880 -0.4441  0.4439
25593WAT     H1 4177  11.033   4.648   6.066  1.1078 -1.5312 -1.0027
25593WAT     H2 4178  11.046   4.708   5.928 -1.6311 -0.5496 -0.9033
25593WAT    EPW 4179  10.996   4.680   5.994 -0.3547 -0.6015  0.0756
25594WAT      O 4180   7.634   2.654   1.241  0.2099 -0.0049 -0.9061
25594WAT     H1 4181   7.707   2.694   1.289 -0.3677  1.7797 -1.4460
25594WAT     H2 4182   7.675   2.596   1.178  1.3046  2.1159 -2.2517
25594WAT    EPW 4183   7.649   2.652   1.239  0.2782  0.5102 -1.1547
25595WAT      O 4184  10.391   8.700   4.452 -0.4520 -0.5640  0.1864
25595WAT     H1 4185  10.341   8.709   4.533  0.7946 -0.3911  0.9803
25595WAT     H2 4186  10.326   8.689   4.384 -1.6086  0.7968  1.0192
25595WAT    EPW 4187  10.376   8.700   4.454 -0.4401 -0.3614  0.4013
25596WAT      O 4188  10.224   8.657   8.059 -0.0085  0.1989  0.8497
25596WAT     H1 4189  10.137   8.626   8.085  0.3743 -2.0545 -0.3125
25596WAT     H2 4190  10.285   8.600   8.107  0.8645  1.6935  1.5803
25596WAT    EPW 4191  10.221   8.645   8.069  0.1569  0.0992  0.7930
25597WAT      O 4192   7.034   2.335   1.701 -0.2132 -0.1805 -0.0894
25597WAT     H1 4193   7.107   2.376   1.747  0.8950 -2.3618  0.2279
25597WAT     H2 4194   6.972   2.310   1.769  0.3876 -1.4173  0.0236
25597WAT    EPW 4195   7.035   2.337   1.716  0.0122 -0.6313 -0.0326
25598WAT      O 4196   1.599   4.701   6.641  0.1945  0.3966  0.2624
25598WAT     H1 4197   1.679   4.728   6.687  0.1030  0.7920  0.1919
25598WAT     H2 4198   1.552   4.783   6.623 -1.6400  0.0617  2.8660
25598WAT    EPW 4199   1.603   4.715   6.645 -0.0595  0.4046  0.5965
25599WAT      O 4200  10.239   1.115   0.660 -0.3986 -0.1203 -0.3493
25599WAT     H1 4201  10.152   1.136   0.626 -0.5274  0.4535  0.3232
25599WAT     H2 4202  10.223   1.067   0.741 -0.0942  0.1029 -0.1509
25599WAT    EPW 4203  10.226   1.111   0.666 -0.3757 -0.0152 -0.2345
25600WAT      O 4204  10.468   6.747   6.090  0.0484 -0.5984  0.1647
25600WAT     H1 4205  10.433   6.686   6.024  1.6716 -0.5217 -0.8281
25600WAT     H2 4206  10.489   6.691   6.164  0.1864 -1.0398 -0.1982
25600WAT    EPW 4207  10.466   6.731   6.091  0.2813 -0.6464 -0.0141
25601WAT      O 4208   4.844   3.713   0.297  0.1880 -0.0873 -0.3017
25601WAT     H1 4209   4.835   3.641   0.360 -2.1931  0.9814  0.7189
25601WAT     H2 4210   4.851   3.670   0.212  1.0349 -1.5313  0.4643
25601WAT    EPW 4211   4.843   3.698   0.295 -0.0143 -0.1366 -0.0660
25602WAT      O 4212   4.308   2.746   0.519 -0.3644 -0.4245  0.6615
25602WAT     H1 4213   4.367   2.787   0.582  0.8131  0.8551 -1.1895
25602WAT     H2 4214   4.237   2.809   0.509 -0.6593 -0.7238  0.8553
25602WAT    EPW 4215   4.306   2.759   0.526 -0.2480 -0.2952  0.4429
25603WAT      O 4216   5.480   2.279   1.425 -0.4635  0.0328  0.0299
25603WAT     H1 4217   5.554   2.298   1.368 -1.0584 -0.1415 -0.8098
25603WAT     H2 4218   5.408   2.259   1.366 -1.2049  0.2548  0.8302
25603WAT    EPW 4219   5.480   2.279   1.410 -0.6399  0.0390  0.0247
25604WAT      O 4220   7.761   3.992   2.608 -0.1807 -0.1787  0.1873
25604WAT     H1 4221   7.685   3.986   2.550  0.7911  1.1614 -1.3075
25604WAT     H2 4222   7.728   4.036   2.687 -0.5961  2.3743 -1.2901
25604WAT    EPW 4223   7.746   3.997   2.611 -0.1073  0.3350 -0.2048
25605WAT      O 4224   9.688   1.630   0.154 -0.4737  0.6437 -0.2850
25605WAT     H1 4225   9.674   1.602   0.064 -2.8910  0.6434  0.0211
25605WAT     H2 4226   9.622   1.697   0.168 -0.6374  0.1197  1.7105
25605WAT    EPW 4227   9.677   1.635   0.144 -0.8135  0.5745  0.0186
25606WAT      O 4228   9.331   3.191   1.891 -0.7598  0.2290 -0.7947
25606WAT     H1 4229   9.287   3.247   1.827 -1.9818  0.0457 -0.1399
25606WAT     H2 4230   9.326   3.241   1.973  0.1507  0.1463 -0.6804
25606WAT    EPW 4231   9.325   3.205   1.893 -0.8011  0.1940 -0.6933
25607WAT      O 4232   0.951   9.899   7.315 -0.1035 -1.0574 -0.2035
25607WAT     H1 4233   0.927   9.992   7.321 -0.9806 -1.2777 -0.1147
25607WAT     H2 4234   1.044   9.896   7.338 -0.1291 -0.2353  0.0326
25607WAT    EPW 4235   0.960   9.911   7.319 -0.2225 -0.9780 -0.1607
25608WAT      O 4236   8.316   5.293   1.252  0.0987  0.3257 -0.3496
25608WAT     H1 4237   8.256   5.220   1.269  2.4678 -1.3072  2.0304
25608WAT     H2 4238   8.306   5.312   1.159 -2.4876 -1.2789 -0.4858
25608WAT    EPW 4239   8.307   5.286   1.242  0.0696 -0.1013 -0.0537
25609WAT      O 4240   4.888   4.609   0.243 -0.5191  1.0145  0.5937
25609WAT     H1 4241   4.963   4.602   0.184  0.0079  1.6371  1.1662
25609WAT     H2 4242   4.837   4.529   0.228 -2.4034  2.7126 -3.3447
25609WAT    EPW 4243   4.891   4.598   0.233 -0.6979  1.3208  0.1498
25610WAT      O 4244   9.279   5.066   1.087 -0.4344  0.1144  0.0605
25610WAT     H1 4245   9.213   5.128   1.058 -0.9541 -0.5590 -0.2148
25610WAT     H2 4246   9.264   5.057   1.181  0.6033  1.5249  0.4019
25610WAT    EPW 4247   9.269   5.073   1.096 -0.3667  0.2115  0.0691
25611WAT      O 4248  10.724   7.932   1.931  0.0648  0.5547  0.6901
25611WAT     H1 4249  10.736   7.867   2.000  0.6983  0.7808  0.8068
25611WAT     H2 4250  10.636   7.968   1.946 -0.6870 -0.9480  0.0209
25611WAT    EPW 4251  10.714   7.928   1.942  0.0496  0.3862  0.6172
25612WAT      O 4252   0.077   8.183   3.446 -0.0742  0.1552  0.1184
25612WAT     H1 4253   0.088   8.278   3.438 -0.9855  0.1850 -0.9081
25612WAT     H2 4254   0.026   8.157   3.369  0.8768 -1.2965 -0.0744
25612WAT    EPW 4255   0.072   8.192   3.435 -0.0690 -0.0329 -0.0426
25613WAT      O 4256   6.348   4.183   0.781 -0.0992  0.2148 -0.3109
25613WAT     H1 4257   6.277   4.246   0.771  0.9338  1.5841  0.7178
25613WAT     H2 4258   6.395   4.211   0.859  0.5809 -1.6663  0.0080
25613WAT    EPW 4259   6.345   4.195   0.790  0.1268  0.1473 -0.1332
25614WAT      O 4260   8.342   9.185   4.612 -0.9921  0.7339  0.5088
25614WAT     H1 4261   8.317   9.096   4.637  1.2190  0.2016  1.0119
25614WAT     H2 4262   8.287   9.241   4.667 -1.5593 -0.3218  1.0686
25614WAT    EPW 4263   8.331   9.181   4.623 -0.7753  0.5245  0.6490
25615WAT      O 4264   5.254   7.385   1.020 -0.4690 -0.2019 -0.5203
25615WAT     H1 4265   5.304   7.367   0.940  0.1273  2.0069 -0.7005
25615WAT     H2 4266   5.288   7.322   1.083  1.1325 -0.0894 -1.2084
25615WAT    EPW 4267   5.266   7.374   1.017 -0.1793  0.1044 -0.6348
25616WAT      O 4268   2.635   9.508   8.509  0.8922  0.4110  0.7372
25616WAT     H1 4269   2.546   9.529   8.482  0.5982 -0.1429  1.2635
25616WAT     H2 4270   2.659   9.579   8.569  0.3678 -0.0537  1.5130
25616WAT    EPW 4271   2.627   9.520   8.513  0.7844  0.2761  0.9089
25617WAT      O 4272  10.149   7.836   1.916  0.1972  0.2482 -0.1744
25617WAT     H1 4273  10.116   7.756   1.874 -0.9658  0.2282  0.7214
25617WAT     H2 4274  10.211   7.872   1.853 -0.0536 -0.8026 -1.0554
25617WAT    EPW 4275  10.153   7.830   1.902  0.0110  0.1068 -0.1724
25618WAT      O 4276  10.552   7.687   2.333 -0.2161  0.0214 -0.6991
25618WAT     H1 4277  10.558   7.715   2.424 -1.4277  2.2480 -1.2217
25618WAT     H2 4278  10.633   7.719   2.293  1.4244 -2.9249 -0.0480
25618WAT    EPW 4279  10.564   7.695   2.340 -0.1593 -0.0732 -0.6821
25619WAT      O 4280   6.889   7.230   0.374  0.6123  0.3429 -0.3577
25619WAT     H1 4281   6.864   7.282   0.297 -1.4349 -1.0550 -0.7289
25619WAT     H2 4282   6.807   7.189   0.403  1.4986  0.1191  2.0537
25619WAT    EPW 4283   6.875   7.231   0.367  0.4594  0.1287 -0.0886
25620WAT      O 4284   9.423   2.122   1.038  0.0594  0.2331  0.4183
25620WAT     H1 4285   9.441   2.104   1.130 -0.8922  2.3985  1.1016
25620WAT     H2 4286   9.392   2.039   1.002  0.0313 -0.5392  2.1610
25620WAT    EPW 4287   9.421   2.109   1.045 -0.0706  0.4168  0.7383
25621WAT      O 4288   6.747   3.795   7.662  0.3608  0.5474 -0.2934
25621WAT     H1 4289   6.744   3.731   7.734  0.2049  0.1240 -0.6763
25621WAT     H2 4290   6.711   3.749   7.587 -0.8423  1.4539 -0.2990
25621WAT    EPW 4291   6.742   3.781   7.662  0.1814  0.6111 -0.3448
25622WAT      O 4292   7.351   5.871   1.496  0.4139  0.8767 -0.0640
25622WAT     H1 4293   7.439   5.905   1.482  1.3630 -0.4321  2.2473
25622WAT     H2 4294   7.332   5.887   1.588 -0.2903 -1.9137  0.3906
25622WAT    EPW 4295   7.360   5.877   1.506  0.4458  0.3362  0.3007
25623WAT      O 4296   7.128   7.119   4.376  0.0941 -0.3365  0.2841
25623WAT     H1 4297   7.158   7.201   4.416 -3.7143  0.9048  0.9926
25623WAT     H2 4298   7.146   7.131   4.283 -0.2673  1.2872  0.3869
25623WAT    EPW 4299   7.135   7.132   4.369 -0.4561  0.0412  0.3912
25624WAT      O 4300   4.691   1.065   6.004  0.7165  0.5435 -0.3968
25624WAT     H1 4301   4.775   1.057   6.048  0.0396 -1.4925  0.6560
25624WAT     H2 4302   4.638   1.120   6.062  2.0039  4.1400 -2.3213
25624WAT    EPW 4303   4.695   1.071   6.018  0.7968  0.7493 -0.5119
25625WAT      O 4304   3.696   0.010   8.117 -0.7582 -0.4595  0.6114
25625WAT     H1 4305   3.627   0.054   8.067  0.9728 -0.1362 -1.6513
25625WAT     H2 4306   3.687   0.044   8.206 -2.6692  0.5580  0.0771
25625WAT    EPW 4307   3.686   0.020   8.122 -0.7820 -0.2826  0.2422
25626WAT      O 4308   1.926   8.410   7.483 -0.2297  0.0348  0.3258
25626WAT     H1 4309   2.021   8.402   7.478 -0.1867 -0.0115  1.0974
25626WAT     H2 4310   1.898   8.331   7.529 -0.6338  0.0880  0.1683
25626WAT    EPW 4311   1.935   8.399   7.488 -0.2773  0.0358  0.4067
25627WAT      O 4312   4.453   0.818   8.793 -0.1078 -0.5418  0.1100
25627WAT     H1 4313   4.398   0.780   8.724  0.5943 -0.7341 -0.3574
25627WAT     H2 4314   4.452   0.912   8.775 -1.2868 -0.4061  0.8542
25627WAT    EPW 4315   4.446   0.825   8.781 -0.1705 -0.5493  0.1464
25628WAT      O 4316   7.600   5.121   0.070 -0.6399  0.2394 -0.1937
25628WAT     H1 4317   7.694   5.135   0.074 -0.7399  0.5539  1.3800
25628WAT     H2 4318   7.569   5.189   0.009  0.2458 -0.5713 -1.6085
25628WAT    EPW 4319   7.608   5.132   0.062 -0.5362  0.1740 -0.1728
25629WAT      O 4320   4.285   1.389   6.973  0.0140  0.2747  0.6932
25629WAT     H1 4321   4.275   1.363   6.882  1.7131 -0.7378  0.7513
25629WAT     H2 4322   4.249   1.316   7.023  4.0370 -1.8803  0.8406
25629WAT    EPW 4323   4.279   1.376   6.968  0.7689 -0.1431  0.7203
25630WAT      O 4324   2.118  10.122   7.900  0.3441 -0.5187 -0.3708
25630WAT     H1 4325   2.200  10.125   7.850  1.3235 -0.4028  1.1569
25630WAT     H2 4326   2.136  10.178   7.976  0.3111 -3.5839  2.0749
25630WAT    EPW 4327   2.131  10.130   7.904  0.4690 -0.9079  0.1535
25631WAT      O 4328   3.728   2.824   7.207 -0.3897 -0.2448 -0.0726
25631WAT     H1 4329   3.711   2.905   7.255  0.5016 -0.5953  0.8667
25631WAT     H2 4330   3.822   2.808   7.218  0.4097  0.8928 -3.9012
25631WAT    EPW 4331   3.738   2.832   7.215 -0.1665 -0.1409 -0.4539
25632WAT      O 4332   2.104   8.852   8.040 -0.6059 -0.0301  0.6550
25632WAT     H1 4333   2.103   8.832   8.133  0.0628  0.9247  0.8804
25632WAT     H2 4334   2.041   8.791   8.001  2.4073 -3.7580  1.0325
25632WAT    EPW 4335   2.096   8.841   8.047 -0.1204 -0.3958  0.7348
25633WAT      O 4336   1.203   9.511   7.370  0.1002 -0.3535  0.2071
25633WAT     H1 4337   1.273   9.462   7.326 -0.0647 -1.8290  1.5221
25633WAT     H2 4338   1.246   9.551   7.446 -0.3727 -0.8403  0.7327
25633WAT    EPW 4339   1.218   9.510   7.374  0.0160 -0.6127  0.4494
25634WAT      O 4340   6.445   5.291   2.009  0.2719  0.4291 -0.3492
25634WAT     H1 4341   6.471   5.226   2.074  2.2951  0.5460 -0.9611
25634WAT     H2 4342   6.358   5.320   2.036  0.2904 -0.8900  1.2078
25634WAT    EPW 4343   6.437   5.287   2.021  0.5414  0.2706 -0.2246
25635WAT      O 4344   6.147   1.292   7.775 -0.0460 -0.2002  0.2778
25635WAT     H1 4345   6.165   1.370   7.828 -0.8220  0.2042 -0.0312
25635WAT     H2 4346   6.063   1.311   7.734  1.3347  0.3413 -2.5915
25635WAT    EPW 4347   6.138   1.305   7.776  0.0339 -0.0755 -0.1414
25636WAT      O 4348   3.458   9.608   8.502  0.3719  0.1573 -0.4195
25636WAT     H1 4349   3.439   9.579   8.412 -1.5694  0.6575 -0.2086
25636WAT     H2 4350   3.431   9.534   8.557 -0.6736  0.7307 -0.1333
25636WAT    EPW 4351   3.452   9.594   8.497 -0.0221  0.2995 -0.3538
25637WAT      O 4352   7.758   2.837   1.011 -0.6835 -0.0918 -0.6157
25637WAT     H1 4353   7.710   2.755   1.020  0.2078 -0.8168 -2.0538
25637WAT     H2 4354   7.847   2.817   1.041 -0.9151  0.8807  0.8078
25637WAT    EPW 4355   7.764   2.824   1.016 -0.5965 -0.0591 -0.6176
25638WAT      O 4356   2.164   9.900   5.714 -0.3168  0.5024 -0.1443
25638WAT     H1 4357   2.128   9.871   5.630 -0.3890  0.9526 -0.2709
25638WAT     H2 4358   2.244   9.946   5.691 -0.7123  1.2605 -0.0274
25638WAT    EPW 4359   2.170   9.902   5.700 -0.3785  0.6614 -0.1457
25639WAT      O 4360   7.548   2.608   0.050  0.7469  0.3154  0.2095
25639WAT     H1 4361   7.474   2.557   0.015  0.3188  1.5222 -0.7094
25639WAT     H2 4362   7.626   2.561   0.022  0.3480 -0.7124  0.7775
25639WAT    EPW 4363   7.548   2.595   0.042  0.6375  0.3390  0.1632
25640WAT      O 4364   2.165   7.065   0.779 -0.7965 -0.3341 -0.1595
25640WAT     H1 4365   2.139   7.032   0.693  0.1126 -1.7538  0.0911
25640WAT     H2 4366   2.150   6.992   0.839 -1.2297  0.5685  0.8837
25640WAT    EPW 4367   2.159   7.051   0.776 -0.7337 -0.4025  0.0111
25641WAT      O 4368   9.403   0.053   1.222 -0.6733  1.1155  0.2418
25641WAT     H1 4369   9.486   0.015   1.254 -2.2607 -3.7482 -0.4844
25641WAT     H2 4370   9.416   0.060   1.128 -1.5182 -1.5728 -0.1693
25641WAT    EPW 4371   9.416   0.049   1.214 -0.9942  0.1194  0.0918
25642WAT      O 4372   7.374   2.861   0.937  0.3409 -0.2642  0.0627
25642WAT     H1 4373   7.363   2.836   0.845 -1.0524 -1.1152  0.4271
25642WAT     H2 4374   7.444   2.926   0.936 -1.7264  2.1548 -2.0271
25642WAT    EPW 4375   7.382   2.866   0.925 -0.1156 -0.0575 -0.1649
25643WAT      O 4376   9.106   3.834   1.764  0.4342  0.0627 -0.0955
25643WAT     H1 4377   9.190   3.789   1.749  1.2231  1.2222  0.6583
25643WAT     H2 4378   9.078   3.861   1.676  1.2835  0.3953 -0.2747
25643WAT    EPW 4379   9.114   3.831   1.750  0.6504  0.2596 -0.0197
25644WAT      O 4380   0.925   8.623   8.569  0.4008 -0.7293 -0.0828
25644WAT     H1 4381   0.961   8.571   8.641  0.9166  0.1936  0.3430
25644WAT     H2 4382   0.927   8.714   8.601 -0.0596 -0.3852 -0.9757
25644WAT    EPW 4383   0.930   8.629   8.583  0.4081 -0.5627 -0.1445
25645WAT      O 4384   4.382   0.019   6.233 -0.1979  0.3363  0.0112
25645WAT     H1 4385   4.388   0.082   6.162  1.6227  0.6448  0.3818
25645WAT     H2 4386   4.372  -0.066   6.190 -0.0768  0.6221 -0.5796
25645WAT    EPW 4387   4.382   0.016   6.218  0.0582  0.4148 -0.0179
25646WAT      O 4388   2.916   1.674   8.417 -0.1419 -0.8982  0.3644
25646WAT     H1 4389   2.885   1.650   8.329  1.3286  1.2287 -0.8392
25646WAT     H2 4390   3.011   1.658   8.414  0.3186  1.4132  0.6864
25646WAT    EPW 4391   2.925   1.668   8.405  0.1129 -0.3128  0.2484
25647WAT      O 4392   3.862   1.025   6.189 -0.0158  0.5058 -0.1876
25647WAT     H1 4393   3.881   0.979   6.108  3.0628 -1.3376  1.3842
25647WAT     H2 4394   3.789   0.976   6.228 -0.0432  0.0515 -0.7982
25647WAT    EPW 4395   3.855   1.013   6.184  0.3867  0.2027 -0.0610
25648WAT      O 4396   7.531   1.426   2.092  0.0280  0.1003 -0.7459
25648WAT     H1 4397   7.541   1.359   2.160 -0.5348  0.9633  0.2012
25648WAT     H2 4398   7.606   1.483   2.103 -0.6930  0.9399 -0.0309
25648WAT    EPW 4399   7.542   1.424   2.102 -0.1411  0.3249 -0.5267
25649WAT      O 4400   8.192   5.364   0.504  0.0852  0.1953  0.4361
25649WAT     H1 4401   8.142   5.445   0.514 -1.0057 -0.5597  1.3795
25649WAT     H2 4402   8.195   5.349   0.410 -0.0706  1.1062  0.2756
25649WAT    EPW 4403   8.186   5.373   0.493 -0.0792  0.2158  0.5393
25650WAT      O 4404   7.994   3.836   2.587  0.1808  0.6267  0.4448
25650WAT     H1 4405   8.012   3.776   2.659 -1.3488 -0.1385  0.2256
25650WAT     H2 4406   7.912   3.879   2.612 -0.0318  0.8164 -0.5343
25650WAT    EPW 4407   7.986   3.834   2.600 -0.0489  0.5509  0.2867
25651WAT      O 4408   6.809   2.677   0.312  0.2327 -0.3949 -0.1715
25651WAT     H1 4409   6.831   2.671   0.219  0.1589 -0.4230 -0.1876
25651WAT     H2 4410   6.874   2.737   0.348 -2.0596  2.9046 -1.0007
25651WAT    EPW 4411   6.820   2.684   0.304 -0.0792  0.0367 -0.2830
25652WAT      O 4412   1.869   3.586   1.030  0.5059 -0.1623 -0.6426
25652WAT     H1 4413   1.829   3.504   1.001 -1.2334  0.0594  0.9617
25652WAT     H2 4414   1.796   3.640   1.059  1.6768  1.7050 -0.9585
25652WAT    EPW 4415   1.854   3.582   1.030  0.4309  0.1132 -0.4727
25653WAT      O 4416   7.310   7.886   1.681 -0.4114 -0.5362 -0.1893
25653WAT     H1 4417   7.235   7.827   1.667 -0.0427 -0.9786 -0.3510
25653WAT     H2 4418   7.387   7.830   1.668 -0.0507 -0.0337 -0.2564
25653WAT    EPW 4419   7.310   7.871   1.678 -0.3154 -0.5283 -0.2195
25654WAT      O 4420   2.128   0.212   6.991  0.0414 -0.3882  0.0469
25654WAT     H1 4421   2.188   0.270   6.945  0.3328 -1.8522 -1.5346
25654WAT     H2 4422   2.183   0.165   7.054  0.2782 -0.6220 -0.3265
25654WAT    EPW 4423   2.143   0.213   6.993  0.1110 -0.6121 -0.2108
25655WAT      O 4424   3.248   6.277   1.635 -0.0960  0.2918  0.8231
25655WAT     H1 4425   3.204   6.298   1.717 -1.5543  3.8163 -0.6583
25655WAT     H2 4426   3.335   6.317   1.643 -0.1983  0.5411  0.6853
25655WAT    EPW 4427   3.254   6.285   1.647 -0.3018  0.7896  0.6095
25656WAT      O 4428   1.749   8.934   8.139  0.3358 -0.2147  0.3901
25656WAT     H1 4429   1.816   8.976   8.194 -0.2925 -0.4696  1.3893
25656WAT     H2 4430   1.789   8.852   8.112  1.6554  1.0393 -1.7510
25656WAT    EPW 4431   1.763   8.929   8.143  0.4269 -0.0825  0.2394
25657WAT      O 4432  10.490   8.241   6.755  0.1810 -0.6706  0.4651
25657WAT     H1 4433  10.402   8.203   6.751 -0.3843  0.6423 -0.1979
25657WAT     H2 4434  10.533   8.208   6.676 -0.6114  0.7221 -0.5889
25657WAT    EPW 4435  10.484   8.232   6.744  0.0019 -0.3138  0.2384
25658WAT      O 4436   4.034   0.972   3.718  0.7098 -0.3003  0.2520
25658WAT     H1 4437   4.090   1.030   3.667  0.3689 -0.2864 -0.1118
25658WAT     H2 4438   4.067   0.884   3.700 -1.1800 -0.5873 -2.3255
25658WAT    EPW 4439   4.046   0.968   3.709  0.4156 -0.3363 -0.1360
25659WAT      O 4440   7.126   1.697   7.816  0.4868 -0.5485 -0.5510
25659WAT     H1 4441   7.066   1.637   7.772 -0.9384 -1.1797  2.0577
25659WAT     H2 4442   7.165   1.645   7.887  1.8607  0.6881 -0.3472
25659WAT    EPW 4443   7.123   1.682   7.820  0.4802 -0.4687 -0.1802
25660WAT      O 4444   8.830   4.253   2.109  0.1487  0.4753 -0.6488
25660WAT     H1 4445   8.774   4.329   2.094  0.0844  0.4495 -0.5372
25660WAT     H2 4446   8.918   4.284   2.086  0.1028  0.5433 -0.7327
25660WAT    EPW 4447   8.834   4.267   2.104  0.1340  0.4811 -0.6452
25661WAT      O 4448   0.236   5.769   2.325  0.4676 -0.6360  0.1042
25661WAT     H1 4449   0.234   5.674   2.338  0.3876 -0.6400  0.0622
25661WAT     H2 4450   0.161   5.801   2.374  0.2271 -0.6397 -0.2614
25661WAT    EPW 4451   0.226   5.760   2.334  0.4253 -0.6368  0.0505
25662WAT      O 4452  10.696  10.153   8.862 -0.1070 -0.3878 -0.1881
25662WAT     H1 4453  10.787  10.165   8.888  0.5450 -1.7588 -1.6649
25662WAT     H2 4454  10.678  10.224   8.801  0.1767 -0.4698 -0.3674
25662WAT    EPW 4455  10.705  10.164   8.857  0.0167 -0.5794 -0.4063
25663WAT      O 4456   2.050   9.321   5.703 -0.0590 -0.5631 -0.2874
25663WAT     H1 4457   1.993   9.246   5.719 -1.2656  0.3351 -0.2701
25663WAT     H2 4458   2.059   9.326   5.608  2.4812 -2.4848 -0.2531
25663WAT    EPW 4459   2.044   9.312   5.693  0.1169 -0.6986 -0.2806
25664WAT      O 4460   9.172   0.487   0.561  0.0381  0.3167 -0.3865
25664WAT     H1 4461   9.257   0.464   0.597 -0.3438  1.8548  1.6808
25664WAT     H2 4462   9.116   0.411   0.581  0.2317  0.4911  0.9405
25664WAT    EPW 4463   9.176   0.474   0.568  0.0138  0.5426  0.0612
25665WAT      O 4464   7.437   0.251   6.180 -0.3478  0.5769  0.1909
25665WAT     H1 4465   7.392   0.172   6.151 -0.0097  0.0799  0.9615
25665WAT     H2 4466   7.495   0.273   6.108 -0.2270 -0.0637  0.0801
25665WAT    EPW 4467   7.439   0.243   6.167 -0.2871  0.4269  0.2778
25666WAT      O 4468   7.153   1.156   7.317 -0.8182  0.3846 -0.6131
25666WAT     H1 4469   7.113   1.134   7.401  0.4421  2.3592  0.5725
25666WAT     H2 4470   7.128   1.084   7.259 -0.8211 -1.5989  1.7125
25666WAT    EPW 4471   7.144   1.144   7.320 -0.6521  0.3834 -0.1500
25667WAT      O 4472   7.818   1.419   1.158 -0.5212 -0.0162 -0.1001
25667WAT     H1 4473   7.852   1.411   1.248 -0.7482 -1.7200 -0.1182
25667WAT     H2 4474   7.897   1.423   1.103 -0.3799  1.0577  0.1704
25667WAT    EPW 4475   7.833   1.418   1.163 -0.5324 -0.0992 -0.0669
25668WAT      O 4476   1.521  10.136   8.898 -0.6870 -0.3925 -0.5657
25668WAT     H1 4477   1.433  10.098   8.894  0.1729 -2.5624 -0.0187
25668WAT     H2 4478   1.540  10.163   8.807 -0.2318 -4.0817 -1.7279
25668WAT    EPW 4479   1.512  10.135   8.885 -0.5135 -1.1654 -0.6466
25669WAT      O 4480   5.881   1.125   7.286  0.3700  0.0918  0.2836
25669WAT     H1 4481   5.937   1.162   7.354  0.6811 -2.7077  1.7055
25669WAT     H2 4482   5.942   1.077   7.229  0.1402  2.5095 -2.2051
25669WAT    EPW 4483   5.897   1.124   7.288  0.3808  0.0414  0.1428
25670WAT      O 4484   9.965   0.751   7.968 -0.9375  0.0691  0.1821
25670WAT     H1 4485   9.920   0.666   7.980 -1.7820  0.5601  0.6060
25670WAT     H2 4486   9.901   0.815   7.999  0.3364  0.7581  1.4584
25670WAT    EPW 4487   9.950   0.748   7.973 -0.8812  0.2248  0.4063
25671WAT      O 4488   7.369   3.016   2.334  0.1150  0.0815 -0.5964
25671WAT     H1 4489   7.299   2.955   2.308 -0.2510  0.6335 -0.9355
25671WAT     H2 4490   7.447   2.982   2.290 -0.3436  0.5602 -1.8471
25671WAT    EPW 4491   7.370   3.003   2.324  0.0064  0.2174 -0.8061
25672WAT      O 4492   3.374   8.181   8.115 -0.1883 -0.5970 -0.4631
25672WAT     H1 4493   3.281   8.163   8.104  0.0467 -2.0371 -0.3012
25672WAT     H2 4494   3.409   8.102   8.158  1.3709 -0.7329 -1.8770
25672WAT    EPW 4495   3.366   8.168   8.119  0.0483 -0.8049 -0.6280
25673WAT      O 4496   0.328   6.821   1.487 -0.2403  0.1243 -0.1986
25673WAT     H1 4497   0.340   6.804   1.393 -1.0222  2.2909 -0.7623
25673WAT     H2 4498   0.410   6.793   1.527  0.7216  0.5516 -1.7602
25673WAT    EPW 4499   0.340   6.815   1.480 -0.2165  0.4663 -0.4789
25674WAT      O 4500   5.159   3.482   1.694  0.5667 -0.2362 -0.0502
25674WAT     H1 4501   5.208   3.471   1.612 -0.4614 -0.3585 -0.6776
25674WAT     H2 4502   5.205   3.428   1.757  1.2105 -0.3812 -0.6351
25674WAT    EPW 4503   5.171   3.473   1.691  0.5162 -0.2714 -0.2101
25675WAT      O 4504   9.056   5.128   2.400 -0.4478  0.2563 -0.0939
25675WAT     H1 4505   9.004   5.051   2.377  1.1592 -1.8627  2.7569
25675WAT     H2 4506   9.004   5.173   2.467  0.0992 -0.3125  0.7317
25675WAT    EPW 4507   9.042   5.124   2.406 -0.1636 -0.0985  0.3909
25676WAT      O 4508   4.322   1.276   5.943  0.3280 -0.4386 -0.4380
25676WAT     H1 4509   4.308   1.359   5.896 -0.6893 -0.5563 -0.3489
25676WAT     H2 4510   4.248   1.221   5.919  0.3220 -0.8683  0.5176
25676WAT    EPW 4511   4.311   1.280   5.933  0.1931 -0.5108 -0.2999
25677WAT      O 4512   7.385   2.068   8.409 -0.0114 -0.7721  0.0086
25677WAT     H1 4513   7.305   2.046   8.457 -0.4233  0.8694  0.1412
25677WAT     H2 4514   7.389   2.164   8.413 -0.6133 -0.3873 -4.0546
25677WAT    EPW 4515   7.375   2.078   8.416 -0.1452 -0.5047 -0.5093
25678WAT      O 4516   1.622   1.955   7.524  0.2264 -0.3347  0.3664
25678WAT     H1 4517   1.695   1.997   7.479 -0.3887  1.3201  0.8201
25678WAT     H2 4518   1.557   1.941   7.455  0.2617 -0.0944  0.2802
25678WAT    EPW 4519   1.623   1.959   7.509  0.1499 -0.0848  0.4148
25679WAT      O 4520   0.165   7.728   5.972 -0.5198  0.0312 -0.7126
25679WAT     H1 4521   0.205   7.642   5.963  1.5091  0.9312 -0.8421
25679WAT     H2 4522   0.143   7.754   5.883  1.5584  0.8011 -1.0617
25679WAT    EPW 4523   0.167   7.720   5.959  0.0219  0.2513 -0.7758
25680WAT      O 4524   2.939   0.676   8.407  0.1610  0.5916 -0.0895
25680WAT     H1 4525   3.034   0.686   8.402 -0.0697  3.6102 -0.0202
25680WAT     H2 4526   2.910   0.675   8.316  0.2766 -1.6087 -0.1618
25680WAT    EPW 4527   2.948   0.677   8.395  0.1459  0.6996 -0.0896
25681WAT      O 4528   1.745   2.365   8.509  0.0499  0.5609 -0.0819
25681WAT     H1 4529   1.711   2.417   8.436 -0.8656 -0.4655 -0.4152
25681WAT     H2 4530   1.729   2.274   8.483  0.1939  0.1550  1.1750
25681WAT    EPW 4531   1.738   2.360   8.496 -0.0518  0.3721  0.0396
25682WAT      O 4532   1.297   8.717   8.183  0.1232 -0.7973  0.2802
25682WAT     H1 4533   1.318   8.670   8.102 -1.3958  0.2116 -0.7610
25682WAT     H2 4534   1.381   8.747   8.217  0.7933 -1.2551 -0.9262
25682WAT    EPW 4535   1.311   8.715   8.177  0.0112 -0.7248 -0.0162
25683WAT      O 4536   8.476   5.905   0.293  0.7050  0.0593  0.2874
25683WAT     H1 4537   8.539   5.848   0.248  1.1082  1.3872 -0.8927
25683WAT     H2 4538   8.418   5.937   0.224  0.6484  1.2700  0.8618
25683WAT    EPW 4539   8.477   5.902   0.278  0.7501  0.3941  0.2075
25684WAT      O 4540   9.140   5.099   3.345  0.3908  0.9627  0.2882
25684WAT     H1 4541   9.179   5.032   3.288  0.1844  1.6525 -0.6909
25684WAT     H2 4542   9.050   5.070   3.358  0.4909  0.7059  0.4083
25684WAT    EPW 4543   9.134   5.086   3.339  0.3767  1.0197  0.1749
25685WAT      O 4544   0.739   1.509   8.866 -0.4257 -0.2803 -1.2879
25685WAT     H1 4545   0.821   1.523   8.913  0.0498  0.2712 -2.2475
25685WAT     H2 4546   0.671   1.534   8.929 -0.0495 -3.1632  0.4430
25685WAT    EPW 4547   0.741   1.514   8.881 -0.3133 -0.5878 -1.1859
25686WAT      O 4548   0.260   8.718   7.681 -0.4257  0.4329  1.4556
25686WAT     H1 4549   0.307   8.708   7.764 -0.5710  1.5329  1.6936
25686WAT     H2 4550   0.238   8.811   7.678 -0.5543  0.3765  0.2478
25686WAT    EPW 4551   0.264   8.729   7.691 -0.4618  0.5708  1.3278
25687WAT      O 4552   1.958   1.010   6.701 -0.6771  0.2996 -0.2922
25687WAT     H1 4553   1.890   1.060   6.746  0.9758  2.4813 -0.0912
25687WAT     H2 4554   1.981   1.063   6.625  0.9762 -0.2394 -0.2012
25687WAT    EPW 4555   1.952   1.023   6.697 -0.2410  0.5163 -0.2534
25688WAT      O 4556   3.817   2.185   6.638 -0.2165  0.4434  0.3576
25688WAT     H1 4557   3.755   2.159   6.706  2.3046 -0.9818  2.2892
25688WAT     H2 4558   3.872   2.251   6.679  2.4164 -1.6431  0.4044
25688WAT    EPW 4559   3.816   2.190   6.652  0.4632 -0.0198  0.6187
25689WAT      O 4560   9.905   4.578   2.387  0.8472  0.1376 -0.2743
25689WAT     H1 4561   9.970   4.621   2.332  1.6570 -0.2914  0.3132
25689WAT     H2 4562   9.826   4.576   2.335  1.5859 -0.2409 -1.4111
25689WAT    EPW 4563   9.903   4.583   2.373  1.0514  0.0312 -0.3468
25690WAT      O 4564   9.662   4.656   2.143 -0.1417 -0.3051  0.2770
25690WAT     H1 4565   9.651   4.701   2.059  0.7388  2.7200  1.6425
25690WAT     H2 4566   9.579   4.671   2.189  0.2609  0.2008  0.8496
25690WAT    EPW 4567   9.650   4.664   2.138  0.0272  0.1605  0.5327
25691WAT      O 4568   9.209   2.069   8.722  0.1181  0.1078  0.4655
25691WAT     H1 4569   9.233   2.155   8.687  0.0176 -0.3052 -0.6652
25691WAT     H2 4570   9.280   2.047   8.783 -0.0737  1.1690  1.0943
25691WAT    EPW 4571   9.222   2.077   8.725  0.0792  0.1934  0.3986
25692WAT      O 4572   6.665   0.139   6.067  0.3343 -0.1060  0.1269
25692WAT     H1 4573   6.591   0.090   6.103  0.3428  0.7482  1.4129
25692WAT     H2 4574   6.684   0.097   5.983 -0.9575 -0.9721  0.2375
25692WAT    EPW 4575   6.657   0.127   6.061  0.1647 -0.1076  0.3111
25693WAT      O 4576   5.931   8.485   0.438 -0.2958 -0.7545  0.1159
25693WAT     H1 4577   5.909   8.487   0.531 -1.6177 -2.3833 -0.1241
25693WAT     H2 4578   5.902   8.399   0.408  1.0679 -0.6865 -1.5879
25693WAT    EPW 4579   5.925   8.474   0.447 -0.2904 -0.9603 -0.1405
25694WAT      O 4580   0.963   8.576   7.724  0.9168  0.2362  1.0596
25694WAT     H1 4581   0.876   8.582   7.684  0.7503  0.2499  1.4204
25694WAT     H2 4582   0.947   8.536   7.809  1.1922  0.7568  1.3606
25694WAT    EPW 4583   0.950   8.572   7.730  0.9312  0.3066  1.1468
25695WAT      O 4584   0.872   7.136   0.336  0.3584 -0.2020 -0.1373
25695WAT     H1 4585   0.927   7.086   0.396  0.5958  0.9884  0.6610
25695WAT     H2 4586   0.899   7.107   0.249  0.6577 -1.2754  0.2957
25695WAT    EPW 4587   0.883   7.125   0.333  0.4292 -0.1867  0.0251
25696WAT      O 4588   7.977   5.324   0.273 -0.1001  0.2837  0.1981
25696WAT     H1 4589   7.980   5.341   0.178  1.0612  1.5027  0.4301
25696WAT     H2 4590   7.957   5.409   0.312 -0.2251 -0.1410  1.0766
25696WAT    EPW 4591   7.974   5.338   0.265  0.0367  0.3886  0.3446
25697WAT      O 4592   7.247   3.755   7.238  0.1003  0.6986 -0.3810
25697WAT     H1 4593   7.232   3.816   7.166 -0.6157 -0.3486 -1.1449
25697WAT     H2 4594   7.273   3.674   7.195  2.7618  0.8914  0.6695
25697WAT    EPW 4595   7.249   3.753   7.223  0.3569  0.5860 -0.3431
25698WAT      O 4596   6.133   1.658   7.684 -0.4063  0.7816  0.2414
25698WAT     H1 4597   6.177   1.637   7.767 -2.0095 -0.3314  0.8571
25698WAT     H2 4598   6.057   1.710   7.710  0.0874  2.0344 -0.7388
25698WAT    EPW 4599   6.129   1.662   7.698 -0.5527  0.8000  0.1931
25699WAT      O 4600   8.459   5.830   0.583 -0.1909  0.8349  0.5053
25699WAT     H1 4601   8.545   5.870   0.597  0.5981 -0.6702  0.0886
25699WAT     H2 4602   8.440   5.847   0.490  0.8200 -0.9733 -0.0653
25699WAT    EPW 4603   8.467   5.838   0.572  0.0463  0.3977  0.3751
25700WAT      O 4604  10.055   8.564   7.697 -0.3199 -0.1057 -0.2053
25700WAT     H1 4605  10.135   8.610   7.723  0.0563 -1.3978  1.0118
25700WAT     H2 4606  10.063   8.555   7.602 -0.5095  2.4557 -0.5380
25700WAT    EPW 4607  10.066   8.569   7.688 -0.2947  0.0620 -0.0889
25701WAT      O 4608   7.557   4.208   0.765 -0.3424  0.8729 -0.3544
25701WAT     H1 4609   7.510   4.260   0.700 -1.4133  0.6496  0.2276
25701WAT     H2 4610   7.560   4.264   0.842  0.9146  1.1322 -0.5724
25701WAT    EPW 4611   7.551   4.222   0.767 -0.3178  0.8776 -0.3064
25702WAT      O 4612   1.256   0.957   7.478 -0.4528 -0.1453 -0.4135
25702WAT     H1 4613   1.322   0.889   7.468 -0.1638  0.2930 -1.5776
25702WAT     H2 4614   1.180   0.925   7.429 -0.2599  0.4361 -1.1051
25702WAT    EPW 4615   1.255   0.944   7.470 -0.3892 -0.0108 -0.6583
25703WAT      O 4616   4.523   0.586   8.514  0.0471  0.0822  0.1014
25703WAT     H1 4617   4.435   0.618   8.537 -1.0112 -3.1169  1.0625
25703WAT     H2 4618   4.506   0.507   8.464  2.4303 -0.3959 -0.0314
25703WAT    EPW 4619   4.509   0.580   8.510  0.2215 -0.4028  0.2103
25704WAT      O 4620   3.147   1.906   7.391 -0.3277 -0.9054 -0.0223
25704WAT     H1 4621   3.154   1.863   7.306  0.9125 -0.3355 -0.2284
25704WAT     H2 4622   3.099   1.987   7.373  0.9817 -0.1960 -0.4312
25704WAT    EPW 4623   3.141   1.911   7.378  0.0086 -0.7367 -0.1035
25705WAT      O 4624   5.168   2.406   8.972  0.3013  0.3094  0.0879
25705WAT     H1 4625   5.223   2.428   8.897 -0.4755  0.9631 -0.3063
25705WAT     H2 4626   5.079   2.430   8.945 -0.3242 -1.5367  0.3783
25705WAT    EPW 4627   5.163   2.412   8.959  0.1163  0.1521  0.0739
25706WAT      O 4628   1.409   6.343   0.410 -0.1562 -0.9485 -0.0678
25706WAT     H1 4629   1.371   6.426   0.380 -1.2791 -1.5198 -0.2605
25706WAT     H2 4630   1.412   6.288   0.332 -2.0360 -2.0457  0.5566
25706WAT    EPW 4631   1.404   6.347   0.396 -0.5523 -1.1685 -0.0108
25707WAT      O 4632   0.359   4.849   3.143 -0.1282 -0.9042 -0.8005
25707WAT     H1 4633   0.399   4.929   3.111 -0.5963  0.1004  0.9950
25707WAT     H2 4634   0.359   4.790   3.068  0.0355  0.8398 -2.2184
25707WAT    EPW 4635   0.364   4.852   3.129 -0.1683 -0.5414 -0.7507
25708WAT      O 4636   6.952   2.490   8.915 -0.2761 -0.2624  0.4447
25708WAT     H1 4637   6.952   2.578   8.876 -2.3602 -1.3813 -2.3667
25708WAT     H2 4638   6.872   2.489   8.969 -0.7626 -0.7131 -0.2777
25708WAT    EPW 4639   6.942   2.502   8.917 -0.6151 -0.4694 -0.0215
25709WAT      O 4640   9.395   5.972   3.825  0.1159 -0.6734 -0.6014
25709WAT     H1 4641   9.377   5.892   3.777 -0.0328 -0.0390 -1.6154
25709WAT     H2 4642   9.309   6.009   3.844  0.0904 -1.5699  1.3421
25709WAT    EPW 4643   9.382   5.966   3.821  0.0925 -0.7081 -0.4789
25710WAT      O 4644   7.635   4.043   1.949 -0.2857 -0.0737 -0.2072
25710WAT     H1 4645   7.585   4.072   2.025 -0.2624 -4.0477  1.5199
25710WAT     H2 4646   7.726   4.042   1.979 -0.0916 -0.2778 -0.7933
25710WAT    EPW 4647   7.641   4.047   1.963 -0.2573 -0.6249 -0.0567
25711WAT      O 4648   9.747   4.369   2.859 -0.3989 -0.0864  0.2661
25711WAT     H1 4649   9.806   4.294   2.856 -1.4235 -0.8985  0.2701
25711WAT     H2 4650   9.723   4.377   2.952  1.3840  1.6047  0.6593
25711WAT    EPW 4651   9.752   4.360   2.871 -0.2985  0.0296  0.3185
25712WAT      O 4652   0.157   8.526   2.257  0.7162  0.0786  0.3067
25712WAT     H1 4653   0.174   8.431   2.259  1.5256  0.2191  0.8314
25712WAT     H2 4654   0.110   8.540   2.175  2.5068 -0.4976 -0.8955
25712WAT    EPW 4655   0.153   8.515   2.246  1.0592  0.0210  0.2173
25713WAT      O 4656   1.741   9.909   7.565  0.1358  0.0297  0.0013
25713WAT     H1 4657   1.823   9.947   7.597  1.4200 -1.9865 -0.7174
25713WAT     H2 4658   1.682   9.913   7.640  2.1357 -1.8982  1.8380
25713WAT    EPW 4659   1.744   9.914   7.579  0.5689 -0.4907  0.1488
25714WAT      O 4660   4.888   3.961   2.644 -0.0998  0.7176  0.9191
25714WAT     H1 4661   4.846   3.940   2.561 -1.9516  2.3262  1.3710
25714WAT     H2 4662   4.906   4.055   2.639  2.1126  0.3648  1.3736
25714WAT    EPW 4663   4.885   3.970   2.633 -0.0522  0.8832  1.0387
25715WAT      O 4664   8.497   1.171   8.183  0.0869 -0.2377 -0.2677
25715WAT     H1 4665   8.426   1.180   8.120  1.4459  0.1683 -1.8248
25715WAT     H2 4666   8.476   1.092   8.232 -1.3841 -0.1603 -0.7356
25715WAT    EPW 4667   8.485   1.162   8.181  0.0715 -0.1739 -0.5350
25716WAT      O 4668   8.849   3.000   1.809 -0.2520  0.4981 -0.3123
25716WAT     H1 4669   8.880   3.081   1.850  0.8956  1.0192 -2.0656
25716WAT     H2 4670   8.788   3.029   1.742 -2.6437 -0.3824  1.3554
25716WAT    EPW 4671   8.845   3.014   1.805 -0.4163  0.4508 -0.3236
25717WAT      O 4672   6.690   0.368   8.734  0.4000  1.1153 -0.4180
25717WAT     H1 4673   6.737   0.451   8.721 -0.5834  1.6597 -0.5682
25717WAT     H2 4674   6.651   0.349   8.649  0.1353  0.8057 -0.2310
25717WAT    EPW 4675   6.691   0.376   8.721  0.2356  1.1463 -0.4134
25718WAT      O 4676   3.261   2.589   7.663  0.2207  0.2075 -0.6565
25718WAT     H1 4677   3.250   2.496   7.646  0.0898  0.0736  0.1304
25718WAT     H2 4678   3.343   2.612   7.619  1.6025 -0.8493  1.2484
25718WAT    EPW 4679   3.271   2.580   7.655  0.3858  0.0505 -0.3014
25719WAT      O 4680   3.900   1.271   7.754 -0.8622  1.0025 -0.1867
25719WAT     H1 4681   3.949   1.352   7.742 -1.9177  1.6568 -0.1884
25719WAT     H2 4682   3.898   1.258   7.848 -1.9564  1.7946 -0.0850
25719WAT    EPW 4683   3.906   1.280   7.764 -1.1457  1.1933 -0.1731
25720WAT      O 4684   7.872   6.087   1.135  0.1645 -0.3537 -0.4853
25720WAT     H1 4685   7.945   6.143   1.160  0.8853 -1.3199 -0.3944
25720WAT     H2 4686   7.816   6.143   1.082  1.1061  0.3161 -0.7821
25720WAT    EPW 4687   7.874   6.102   1.132  0.3839 -0.3929 -0.5124
25721WAT      O 4688   0.321   9.291   5.848 -0.3799 -0.2730  0.2087
25721WAT     H1 4689   0.308   9.362   5.785 -1.4121 -1.4532 -0.9489
25721WAT     H2 4690   0.323   9.335   5.933  1.6941  1.4478 -0.6124
25721WAT    EPW 4691   0.320   9.306   5.851 -0.2425 -0.2017 -0.0522
25722WAT      O 4692   8.619   8.760   5.516 -0.2651  0.5411 -0.5483
25722WAT     H1 4693   8.564   8.681   5.509  0.0216  0.3601 -0.8299
25722WAT     H2 4694   8.679   8.753   5.441 -1.5067  2.0129 -1.7433
25722WAT    EPW 4695   8.620   8.749   5.505 -0.3910  0.7114 -0.7429
25723WAT      O 4696   8.389   2.415   0.200  0.0155 -0.2158 -0.0448
25723WAT     H1 4697   8.390   2.371   0.284 -2.3616 -1.1507 -0.4267
25723WAT     H2 4698   8.301   2.400   0.166  0.4948  1.2220 -2.1284
25723WAT    EPW 4699   8.378   2.407   0.206 -0.2356 -0.1495 -0.3700
25724WAT      O 4700   0.563   7.650   3.917  0.4646 -0.3744  0.6489
25724WAT     H1 4701   0.513   7.672   3.839  1.9135 -0.1079 -0.2593
25724WAT     H2 4702   0.507   7.675   3.990 -1.6400 -2.1795 -0.2330
25724WAT    EPW 4703   0.549   7.656   3.916  0.3781 -0.5772  0.4127
25725WAT      O 4704   0.328   6.001   5.436  0.3461  0.2246  0.8660
25725WAT     H1 4705   0.408   6.020   5.389  0.2187  0.7829  0.8717
25725WAT     H2 4706   0.319   6.072   5.499  0.6301 -0.6225  1.8905
25725WAT    EPW 4707   0.337   6.013   5.438  0.3667  0.1864  1.0018
25726WAT      O 4708   0.603   9.570   8.330  0.2788  0.2917  0.0982
25726WAT     H1 4709   0.558   9.641   8.284  1.5474 -1.2241 -3.8571
25726WAT     H2 4710   0.685   9.557   8.282  1.4625 -1.9677  2.4495
25726WAT    EPW 4711   0.608   9.578   8.318  0.6022 -0.2060 -0.1135
25727WAT      O 4712   9.199   9.796   6.556 -0.0711 -0.2979  0.3750
25727WAT     H1 4713   9.267   9.790   6.489 -0.3125 -0.5222  0.1479
25727WAT     H2 4714   9.155   9.711   6.554  0.4303 -0.5987  1.3837
25727WAT    EPW 4715   9.202   9.784   6.547 -0.0367 -0.3667  0.4780
25728WAT      O 4716   2.071   9.776   6.717  0.3161 -0.6850  0.2675
25728WAT     H1 4717   1.998   9.715   6.706 -0.8590  0.4893  1.1888
25728WAT     H2 4718   2.110   9.752   6.801 -0.6700  0.3154  1.0363
25728WAT    EPW 4719   2.067   9.765   6.726  0.0310 -0.3986  0.4907
25729WAT      O 4720   2.699   7.770   6.135 -0.3070 -0.8972 -0.0520
25729WAT     H1 4721   2.635   7.698   6.139  2.1603 -3.1968  3.1023
25729WAT     H2 4722   2.774   7.733   6.088 -0.5979  1.2840 -2.4471
25729WAT    EPW 4723   2.700   7.756   6.130 -0.0199 -0.9127  0.0482
25730WAT      O 4724   3.610   0.124   5.933  0.1088 -0.0260 -0.2783
25730WAT     H1 4725   3.525   0.142   5.893  0.8371  0.4222 -1.6892
25730WAT     H2 4726   3.664   0.200   5.910  0.7807 -0.1192  0.9365
25730WAT    EPW 4727   3.606   0.136   5.925  0.2935  0.0208 -0.3040
25731WAT      O 4728   0.173   7.167   6.995 -1.0218 -0.0113  0.3084
25731WAT     H1 4729   0.223   7.086   7.001 -2.3569 -0.9421 -0.5461
25731WAT     H2 4730   0.117   7.167   7.072  0.7239  1.4068  1.6763
25731WAT    EPW 4731   0.172   7.157   7.006 -0.9677  0.0532  0.3757
25732WAT      O 4732   9.710   7.269   4.465  0.4752 -0.0196  0.5035
25732WAT     H1 4733   9.697   7.190   4.412  0.5728 -1.2230  2.1843
25732WAT     H2 4734   9.630   7.320   4.452 -1.0211 -1.9094  1.8245
25732WAT    EPW 4735   9.698   7.265   4.456  0.2904 -0.4275  0.8996
25733WAT      O 4736  10.199   7.261   7.299  0.3841  0.1811 -0.0999
25733WAT     H1 4737  10.284   7.243   7.259  0.5346  1.3758 -0.3614
25733WAT     H2 4738  10.154   7.314   7.234 -1.2617 -1.8342 -0.7225
25733WAT    EPW 4739  10.204   7.265   7.285  0.1869  0.0730 -0.2162
25734WAT      O 4740   1.187  10.119   3.515 -0.4552 -0.7070 -0.1836
25734WAT     H1 4741   1.265  10.106   3.568  1.5800  0.0374 -2.8022
25734WAT     H2 4742   1.220  10.141   3.428 -3.5589 -2.1941 -1.9240
25734WAT    EPW 4743   1.201  10.120   3.511 -0.5961 -0.8044 -0.7585
25735WAT      O 4744   9.586   7.887   7.302 -0.2599  0.7244 -0.1826
25735WAT     H1 4745   9.533   7.858   7.227 -0.7826  0.5155  0.2611
25735WAT     H2 4746   9.585   7.812   7.362  0.4260  0.7715 -0.1018
25735WAT    EPW 4747   9.579   7.873   7.300 -0.2384  0.7031 -0.1132
25736WAT      O 4748   2.335   2.020   4.483  0.4407  0.0371 -0.4151
25736WAT     H1 4749   2.269   1.982   4.541  1.2561 -0.6888  0.0593
25736WAT     H2 4750   2.383   1.945   4.449  1.3191  0.5736 -0.3923
25736WAT    EPW 4751   2.333   2.006   4.486  0.6640  0.0120 -0.3498
25737WAT      O 4752   0.899   9.798   7.899 -0.3640  0.2796 -0.3810
25737WAT     H1 4753   0.825   9.758   7.853 -0.5618  1.4632 -1.1298
25737WAT     H2 4754   0.873   9.799   7.991  0.0593 -2.1680 -0.1627
25737WAT    EPW 4755   0.886   9.793   7.905 -0.3342  0.1130 -0.4508
25738WAT      O 4756   8.427   9.147   6.093 -0.0208 -0.3253  0.2669
25738WAT     H1 4757   8.389   9.059   6.088  0.0482 -0.3051 -1.1281
25738WAT     H2 4758   8.390   9.193   6.018 -0.8408  1.1799  1.5620
25738WAT    EPW 4759   8.417   9.141   6.082 -0.1202 -0.1249  0.2537
25739WAT      O 4760  10.803   8.244   6.808  0.5784  0.2023  0.3776
25739WAT     H1 4761  10.809   8.335   6.838  1.4649  0.4986 -0.6351
25739WAT     H2 4762  10.742   8.247   6.733 -0.4515 -0.2823  1.1618
25739WAT    EPW 4763  10.795   8.256   6.802  0.5593  0.1774  0.3476
25740WAT      O 4764   9.822   3.349   1.217 -0.0658 -0.8375 -0.3580
25740WAT     H1 4765   9.855   3.388   1.136  0.9871 -1.7148 -0.3703
25740WAT     H2 4766   9.771   3.273   1.188  1.1420 -1.7465 -0.1906
25740WAT    EPW 4767   9.820   3.344   1.202  0.2327 -1.0731 -0.3375
25741WAT      O 4768   0.374   8.740   6.648  0.5442  0.3349 -0.0352
25741WAT     H1 4769   0.427   8.675   6.694  0.4221  0.9131  0.9437
25741WAT     H2 4770   0.437   8.806   6.620  0.4310  0.7459  0.6503
25741WAT    EPW 4771   0.390   8.740   6.650  0.5132  0.4654  0.1841
25742WAT      O 4772   0.779   0.609   7.286  0.3684  0.8938  0.7114
25742WAT     H1 4773   0.807   0.700   7.297 -0.4758  1.0560  1.6580
25742WAT     H2 4774   0.857   0.563   7.255  0.9257  1.8471  0.6702
25742WAT    EPW 4775   0.793   0.615   7.283  0.3305  1.0410  0.8309
25743WAT      O 4776   8.455   5.761   1.984  0.0381  0.6735 -0.1628
25743WAT     H1 4777   8.435   5.723   2.070 -1.6492  0.9943 -0.3781
25743WAT     H2 4778   8.435   5.854   1.993  2.5858  1.2952 -0.1215
25743WAT    EPW 4779   8.450   5.768   1.997  0.1516  0.7975 -0.1858
25744WAT      O 4780   0.082   9.412   6.833  0.2931 -0.5103  0.2369
25744WAT     H1 4781   0.151   9.476   6.819 -1.4821  1.7443  1.0204
25744WAT     H2 4782   0.027   9.451   6.902 -1.1326 -2.6885  0.4393
25744WAT    EPW 4783   0.084   9.426   6.840 -0.1291 -0.5002  0.3667
25745WAT      O 4784   7.028   8.206   6.005  0.0594 -0.7444  0.2825
25745WAT     H1 4785   6.973   8.155   5.945 -2.4572  2.3940 -0.3812
25745WAT     H2 4786   6.977   8.211   6.085  1.6342 -1.6503  1.3884
25745WAT    EPW 4787   7.014   8.200   6.007 -0.0646 -0.4497  0.3409
25746WAT      O 4788   1.607   5.785   6.907 -0.0586 -0.5153  0.1797
25746WAT     H1 4789   1.518   5.771   6.938  1.2209 -0.3055  4.6178
25746WAT     H2 4790   1.646   5.697   6.907  0.4973 -0.2718  1.0839
25746WAT    EPW 4791   1.600   5.771   6.911  0.1834 -0.4554  0.8845
25747WAT      O 4792   9.693   8.676   7.504  0.2292  0.8549 -0.2228
25747WAT     H1 4793   9.738   8.592   7.494  0.4344  0.8607  0.5929
25747WAT     H2 4794   9.750   8.739   7.461 -0.2859  0.4824 -1.5068
25747WAT    EPW 4795   9.706   8.673   7.497  0.1879  0.8063 -0.2844
25748WAT      O 4796   6.718   3.286   0.568 -0.2270  0.0768 -0.0620
25748WAT     H1 4797   6.780   3.354   0.540 -0.7623  0.7389  0.3258
25748WAT     H2 4798   6.639   3.303   0.516 -0.0734 -0.7934 -0.5930
25748WAT    EPW 4799   6.716   3.297   0.557 -0.2773  0.0494 -0.0809
25749WAT      O 4800   3.426   5.173   1.087  0.0081  0.1337  0.5008
25749WAT     H1 4801   3.403   5.226   1.164 -1.1358  0.1571  0.1592
25749WAT     H2 4802   3.403   5.227   1.012 -2.0872 -1.1578  0.1343
25749WAT    EPW 4803   3.420   5.187   1.088 -0.4191 -0.0339  0.4075
25750WAT      O 4804   1.795   7.151   6.183  0.1696  0.2954 -0.1887
25750WAT     H1 4805   1.808   7.087   6.253  2.3605  0.1956 -0.6088
25750WAT     H2 4806   1.876   7.203   6.183  0.6919 -0.3060 -3.1930
25750WAT    EPW 4807   1.808   7.149   6.192  0.5274  0.2031 -0.6404
25751WAT      O 4808   6.915   1.013   4.951  0.2709 -0.0843 -0.0982
25751WAT     H1 4809   6.954   1.092   4.987  0.8704  0.2681 -1.4329
25751WAT     H2 4810   6.847   0.989   5.013 -1.5910  2.8642 -0.8003
25751WAT    EPW 4811   6.911   1.020   4.964  0.1044  0.3510 -0.3667
25752WAT      O 4812   4.112   2.165   8.531 -1.0404  0.2958 -0.4900
25752WAT     H1 4813   4.046   2.096   8.538  0.4264 -1.0625  0.9325
25752WAT     H2 4814   4.166   2.153   8.609  1.2028  0.9842 -1.8618
25752WAT    EPW 4815   4.110   2.154   8.542 -0.5512  0.2074 -0.4826
25753WAT      O 4816   0.833   5.510   6.600 -0.5042 -0.1556  0.4652
25753WAT     H1 4817   0.805   5.509   6.691 -0.8292  0.7200  0.3792
25753WAT     H2 4818   0.905   5.447   6.597  0.8257  1.2135  1.7562
25753WAT    EPW 4819   0.839   5.502   6.611 -0.3716  0.1407  0.6242
25754WAT      O 4820   5.524   1.729   5.355  0.2104 -0.0805  0.6109
25754WAT     H1 4821   5.569   1.645   5.363 -0.3513 -0.4425  0.0768
25754WAT     H2 4822   5.581   1.782   5.300  0.5836 -0.0912  0.9798
25754WAT    EPW 4823   5.537   1.725   5.349  0.1857 -0.1296  0.5891
25755WAT      O 4824  10.912   7.837   5.072  0.2249 -0.1387  0.3414
25755WAT     H1 4825  10.867   7.753   5.070  0.7574 -0.4173 -0.3226
25755WAT     H2 4826  10.859   7.892   5.130 -0.0302 -0.9804  0.9184
25755WAT    EPW 4827  10.899   7.833   5.080  0.2618 -0.2866  0.3300
25756WAT      O 4828   0.439   8.606   7.029  0.2353  0.0415  0.1614
25756WAT     H1 4829   0.435   8.699   7.050  0.7394 -0.2316  1.5417
25756WAT     H2 4830   0.350   8.574   7.046  0.4945 -0.0620  1.3507
25756WAT    EPW 4831   0.426   8.614   7.034  0.3360 -0.0076  0.5004
25757WAT      O 4832   0.778   7.866   2.417  0.9011  0.2216 -0.0482
25757WAT     H1 4833   0.820   7.793   2.462 -0.8815  0.7485  2.7040
25757WAT     H2 4834   0.725   7.825   2.349 -1.8556 -1.4727  2.8322
25757WAT    EPW 4835   0.777   7.851   2.414  0.3024  0.0679  0.6948
25758WAT      O 4836   0.370   7.825   6.899  0.2973 -0.4659  0.0791
25758WAT     H1 4837   0.339   7.820   6.989  0.5837 -1.7593  0.1144
25758WAT     H2 4838   0.292   7.812   6.845  0.1684  0.0627  0.1311
25758WAT    EPW 4839   0.356   7.823   6.904  0.3181 -0.5667  0.0908
25759WAT      O 4840   4.375   8.225   1.544  0.2252 -0.3885  0.1914
25759WAT     H1 4841   4.391   8.220   1.450 -0.9174  0.4814 -0.0746
25759WAT     H2 4842   4.284   8.198   1.554  0.3202 -0.4210  1.0425
25759WAT    EPW 4843   4.365   8.221   1.533  0.0870 -0.2780  0.2685
25760WAT      O 4844   5.070  10.059   4.569  0.1840 -0.6630 -0.1302
25760WAT     H1 4845   5.045   9.983   4.516  0.9978 -0.7966 -0.3444
25760WAT     H2 4846   5.165  10.067   4.555  0.7073 -1.5629  2.3581
25760WAT    EPW 4847   5.079  10.050   4.560  0.3605 -0.7992  0.1695
25761WAT      O 4848   1.166   8.819   3.705 -0.3595 -0.2872  0.0218
25761WAT     H1 4849   1.079   8.860   3.708 -1.0424 -1.6588  0.0723
25761WAT     H2 4850   1.181   8.787   3.794  0.9438  1.3391  0.4302
25761WAT    EPW 4851   1.156   8.820   3.717 -0.2776 -0.2537  0.0823
25762WAT      O 4852   4.045   1.666   5.429 -0.6586  0.4728 -0.9812
25762WAT     H1 4853   4.037   1.691   5.521 -3.1366 -0.6679 -0.8146
25762WAT     H2 4854   4.123   1.713   5.398  1.3062 -0.4376  2.1012
25762WAT    EPW 4855   4.054   1.676   5.437 -0.7262  0.2023 -0.5529
25763WAT      O 4856   3.149   0.019   8.552  0.4260 -0.0577 -0.3383
25763WAT     H1 4857   3.147  -0.067   8.510 -1.1132  0.6203 -1.7437
25763WAT     H2 4858   3.163   0.081   8.481 -1.3247  1.0470  0.2045
25763WAT    EPW 4859   3.150   0.016   8.537 -0.0080  0.1774 -0.4520
25764WAT      O 4860   1.740   9.838   5.715 -0.3761 -0.3155 -0.7136
25764WAT     H1 4861   1.729   9.885   5.632  0.7701 -0.0534 -0.7233
25764WAT     H2 4862   1.707   9.750   5.696 -3.2726  0.6078 -0.4717
25764WAT    EPW 4863   1.734   9.833   5.701 -0.6070 -0.1593 -0.6831
25765WAT      O 4864   6.331   5.266   0.547 -0.8965 -0.1662 -0.0721
25765WAT     H1 4865   6.299   5.254   0.457 -0.6652 -0.3861 -0.1271
25765WAT     H2 4866   6.425   5.246   0.541 -0.8476 -0.0116  0.1848
25765WAT    EPW 4867   6.339   5.262   0.534 -0.8595 -0.1748 -0.0455
25766WAT      O 4868   7.312   6.710   6.691  0.2007 -0.1655 -0.4893
25766WAT     H1 4869   7.296   6.650   6.619  2.7666  2.2905 -3.4139
25766WAT     H2 4870   7.234   6.766   6.694 -0.6211 -1.3072 -0.2052
25766WAT    EPW 4871   7.300   6.710   6.682  0.4303  0.0081 -0.8376
25767WAT      O 4872   7.016   8.929   5.021 -0.0681 -0.2853 -0.2547
25767WAT     H1 4873   6.924   8.920   5.047  0.6511 -0.1857  2.6686
25767WAT     H2 4874   7.013   8.989   4.947 -2.2780  1.0409  0.7811
25767WAT    EPW 4875   7.003   8.936   5.015 -0.2646 -0.0973  0.2675
25768WAT      O 4876   2.041   7.751   3.544 -0.5277  0.0364  0.4138
25768WAT     H1 4877   2.044   7.706   3.629 -0.2124  1.7265  1.3417
25768WAT     H2 4878   1.951   7.740   3.514 -0.6374 -0.5931  0.9583
25768WAT    EPW 4879   2.030   7.744   3.552 -0.5007  0.1764  0.6078
25769WAT      O 4880   9.451   8.772   5.583  0.2456  0.0877  0.0249
25769WAT     H1 4881   9.443   8.839   5.651 -0.9671  0.2700 -0.2750
25769WAT     H2 4882   9.541   8.781   5.551  0.5141  0.6670  0.9121
25769WAT    EPW 4883   9.462   8.782   5.588  0.1211  0.1879  0.1023
25770WAT      O 4884  10.636   9.618   7.256  0.4521  0.0432  1.0262
25770WAT     H1 4885  10.726   9.588   7.241  0.2007 -1.6107  2.5023
25770WAT     H2 4886  10.581   9.544   7.233 -0.6290  1.2494 -0.4542
25770WAT    EPW 4887  10.641   9.605   7.251  0.2761 -0.0162  1.0257
25771WAT      O 4888   1.410   5.831   4.748  0.1823 -0.3209  0.1143
25771WAT     H1 4889   1.326   5.868   4.720  1.0548  0.0481 -2.2662
25771WAT     H2 4890   1.388   5.744   4.783 -1.2305 -0.0007  0.0619
25771WAT    EPW 4891   1.396   5.824   4.749  0.1110 -0.2298 -0.2067
25772WAT      O 4892   8.248  10.165   5.969  0.6425 -0.4941 -0.5276
25772WAT     H1 4893   8.184  10.183   6.038  0.6805  2.7019 -1.1603
25772WAT     H2 4894   8.213  10.090   5.922 -0.3550 -1.5646  1.7455
25772WAT    EPW 4895   8.235  10.158   5.972  0.5159 -0.2146 -0.3111
25773WAT      O 4896   3.595   0.825   6.623  0.3310 -0.4354 -0.7120
25773WAT     H1 4897   3.545   0.873   6.690 -2.2336 -0.4350 -2.4709
25773WAT     H2 4898   3.679   0.870   6.619 -0.2107  0.8726  1.0136
25773WAT    EPW 4899   3.599   0.837   6.632 -0.0788 -0.2628 -0.7162
25774WAT      O 4900   8.813   6.779   8.149  0.4479  0.4773 -0.4133
25774WAT     H1 4901   8.768   6.713   8.096  1.4596 -2.2318  1.8640
25774WAT     H2 4902   8.748   6.808   8.213  0.7082 -0.2436  0.1865
25774WAT    EPW 4903   8.798   6.774   8.150  0.6156  0.0250 -0.0343
25775WAT      O 4904   6.713   9.487   6.629 -0.0701  1.0245 -0.6645
25775WAT     H1 4905   6.775   9.542   6.676 -2.5573  0.8368  3.2897
25775WAT     H2 4906   6.670   9.546   6.568  1.4396  1.9597 -0.8762
25775WAT    EPW 4907   6.716   9.502   6.627 -0.1991  1.1234 -0.1707
25776WAT      O 4908  10.216  10.171   6.363  0.0516  0.5777 -0.5347
25776WAT     H1 4909  10.165  10.142   6.438 -0.6882  0.1728 -1.1755
25776WAT     H2 4910  10.307  10.154   6.387 -0.3278 -2.1556 -0.8143
25776WAT    EPW 4911  10.221  10.165   6.376 -0.0958  0.1636 -0.6559
25777WAT      O 4912   6.086   3.003   0.037  0.3834 -0.4107  0.2080
25777WAT     H1 4913   6.079   2.979   0.130 -2.0487 -1.9427 -0.2889
25777WAT     H2 4914   6.179   3.024   0.025  1.7919 -4.6107  1.9932
25777WAT    EPW 4915   6.097   3.003   0.048  0.2494 -1.1663  0.3781
25778WAT      O 4916   8.355   6.444   5.276 -0.4609  0.6332 -0.4970
25778WAT     H1 4917   8.262   6.461   5.264 -0.8416 -1.3474 -0.7734
25778WAT     H2 4918   8.397   6.479   5.198 -1.0962  0.7030 -0.8116
25778WAT    EPW 4919   8.348   6.451   5.264 -0.5946  0.3812 -0.5748
25779WAT      O 4920   9.751   9.777   6.319 -0.1760 -0.5040  0.3147
25779WAT     H1 4921   9.810   9.825   6.261 -0.7190  0.7054  0.7203
25779WAT     H2 4922   9.709   9.845   6.371  1.2487 -1.6116  3.0805
25779WAT    EPW 4923   9.753   9.793   6.318 -0.0596 -0.4907  0.7329
25780WAT      O 4924   2.172   2.372   7.241  0.3101 -0.0480  0.5052
25780WAT     H1 4925   2.165   2.432   7.166  2.6488 -0.6918 -0.3231
25780WAT     H2 4926   2.204   2.427   7.312 -0.2038  0.2164  0.5374
25780WAT    EPW 4927   2.175   2.387   7.240  0.5507 -0.0980  0.4001
25781WAT      O 4928   7.819   6.585   6.949 -0.0037 -0.2247  0.3037
25781WAT     H1 4929   7.835   6.497   6.915  0.5971 -1.1503  2.7384
25781WAT     H2 4930   7.748   6.620   6.894 -0.8710 -2.5682 -0.1875
25781WAT    EPW 4931   7.811   6.578   6.937 -0.0389 -0.6559  0.5600
25782WAT      O 4932   3.240   8.197   3.710  0.1979  0.1042 -0.0729
25782WAT     H1 4933   3.188   8.135   3.762  1.2288 -1.3833 -0.7197
25782WAT     H2 4934   3.238   8.278   3.761  2.5392 -1.6755  3.3174
25782WAT    EPW 4935   3.233   8.199   3.724  0.6427 -0.3271  0.2891
25783WAT      O 4936  10.639   7.706   1.752 -0.1872 -0.1449 -0.0650
25783WAT     H1 4937  10.550   7.673   1.745  0.0256 -0.6464 -0.5175
25783WAT     H2 4938  10.630   7.792   1.793 -0.9912  0.3238 -1.1779
25783WAT    EPW 4939  10.626   7.713   1.756 -0.2651 -0.1495 -0.2715
25784WAT      O 4940   2.663  10.275   3.581 -0.3834  0.0907  1.0263
25784WAT     H1 4941   2.659  10.190   3.537  0.5414  0.1780  0.7586
25784WAT     H2 4942   2.646  10.255   3.673  1.4217 -0.6383  1.2474
25784WAT    EPW 4943   2.660  10.261   3.587 -0.0234  0.0057  1.0203
25785WAT      O 4944   6.389   4.553   0.345  0.3351  0.3951  0.6989
25785WAT     H1 4945   6.476   4.585   0.322  0.8336 -0.3179  1.5484
25785WAT     H2 4946   6.359   4.613   0.413  0.3041  0.4311  0.6536
25785WAT    EPW 4947   6.396   4.566   0.351  0.3965  0.3057  0.8049
25786WAT      O 4948   8.119  10.203   6.275  0.3253  0.4287 -0.2099
25786WAT     H1 4949   8.034  10.162   6.292  1.3485 -1.1915  1.3135
25786WAT     H2 4950   8.122  10.278   6.334 -0.7662  1.6287 -1.6149
25786WAT    EPW 4951   8.108  10.207   6.285  0.3166  0.3734 -0.1943
25787WAT      O 4952   1.237   8.956   4.136 -0.3082 -0.5485  0.3465
25787WAT     H1 4953   1.184   9.020   4.088  1.8112  1.4541  0.5304
25787WAT     H2 4954   1.267   8.895   4.069 -0.4838 -0.0101 -0.2358
25787WAT    EPW 4955   1.234   8.957   4.120 -0.0518 -0.2136  0.2942
25788WAT      O 4956   7.048   4.345   6.560  0.3036  0.8805 -0.0711
25788WAT     H1 4957   7.129   4.315   6.602  1.4079  2.4356 -0.9832
25788WAT     H2 4958   7.013   4.410   6.620 -0.2221  0.3107  0.2539
25788WAT    EPW 4959   7.054   4.349   6.574  0.3798  1.0104 -0.1485
25789WAT      O 4960   2.076   0.770   8.738 -0.3300  0.0279 -0.3896
25789WAT     H1 4961   1.989   0.801   8.766  0.0492 -0.2273  1.1713
25789WAT     H2 4962   2.124   0.850   8.718 -0.5351  0.2461 -0.0283
25789WAT    EPW 4963   2.071   0.785   8.739 -0.3071  0.0230 -0.1359
25790WAT      O 4964   7.039   0.242   2.902  0.3922 -0.2130  0.5556
25790WAT     H1 4965   6.963   0.224   2.846  1.5059 -0.8705 -0.8125
25790WAT     H2 4966   7.014   0.209   2.988 -1.3613  0.7770  0.4668
25790WAT    EPW 4967   7.025   0.235   2.906  0.3078 -0.1691  0.3635
25791WAT      O 4968   8.769   9.614   8.855 -0.3715  0.0276  0.2769
25791WAT     H1 4969   8.797   9.535   8.902  1.1646 -1.5442 -2.8889
25791WAT     H2 4970   8.847   9.669   8.853  0.0003 -0.4794 -1.2685
25791WAT    EPW 4971   8.783   9.611   8.861 -0.1202 -0.2470 -0.3448
25792WAT      O 4972   1.657   7.388   6.159 -0.8166 -0.2446  0.1458
25792WAT     H1 4973   1.677   7.302   6.196 -0.2546 -0.7109 -1.1794
25792WAT     H2 4974   1.742   7.427   6.141 -1.0252  1.1626  1.9067
25792WAT    EPW 4975   1.670   7.382   6.161 -0.7699 -0.1206  0.2031
25793WAT      O 4976   9.071   2.783   1.898 -0.8993  0.3443  0.0830
25793WAT     H1 4977   9.003   2.843   1.869  1.2834  3.6582  1.3076
25793WAT     H2 4978   9.145   2.801   1.841  0.6676  0.8240  2.1453
25793WAT    EPW 4979   9.071   2.793   1.887 -0.4048  0.8446  0.5165
25794WAT      O 4980   1.313   8.033   4.000 -0.3165 -0.6966  0.2852
25794WAT     H1 4981   1.234   8.051   4.051 -0.3497 -0.7172  0.2409
25794WAT     H2 4982   1.335   8.117   3.960 -0.2379 -0.6589  0.4068
25794WAT    EPW 4983   1.306   8.046   4.002 -0.3105 -0.6948  0.2956
25795WAT      O 4984   1.833   9.234   5.354  0.6992 -0.6369  0.5260
25795WAT     H1 4985   1.823   9.307   5.294 -0.9707 -0.2633  1.2148
25795WAT     H2 4986   1.775   9.166   5.321  0.8396 -0.9556  0.9197
25795WAT    EPW 4987   1.824   9.235   5.342  0.4975 -0.6299  0.6690
25796WAT      O 4988   2.552   8.863   6.436 -0.4613 -0.2715  0.1969
25796WAT     H1 4989   2.538   8.779   6.391 -0.8314  0.0656 -0.3328
25796WAT     H2 4990   2.632   8.898   6.398 -0.7121 -0.0404 -0.1303
25796WAT    EPW 4991   2.561   8.856   6.425 -0.5432 -0.1965  0.0837
25797WAT      O 4992   3.693   8.841   6.613  0.6127 -1.0950 -0.0671
25797WAT     H1 4993   3.681   8.898   6.537 -0.8021 -0.5493  0.5271
25797WAT     H2 4994   3.761   8.885   6.665  2.6705 -2.2358 -1.6749
25797WAT    EPW 4995   3.700   8.855   6.610  0.6976 -1.1740 -0.2007
25798WAT      O 4996   2.449   9.255   5.555  0.8201  0.1110 -0.1284
25798WAT     H1 4997   2.500   9.218   5.627  0.2873 -0.2227  0.0819
25798WAT     H2 4998   2.445   9.184   5.491  2.4134  0.8233 -1.0914
25798WAT    EPW 4999   2.455   9.240   5.556  0.9599  0.1612 -0.2277
25799WAT      O 5000   3.133   9.484   3.367  0.0071  1.1644  0.4348
25799WAT     H1 5001   3.042   9.509   3.351  0.5270  1.8148 -1.9649
25799WAT     H2 5002   3.137   9.466   3.461 -2.9474 -0.4044  0.3922
25799WAT    EPW 5003   3.121   9.485   3.377 -0.3140  1.0428  0.1127
25800WAT      O 5004   4.421   9.390   2.986  0.8026 -0.5696 -0.4854
25800WAT     H1 5005   4.401   9.370   3.078  0.2350 -0.7210 -0.6389
25800WAT     H2 5006   4.343   9.361   2.938  0.3724  1.1059 -0.8333
25800WAT    EPW 5007   4.408   9.383   2.992  0.6709 -0.3691 -0.5513
25801WAT      O 5008   7.210   2.729   6.779  0.8881 -0.0159 -0.3507
25801WAT     H1 5009   7.183   2.637   6.775  0.6289  0.0860 -1.7696
25801WAT     H2 5010   7.225   2.753   6.687  0.8490  1.3844 -0.0161
25801WAT    EPW 5011   7.208   2.720   6.766  0.8490  0.1823 -0.4935
25802WAT      O 5012   6.664   1.251   4.543 -0.1604  0.3122 -0.1439
25802WAT     H1 5013   6.741   1.211   4.502 -0.2124 -0.0119  0.0624
25802WAT     H2 5014   6.701   1.314   4.605 -0.0395 -0.1404  0.2592
25802WAT    EPW 5015   6.679   1.254   4.546 -0.1512  0.2097 -0.0637
25803WAT      O 5016   0.305   3.211   4.054  0.2915  0.7555  0.8970
25803WAT     H1 5017   0.302   3.195   4.149 -0.4775 -1.6444  0.5418
25803WAT     H2 5018   0.398   3.206   4.032  0.3784  0.1292  1.3743
25803WAT    EPW 5019   0.317   3.208   4.064  0.2015  0.3564  0.9129
25804WAT      O 5020   0.988   6.915   3.732 -0.3518 -0.4394  0.1648
25804WAT     H1 5021   0.902   6.949   3.758  0.2896  1.9523 -0.5620
25804WAT     H2 5022   0.984   6.909   3.636  0.2840 -0.2259  0.1146
25804WAT    EPW 5023   0.976   6.919   3.723 -0.1833 -0.0961  0.0625
25805WAT      O 5024   2.639   4.822   5.532 -0.7409 -0.5532  0.1790
25805WAT     H1 5025   2.665   4.882   5.463 -1.9415 -1.5686 -1.2264
25805WAT     H2 5026   2.722   4.783   5.562  0.1369  2.1613  1.5782
25805WAT    EPW 5027   2.654   4.825   5.527 -0.7834 -0.3293  0.1783
25806WAT      O 5028   2.205   4.026   6.318 -0.0292  0.3005  0.4217
25806WAT     H1 5029   2.152   3.948   6.334  0.3191 -0.2799 -1.0164
25806WAT     H2 5030   2.174   4.091   6.380 -2.0671 -0.1889 -0.0369
25806WAT    EPW 5031   2.194   4.024   6.328 -0.2520  0.1593  0.1714
25807WAT      O 5032   0.213   7.167   4.313  0.7635  0.3276  0.1704
25807WAT     H1 5033   0.237   7.259   4.304 -0.0675  0.6353  0.9164
25807WAT     H2 5034   0.163   7.148   4.234  0.8494  0.5471  0.0620
25807WAT    EPW 5035   0.210   7.177   4.302  0.6652  0.3967  0.2544
25808WAT      O 5036   2.679   5.867   5.145 -0.4884 -0.2347  0.4041
25808WAT     H1 5037   2.672   5.793   5.204 -0.5341  0.3016  1.0827
25808WAT     H2 5038   2.686   5.828   5.058 -1.7412 -0.9989  0.6315
25808WAT    EPW 5039   2.679   5.852   5.141 -0.6597 -0.2649  0.5238
25809WAT      O 5040   0.132   4.528   4.393  0.4777  0.1385 -0.0828
25809WAT     H1 5041   0.227   4.538   4.394  0.4280  3.0138 -3.0904
25809WAT     H2 5042   0.111   4.507   4.302 -1.8008 -0.1243  0.4302
25809WAT    EPW 5043   0.142   4.527   4.381  0.1706  0.4830 -0.4117
25810WAT      O 5044   1.779   4.960   6.071 -0.1806 -0.5104  0.0197
25810WAT     H1 5045   1.782   4.866   6.091 -1.6095 -0.2888  1.4527
25810WAT     H2 5046   1.867   4.991   6.091  0.0395 -1.3727  0.4533
25810WAT    EPW 5047   1.791   4.952   6.076 -0.3400 -0.5946  0.2656
25811WAT      O 5048  10.490   8.256   4.714 -0.1219  0.2532 -0.1061
25811WAT     H1 5049  10.553   8.250   4.642 -0.2141 -0.7983 -0.1199
25811WAT     H2 5050  10.455   8.167   4.722 -0.2287  0.3959  1.1363
25811WAT    EPW 5051  10.494   8.243   4.705 -0.1478  0.1330  0.0560
25812WAT      O 5052   9.060   5.440   4.946  0.3482  0.1866 -0.1163
25812WAT     H1 5053   9.048   5.535   4.945 -4.1476 -0.1397 -1.6561
25812WAT     H2 5054   9.147   5.426   4.908  0.4251  3.6440 -1.5830
25812WAT    EPW 5055   9.070   5.451   4.941 -0.2346  0.5996 -0.5126
25813WAT      O 5056   8.953   0.292   0.585 -0.1500  0.0302 -0.2101
25813WAT     H1 5057   8.966   0.252   0.499 -1.6357 -0.5826 -0.1772
25813WAT     H2 5058   8.858   0.307   0.590  0.1773  2.2118  0.3816
25813WAT    EPW 5059   8.942   0.289   0.575 -0.3028  0.2371 -0.1277
25814WAT      O 5060  10.262   6.232   4.269 -0.2549  0.2565 -0.6486
25814WAT     H1 5061  10.210   6.296   4.317 -1.3719 -0.6981 -0.5468
25814WAT     H2 5062  10.244   6.148   4.312  1.1097 -0.1499 -0.8290
25814WAT    EPW 5063  10.253   6.229   4.281 -0.2222  0.0768 -0.6592
25815WAT      O 5064   6.929   9.654   7.241  0.0986 -0.7114 -0.1185
25815WAT     H1 5065   6.851   9.678   7.291 -1.0056 -2.8026 -0.6992
25815WAT     H2 5066   6.907   9.569   7.202  2.3410 -0.9390 -1.0505
25815WAT    EPW 5067   6.916   9.646   7.242  0.2487 -1.0171 -0.3178
25816WAT      O 5068   3.402   8.194   4.822 -0.0804 -0.0340 -0.2779
25816WAT     H1 5069   3.443   8.128   4.878 -1.4940 -1.3863 -0.7480
25816WAT     H2 5070   3.401   8.273   4.876 -0.7425 -1.1054  1.3748
25816WAT    EPW 5071   3.407   8.196   4.837 -0.3542 -0.3533 -0.1218
25817WAT      O 5072   2.697   8.097   4.500 -0.0446  0.8264 -0.6073
25817WAT     H1 5073   2.644   8.089   4.579  1.3884 -1.0878  0.2360
25817WAT     H2 5074   2.720   8.007   4.477  0.7426  1.4342 -2.4170
25817WAT    EPW 5075   2.693   8.084   4.507  0.2483  0.6537 -0.7348
25818WAT      O 5076   0.051   5.019   7.952 -0.4581 -0.4773  0.3053
25818WAT     H1 5077   0.083   4.934   7.982  0.4622  0.1107  1.0443
25818WAT     H2 5078   0.097   5.082   8.006 -0.6832  0.5271 -0.6483
25818WAT    EPW 5079   0.061   5.016   7.963 -0.3664 -0.2673  0.2768
25819WAT      O 5080   8.379   6.281   0.063 -0.0388  0.0692 -0.6867
25819WAT     H1 5081   8.356   6.190   0.077 -0.8650  0.4908  0.9077
25819WAT     H2 5082   8.322   6.330   0.121  0.6523  1.5902 -1.2255
25819WAT    EPW 5083   8.369   6.276   0.072 -0.0563  0.3254 -0.5475
25820WAT      O 5084   3.188   4.477   3.439  0.1941 -0.2789  1.0887
25820WAT     H1 5085   3.167   4.426   3.517  0.7932 -0.2300  1.2846
25820WAT     H2 5086   3.103   4.508   3.407 -0.3011 -2.1880  0.4241
25820WAT    EPW 5087   3.174   4.474   3.445  0.2079 -0.5243  1.0269
25821WAT      O 5088   0.237   9.033   4.048 -0.0216 -0.2918 -0.7014
25821WAT     H1 5089   0.272   9.075   4.127  1.1389 -1.1768 -0.7116
25821WAT     H2 5090   0.217   9.106   3.989 -0.4451  0.3533  0.2268
25821WAT    EPW 5091   0.239   9.048   4.051  0.0756 -0.3238 -0.5803
25822WAT      O 5092   5.924   0.819   2.897  0.7285 -0.1539 -0.4024
25822WAT     H1 5093   5.974   0.833   2.817 -0.3186 -0.8807 -1.1935
25822WAT     H2 5094   5.946   0.895   2.952  0.0449  1.3232 -2.0833
25822WAT    EPW 5095   5.934   0.831   2.894  0.5004 -0.0549 -0.7284
25823WAT      O 5096   8.715   3.998   1.483 -0.0256 -0.6578 -0.5542
25823WAT     H1 5097   8.710   4.091   1.504 -0.0013 -1.1866  2.1397
25823WAT     H2 5098   8.624   3.968   1.485  0.1640 -1.2479  1.7795
25823WAT    EPW 5099   8.702   4.007   1.486  0.0019 -0.8054  0.1090
25824WAT      O 5100  10.329   5.250   7.427  0.1898 -1.0961 -0.0398
25824WAT     H1 5101  10.304   5.341   7.444  1.6378 -0.7752  0.5452
25824WAT     H2 5102  10.259   5.215   7.373 -1.7891 -0.4577  1.9732
25824WAT    EPW 5103  10.317   5.257   7.422  0.1192 -0.9699  0.3030
25825WAT      O 5104   8.539   5.162   2.663 -0.0460  0.0538  1.0809
25825WAT     H1 5105   8.474   5.103   2.624  1.4343 -2.0887  1.6830
25825WAT     H2 5106   8.583   5.109   2.730  1.9541  1.5709  1.0758
25825WAT    EPW 5107   8.536   5.147   2.666  0.4134 -0.0286  1.1595
25826WAT      O 5108   1.147   5.067   5.062 -0.0091 -0.0054  0.3848
25826WAT     H1 5109   1.228   5.020   5.082  1.0357  0.7425 -1.8365
25826WAT     H2 5110   1.173   5.159   5.058 -1.5338  0.5486  2.2165
25826WAT    EPW 5111   1.161   5.073   5.064 -0.0723  0.1664  0.3338
25827WAT      O 5112   2.249   8.705   6.175  0.6790  0.4270  0.4881
25827WAT     H1 5113   2.276   8.794   6.200  1.0891  0.6402 -0.6406
25827WAT     H2 5114   2.319   8.649   6.207  1.1620  0.6861 -0.1018
25827WAT    EPW 5115   2.262   8.709   6.183  0.7969  0.4888  0.2613
25828WAT      O 5116   4.961   0.535   2.224  0.2102  0.2365 -0.3066
25828WAT     H1 5117   4.936   0.493   2.307  0.7111  1.6137  0.5743
25828WAT     H2 5118   5.055   0.548   2.232  0.4141 -0.4018 -1.4849
25828WAT    EPW 5119   4.970   0.531   2.236  0.3030  0.3340 -0.3458
25829WAT      O 5120   0.828   7.584   5.164 -0.0694 -0.3803 -0.0499
25829WAT     H1 5121   0.866   7.501   5.191 -0.4717  0.0034  1.8419
25829WAT     H2 5122   0.798   7.624   5.245 -1.2692  0.9344 -1.0915
25829WAT    EPW 5123   0.829   7.579   5.178 -0.2807 -0.1562  0.0620
25830WAT      O 5124   8.662   6.590   4.119 -0.6936  0.0670  0.2997
25830WAT     H1 5125   8.716   6.587   4.040 -0.3259  1.1875  0.4778
25830WAT     H2 5126   8.582   6.636   4.092 -0.1831  1.2638  0.7731
25830WAT    EPW 5127   8.658   6.596   4.105 -0.5779  0.3726  0.3855
25831WAT      O 5128   2.049   9.032   5.360 -0.9356 -0.2745  0.2389
25831WAT     H1 5129   2.010   9.119   5.356  0.3851  0.4688  2.3583
25831WAT     H2 5130   2.129   9.039   5.308 -1.1896 -0.4640 -0.1905
25831WAT    EPW 5131   2.054   9.044   5.352 -0.7949 -0.2012  0.4621
25832WAT      O 5132   6.258   7.338   3.218 -0.0620 -0.2940 -0.6376
25832WAT     H1 5133   6.278   7.297   3.302 -2.4208 -1.1666 -0.4182
25832WAT     H2 5134   6.250   7.431   3.237  1.5626 -0.1757 -0.3766
25832WAT    EPW 5135   6.259   7.344   3.231 -0.1588 -0.3934 -0.5742
25833WAT      O 5136   4.748   6.460   4.475 -0.2929 -0.2234 -0.6945
25833WAT     H1 5137   4.793   6.529   4.523 -1.2284  1.7163 -2.4613
25833WAT     H2 5138   4.656   6.486   4.476 -1.2855 -3.1797  1.3252
25833WAT    EPW 5139   4.742   6.473   4.482 -0.5472 -0.3574 -0.6611
25834WAT      O 5140   4.122   8.296   3.673  0.6107  0.1684  0.1200
25834WAT     H1 5141   4.195   8.266   3.619  1.8031  3.2582 -0.1588
25834WAT     H2 5142   4.086   8.371   3.625 -0.3851  0.9835  2.0501
25834WAT    EPW 5143   4.127   8.302   3.659  0.6366  0.6833  0.3376
25835WAT      O 5144   9.811   7.450   2.996  0.0776 -0.9267 -0.4617
25835WAT     H1 5145   9.747   7.501   2.947  0.2590 -0.5307 -0.2905
25835WAT     H2 5146   9.820   7.369   2.947 -1.0751 -1.2809 -0.1080
25835WAT    EPW 5147   9.804   7.446   2.983 -0.0510 -0.9212 -0.3926
25836WAT      O 5148   2.445   9.982   5.662 -0.1653  0.0513 -0.0027
25836WAT     H1 5149   2.469   9.894   5.632  1.1352  0.4581 -0.2385
25836WAT     H2 5150   2.504   9.999   5.735 -2.3438 -0.3644  1.9488
25836WAT    EPW 5151   2.456   9.973   5.668 -0.2810  0.0505  0.2236
25837WAT      O 5152  10.829   6.730   4.589 -0.0045 -0.1549  0.0225
25837WAT     H1 5153  10.755   6.674   4.563  0.2377 -0.9265  0.9324
25837WAT     H2 5154  10.897   6.709   4.525  0.3875 -1.5982  0.8592
25837WAT    EPW 5155  10.828   6.720   4.577  0.0796 -0.4470  0.2530
25838WAT      O 5156   3.589   7.701   4.977 -0.4795  0.4750  0.2761
25838WAT     H1 5157   3.495   7.699   4.996 -0.5038  0.0889  0.1018
25838WAT     H2 5158   3.596   7.677   4.885 -0.1397 -0.4818  0.5398
25838WAT    EPW 5159   3.577   7.698   4.968 -0.4379  0.2978  0.2878
25839WAT      O 5160  10.400   6.128   6.473 -1.0074  0.8002 -0.2466
25839WAT     H1 5161  10.467   6.065   6.501 -0.7397  0.0665 -2.3463
25839WAT     H2 5162  10.326   6.074   6.446 -1.4161  1.4695 -0.4839
25839WAT    EPW 5163  10.399   6.112   6.473 -1.0262  0.7918 -0.5550
25840WAT      O 5164   2.870   4.002   7.659  0.7509 -0.0765  0.4050
25840WAT     H1 5165   2.832   3.973   7.576  1.1888  0.1573  0.1192
25840WAT     H2 5166   2.944   4.056   7.633 -1.3321  3.2532  0.8396
25840WAT    EPW 5167   2.875   4.005   7.644  0.5341  0.3934  0.4249
25841WAT      O 5168   4.327   8.487   6.793  0.2191 -1.1513  0.3008
25841WAT     H1 5169   4.292   8.438   6.867  0.6572 -0.3516  1.0617
25841WAT     H2 5170   4.417   8.454   6.784  0.3398 -0.8716  0.4729
25841WAT    EPW 5171   4.335   8.476   6.802  0.2930 -1.0090  0.4237
25842WAT      O 5172   9.099   1.628   0.078  0.6571 -0.2929 -0.6704
25842WAT     H1 5173   9.127   1.574   0.004  1.1326 -0.9955  0.0065
25842WAT     H2 5174   9.124   1.578   0.156 -1.6866 -0.5400 -0.0013
25842WAT    EPW 5175   9.106   1.614   0.079  0.4115 -0.4182 -0.4929
25843WAT      O 5176   1.304   4.136   3.702  0.4757 -0.9643  0.1170
25843WAT     H1 5177   1.315   4.077   3.627 -1.9409 -0.3056 -0.8577
25843WAT     H2 5178   1.383   4.190   3.701 -0.1564  0.1476 -3.0836
25843WAT    EPW 5179   1.316   4.136   3.692  0.0736 -0.7305 -0.4338
25844WAT      O 5180   0.556   6.872   6.195  0.4021 -0.5698  0.0313
25844WAT     H1 5181   0.499   6.879   6.272 -0.3034 -0.3178 -0.4970
25844WAT     H2 5182   0.644   6.864   6.231  0.1831  0.4924  0.8617
25844WAT    EPW 5183   0.560   6.872   6.210  0.2801 -0.3967  0.0710
25845WAT      O 5184   0.783   7.032   5.168  0.1605  0.8621 -0.3502
25845WAT     H1 5185   0.789   7.072   5.081 -3.7385  0.7176 -0.8876
25845WAT     H2 5186   0.693   7.000   5.173  0.5842 -0.2266  3.3335
25845WAT    EPW 5187   0.772   7.033   5.157 -0.2978  0.6995  0.0646
25846WAT      O 5188   2.286   9.593   4.237 -0.3934  0.3738 -0.3839
25846WAT     H1 5189   2.273   9.658   4.306  1.3096  2.2705 -1.7087
25846WAT     H2 5190   2.374   9.558   4.253 -0.1695  0.4881 -1.2852
25846WAT    EPW 5191   2.296   9.597   4.248 -0.1392  0.6385 -0.6776
25847WAT      O 5192   0.334   9.452   7.799 -0.3580 -0.4700 -0.1483
25847WAT     H1 5193   0.246   9.421   7.816 -0.3840 -1.9385 -2.5263
25847WAT     H2 5194   0.353   9.511   7.872 -3.5979  0.5917 -0.0197
25847WAT    EPW 5195   0.325   9.456   7.811 -0.7887 -0.5240 -0.4451
25848WAT      O 5196   1.055   3.241   6.028  0.2644 -0.5065  0.6476
25848WAT     H1 5197   1.004   3.320   6.046 -1.0277 -1.4520  1.3309
25848WAT     H2 5198   1.140   3.273   6.000  0.2709  1.1168  2.3425
25848WAT    EPW 5199   1.059   3.256   6.026  0.0950 -0.4172  0.9615
25849WAT      O 5200   9.603   6.352   7.301  1.0571 -0.4019 -0.7338
25849WAT     H1 5201   9.518   6.312   7.320  1.0125 -1.0206 -2.0603
25849WAT     H2 5202   9.647   6.357   7.386  0.1310 -1.1132 -0.1896
25849WAT    EPW 5203   9.597   6.347   7.315  0.9289 -0.5774 -0.8371
25850WAT      O 5204   2.078   6.757   5.711 -0.5022  0.3784  0.2173
25850WAT     H1 5205   2.105   6.666   5.714 -3.2706 -0.6107 -1.0921
25850WAT     H2 5206   2.023   6.767   5.789 -1.7431  0.3135 -0.6206
25850WAT    EPW 5207   2.074   6.746   5.722 -1.0309  0.2394 -0.0658
25851WAT      O 5208   9.598   6.261   4.628  0.1883  0.1240  0.1916
25851WAT     H1 5209   9.621   6.282   4.719 -0.6812 -1.0609  0.7128
25851WAT     H2 5210   9.607   6.166   4.623 -0.3838  0.1176 -0.7850
25851WAT    EPW 5211   9.602   6.251   4.640 -0.0014 -0.0329  0.1316
25852WAT      O 5212   1.636   7.616   6.736 -0.0045 -0.3565 -0.8867
25852WAT     H1 5213   1.625   7.673   6.811  0.1771 -1.2355 -0.1699
25852WAT     H2 5214   1.729   7.593   6.735  0.4562  1.3378 -2.6726
25852WAT    EPW 5215   1.646   7.620   6.746  0.0801 -0.2487 -1.0278
25853WAT      O 5216  10.867   8.264   4.186  0.1349  0.3732 -0.9933
25853WAT     H1 5217  10.812   8.341   4.204 -0.4207 -0.2880  0.3196
25853WAT     H2 5218  10.916   8.287   4.108 -1.7545  1.1476 -2.0217
25853WAT    EPW 5219  10.866   8.277   4.178 -0.1884  0.3886 -0.9558
25854WAT      O 5220   2.826   7.928   2.431 -0.2448 -0.4605 -0.6170
25854WAT     H1 5221   2.897   7.886   2.382  1.1272 -0.6692  1.4030
25854WAT     H2 5222   2.855   8.019   2.442 -1.0288 -0.1479 -1.0671
25854WAT    EPW 5223   2.839   7.934   2.426 -0.1673 -0.4468 -0.4098
25855WAT      O 5224   4.112   7.501   6.542 -0.6431  0.2840 -0.3440
25855WAT     H1 5225   4.076   7.479   6.628  1.6136 -3.3192 -0.1100
25855WAT     H2 5226   4.072   7.439   6.482  3.1854 -2.5128 -0.4062
25855WAT    EPW 5227   4.102   7.490   6.545  0.1593 -0.5598 -0.3214
25856WAT      O 5228   4.720   0.238   5.751  0.2807  0.0347  0.2138
25856WAT     H1 5229   4.681   0.224   5.665 -0.1959  3.6052 -0.3189
25856WAT     H2 5230   4.814   0.227   5.738  0.0287 -2.5430  0.0681
25856WAT    EPW 5231   4.727   0.234   5.738  0.1845  0.1656  0.1245
25857WAT      O 5232   9.582   8.445   3.574  0.0890  0.9503  0.3212
25857WAT     H1 5233   9.527   8.376   3.537 -0.0069  0.7943  0.7439
25857WAT     H2 5234   9.647   8.463   3.507  1.5213 -1.1434  1.0547
25857WAT    EPW 5235   9.583   8.438   3.560  0.2646  0.6537  0.4736
25858WAT      O 5236   0.853   4.485   6.268  0.5386  0.1170  0.0194
25858WAT     H1 5237   0.825   4.566   6.310 -0.4203 -1.1031  1.8619
25858WAT     H2 5238   0.941   4.468   6.302  0.3793 -0.0668  0.3462
25858WAT    EPW 5239   0.861   4.493   6.278  0.3911 -0.0682  0.3054
25859WAT      O 5240   0.764   6.965   3.880 -0.4474  0.8167  0.9025
25859WAT     H1 5241   0.793   6.903   3.947 -2.4880 -1.7547 -0.3676
25859WAT     H2 5242   0.680   6.998   3.913 -1.3275 -0.2530 -0.1556
25859WAT    EPW 5243   0.757   6.961   3.893 -0.8326  0.3366  0.5955
25860WAT      O 5244   1.410   3.628   5.704  0.3759 -0.1245  0.4535
25860WAT     H1 5245   1.328   3.676   5.716  0.3056 -0.2514  0.4760
25860WAT     H2 5246   1.385   3.548   5.659  0.8573  1.1932 -2.4245
25860WAT    EPW 5247   1.396   3.624   5.700  0.4300  0.0324  0.0768
25861WAT      O 5248   3.401   8.776   6.644  0.0981 -0.0797  0.7153
25861WAT     H1 5249   3.412   8.812   6.732 -0.0912  2.0782 -0.0898
25861WAT     H2 5250   3.473   8.815   6.593 -2.2814  2.2999 -1.0879
25861WAT    EPW 5251   3.412   8.786   6.649 -0.2407  0.5183  0.3710
25862WAT      O 5252   0.241   7.586   3.087  0.6252  0.3954 -0.3602
25862WAT     H1 5253   0.150   7.567   3.110  0.5144 -0.1575 -1.1992
25862WAT     H2 5254   0.289   7.577   3.170 -0.1469  1.2071  0.1910
25862WAT    EPW 5255   0.236   7.582   3.101  0.5087  0.4294 -0.3982
25863WAT      O 5256   3.975   7.519   3.505 -0.4495 -0.6484  0.3168
25863WAT     H1 5257   3.910   7.586   3.482  1.3342  0.3452 -2.4085
25863WAT     H2 5258   3.927   7.436   3.500 -2.0018  0.2047  0.5911
25863WAT    EPW 5259   3.960   7.517   3.501 -0.4189 -0.4046 -0.0067
25864WAT      O 5260   0.040   6.043   3.867 -0.3230  0.4451  0.4007
25864WAT     H1 5261   0.042   6.137   3.885  1.9546  0.7246 -0.8414
25864WAT     H2 5262   0.057   6.037   3.773 -1.7894 -1.2061  0.1818
25864WAT    EPW 5263   0.042   6.055   3.857 -0.2160  0.2644  0.2080
25865WAT      O 5264   2.476   6.217   7.258 -0.1030 -0.3347  0.0908
25865WAT     H1 5265   2.393   6.256   7.232 -1.4581 -1.5218  2.3752
25865WAT     H2 5266   2.541   6.285   7.240 -1.6111  0.8463 -1.1994
25865WAT    EPW 5267   2.474   6.231   7.252 -0.4807 -0.3352  0.2220
25866WAT      O 5268   0.715   5.242   2.395 -0.3329  0.0199  0.3063
25866WAT     H1 5269   0.715   5.318   2.337  0.6168 -1.7923 -2.2495
25866WAT     H2 5270   0.622   5.222   2.408 -0.6913 -1.2075 -3.1408
25866WAT    EPW 5271   0.702   5.249   2.389 -0.2549 -0.3808 -0.4854
25867WAT      O 5272   1.994   7.699   1.803 -0.0135 -0.0984  0.2282
25867WAT     H1 5273   1.945   7.628   1.762  1.1080 -0.6878 -0.1362
25867WAT     H2 5274   2.072   7.657   1.838  0.4703  0.8915  0.3764
25867WAT    EPW 5275   1.998   7.684   1.803  0.1981 -0.0455  0.1996
25868WAT      O 5276   8.887   8.083   4.487 -0.7916 -0.1089 -0.4432
25868WAT     H1 5277   8.803   8.086   4.532 -0.2532 -0.6364  0.6424
25868WAT     H2 5278   8.928   8.003   4.519 -0.9224 -1.2544 -2.9221
25868WAT    EPW 5279   8.881   8.073   4.497 -0.7386 -0.3295 -0.6268
25869WAT      O 5280   8.737   5.893   2.986  0.7103  0.9425 -0.4418
25869WAT     H1 5281   8.732   5.881   2.891 -0.0434  1.5507 -0.4908
25869WAT     H2 5282   8.670   5.959   3.005 -1.4626 -1.4554  0.9239
25869WAT    EPW 5283   8.727   5.900   2.976  0.3247  0.7064 -0.2682
25870WAT      O 5284   0.535   7.171   3.081 -0.2484  0.2217  0.6102
25870WAT     H1 5285   0.594   7.242   3.057 -3.0239  3.6118  2.8842
25870WAT     H2 5286   0.580   7.127   3.153  1.1015  0.1643 -0.2118
25870WAT    EPW 5287   0.549   7.174   3.087 -0.4365  0.6611  0.8017
25871WAT      O 5288  10.929   5.849   5.568  0.1821 -0.3981  0.3753
25871WAT     H1 5289  10.841   5.844   5.604 -0.4910  1.1963 -0.8907
25871WAT     H2 5290  10.986   5.810   5.635 -1.6570 -3.3513  0.3904
25871WAT    EPW 5291  10.925   5.843   5.581 -0.1497 -0.5774  0.2103
25872WAT      O 5292   0.834   7.250   4.515 -0.3675  0.6875  0.1670
25872WAT     H1 5293   0.757   7.208   4.476 -1.2077  0.5733  1.8490
25872WAT     H2 5294   0.839   7.336   4.472  0.8780 -0.6885 -2.7140
25872WAT    EPW 5295   0.825   7.256   4.504 -0.3141  0.4909  0.0088
25873WAT      O 5296   2.439   9.637   5.859 -0.0019  0.1600 -0.2050
25873WAT     H1 5297   2.385   9.570   5.816 -2.9006  3.1504 -1.6554
25873WAT     H2 5298   2.397   9.652   5.943 -0.5576  1.4237 -0.6862
25873WAT    EPW 5299   2.427   9.630   5.864 -0.4576  0.7210 -0.4597
25874WAT      O 5300   1.794   7.479   2.034  0.5133  0.6909  0.3234
25874WAT     H1 5301   1.767   7.490   1.943 -0.8333 -1.4412  0.4136
25874WAT     H2 5302   1.881   7.440   2.029  1.2822  2.3276  0.0209
25874WAT    EPW 5303   1.802   7.476   2.021  0.4371  0.6258  0.2955
25875WAT      O 5304  10.921   5.821   7.807  0.0718 -0.5883 -0.6477
25875WAT     H1 5305  10.854   5.794   7.744 -1.5952 -0.7565  1.0901
25875WAT     H2 5306  10.946   5.740   7.851 -0.2096 -0.2340  0.1919
25875WAT    EPW 5307  10.915   5.807   7.804 -0.1855 -0.5639 -0.3078
25876WAT      O 5308   8.861   8.575   7.070  0.0186  0.4558 -0.1680
25876WAT     H1 5309   8.926   8.594   7.139  0.0225 -0.9857  0.2528
25876WAT     H2 5310   8.871   8.648   7.009  0.4503  1.4591  1.0307
25876WAT    EPW 5311   8.871   8.587   7.071  0.0758  0.3982  0.0455
25877WAT      O 5312   9.673   6.990   4.300  0.2297 -0.4552 -0.1919
25877WAT     H1 5313   9.662   7.022   4.210 -0.3954 -1.3030 -0.4282
25877WAT     H2 5314   9.768   6.979   4.310  0.2229 -1.6850 -1.2339
25877WAT    EPW 5315   9.684   6.993   4.290  0.1464 -0.7291 -0.3605
25878WAT      O 5316   1.172   9.428   5.282 -0.5632  0.3282 -0.3407
25878WAT     H1 5317   1.129   9.512   5.297  0.7413  1.3012 -1.7246
25878WAT     H2 5318   1.182   9.423   5.187  0.1465 -1.0080 -0.2230
25878WAT    EPW 5319   1.167   9.439   5.271 -0.2975  0.2799 -0.5081
25879WAT      O 5320   2.455   6.861   4.418  0.2332 -0.7067 -0.3365
25879WAT     H1 5321   2.387   6.874   4.485 -0.7485  0.3810 -1.4853
25879WAT     H2 5322   2.535   6.893   4.458 -0.7128  1.8891 -0.3519
25879WAT    EPW 5323   2.456   6.867   4.432 -0.0211 -0.2210 -0.4900
25880WAT      O 5324   6.571   8.485   5.611  0.3053  0.0159 -0.0823
25880WAT     H1 5325   6.636   8.526   5.552  2.0658 -0.3659  1.4948
25880WAT     H2 5326   6.539   8.410   5.562  1.4873 -0.1081 -0.7126
25880WAT    EPW 5327   6.576   8.480   5.597  0.6933 -0.0510  0.0429
25881WAT      O 5328   9.249   8.568   5.123  0.7421  0.0171  0.8540
25881WAT     H1 5329   9.341   8.559   5.099  0.5564 -0.8179  0.4186
25881WAT     H2 5330   9.201   8.533   5.048  0.1082 -1.0858  1.7335
25881WAT    EPW 5331   9.254   8.562   5.110  0.6337 -0.2384  0.9127
25882WAT      O 5332   3.022   7.116   5.565  0.1055 -0.6196 -0.8033
25882WAT     H1 5333   2.983   7.197   5.598  2.2665  0.4042 -0.6085
25882WAT     H2 5334   2.952   7.051   5.575 -2.1472  1.4151 -2.1502
25882WAT    EPW 5335   3.007   7.118   5.571  0.0935 -0.2162 -0.9553
25883WAT      O 5336   1.174   7.040   4.550 -0.1303 -0.6671  0.1314
25883WAT     H1 5337   1.167   7.136   4.555 -1.4441 -0.7410  0.0015
25883WAT     H2 5338   1.142   7.018   4.463  1.4763 -1.1395 -0.3697
25883WAT    EPW 5339   1.169   7.050   4.539 -0.0917 -0.7393  0.0479
25884WAT      O 5340   2.494   7.708   8.908 -0.3037 -0.9889 -0.4561
25884WAT     H1 5341   2.549   7.659   8.848  0.5136 -0.8405  0.1502
25884WAT     H2 5342   2.469   7.786   8.859  0.2725 -0.9178 -0.6465
25884WAT    EPW 5343   2.498   7.712   8.894 -0.1200 -0.9601 -0.4010
25885WAT      O 5344  10.924   6.488   4.408  0.2379 -0.3125  0.2193
25885WAT     H1 5345  10.914   6.394   4.392  0.6118 -0.7798  2.4018
25885WAT     H2 5346  11.006   6.511   4.365 -0.5576 -0.6390 -1.5459
25885WAT    EPW 5347  10.933   6.479   4.401  0.1826 -0.4175  0.2744
25886WAT      O 5348  10.818   7.068   2.455 -0.5888 -0.0692 -0.2402
25886WAT     H1 5349  10.794   7.020   2.534  0.4426  0.7872  0.6351
25886WAT     H2 5350  10.913   7.072   2.458 -0.3166 -2.1395 -2.8482
25886WAT    EPW 5351  10.827   7.062   2.466 -0.4172 -0.2294 -0.4689
25887WAT      O 5352   5.296   0.078   7.352 -0.9466  0.8661  0.3761
25887WAT     H1 5353   5.311   0.109   7.442 -0.8406 -1.2473  1.1624
25887WAT     H2 5354   5.320  -0.015   7.356 -2.8970  0.2341 -1.3337
25887WAT    EPW 5355   5.301   0.070   7.365 -1.1897  0.5040  0.2542
25888WAT      O 5356   8.865   5.528   5.175 -0.0206  0.0083  0.3845
25888WAT     H1 5357   8.821   5.529   5.090  1.0467  0.5922 -0.1859
25888WAT     H2 5358   8.801   5.489   5.235 -1.9351  2.2889 -0.0344
25888WAT    EPW 5359   8.851   5.523   5.171 -0.1321  0.3862  0.2542
25889WAT      O 5360   3.413   1.366   4.423 -0.1496 -0.3055 -0.4977
25889WAT     H1 5361   3.463   1.360   4.504 -0.8013 -0.0718 -0.0678
25889WAT     H2 5362   3.379   1.278   4.408 -1.8263  0.0981  0.6707
25889WAT    EPW 5363   3.415   1.354   4.431 -0.4567 -0.2214 -0.2871
25890WAT      O 5364   2.495   7.489   1.784  0.6840 -0.0402 -0.7522
25890WAT     H1 5365   2.501   7.515   1.693  1.7269  2.9505  0.0531
25890WAT     H2 5366   2.565   7.425   1.796 -1.5200 -3.0561 -2.6802
25890WAT    EPW 5367   2.505   7.484   1.774  0.5307 -0.0436 -0.9003
25891WAT      O 5368   1.897   7.883   7.163 -0.2336  0.6614  0.0046
25891WAT     H1 5369   1.832   7.821   7.196  0.6561 -0.2394  0.0815
25891WAT     H2 5370   1.972   7.872   7.220  0.6398  0.4293 -1.1469
25891WAT    EPW 5371   1.898   7.873   7.175 -0.0011  0.5121 -0.1369
25892WAT      O 5372   1.766   6.619   5.162 -0.3713  0.5253  0.5640
25892WAT     H1 5373   1.777   6.536   5.116  1.9086  1.3838 -0.5805
25892WAT     H2 5374   1.699   6.601   5.228 -0.9188 -1.8273 -0.5309
25892WAT    EPW 5375   1.758   6.606   5.165 -0.1428  0.3281  0.2687
25893WAT      O 5376  10.840   4.874   3.836 -0.2662 -0.5784  0.1715
25893WAT     H1 5377  10.876   4.919   3.760  3.0186 -0.8813  1.3750
25893WAT     H2 5378  10.811   4.789   3.803  0.1062 -0.2936 -0.9253
25893WAT    EPW 5379  10.841   4.869   3.822  0.2165 -0.5808  0.1855
25894WAT      O 5380  10.294   9.142   7.954  0.5792  0.3342 -0.1971
25894WAT     H1 5381  10.372   9.127   8.009 -0.6298  1.7089  2.0652
25894WAT     H2 5382  10.326   9.194   7.881  1.3980  3.7452  2.3482
25894WAT    EPW 5383  10.309   9.147   7.952  0.5274  0.9656  0.4370
25895WAT      O 5384   9.786   8.003   4.992  0.2266 -0.0869  0.0760
25895WAT     H1 5385   9.772   8.018   4.898 -1.2456  2.9116  0.6448
25895WAT     H2 5386   9.872   8.039   5.009 -0.6234  2.0199  0.2636
25895WAT    EPW 5387   9.795   8.009   4.982 -0.0796  0.5860  0.1757
25896WAT      O 5388   5.960   0.585   7.032  0.1758 -0.0590  0.1783
25896WAT     H1 5389   5.994   0.496   7.041 -0.8369 -0.6324 -1.2694
25896WAT     H2 5390   6.036   0.642   7.045  1.1688 -1.2061 -0.4820
25896WAT    EPW 5391   5.975   0.581   7.035  0.1733 -0.2859 -0.0997
25897WAT      O 5392   3.435   4.092   5.747  0.2879 -0.0829  0.3225
25897WAT     H1 5393   3.529   4.088   5.729  0.0352 -2.0233 -0.8613
25897WAT     H2 5394   3.408   4.000   5.750 -2.1692  0.3436 -2.8901
25897WAT    EPW 5395   3.444   4.080   5.745 -0.0696 -0.2825 -0.2573
25898WAT      O 5396   2.998   7.829   6.985 -0.2321  0.4707 -0.3387
25898WAT     H1 5397   2.950   7.748   7.004  1.0290 -0.0722  0.6803
25898WAT     H2 5398   3.090   7.807   7.000  0.2162  1.8777 -0.8279
25898WAT    EPW 5399   3.004   7.816   6.990 -0.0067  0.5846 -0.2687
25899WAT      O 5400  10.969   3.905   7.201  0.2319 -0.4779 -0.4852
25899WAT     H1 5401  10.881   3.944   7.202 -0.0335 -0.9688 -1.8741
25899WAT     H2 5402  10.989   3.890   7.293 -1.2018 -0.4800 -0.1399
25899WAT    EPW 5403  10.960   3.908   7.213  0.0076 -0.5428 -0.6227
25900WAT      O 5404   3.889   0.723   6.781  0.6575  0.3494  0.3565
25900WAT     H1 5405   3.928   0.675   6.708 -0.0490  0.9387 -0.4303
25900WAT     H2 5406   3.962   0.739   6.841  2.4437  3.8425 -2.3223
25900WAT    EPW 5407   3.904   0.719   6.779  0.7999  0.8878 -0.1004
25901WAT      O 5408   4.132   6.503   3.803  0.4313  0.4969  0.4061
25901WAT     H1 5409   4.054   6.493   3.749 -0.4792 -0.4919  1.8143
25901WAT     H2 5410   4.126   6.431   3.867  1.7746  1.2267  1.4079
25901WAT    EPW 5411   4.121   6.492   3.805  0.4883  0.4628  0.7238
25902WAT      O 5412   1.190   2.903   4.413 -0.4002  0.0762 -1.2574
25902WAT     H1 5413   1.253   2.971   4.387  1.0200 -1.2439 -1.4062
25902WAT     H2 5414   1.166   2.859   4.332 -0.7387 -0.0954 -1.0693
25902WAT    EPW 5415   1.195   2.906   4.399 -0.2576 -0.1205 -1.2522
25903WAT      O 5416   2.573   1.884   2.608  0.2947 -0.5969 -0.0718
25903WAT     H1 5417   2.487   1.865   2.645 -0.6180 -0.0656 -1.8048
25903WAT     H2 5418   2.600   1.966   2.651 -1.7990  1.3053 -2.0720
25903WAT    EPW 5419   2.565   1.893   2.618 -0.1017 -0.2759 -0.5642
25904WAT      O 5420   6.677   0.664   4.504 -0.6060 -0.5381 -0.0051
25904WAT     H1 5421   6.588   0.674   4.539 -0.6538  0.1975 -0.3278
25904WAT     H2 5422   6.711   0.585   4.548 -1.6610 -1.2372 -0.3927
25904WAT    EPW 5423   6.670   0.655   4.514 -0.7513 -0.5333 -0.0987
25905WAT      O 5424   2.811   0.142   6.607  0.1115 -0.6265 -0.3018
25905WAT     H1 5425   2.762   0.087   6.544 -0.9473 -0.2560  0.1698
25905WAT     H2 5426   2.837   0.219   6.556  0.1656 -0.8069 -0.5499
25905WAT    EPW 5427   2.808   0.145   6.592 -0.0209 -0.6014 -0.2723
25906WAT      O 5428   6.346   8.076   3.762 -0.3805  0.0859  0.0045
25906WAT     H1 5429   6.300   7.992   3.765  1.4277 -1.0278 -1.2795
25906WAT     H2 5430   6.408   8.072   3.835 -0.3901  0.3700  0.0299
25906WAT    EPW 5431   6.348   8.064   3.772 -0.1435 -0.0229 -0.1615
25907WAT      O 5432  10.986   6.895   2.895 -0.0055 -0.1523 -0.9241
25907WAT     H1 5433  11.066   6.935   2.929 -0.9771 -0.4369  1.9798
25907WAT     H2 5434  10.972   6.819   2.951 -2.1082 -0.3263 -1.5952
25907WAT    EPW 5435  10.995   6.890   2.907 -0.4110 -0.2131 -0.6297
25908WAT      O 5436   7.994   7.010   3.484 -0.2266 -0.1370  0.1192
25908WAT     H1 5437   7.925   6.951   3.453 -2.0803 -0.3230  3.9054
25908WAT     H2 5438   7.999   6.992   3.578  0.6374  4.1701  1.1093
25908WAT    EPW 5439   7.985   7.000   3.492 -0.3572  0.4065  0.7491
25909WAT      O 5440   0.972   4.322   5.334 -0.5750 -0.3630 -0.3478
25909WAT     H1 5441   0.984   4.265   5.409 -1.9803 -0.3600 -0.0890
25909WAT     H2 5442   1.037   4.292   5.270  2.6723  1.4581  1.8181
25909WAT    EPW 5443   0.982   4.310   5.335 -0.3321 -0.1221 -0.0279
25910WAT      O 5444   2.340  10.232   5.652 -0.2344 -0.1516  0.1027
25910WAT     H1 5445   2.322  10.267   5.565 -1.6284 -1.0407 -0.0011
25910WAT     H2 5446   2.388  10.151   5.636 -0.1214 -0.0995  0.1792
25910WAT    EPW 5447   2.344  10.226   5.638 -0.4034 -0.2618  0.0992
25911WAT      O 5448   3.380   8.331   7.015 -0.3295  0.0222 -0.0207
25911WAT     H1 5449   3.363   8.264   7.081  1.1439  0.3754  0.7632
25911WAT     H2 5450   3.295   8.372   7.000 -0.8993 -0.8039  0.8298
25911WAT    EPW 5451   3.366   8.328   7.022 -0.2103 -0.0396  0.1945
25912WAT      O 5452   2.765   7.278   4.743  0.1798  0.5925  0.5848
25912WAT     H1 5453   2.780   7.352   4.802 -0.6770  2.6630 -1.6191
25912WAT     H2 5454   2.853   7.250   4.716  0.4966  1.7767  0.3500
25912WAT    EPW 5455   2.779   7.284   4.747  0.1087  1.0216  0.2632
25913WAT      O 5456   0.235   5.817   3.292 -0.8352  0.7963 -0.0019
25913WAT     H1 5457   0.315   5.811   3.240 -2.1194 -0.5515 -1.9672
25913WAT     H2 5458   0.254   5.767   3.371  1.0278  2.5446  0.7468
25913WAT    EPW 5459   0.248   5.810   3.296 -0.7589  0.8488 -0.1622
25914WAT      O 5460   0.569   6.476   2.800  0.1835  0.7051 -0.5635
25914WAT     H1 5461   0.585   6.445   2.889 -1.4338 -0.7455 -0.7036
25914WAT     H2 5462   0.650   6.520   2.774  1.3448 -0.4192  0.9693
25914WAT    EPW 5463   0.582   6.477   2.808  0.1233  0.3655 -0.3798
25915WAT      O 5464   2.742   6.260   3.976  0.1984  0.0444 -0.0619
25915WAT     H1 5465   2.784   6.338   3.938 -0.1887  0.1794 -0.2153
25915WAT     H2 5466   2.660   6.292   4.012  0.2102 -0.2286  0.2095
25915WAT    EPW 5467   2.737   6.275   3.976  0.1489  0.0262 -0.0463
25916WAT      O 5468   8.323   7.633   5.341 -0.2145 -0.7511  0.6916
25916WAT     H1 5469   8.300   7.629   5.249 -0.2295  0.8301  0.6069
25916WAT     H2 5470   8.361   7.547   5.360 -0.5158 -1.2092 -0.6883
25916WAT    EPW 5471   8.325   7.621   5.332 -0.2565 -0.6030  0.4988
25917WAT      O 5472   1.739   7.212   4.779 -0.1291  0.4545  0.2024
25917WAT     H1 5473   1.783   7.226   4.863  0.4450 -2.0670  0.4138
25917WAT     H2 5474   1.780   7.133   4.744 -0.7658  1.0997 -2.2003
25917WAT    EPW 5475   1.751   7.203   4.786 -0.1374  0.2072 -0.0865
25918WAT      O 5476   3.608  10.363   7.668 -0.1607 -0.1452 -0.4760
25918WAT     H1 5477   3.543  10.407   7.612  0.7564 -3.1966 -4.3973
25918WAT     H2 5478   3.556  10.313   7.731 -1.7123 -1.4036 -2.6148
25918WAT    EPW 5479   3.593  10.362   7.669 -0.2444 -0.7137 -1.2755
25919WAT      O 5480   1.615   5.548   5.750  0.1531 -0.0402 -0.0942
25919WAT     H1 5481   1.573   5.461   5.747 -1.1359  0.4641  1.7270
25919WAT     H2 5482   1.709   5.529   5.746 -0.1317 -1.3804 -1.6340
25919WAT    EPW 5483   1.622   5.534   5.749 -0.0544 -0.1504 -0.0572
25920WAT      O 5484   1.944   6.452   5.303  0.3577  0.5635  0.1241
25920WAT     H1 5485   2.029   6.494   5.308  0.3610  0.5342  0.3353
25920WAT     H2 5486   1.881   6.524   5.296  0.2826  0.6623  1.5149
25920WAT    EPW 5487   1.947   6.467   5.303  0.3482  0.5729  0.3352
25921WAT      O 5488  10.993   9.874   3.577  0.8333 -0.6402 -0.2118
25921WAT     H1 5489  10.988   9.913   3.490  1.5240  1.1557  0.5128
25921WAT     H2 5490  10.902   9.855   3.600  0.6349 -1.0270 -1.2462
25921WAT    EPW 5491  10.980   9.876   3.568  0.8984 -0.4544 -0.2527
25922WAT      O 5492   0.288   7.042   7.610  0.1071 -0.0823 -0.2123
25922WAT     H1 5493   0.302   7.064   7.702  0.5349 -0.5035 -0.1748
25922WAT     H2 5494   0.269   7.126   7.568 -1.4801 -0.0415  0.5050
25922WAT    EPW 5495   0.287   7.056   7.617 -0.0459 -0.1323 -0.1128
25923WAT      O 5496   1.453   9.926   5.382 -0.3003  0.4357 -0.4447
25923WAT     H1 5497   1.396   9.958   5.312 -0.9867  0.2914  0.0457
25923WAT     H2 5498   1.454   9.831   5.370  0.3181  0.4779 -0.8080
25923WAT    EPW 5499   1.446   9.917   5.371 -0.3093  0.4225 -0.4280
25924WAT      O 5500   2.467   1.451   5.237  0.3549  0.0454 -0.3921
25924WAT     H1 5501   2.450   1.426   5.328 -1.5270  0.3605 -0.6070
25924WAT     H2 5502   2.500   1.540   5.242 -1.0786  0.5857 -0.0518
25924WAT    EPW 5503   2.469   1.459   5.250 -0.0824  0.1583 -0.3757
25925WAT      O 5504   2.810   8.201   6.158 -0.0659  0.1330 -0.0729
25925WAT     H1 5505   2.818   8.161   6.071 -0.7399  1.6363 -0.8608
25925WAT     H2 5506   2.899   8.230   6.179  0.0575 -0.0264 -0.3627
25925WAT    EPW 5507   2.823   8.200   6.149 -0.1384  0.3109 -0.2151
25926WAT      O 5508   0.605   8.645   3.898 -0.2579  0.2399  0.2326
25926WAT     H1 5509   0.554   8.721   3.925  0.9246  1.1275  0.0303
25926WAT     H2 5510   0.541   8.585   3.861 -1.3207  0.7842  1.1474
25926WAT    EPW 5511   0.590   8.647   3.897 -0.2421  0.4282  0.3265
25927WAT      O 5512   9.572  10.206   2.402  0.4189  0.2955 -0.4021
25927WAT     H1 5513   9.613  10.293   2.398  1.4094 -0.0198  1.6416
25927WAT     H2 5514   9.644  10.145   2.396 -0.1498 -0.3718 -0.5770
25927WAT    EPW 5515   9.587  10.210   2.401  0.4745  0.1659 -0.1556
25928WAT      O 5516   9.516   9.112   3.562  0.1703 -0.3029  0.2098
25928WAT     H1 5517   9.533   9.101   3.468  0.4906 -2.8047  0.4668
25928WAT     H2 5518   9.517   9.022   3.596 -1.7014  0.3968  2.3274
25928WAT    EPW 5519   9.519   9.098   3.554 -0.0343 -0.5407  0.5231
25929WAT      O 5520   2.407   8.738   5.911 -0.3777  0.0922 -0.2652
25929WAT     H1 5521   2.355   8.662   5.886 -0.6705  0.5802 -1.2184
25929WAT     H2 5522   2.347   8.793   5.961 -0.2640 -0.1454  0.1345
25929WAT    EPW 5523   2.392   8.735   5.914 -0.4013  0.1259 -0.3383
25930WAT      O 5524   9.213  10.190   4.320 -0.2451  0.0440  0.0681
25930WAT     H1 5525   9.185  10.271   4.278 -0.8027 -0.1794  0.0119
25930WAT     H2 5526   9.292  10.215   4.368 -1.1988  0.9668  1.2269
25930WAT    EPW 5527   9.220  10.204   4.321 -0.4439  0.1364  0.2134
25931WAT      O 5528   2.244   9.308   2.905  0.4337 -0.2875 -0.3196
25931WAT     H1 5529   2.168   9.251   2.917 -0.0411  0.1451 -1.1535
25931WAT     H2 5530   2.291   9.303   2.988 -0.1862 -1.0291  0.0008
25931WAT    EPW 5531   2.240   9.300   2.917  0.2892 -0.3281 -0.3872
25932WAT      O 5532   9.579   8.266   5.869 -0.1039 -0.2765  0.1783
25932WAT     H1 5533   9.516   8.210   5.915 -1.2263  0.4834 -0.3897
25932WAT     H2 5534   9.551   8.355   5.889  0.1244  0.0689 -0.9856
25932WAT    EPW 5535   9.567   8.270   5.878 -0.2222 -0.1307 -0.0498
25933WAT      O 5536   2.705   9.993   6.304  0.2118 -0.1010  0.6831
25933WAT     H1 5537   2.735   9.921   6.359  0.6846  0.1871  0.8114
25933WAT     H2 5538   2.634   9.956   6.252 -0.5741 -0.2460  1.8323
25933WAT    EPW 5539   2.700   9.979   6.304  0.1705 -0.0825  0.8516
25934WAT      O 5540   1.927   9.734   4.404 -0.0724  0.5285  0.2373
25934WAT     H1 5541   1.905   9.745   4.312 -1.2183  1.3042  0.5844
25934WAT     H2 5542   2.022   9.743   4.407  0.0256  0.0592 -0.9201
25934WAT    EPW 5543   1.936   9.737   4.392 -0.2106  0.5693  0.1304
25935WAT      O 5544   2.467   9.875   3.915 -0.0736  0.1676  0.2538
25935WAT     H1 5545   2.439   9.784   3.903  0.7601  0.0311 -0.8052
25935WAT     H2 5546   2.426   9.923   3.844  0.5228  0.3771  0.0417
25935WAT    EPW 5547   2.458   9.869   3.904  0.1150  0.1774  0.0861
25936WAT      O 5548   1.175  10.055   1.517  0.0376 -0.4340 -0.2597
25936WAT     H1 5549   1.189  10.131   1.461 -0.9073  0.5607  0.8092
25936WAT     H2 5550   1.152   9.984   1.456  0.4954  0.2274 -1.2326
25936WAT    EPW 5551   1.174  10.056   1.502 -0.0267 -0.2155 -0.2469
25937WAT      O 5552   3.030   9.180   8.022  0.2225  0.6650  0.2709
25937WAT     H1 5553   3.098   9.244   8.001  1.2695 -0.4783  0.0864
25937WAT     H2 5554   3.069   9.095   8.001  0.4175 -0.4229  4.3025
25937WAT    EPW 5555   3.044   9.178   8.016  0.3864  0.3705  0.7782
25938WAT      O 5556   1.768   8.358   3.302  0.0046  0.2019  0.9323
25938WAT     H1 5557   1.694   8.407   3.336 -1.3759 -1.5458  0.6039
25938WAT     H2 5558   1.748   8.346   3.209 -1.4116 -3.6174  1.5521
25938WAT    EPW 5559   1.756   8.363   3.294 -0.3642 -0.5317  0.9706
25939WAT      O 5560   4.619   7.597   6.161 -0.0380  0.3534 -0.4429
25939WAT     H1 5561   4.642   7.532   6.228 -0.1285 -0.1854 -0.9250
25939WAT     H2 5562   4.683   7.667   6.174  0.2513  0.0365 -0.1005
25939WAT    EPW 5563   4.631   7.597   6.172 -0.0117  0.2406 -0.4613
25940WAT      O 5564   2.637   9.575   4.911  0.5384  0.5193 -0.1256
25940WAT     H1 5565   2.660   9.585   4.819  1.9035 -0.6468  0.0454
25940WAT     H2 5566   2.547   9.542   4.910  0.1159  1.6586 -0.9796
25940WAT    EPW 5567   2.628   9.572   4.899  0.6628  0.5164 -0.2155
25941WAT      O 5568   2.617   1.948   6.799  0.3889 -0.1976  0.4509
25941WAT     H1 5569   2.628   1.871   6.744  2.0268 -1.0005  1.8066
25941WAT     H2 5570   2.598   2.019   6.737 -2.2870 -1.7973 -0.7552
25941WAT    EPW 5571   2.616   1.947   6.783  0.2521 -0.5144  0.4706
25942WAT      O 5572   3.617   9.928   5.022 -0.1329 -0.1826  0.4171
25942WAT     H1 5573   3.531   9.909   4.984 -0.4221  0.6205  0.6514
25942WAT     H2 5574   3.668   9.961   4.948 -0.8602  1.9011  0.7606
25942WAT    EPW 5575   3.612   9.930   5.007 -0.2670  0.1974  0.4933
25943WAT      O 5576   3.702   1.308   2.035  0.5875  0.0951  0.3249
25943WAT     H1 5577   3.619   1.332   1.994 -0.1909 -0.0379  1.7621
25943WAT     H2 5578   3.769   1.346   1.978 -0.5096  2.2235  0.3739
25943WAT    EPW 5579   3.700   1.316   2.022  0.3401  0.3583  0.5209
25944WAT      O 5580   0.731   8.005   4.743 -0.1029 -0.2254  0.3529
25944WAT     H1 5581   0.683   8.081   4.712  3.2174  1.3500 -1.5191
25944WAT     H2 5582   0.725   7.942   4.671  0.0185 -0.3065  0.4131
25944WAT    EPW 5583   0.724   8.007   4.729  0.3511 -0.0281  0.1140
25945WAT      O 5584   7.645   6.976   3.582  0.1056  0.0119  0.0242
25945WAT     H1 5585   7.639   6.898   3.636 -1.1174 -1.0862 -1.6078
25945WAT     H2 5586   7.704   6.951   3.510  0.1372  0.7659 -0.2214
25945WAT    EPW 5587   7.652   6.963   3.580 -0.0515 -0.0336 -0.2233
25946WAT      O 5588   4.123  10.299   4.301  0.0386  0.0030  0.2282
25946WAT     H1 5589   4.043  10.247   4.310  0.0390 -0.1500 -0.5735
25946WAT     H2 5590   4.095  10.389   4.317 -0.5385  0.0966 -1.1845
25946WAT    EPW 5591   4.109  10.304   4.305 -0.0374 -0.0048 -0.0639
25947WAT      O 5592   8.205   2.189   4.372  0.3183 -0.6351 -0.2065
25947WAT     H1 5593   8.268   2.119   4.355  1.6673  0.4447  0.0617
25947WAT     H2 5594   8.249   2.245   4.436 -0.9713  0.1235  0.0530
25947WAT    EPW 5595   8.219   2.187   4.378  0.3257 -0.3926 -0.1371
25948WAT      O 5596  10.673  10.225   6.644 -0.2911  0.3768 -0.6658
25948WAT     H1 5597  10.641  10.150   6.695  1.3798 -1.0468 -1.6118
25948WAT     H2 5598  10.703  10.287   6.710 -3.1469  1.0126  0.2042
25948WAT    EPW 5599  10.673  10.223   6.659 -0.4473  0.2728 -0.6757
25949WAT      O 5600   7.774   4.114   8.599 -0.8354 -0.5801  0.4648
25949WAT     H1 5601   7.699   4.162   8.636 -0.1170  0.3894  0.7280
25949WAT     H2 5602   7.834   4.104   8.673 -0.3990 -0.7223  0.0954
25949WAT    EPW 5603   7.772   4.119   8.614 -0.6828 -0.4711  0.4511
25950WAT      O 5604   2.717   4.920   6.319 -0.0890  0.4091  0.7107
25950WAT     H1 5605   2.681   4.832   6.308 -0.7885  0.8267 -0.4401
25950WAT     H2 5606   2.796   4.921   6.265 -0.4526  0.6977  0.1811
25950WAT    EPW 5607   2.722   4.909   6.311 -0.2291  0.5021  0.4892
25951WAT      O 5608  10.748   9.264   3.997  0.0102 -0.9175 -0.2420
25951WAT     H1 5609  10.657   9.273   4.024  0.1563 -0.3981  0.0873
25951WAT     H2 5610  10.788   9.209   4.064 -0.0319 -1.0516 -0.3267
25951WAT    EPW 5611  10.741   9.258   4.009  0.0238 -0.8659 -0.2100
25952WAT      O 5612   0.085   5.749   1.631 -0.8586  0.3970  0.1751
25952WAT     H1 5613   0.033   5.725   1.708 -1.2893  2.0891  0.4745
25952WAT     H2 5614   0.031   5.815   1.586 -0.1367  0.2211 -0.9882
25952WAT    EPW 5615   0.071   5.755   1.635 -0.8202  0.5968  0.0612
25953WAT      O 5616   3.185  10.114   3.201 -0.1992  0.6978 -0.5227
25953WAT     H1 5617   3.202  10.072   3.116  1.2666  0.8084 -0.3151
25953WAT     H2 5618   3.091  10.103   3.215 -0.2823 -0.2617 -1.6624
25953WAT    EPW 5619   3.175  10.107   3.192 -0.0168  0.5860 -0.6456
25954WAT      O 5620   6.188   0.768   4.491 -0.5887 -0.3296  0.5664
25954WAT     H1 5621   6.110   0.775   4.435 -1.5083  1.3758  1.9594
25954WAT     H2 5622   6.186   0.847   4.545  0.7165 -1.4827  2.4213
25954WAT    EPW 5623   6.177   0.780   4.491 -0.5379 -0.2568  0.9947
25955WAT      O 5624  10.757   9.958   4.365 -0.1437  0.5176 -0.5667
25955WAT     H1 5625  10.763  10.008   4.284  1.4090 -0.2229 -0.9497
25955WAT     H2 5626  10.839   9.909   4.369 -1.2313 -1.3521  0.2031
25955WAT    EPW 5627  10.768   9.958   4.355 -0.0825  0.1731 -0.5157
25956WAT      O 5628   9.595   7.451   5.254 -0.1021 -0.1792  0.9437
25956WAT     H1 5629   9.583   7.382   5.319 -0.8348  1.2982  2.4573
25956WAT     H2 5630   9.655   7.413   5.189  0.3594 -1.8455  2.2776
25956WAT    EPW 5631   9.601   7.437   5.254 -0.1378 -0.2038  1.3194
25957WAT      O 5632   4.361   9.853   2.052 -0.2086 -0.6240  0.0646
25957WAT     H1 5633   4.379   9.875   1.960  0.3552 -1.4152 -0.0174
25957WAT     H2 5634   4.447   9.845   2.093 -0.4191  2.1027  1.2872
25957WAT    EPW 5635   4.375   9.855   2.045 -0.1621 -0.3691  0.2151
25958WAT      O 5636   1.376   8.654   4.366 -0.5508 -0.7430  0.2983
25958WAT     H1 5637   1.322   8.712   4.419  1.3155  0.8473  0.5772
25958WAT     H2 5638   1.465   8.669   4.398  1.5367  3.5291 -5.8048
25958WAT    EPW 5639   1.381   8.663   4.378 -0.0293  0.0305 -0.4702
25959WAT      O 5640  10.208   8.319   7.123  0.0119 -0.9665  0.3317
25959WAT     H1 5641  10.248   8.234   7.104  0.1620 -0.8009 -0.1277
25959WAT     H2 5642  10.148   8.334   7.050 -0.3775 -0.8975  0.6620
25959WAT    EPW 5643  10.205   8.310   7.111 -0.0196 -0.9356  0.3147
25960WAT      O 5644   1.865   8.102   3.365  0.2257 -0.1753  0.1454
25960WAT     H1 5645   1.833   8.053   3.441 -2.2429 -1.1651 -1.4103
25960WAT     H2 5646   1.811   8.180   3.362  1.5800  0.8022  0.4280
25960WAT    EPW 5647   1.853   8.106   3.375  0.0787 -0.1769 -0.0224
25961WAT      O 5648   4.728   8.393   0.875 -0.5422  0.3521  0.0237
25961WAT     H1 5649   4.790   8.369   0.807  0.8047  0.4641  1.1659
25961WAT     H2 5650   4.680   8.468   0.838 -2.0427 -1.4767 -1.9878
25961WAT    EPW 5651   4.730   8.400   0.861 -0.5627  0.1254 -0.0910
25962WAT      O 5652   1.964   7.613   3.781  0.1839 -0.1094  0.0696
25962WAT     H1 5653   1.877   7.618   3.742  0.9293  0.5717 -1.5923
25962WAT     H2 5654   1.969   7.524   3.817 -0.4097 -0.9368 -1.7742
25962WAT    EPW 5655   1.954   7.602   3.781  0.2039 -0.1290 -0.3927
25963WAT      O 5656   6.200   0.263   4.871  0.0969 -0.1482  0.0380
25963WAT     H1 5657   6.265   0.254   4.941 -1.2781 -1.8456  1.1695
25963WAT     H2 5658   6.154   0.344   4.893  0.9253  0.3447  0.0001
25963WAT    EPW 5659   6.203   0.273   4.883  0.0246 -0.3071  0.1822
25964WAT      O 5660   7.632   9.801   6.952 -0.1513 -0.0164  0.4010
25964WAT     H1 5661   7.612   9.708   6.951 -0.7905  0.0907 -2.0210
25964WAT     H2 5662   7.706   9.811   6.892 -0.6447  1.1279 -0.0558
25964WAT    EPW 5663   7.639   9.790   6.944 -0.3006  0.1483  0.0212
25965WAT      O 5664   5.913   8.997   6.076 -1.1207 -0.3513 -0.4787
25965WAT     H1 5665   5.970   8.930   6.038 -0.5192  0.3912 -0.9085
25965WAT     H2 5666   5.855   8.949   6.135  1.2307 -0.9226  1.4920
25965WAT    EPW 5667   5.913   8.982   6.079 -0.7312 -0.3285 -0.2756
25966WAT      O 5668   2.860   9.852   5.494 -0.1635 -0.2149  0.4186
25966WAT     H1 5669   2.766   9.837   5.493 -0.1494 -0.3161 -0.6510
25966WAT     H2 5670   2.894   9.787   5.555 -0.7870 -0.1633  0.8274
25966WAT    EPW 5671   2.852   9.841   5.502 -0.2437 -0.2213  0.3314
25967WAT      O 5672   1.998   9.778   5.057 -0.2069 -0.6246 -0.4750
25967WAT     H1 5673   1.979   9.872   5.050 -1.4040 -0.9925 -2.8195
25967WAT     H2 5674   1.971   9.755   5.146 -1.5633  0.8939 -0.4571
25967WAT    EPW 5675   1.992   9.787   5.068 -0.5437 -0.4725 -0.7820
25968WAT      O 5676   4.236   1.250   3.885 -0.2688  1.0950 -0.4591
25968WAT     H1 5677   4.304   1.229   3.821 -1.3382  2.1758 -2.0412
25968WAT     H2 5678   4.227   1.346   3.880 -1.3567  1.0528  0.2696
25968WAT    EPW 5679   4.244   1.260   3.876 -0.5534  1.2319 -0.5716
25969WAT      O 5680   3.031   6.737   3.725 -0.1183 -0.1495  0.1856
25969WAT     H1 5681   3.076   6.784   3.794 -1.7994  1.7521  0.0837
25969WAT     H2 5682   2.982   6.668   3.771 -1.7013  1.4704  1.0429
25969WAT    EPW 5683   3.030   6.734   3.740 -0.5487  0.3152  0.2853
25970WAT      O 5684   1.944   9.492   2.519  0.1053 -0.3258  0.8638
25970WAT     H1 5685   1.876   9.436   2.481 -2.2859  1.9561  1.4850
25970WAT     H2 5686   1.903   9.533   2.595  2.4225  0.6917  1.6802
25970WAT    EPW 5687   1.930   9.490   2.524  0.0955  0.1092  1.0533
25971WAT      O 5688   1.315   1.908   7.641  0.5321 -0.3367  0.1437
25971WAT     H1 5689   1.306   1.963   7.564  1.6064  0.8652  0.8308
25971WAT     H2 5690   1.370   1.959   7.701  0.6826 -1.7114  1.2425
25971WAT    EPW 5691   1.321   1.922   7.639  0.6937 -0.3595  0.3793
25972WAT      O 5692   8.870   8.528   1.927 -0.3933 -0.0040 -0.3507
25972WAT     H1 5693   8.878   8.605   1.984 -0.7013  0.5228 -1.0145
25972WAT     H2 5694   8.796   8.547   1.870 -0.2311 -0.6291 -0.7839
25972WAT    EPW 5695   8.861   8.540   1.927 -0.4125 -0.0176 -0.4954
25973WAT      O 5696   4.868   7.274   5.626 -0.1731 -0.1663  0.2991
25973WAT     H1 5697   4.946   7.221   5.612  1.5358  2.1487  0.6168
25973WAT     H2 5698   4.843   7.304   5.539 -2.2062 -2.7345 -0.1362
25973WAT    EPW 5699   4.875   7.271   5.613 -0.2160 -0.2000  0.2837
25974WAT      O 5700   2.308   8.113   3.387  0.1030  0.5387 -0.3314
25974WAT     H1 5701   2.287   8.152   3.302 -1.0712  0.4034 -0.1187
25974WAT     H2 5702   2.223   8.105   3.431  0.7790  1.3998  1.2063
25974WAT    EPW 5703   2.294   8.117   3.382  0.0373  0.6347 -0.1005
25975WAT      O 5704   0.629   9.256   2.728  0.3287  0.4092  0.0680
25975WAT     H1 5705   0.625   9.208   2.811 -0.5287  0.2851 -0.0270
25975WAT     H2 5706   0.706   9.312   2.735 -2.1063  3.8287  2.8538
25975WAT    EPW 5707   0.638   9.257   2.740 -0.1055  0.8440  0.4228
25976WAT      O 5708   7.982   0.092   1.685 -0.2374 -0.8739  0.3115
25976WAT     H1 5709   7.913   0.028   1.672  0.4534 -1.1684 -2.6852
25976WAT     H2 5710   8.020   0.071   1.770 -4.5510  0.1454  2.7880
25976WAT    EPW 5711   7.978   0.081   1.695 -0.7155 -0.7783  0.2429
25977WAT      O 5712   2.975   9.458   2.947 -0.4870 -0.0203  0.4173
25977WAT     H1 5713   3.047   9.519   2.965 -1.9029  2.1111 -0.7714
25977WAT     H2 5714   2.903   9.513   2.917 -2.2393 -2.2012  0.3409
25977WAT    EPW 5715   2.975   9.473   2.945 -0.9049 -0.0272  0.2503
25978WAT      O 5716   3.147   5.844   6.527 -0.0667 -0.1587 -0.5270
25978WAT     H1 5717   3.150   5.919   6.468 -1.4230  0.1088 -0.2962
25978WAT     H2 5718   3.217   5.860   6.590 -0.0425  0.6815 -0.7607
25978WAT    EPW 5719   3.156   5.856   6.528 -0.2425 -0.0126 -0.5274
25979WAT      O 5720   2.981   6.198   4.372  0.3680  0.4297 -0.5825
25979WAT     H1 5721   2.988   6.184   4.277  0.2537  0.7954 -0.6453
25979WAT     H2 5722   3.067   6.174   4.406  0.7293  1.2523 -0.8996
25979WAT    EPW 5723   2.993   6.193   4.364  0.4005  0.5865 -0.6328
25980WAT      O 5724   5.495   8.965   3.150 -0.2583 -0.6514  0.3603
25980WAT     H1 5725   5.585   8.962   3.119 -0.2550  0.5219  0.2355
25980WAT     H2 5726   5.501   9.000   3.239 -0.7508  1.7421 -0.4688
25980WAT    EPW 5727   5.507   8.969   3.158 -0.3226 -0.1812  0.2345
25981WAT      O 5728  10.410   8.832   5.279 -0.4665 -0.9336 -0.1577
25981WAT     H1 5729  10.354   8.799   5.208 -0.0294 -1.1288 -0.4180
25981WAT     H2 5730  10.499   8.825   5.244 -0.4259  3.8220 -1.6632
25981WAT    EPW 5731  10.414   8.827   5.265 -0.4034 -0.3324 -0.3908
25982WAT      O 5732   7.829   0.418   4.822  0.4737  0.0325 -0.0643
25982WAT     H1 5733   7.781   0.426   4.740  1.5006 -3.4816 -1.1845
25982WAT     H2 5734   7.903   0.478   4.813 -0.5121  1.1684 -0.8063
25982WAT    EPW 5735   7.832   0.427   4.810  0.4792 -0.2811 -0.3097
25983WAT      O 5736   3.887   2.111   5.164 -0.2821  0.1320  0.1615
25983WAT     H1 5737   3.892   2.171   5.089 -0.7694  0.8965  0.7365
25983WAT     H2 5738   3.839   2.036   5.130  0.7763 -0.1830 -0.7172
25983WAT    EPW 5739   3.882   2.109   5.149 -0.2068  0.1912  0.1216
25984WAT      O 5740   0.559   8.925   3.060  0.1599 -0.5916  0.0118
25984WAT     H1 5741   0.489   8.925   3.126  1.6038  0.8472  1.6591
25984WAT     H2 5742   0.524   8.873   2.988 -2.3208 -0.5064  1.0504
25984WAT    EPW 5743   0.545   8.918   3.059  0.0232 -0.3905  0.3660
25985WAT      O 5744   0.517  10.273   6.556  0.0397  0.6310  0.0528
25985WAT     H1 5745   0.528  10.255   6.463 -0.8729  0.5416 -0.0450
25985WAT     H2 5746   0.438  10.225   6.581  0.7762 -0.0972  1.0870
25985WAT    EPW 5747   0.508  10.264   6.547  0.0165  0.5226  0.1764
25986WAT      O 5748  10.887   7.572   5.689 -0.2021 -0.3143 -0.1024
25986WAT     H1 5749  10.983   7.578   5.688 -0.2497  1.9487 -2.6137
25986WAT     H2 5750  10.864   7.590   5.780  1.7498 -0.5742  0.5055
25986WAT    EPW 5751  10.897   7.575   5.701  0.0491 -0.0503 -0.3536
25987WAT      O 5752   0.268   8.833   8.802 -0.3325  0.4998 -0.2101
25987WAT     H1 5753   0.211   8.837   8.725 -1.1199  2.1255  0.3992
25987WAT     H2 5754   0.288   8.925   8.821  2.8067 -0.0032 -0.5921
25987WAT    EPW 5755   0.263   8.846   8.795 -0.0223  0.6475 -0.1807
25988WAT      O 5756   2.543   8.525   4.891  0.6368  0.3524 -0.4930
25988WAT     H1 5757   2.519   8.599   4.836  1.0713 -0.6269 -2.0959
25988WAT     H2 5758   2.460   8.492   4.924  0.3024  0.6436 -1.0208
25988WAT    EPW 5759   2.529   8.530   4.888  0.6499  0.2613 -0.7741
25989WAT      O 5760   1.897   7.924   6.606  0.6806 -0.0487  0.3969
25989WAT     H1 5761   1.951   7.845   6.608  0.9647  0.1532  0.9961
25989WAT     H2 5762   1.827   7.906   6.670  0.6962  0.1504  0.4694
25989WAT    EPW 5763   1.895   7.911   6.615  0.7201  0.0043  0.4857
25990WAT      O 5764   2.459   8.225   6.750  0.3924  0.3344 -0.6722
25990WAT     H1 5765   2.452   8.314   6.715 -0.1884  1.0944  1.2468
25990WAT     H2 5766   2.385   8.217   6.810  0.0777 -1.6883 -1.2610
25990WAT    EPW 5767   2.448   8.235   6.753  0.2744  0.1683 -0.4969
25991WAT      O 5768  10.253   7.738   7.502  0.0326 -0.3244  0.1145
25991WAT     H1 5769  10.170   7.691   7.508  0.8524 -2.1476 -1.7088
25991WAT     H2 5770  10.232   7.816   7.452 -1.3260  1.4106  3.0903
25991WAT    EPW 5771  10.239   7.742   7.496 -0.0386 -0.3357  0.2663
25992WAT      O 5772   4.361   9.426   6.217 -0.4125  0.6199  0.2607
25992WAT     H1 5773   4.451   9.432   6.247 -1.0350  0.5672  2.2466
25992WAT     H2 5774   4.369   9.407   6.123  1.6242  0.0128  0.5008
25992WAT    EPW 5775   4.374   9.425   6.209 -0.2260  0.5326  0.5543
25993WAT      O 5776   0.789   9.442   2.029  0.2115 -0.0503 -0.2617
25993WAT     H1 5777   0.799   9.409   1.940 -3.6645 -1.4423 -0.3990
25993WAT     H2 5778   0.842   9.384   2.083  0.7910 -0.6405 -1.4305
25993WAT    EPW 5779   0.797   9.430   2.024 -0.2233 -0.3119 -0.4340
25994WAT      O 5780   3.409   9.919   7.607 -0.1484 -0.3721  0.2615
25994WAT     H1 5781   3.334   9.919   7.667  1.1947 -0.6013  2.0266
25994WAT     H2 5782   3.464   9.990   7.638  1.4196 -1.6110  0.4324
25994WAT    EPW 5783   3.406   9.928   7.619  0.2357 -0.5655  0.5169
25995WAT      O 5784  10.528   8.113   7.231 -0.0552 -0.2022 -0.0183
25995WAT     H1 5785  10.619   8.138   7.244 -0.5306  1.8126 -0.2237
25995WAT     H2 5786  10.491   8.108   7.319 -0.1007  0.4229 -0.0035
25995WAT    EPW 5787  10.535   8.115   7.244 -0.1240  0.1454 -0.0436
25996WAT      O 5788   3.481   8.577   5.520  0.1259  0.0260 -0.1865
25996WAT     H1 5789   3.495   8.582   5.614 -0.9591  1.9614 -0.0710
25996WAT     H2 5790   3.569   8.574   5.482  0.6430  1.4561  0.8254
25996WAT    EPW 5791   3.495   8.577   5.527  0.0510  0.4697 -0.0377
25997WAT      O 5792   1.046   8.348   3.712 -0.3212  0.1783  0.3045
25997WAT     H1 5793   1.013   8.433   3.684  0.6031 -0.2107 -2.2589
25997WAT     H2 5794   1.138   8.363   3.733 -0.0701 -0.2042 -0.4622
25997WAT    EPW 5795   1.054   8.361   3.711 -0.1662  0.0768 -0.1347
25998WAT      O 5796   9.210   9.371   4.839  0.0923 -0.2073  0.4051
25998WAT     H1 5797   9.261   9.296   4.806 -1.1330 -1.2782  0.8528
25998WAT     H2 5798   9.260   9.448   4.811 -0.2947 -1.0413 -2.9882
25998WAT    EPW 5799   9.224   9.371   4.831 -0.1206 -0.4582  0.0165
25999WAT      O 5800   4.060   0.162   6.485 -0.2323 -0.3895  0.4097
25999WAT     H1 5801   3.984   0.221   6.490  0.0624 -0.0985  3.1819
25999WAT     H2 5802   4.029   0.081   6.527  0.6885 -0.5970  0.6991
25999WAT    EPW 5803   4.046   0.159   6.492 -0.0718 -0.3785  0.8132
26000WAT      O 5804   8.805   9.191   5.861  0.5458 -0.0163 -0.5308
26000WAT     H1 5805   8.836   9.161   5.776  2.6354  1.1051 -0.2346
26000WAT     H2 5806   8.869   9.156   5.924  0.0234  0.6075  0.3730
26000WAT    EPW 5807   8.818   9.183   5.858  0.7520  0.2136 -0.3724
26001WAT      O 5808   0.989   9.167   5.786 -0.4206 -0.7148  0.7677
26001WAT     H1 5809   0.909   9.116   5.779  0.2637 -1.6842 -0.3393
26001WAT     H2 5810   1.059   9.107   5.759  0.6295  0.2444  1.2416
26001WAT    EPW 5811   0.988   9.153   5.782 -0.1919 -0.7162  0.6840
26002WAT      O 5812   3.905   7.640   4.842  0.3889 -0.0975 -0.2409
26002WAT     H1 5813   3.949   7.723   4.859  3.8383 -1.9368  0.8332
26002WAT     H2 5814   3.931   7.583   4.915 -3.5142 -1.6408  0.1995
26002WAT    EPW 5815   3.914   7.643   4.854  0.3290 -0.5438 -0.0410
26003WAT      O 5816   1.503   8.577   7.635  0.3273  0.2631  0.3173
26003WAT     H1 5817   1.526   8.512   7.702  1.7239  0.3412 -0.0501
26003WAT     H2 5818   1.411   8.597   7.652 -0.0386 -1.5210  0.6736
26003WAT    EPW 5819   1.494   8.571   7.646  0.4632  0.0377  0.3159
26004WAT      O 5820   8.829   0.981   0.398  0.3481  0.3116 -0.3996
26004WAT     H1 5821   8.812   0.896   0.438 -2.1073 -0.9225 -3.6576
26004WAT     H2 5822   8.916   1.005   0.429  0.9728 -3.1660  0.9807
26004WAT    EPW 5823   8.838   0.973   0.408  0.1068 -0.3099 -0.6472
26005WAT      O 5824   1.135   8.617   3.469 -0.6407 -0.2778 -0.0570
26005WAT     H1 5825   1.098   8.650   3.551  0.7525  0.0980  0.4421
26005WAT     H2 5826   1.216   8.666   3.457  0.7184 -2.3596 -0.0896
26005WAT    EPW 5827   1.141   8.628   3.478 -0.2776 -0.5031  0.0045
26006WAT      O 5828   4.368   2.111   2.699  0.2621 -0.5436  0.7593
26006WAT     H1 5829   4.406   2.189   2.739  0.4978  0.5678 -1.4640
26006WAT     H2 5830   4.436   2.044   2.705  1.7634  0.7088 -0.9952
26006WAT    EPW 5831   4.382   2.112   2.705  0.4911 -0.2319  0.2348
26007WAT      O 5832   4.635   0.022   2.885 -0.1073 -0.4758  0.3189
26007WAT     H1 5833   4.584   0.076   2.946 -4.3488 -2.0454 -1.4458
26007WAT     H2 5834   4.614   0.056   2.799  1.9106 -1.3100 -0.5832
26007WAT    EPW 5835   4.626   0.034   2.882 -0.4006 -0.7935 -0.0329
26008WAT      O 5836   7.780   1.497   2.402  0.2036  0.5276 -0.4166
26008WAT     H1 5837   7.818   1.538   2.480  1.2179 -1.0788 -0.0065
26008WAT     H2 5838   7.695   1.538   2.393 -1.1029 -0.9595  3.1045
26008WAT    EPW 5839   7.774   1.508   2.411  0.1650  0.1196  0.1020
26009WAT      O 5840   9.775   9.230   6.526  0.4479 -0.2137  0.4820
26009WAT     H1 5841   9.816   9.310   6.559 -0.3086  0.9579 -1.2362
26009WAT     H2 5842   9.835   9.199   6.458  0.2375 -0.5421  0.4430
26009WAT    EPW 5843   9.789   9.236   6.521  0.3204 -0.1020  0.2501
26010WAT      O 5844   7.234   0.441   6.250  0.1818 -0.4054  0.3473
26010WAT     H1 5845   7.167   0.373   6.243  1.2964 -1.4123 -1.7357
26010WAT     H2 5846   7.315   0.397   6.223  0.6987  2.0535 -2.6578
26010WAT    EPW 5847   7.236   0.426   6.245  0.3967 -0.2138 -0.3238
26011WAT      O 5848   9.443   7.711   3.534  0.4884 -0.4900 -0.1001
26011WAT     H1 5849   9.510   7.742   3.595  0.5834  0.3904 -0.6365
26011WAT     H2 5850   9.484   7.636   3.489  0.3267 -1.2990  1.0703
26011WAT    EPW 5851   9.458   7.705   3.536  0.4797 -0.4809 -0.0166
26012WAT      O 5852   0.751   5.903   3.151  0.0483  0.1545  0.3475
26012WAT     H1 5853   0.762   5.914   3.245  2.2444  4.0883 -0.1281
26012WAT     H2 5854   0.657   5.915   3.137 -0.6831 -2.6117  2.0700
26012WAT    EPW 5855   0.740   5.906   3.162  0.2415  0.3083  0.5120
26013WAT      O 5856   3.669   0.386   2.445 -0.3896  0.4257 -0.0957
26013WAT     H1 5857   3.649   0.356   2.534 -0.8998  0.8531 -0.0664
26013WAT     H2 5858   3.688   0.479   2.455 -0.2362  0.4298 -0.4063
26013WAT    EPW 5859   3.669   0.395   2.458 -0.4367  0.4826 -0.1328
26014WAT      O 5860   6.978   0.018   7.624 -0.0278  0.0940 -0.5779
26014WAT     H1 5861   6.981   0.016   7.720  0.2947 -1.0824 -0.6005
26014WAT     H2 5862   6.907   0.079   7.604 -0.5753 -0.1976  0.4133
26014WAT    EPW 5863   6.969   0.026   7.634 -0.0572 -0.0996 -0.4501
26015WAT      O 5864   6.427   0.021   6.118 -0.0278 -0.7215  0.1616
26015WAT     H1 5865   6.371  -0.034   6.173  0.5640 -0.4964  1.0104
26015WAT     H2 5866   6.401  -0.001   6.029 -1.8701 -0.2106  0.5127
26015WAT    EPW 5867   6.416   0.011   6.114 -0.1926 -0.6244  0.3200
26016WAT      O 5868   5.575   3.193   2.484 -0.7335 -0.2006 -0.2418
26016WAT     H1 5869   5.592   3.238   2.566  0.9224 -0.5523 -0.3680
26016WAT     H2 5870   5.488   3.154   2.495 -1.4458  1.5362  0.5126
26016WAT    EPW 5871   5.566   3.193   2.496 -0.6092 -0.0179 -0.1589
26017WAT      O 5872   9.042   9.296   4.565 -0.6114  0.1829  0.1113
26017WAT     H1 5873   9.079   9.304   4.478 -0.5098 -0.5973  0.0783
26017WAT     H2 5874   9.097   9.353   4.620 -1.3705  1.5777 -0.5216
26017WAT    EPW 5875   9.054   9.305   4.561 -0.6981  0.2637  0.0234
26018WAT      O 5876   2.103   8.453   3.003  0.3788  0.1338  0.6225
26018WAT     H1 5877   2.145   8.412   3.079  0.7149 -0.0438  0.3399
26018WAT     H2 5878   2.009   8.439   3.018  0.4948 -0.8747  0.4477
26018WAT    EPW 5879   2.096   8.446   3.015  0.4386 -0.0229  0.5622
26019WAT      O 5880   1.899   8.618   6.241  0.3394  0.2715 -0.4098
26019WAT     H1 5881   1.901   8.677   6.166  1.3096 -2.0781 -2.3323
26019WAT     H2 5882   1.974   8.560   6.228 -1.7327 -2.7411  0.1976
26019WAT    EPW 5883   1.909   8.618   6.230  0.1941 -0.4354 -0.5834
26020WAT      O 5884   1.861   9.597   3.884  0.0723 -0.2080 -0.0480
26020WAT     H1 5885   1.808   9.667   3.846 -0.3008  0.1985  1.1550
26020WAT     H2 5886   1.797   9.536   3.921  0.3918  0.3654  1.5578
26020WAT    EPW 5887   1.846   9.598   3.884  0.0653 -0.0792  0.3225
26021WAT      O 5888   4.352   0.468   3.363 -0.1900  0.0072 -0.3431
26021WAT     H1 5889   4.443   0.480   3.334 -0.5823  0.4293 -1.4373
26021WAT     H2 5890   4.301   0.465   3.282 -1.4077  1.7216  0.3087
26021WAT    EPW 5891   4.357   0.469   3.349 -0.4025  0.2890 -0.4016
26022WAT      O 5892   6.854   2.017   6.812 -0.0226 -1.3334  0.5293
26022WAT     H1 5893   6.854   1.922   6.818 -0.5345 -1.3896 -0.2101
26022WAT     H2 5894   6.947   2.041   6.807  0.2266 -1.6266  2.6846
26022WAT    EPW 5895   6.866   2.008   6.812 -0.0575 -1.3794  0.7160
26023WAT      O 5896   1.302   9.018   4.427 -0.1755  0.3572 -0.5205
26023WAT     H1 5897   1.275   8.938   4.473  0.3451 -0.5294 -1.7050
26023WAT     H2 5898   1.289   8.997   4.334 -2.6700  2.6241 -0.8115
26023WAT    EPW 5899   1.297   9.004   4.421 -0.4359  0.5398 -0.7153
26024WAT      O 5900   0.479   9.836   5.244  0.2253 -0.6196  0.2539
26024WAT     H1 5901   0.431   9.771   5.193  1.9211  1.0927 -3.9999
26024WAT     H2 5902   0.418   9.910   5.252  0.0383 -0.8002  0.5156
26024WAT    EPW 5903   0.464   9.837   5.238  0.4243 -0.4172 -0.2728
26025WAT      O 5904  10.219   9.832   4.172 -0.2797  0.4281 -0.3149
26025WAT     H1 5905  10.135   9.863   4.206 -0.4498  0.2307 -0.5532
26025WAT     H2 5906  10.219   9.738   4.191 -1.1190 -0.0385 -2.3525
26025WAT    EPW 5907  10.208   9.824   4.179 -0.4125  0.3400 -0.6146
26026WAT      O 5908   8.220   9.311   5.895 -0.1283 -0.1343 -0.0704
26026WAT     H1 5909   8.205   9.404   5.908 -0.6875  0.2360 -2.8390
26026WAT     H2 5910   8.308   9.306   5.859 -0.7149 -0.4704 -1.5250
26026WAT    EPW 5911   8.230   9.322   5.892 -0.2799 -0.1297 -0.6273
26027WAT      O 5912   1.829   7.104   5.250  0.1665 -0.3164  0.6482
26027WAT     H1 5913   1.886   7.071   5.319  0.5122  1.2672  1.1709
26027WAT     H2 5914   1.753   7.047   5.253  0.4072 -0.6124  1.9869
26027WAT    EPW 5915   1.827   7.092   5.260  0.2439 -0.1466  0.8936
26028WAT      O 5916   2.311   8.932   3.631  0.7534 -0.4490 -0.1658
26028WAT     H1 5917   2.406   8.945   3.639  0.6690  0.9755 -1.0659
26028WAT     H2 5918   2.299   8.901   3.542  0.3168  0.2693 -0.3705
26028WAT    EPW 5919   2.322   8.930   3.621  0.6849 -0.1669 -0.3115
26029WAT      O 5920   9.177   0.176   3.854  0.6636  0.2160  0.0306
26029WAT     H1 5921   9.229   0.232   3.911 -2.0552  0.5034  2.4487
26029WAT     H2 5922   9.233   0.100   3.837  1.9941  0.6421  2.1791
26029WAT    EPW 5923   9.191   0.173   3.859  0.4807  0.3101  0.6329
26030WAT      O 5924   1.056   9.018   6.586 -0.4811 -0.1457  0.4105
26030WAT     H1 5925   0.967   9.029   6.553 -0.1259  0.0256 -0.5000
26030WAT     H2 5926   1.052   9.054   6.675 -1.7667 -1.7964  1.0850
26030WAT    EPW 5927   1.043   9.024   6.594 -0.6039 -0.3409  0.3793
26031WAT      O 5928   3.061   0.671   3.609 -0.2483 -0.8595 -0.2523
26031WAT     H1 5929   3.105   0.587   3.608 -0.4877 -0.9877 -1.0907
26031WAT     H2 5930   3.129   0.734   3.585  0.3015 -0.5962  1.8357
26031WAT    EPW 5931   3.076   0.669   3.606 -0.2074 -0.8416 -0.0875
26032WAT      O 5932   1.454   9.625   5.875 -0.2991  1.2395  0.0513
26032WAT     H1 5933   1.468   9.716   5.849  1.6189  1.2262  0.8112
26032WAT     H2 5934   1.488   9.574   5.803  3.5048  1.2081  1.6208
26032WAT    EPW 5935   1.461   9.631   5.862  0.4556  1.2331  0.3586
26033WAT      O 5936   3.694   0.823   4.795 -0.4436  0.2820 -0.6988
26033WAT     H1 5937   3.740   0.863   4.721  1.2645 -4.1964 -2.4221
26033WAT     H2 5938   3.604   0.815   4.766 -0.1592  0.1345 -1.5657
26033WAT    EPW 5939   3.688   0.828   4.782 -0.1807 -0.3282 -1.0405
26034WAT      O 5940   1.966  10.027   4.921 -0.6268 -0.5815 -0.2083
26034WAT     H1 5941   1.916  10.046   4.841  1.6830  1.1866 -1.3774
26034WAT     H2 5942   2.024   9.955   4.896  0.3598  0.2211 -0.2973
26034WAT    EPW 5943   1.967  10.020   4.907 -0.1920 -0.2422 -0.3743
26035WAT      O 5944   5.919   1.992   4.380  0.2671 -0.5599  0.4386
26035WAT     H1 5945   5.938   1.979   4.287 -2.2645 -3.6927  0.1991
26035WAT     H2 5946   5.845   2.052   4.381  0.5516 -0.2062  0.4757
26035WAT    EPW 5947   5.912   1.998   4.368 -0.0293 -0.9264  0.4122
26036WAT      O 5948   2.222   8.129   6.101  0.2906  0.0092 -0.2698
26036WAT     H1 5949   2.308   8.168   6.113  0.0945  0.7397 -1.1010
26036WAT     H2 5950   2.176   8.190   6.042 -1.3975  0.5416  1.4935
26036WAT    EPW 5951   2.227   8.142   6.095  0.0422  0.1755 -0.1469
26037WAT      O 5952   6.805   0.250   3.528 -0.3540  0.2411  0.8014
26037WAT     H1 5953   6.728   0.220   3.576 -1.6425  0.4067 -1.0349
26037WAT     H2 5954   6.821   0.339   3.559 -0.9678  0.2412  1.1184
26037WAT    EPW 5955   6.797   0.258   3.538 -0.6049  0.2630  0.6012
26038WAT      O 5956   1.934   6.945   5.447  0.5011  0.8986 -0.4422
26038WAT     H1 5957   2.022   6.925   5.417 -0.0203 -0.0012 -1.4730
26038WAT     H2 5958   1.908   6.869   5.500 -0.2848  0.3136 -1.6222
26038WAT    EPW 5959   1.942   6.932   5.450  0.3287  0.7026 -0.7336
26039WAT      O 5960   8.146   0.085   3.241  0.6195  0.2856 -0.2097
26039WAT     H1 5961   8.177   0.054   3.326 -0.0811 -0.0426 -0.0673
26039WAT     H2 5962   8.054   0.106   3.255  0.5895  0.5659 -0.8018
26039WAT    EPW 5963   8.138   0.084   3.254  0.5226  0.2793 -0.2688
26040WAT      O 5964   3.261   6.564   5.204 -0.0860  0.1488  0.1530
26040WAT     H1 5965   3.179   6.516   5.192  0.6100 -1.0510  0.1181
26040WAT     H2 5966   3.314   6.508   5.261 -0.2721  2.1109  2.4229
26040WAT    EPW 5967   3.257   6.551   5.210 -0.0187  0.2494  0.4478
26041WAT      O 5968   5.209   8.727   2.714 -0.1876  0.2572 -0.6040
26041WAT     H1 5969   5.204   8.821   2.696 -1.9008  0.3070 -0.0646
26041WAT     H2 5970   5.203   8.721   2.809 -2.0090 -0.4315 -0.7135
26041WAT    EPW 5971   5.207   8.739   2.724 -0.6537  0.1721 -0.5473
26042WAT      O 5972   3.601   9.087   6.866 -0.2634  0.0230 -0.2088
26042WAT     H1 5973   3.619   9.172   6.906  2.1898  0.0460 -1.1719
26042WAT     H2 5974   3.508   9.089   6.847 -0.6505  1.7173  1.4938
26042WAT    EPW 5975   3.591   9.098   6.869  0.0091  0.2494 -0.1111
26043WAT      O 5976   6.703   1.575   4.665 -0.5621  0.4454 -0.2268
26043WAT     H1 5977   6.620   1.577   4.618 -2.3070  0.4120  2.6693
26043WAT     H2 5978   6.688   1.625   4.745  2.3059  0.6620  0.3093
26043WAT    EPW 5979   6.690   1.582   4.669 -0.4139  0.4696  0.2258
26044WAT      O 5980   8.994   1.617   0.617  0.4308  0.1601  0.4822
26044WAT     H1 5981   9.022   1.704   0.644  2.0738 -0.4763  0.9989
26044WAT     H2 5982   9.051   1.595   0.543  0.9994 -0.9959  1.2301
26044WAT    EPW 5983   9.005   1.625   0.611  0.7224 -0.0764  0.6490
26045WAT      O 5984   4.377   7.707   4.187  0.1497  0.1679 -0.5452
26045WAT     H1 5985   4.364   7.664   4.103  4.2208 -0.4521 -1.0847
26045WAT     H2 5986   4.401   7.797   4.166  1.5496 -0.0821 -0.1699
26045WAT    EPW 5987   4.379   7.713   4.173  0.8717  0.0532 -0.5667
26046WAT      O 5988   8.706   0.225   7.561 -0.2757  0.2247  0.2910
26046WAT     H1 5989   8.683   0.135   7.584  0.2761  0.2659  1.0346
26046WAT     H2 5990   8.691   0.230   7.467  0.6499 -0.9531  0.0536
26046WAT    EPW 5991   8.701   0.214   7.552 -0.0806  0.0748  0.3579
26047WAT      O 5992  10.606   9.279   3.253 -0.2605 -0.9930 -0.3696
26047WAT     H1 5993  10.683   9.223   3.242 -0.1934 -1.4819  2.1293
26047WAT     H2 5994  10.617   9.321   3.338 -0.5764  2.5218 -1.8608
26047WAT    EPW 5995  10.617   9.277   3.263 -0.2933 -0.5937 -0.2366
26048WAT      O 5996   1.611   8.516   6.171  0.3500 -0.4919 -0.3692
26048WAT     H1 5997   1.670   8.590   6.155 -1.3710  1.0337  0.0437
26048WAT     H2 5998   1.658   8.440   6.135  2.9227  0.4754  0.6935
26048WAT    EPW 5999   1.625   8.515   6.164  0.4623 -0.1636 -0.1745
26049WAT      O 6000   3.264   5.795   5.227 -0.1750 -0.1430  0.1065
26049WAT     H1 6001   3.177   5.762   5.205 -0.9333  0.7167  1.6244
26049WAT     H2 6002   3.295   5.837   5.147 -0.4305 -1.8670 -0.9517
26049WAT    EPW 6003   3.257   5.796   5.213 -0.3086 -0.2573  0.1671
26050WAT      O 6004   4.683   0.664   8.859 -0.2776  0.3867 -0.2775
26050WAT     H1 6005   4.607   0.671   8.801 -1.4937 -0.3488  1.1183
26050WAT     H2 6006   4.709   0.572   8.853 -1.7544 -0.2517  1.8125
26050WAT    EPW 6007   4.676   0.652   8.851 -0.6328  0.2055  0.1822
26051WAT      O 6008   3.147   7.756   5.034 -0.5050 -0.3394 -0.2782
26051WAT     H1 6009   3.092   7.742   4.958  0.4919 -0.1612 -1.0479
26051WAT     H2 6010   3.121   7.843   5.066 -0.7082 -0.2838 -0.5911
26051WAT    EPW 6011   3.136   7.766   5.029 -0.4003 -0.3088 -0.4210
26052WAT      O 6012   0.971   4.242   1.022  0.3824 -0.0297  0.6182
26052WAT     H1 6013   0.998   4.318   1.073 -0.1729 -0.5412  1.7154
26052WAT     H2 6014   1.029   4.242   0.946  1.2714  0.7132  1.2773
26052WAT    EPW 6015   0.982   4.252   1.018  0.4264  0.0010  0.8498
26053WAT      O 6016   3.118   7.134   4.871  0.9352 -0.5793 -0.2541
26053WAT     H1 6017   3.104   7.161   4.780 -2.0661 -2.0147 -0.3446
26053WAT     H2 6018   3.115   7.038   4.868  0.6263 -0.6539  1.3945
26053WAT    EPW 6019   3.116   7.125   4.859  0.4987 -0.7784 -0.0486
26054WAT      O 6020   5.206   4.979   3.809 -0.0508  0.2874 -0.4457
26054WAT     H1 6021   5.220   5.074   3.801  1.6905  0.1641  0.4915
26054WAT     H2 6022   5.153   4.970   3.889 -0.1302  0.4707 -0.4763
26054WAT    EPW 6023   5.201   4.990   3.819  0.1683  0.2952 -0.3262
26055WAT      O 6024  10.714   9.797   5.591  0.0489  0.0171  0.2864
26055WAT     H1 6025  10.675   9.856   5.526  1.1441 -0.5446 -0.9317
26055WAT     H2 6026  10.640   9.768   5.644 -0.9509  0.2302 -0.9414
26055WAT    EPW 6027  10.699   9.801   5.589  0.0620 -0.0286 -0.0362
26056WAT      O 6028   1.116   6.542   2.529  0.6588 -0.0189 -0.0466
26056WAT     H1 6029   1.165   6.502   2.457 -0.2467 -0.6841 -0.3180
26056WAT     H2 6030   1.170   6.616   2.557  0.9972  0.2986 -1.4627
26056WAT    EPW 6031   1.129   6.547   2.523  0.5839 -0.0651 -0.2693
26057WAT      O 6032   5.275   9.413   6.458  0.1464  0.0703  0.1206
26057WAT     H1 6033   5.326   9.490   6.484 -1.5898  0.9455  1.1089
26057WAT     H2 6034   5.280   9.412   6.363 -1.0585  2.3805 -0.0478
26057WAT    EPW 6035   5.283   9.423   6.449 -0.2418  0.4902  0.2289
26058WAT      O 6036  10.545  10.202   2.502  0.7505  0.6651  0.4832
26058WAT     H1 6037  10.488  10.134   2.464  2.0532  0.2111 -0.7615
26058WAT     H2 6038  10.545  10.272   2.436 -1.2368  2.3482  2.1057
26058WAT    EPW 6039  10.537  10.202   2.488  0.6604  0.8278  0.5331
26059WAT      O 6040  10.617   9.155   6.129 -0.5247 -0.4115 -0.1306
26059WAT     H1 6041  10.632   9.061   6.138  0.4750 -0.0363  4.1702
26059WAT     H2 6042  10.698   9.195   6.160 -0.5887  2.0081 -2.6360
26059WAT    EPW 6043  10.630   9.148   6.134 -0.4010 -0.0434  0.1063
26060WAT      O 6044   1.332   8.720   2.027  0.2767 -0.2080 -0.2037
26060WAT     H1 6045   1.421   8.687   2.030  0.0606 -0.8950 -0.9499
26060WAT     H2 6046   1.319   8.745   1.935 -0.5952 -0.9884 -0.3079
26060WAT    EPW 6047   1.342   8.719   2.015  0.1332 -0.4015 -0.3159
26061WAT      O 6048   9.269   0.630   1.957 -0.3640  0.1198 -0.5056
26061WAT     H1 6049   9.183   0.671   1.947 -0.1731  0.1349 -2.3187
26061WAT     H2 6050   9.297   0.610   1.868  1.3778 -0.1898  0.0737
26061WAT    EPW 6051   9.261   0.633   1.944 -0.1087  0.0809 -0.6683
26062WAT      O 6052   4.101   0.720   3.249  0.0424 -0.3275 -0.6037
26062WAT     H1 6053   4.013   0.720   3.288 -0.6228  1.4949 -1.9353
26062WAT     H2 6054   4.110   0.634   3.209 -1.4048 -0.3509 -0.9431
26062WAT    EPW 6055   4.090   0.709   3.249 -0.2363 -0.0902 -0.8242
26063WAT      O 6056  10.259   7.841   4.250  0.3942 -0.6535  0.1292
26063WAT     H1 6057  10.209   7.878   4.177 -1.4591 -0.0097  1.6481
26063WAT     H2 6058  10.347   7.879   4.240 -0.3678  1.0057 -0.6504
26063WAT    EPW 6059  10.264   7.851   4.239  0.0501 -0.3495  0.2265
26064WAT      O 6060  10.698   6.591   5.542  0.6495  0.6966 -0.2453
26064WAT     H1 6061  10.762   6.529   5.507 -0.5975 -0.5568 -0.3929
26064WAT     H2 6062  10.751   6.667   5.569  2.0626  0.1315 -1.2876
26064WAT    EPW 6063  10.714   6.593   5.541  0.6719  0.4570 -0.4020
26065WAT      O 6064   3.565   6.881   5.301  0.1838  0.1546  0.5347
26065WAT     H1 6065   3.505   6.936   5.251 -0.0456 -0.9074 -0.3942
26065WAT     H2 6066   3.517   6.858   5.381 -0.9255 -1.1806 -0.4648
26065WAT    EPW 6067   3.551   6.885   5.305  0.0073 -0.1619  0.2801
26066WAT      O 6068   3.196   9.972   1.919 -0.2838 -0.1275  0.4220
26066WAT     H1 6069   3.209   9.888   1.963  1.7532  0.4446  0.9896
26066WAT     H2 6070   3.145  10.024   1.981  1.0645  0.0710  1.3987
26066WAT    EPW 6071   3.191   9.968   1.933  0.1627 -0.0253  0.6257
26067WAT      O 6072   0.926   9.604   5.505  0.3849 -0.1997 -0.3190
26067WAT     H1 6073   0.887   9.523   5.473  0.8342 -1.0575  1.2367
26067WAT     H2 6074   0.851   9.664   5.514 -0.3408 -1.2462  0.9003
26067WAT    EPW 6075   0.911   9.602   5.502  0.3485 -0.4506  0.0470
26068WAT      O 6076   9.368   9.061   7.414 -0.6068 -0.0989  0.4919
26068WAT     H1 6077   9.384   9.044   7.321 -0.7926  2.5523 -0.1106
26068WAT     H2 6078   9.295   9.123   7.415  0.6091  1.4517  2.2558
26068WAT    EPW 6079   9.361   9.067   7.402 -0.4711  0.4554  0.6447
26069WAT      O 6080   3.582   9.405   6.733 -0.3216  0.6408 -0.0146
26069WAT     H1 6081   3.496   9.441   6.756 -1.2867 -1.3741 -0.2654
26069WAT     H2 6082   3.644   9.472   6.761 -1.6473  0.3552  4.3857
26069WAT    EPW 6083   3.579   9.419   6.740 -0.6237  0.3376  0.5331
26070WAT      O 6084   0.082   9.896   6.672  0.7572 -0.3939 -0.1588
26070WAT     H1 6085   0.044   9.846   6.744 -0.0830 -1.2780 -1.1945
26070WAT     H2 6086   0.084   9.986   6.704  1.0024 -0.8611  1.2117
26070WAT    EPW 6087   0.078   9.901   6.686  0.6785 -0.5722 -0.1147
26071WAT      O 6088  10.840  10.160   8.567  0.0840  0.3942  0.1089
26071WAT     H1 6089  10.832  10.071   8.533  2.6795 -0.0290  0.4060
26071WAT     H2 6090  10.883  10.208   8.496  1.6506  0.5519  1.1068
26071WAT    EPW 6091  10.845  10.155   8.553  0.6337  0.3595  0.2794
26072WAT      O 6092   1.225  10.016   2.490 -0.2901  0.0229  0.4991
26072WAT     H1 6093   1.147  10.020   2.545 -1.6510  0.4557 -1.3589
26072WAT     H2 6094   1.193  10.036   2.402  1.5681 -1.8357 -0.6854
26072WAT    EPW 6095   1.210  10.019   2.485 -0.2246 -0.1655  0.0979
26073WAT      O 6096   1.960   7.772   4.453 -0.4764  0.3228  0.3306
26073WAT     H1 6097   2.023   7.759   4.382 -0.9125  3.0667 -0.6914
26073WAT     H2 6098   1.972   7.696   4.510  0.4719 -1.5809 -2.2211
26073WAT    EPW 6099   1.970   7.761   4.451 -0.4089  0.4337 -0.1407
26074WAT      O 6100   1.313   0.358   6.260 -0.4557 -0.4138 -0.2913
26074WAT     H1 6101   1.310   0.268   6.227  1.7914 -2.2430  3.7932
26074WAT     H2 6102   1.406   0.380   6.260 -0.6414  0.5765  1.8055
26074WAT    EPW 6103   1.325   0.349   6.256 -0.1838 -0.5244  0.5238
26075WAT      O 6104   2.496   8.939   3.277 -0.6856 -0.5515 -0.3903
26075WAT     H1 6105   2.421   8.995   3.256 -1.3744 -1.6401 -0.8954
26075WAT     H2 6106   2.560   8.999   3.316 -1.1114  0.7232 -1.5596
26075WAT    EPW 6107   2.495   8.955   3.280 -0.8327 -0.5264 -0.6111
26076WAT      O 6108   2.071  10.247   8.134  0.1987  0.1922 -0.3435
26076WAT     H1 6109   2.032  10.193   8.202 -0.7645 -0.2037 -1.1862
26076WAT     H2 6110   1.997  10.292   8.094  0.4656 -1.1448 -2.4938
26076WAT    EPW 6111   2.056  10.246   8.138  0.1069 -0.0367 -0.7386
26077WAT      O 6112  10.940   7.987   2.256  0.1966  0.3429  0.5731
26077WAT     H1 6113  10.861   8.008   2.306  0.0009  1.5650 -0.2157
26077WAT     H2 6114  10.970   8.071   2.222  1.7707 -0.1189  0.7351
26077WAT    EPW 6115  10.933   8.001   2.258  0.3786  0.4435  0.4904
26078WAT      O 6116   0.224   7.858   4.315  0.1502  0.3236 -0.2323
26078WAT     H1 6117   0.148   7.807   4.290 -0.8428  1.2840  0.7443
26078WAT     H2 6118   0.227   7.853   4.410 -1.6076  4.1731  0.2106
26078WAT    EPW 6119   0.215   7.851   4.324 -0.2126  0.9582 -0.0453
26079WAT      O 6120   2.463   7.556   3.739 -0.3511 -0.3056 -0.0970
26079WAT     H1 6121   2.519   7.621   3.696  0.9590 -0.9989  0.4925
26079WAT     H2 6122   2.430   7.600   3.817 -0.3465 -0.0073 -0.2614
26079WAT    EPW 6123   2.466   7.571   3.743 -0.1776 -0.3576 -0.0408
26080WAT      O 6124   1.119   9.948   5.443 -0.2614  0.3308  0.1349
26080WAT     H1 6125   1.184   9.991   5.499 -1.7559  1.3129  1.1837
26080WAT     H2 6126   1.076  10.020   5.397 -1.6095 -0.1523  0.5921
26080WAT    EPW 6127   1.122   9.963   5.445 -0.6363  0.3967  0.3335
26081WAT      O 6128   1.084   6.488   3.234 -0.4995  0.0565  0.6253
26081WAT     H1 6129   1.010   6.533   3.273  0.1085 -0.3214  2.2806
26081WAT     H2 6130   1.161   6.526   3.276  0.0837 -1.6810  1.2273
26081WAT    EPW 6131   1.084   6.499   3.244 -0.3425 -0.2224  0.9229
26082WAT      O 6132   1.031  10.133   5.270 -0.7835 -0.4669 -0.2360
26082WAT     H1 6133   0.972  10.064   5.239 -1.1021 -0.0971 -0.4707
26082WAT     H2 6134   0.975  10.210   5.278 -0.3131 -0.0896 -0.5401
26082WAT    EPW 6135   1.015  10.134   5.267 -0.7634 -0.3691 -0.3068
26083WAT      O 6136  10.194   7.631   5.561  0.1941 -0.2970 -0.6493
26083WAT     H1 6137  10.246   7.710   5.551 -0.9275  0.7808  1.4649
26083WAT     H2 6138  10.202   7.607   5.653 -3.6980  0.4899  0.0957
26083WAT    EPW 6139  10.202   7.638   5.572 -0.4668 -0.0510 -0.2723
26084WAT      O 6140   0.805   9.934   3.049  0.3633  0.3109 -1.0856
26084WAT     H1 6141   0.856   9.998   2.999  0.7476  2.2434  1.5442
26084WAT     H2 6142   0.870   9.873   3.083  0.3367  0.0639 -1.4821
26084WAT    EPW 6143   0.820   9.934   3.047  0.4105  0.5331 -0.7912
26085WAT      O 6144  10.234   9.157   6.133 -0.2773  0.0047  0.3231
26085WAT     H1 6145  10.287   9.194   6.204 -0.3550 -0.8851  0.8610
26085WAT     H2 6146  10.297   9.131   6.066 -0.1452  0.2002  0.3710
26085WAT    EPW 6147  10.249   9.159   6.134 -0.2699 -0.0873  0.4008
26086WAT      O 6148   7.229   1.446   3.685  0.0567 -0.4950  0.1329
26086WAT     H1 6149   7.323   1.429   3.680  0.0653 -0.0994 -3.2710
26086WAT     H2 6150   7.197   1.434   3.596 -3.3788 -1.6936  1.3603
26086WAT    EPW 6151   7.237   1.442   3.673 -0.3951 -0.6009 -0.1543
26087WAT      O 6152   2.827   8.336   4.419  0.3779 -0.6912  0.1769
26087WAT     H1 6153   2.802   8.246   4.440  1.1787 -0.9870 -0.1122
26087WAT     H2 6154   2.778   8.390   4.482  0.7291 -1.3948  1.0617
26087WAT    EPW 6155   2.817   8.332   4.430  0.5299 -0.8225  0.2556
26088WAT      O 6156   2.660   9.067   3.466  0.1742 -0.4665  0.8861
26088WAT     H1 6157   2.696   9.155   3.472 -0.2957 -0.2532  0.5839
26088WAT     H2 6158   2.703   9.019   3.537  1.3984 -0.3382  0.2589
26088WAT    EPW 6159   2.671   9.072   3.476  0.2737 -0.4215  0.7637
26089WAT      O 6160  10.198   2.733   3.502  0.2233  0.9916  0.2715
26089WAT     H1 6161  10.135   2.728   3.575 -0.8748 -1.1602 -0.7362
26089WAT     H2 6162  10.261   2.663   3.520 -0.3866  0.0529 -1.0853
26089WAT    EPW 6163  10.198   2.723   3.514 -0.0019  0.5840 -0.0403
26090WAT      O 6164   9.118   8.752   4.536 -0.2571 -0.6682  0.0719
26090WAT     H1 6165   9.057   8.714   4.471 -2.4706 -1.5025  2.4687
26090WAT     H2 6166   9.202   8.710   4.517 -1.1870 -2.0298 -1.3039
26090WAT    EPW 6167   9.121   8.742   4.525 -0.6719 -0.9580  0.2065
26091WAT      O 6168  10.296   7.315   6.029 -0.1049 -0.0246 -0.0164
26091WAT     H1 6169  10.316   7.275   5.944  0.4316  1.8156 -0.8135
26091WAT     H2 6170  10.265   7.243   6.083  1.6114 -1.6723 -1.0933
26091WAT    EPW 6171  10.295   7.300   6.025  0.1922  0.0007 -0.2637
26092WAT      O 6172   1.779   7.827   5.468  0.5448 -0.4051  0.5003
26092WAT     H1 6173   1.865   7.828   5.510 -0.0958  0.6004  1.8538
26092WAT     H2 6174   1.726   7.888   5.519 -0.8943 -0.7569 -0.4992
26092WAT    EPW 6175   1.783   7.835   5.480  0.2704 -0.3190  0.5469
26093WAT      O 6176   1.272   7.692   6.134  0.5273 -0.6548 -0.3059
26093WAT     H1 6177   1.252   7.783   6.158 -0.9062 -0.4975 -1.9182
26093WAT     H2 6178   1.318   7.657   6.210  1.2601  1.4590  0.3047
26093WAT    EPW 6179   1.275   7.699   6.147  0.4349 -0.3552 -0.4380
26094WAT      O 6180   2.253   7.157   5.986 -0.3919 -0.1151  0.2333
26094WAT     H1 6181   2.233   7.099   5.912 -0.6435  1.3861 -0.9266
26094WAT     H2 6182   2.331   7.118   6.026  1.1872  0.2567 -2.2746
26094WAT    EPW 6183   2.261   7.144   5.981 -0.2170  0.1316 -0.2503
26095WAT      O 6184   4.736   0.516   4.695  0.3378 -0.0028 -0.3707
26095WAT     H1 6185   4.776   0.554   4.617 -0.2419  2.4387  0.4280
26095WAT     H2 6186   4.676   0.449   4.662  2.1360 -0.9859 -1.7932
26095WAT    EPW 6187   4.733   0.512   4.681  0.4983  0.1895 -0.4532
26096WAT      O 6188   2.562   6.375   6.402  0.1332 -0.4112  0.2825
26096WAT     H1 6189   2.528   6.286   6.397 -1.0348  0.0520 -0.6440
26096WAT     H2 6190   2.543   6.404   6.491 -3.8014  0.4705 -0.6581
26096WAT    EPW 6191   2.555   6.367   6.413 -0.5397 -0.2339  0.0365
26097WAT      O 6192   0.121   7.951   3.694 -0.5621 -0.1559 -0.0662
26097WAT     H1 6193   0.159   8.014   3.754  0.9690 -1.0081 -0.0923
26097WAT     H2 6194   0.027   7.954   3.712 -0.4677  1.7213  0.2896
26097WAT    EPW 6195   0.113   7.959   3.704 -0.3477 -0.0207 -0.0228
26098WAT      O 6196   7.179   9.710   8.858 -0.2287  0.1993  0.0663
26098WAT     H1 6197   7.239   9.734   8.787  1.0241 -1.4138  0.4940
26098WAT     H2 6198   7.159   9.792   8.902  1.7565  0.7929 -0.0585
26098WAT    EPW 6199   7.184   9.724   8.854  0.1984  0.0644  0.1063
26099WAT      O 6200  10.464   5.047   7.549  0.0147  0.4208 -0.0050
26099WAT     H1 6201  10.399   5.111   7.522 -1.4827 -0.5228  1.1962
26099WAT     H2 6202  10.522   5.096   7.608 -0.7419  0.8414  0.4111
26099WAT    EPW 6203  10.463   5.062   7.553 -0.2823  0.3519  0.2084
26100WAT      O 6204  10.878   6.587   3.358 -0.9520 -0.1830  0.1643
26100WAT     H1 6205  10.786   6.560   3.356 -0.6159 -1.3024 -0.9606
26100WAT     H2 6206  10.913   6.560   3.273  0.5238 -0.1366  0.7335
26100WAT    EPW 6207  10.870   6.580   3.346 -0.7133 -0.3245  0.0908
26101WAT      O 6208   4.074   7.106   8.005  0.3005 -0.3340  0.2136
26101WAT     H1 6209   4.031   7.052   7.939  1.9220 -0.9189 -0.4167
26101WAT     H2 6210   4.132   7.046   8.051  2.5050  0.8535 -0.8122
26101WAT    EPW 6211   4.076   7.091   8.002  0.8051 -0.2542 -0.0052
26102WAT      O 6212   1.268  10.366   3.826 -0.3257  0.7164 -0.0582
26102WAT     H1 6213   1.330  10.294   3.816 -3.0453 -2.3208  2.6484
26102WAT     H2 6214   1.304  10.419   3.897  1.5285  1.9898 -1.8423
26102WAT    EPW 6215   1.281  10.363   3.834 -0.4399  0.4835  0.0634
26103WAT      O 6216   9.863   8.588   6.493 -0.1675  0.1417 -0.1046
26103WAT     H1 6217   9.847   8.575   6.586  1.0679  1.8536  0.3959
26103WAT     H2 6218   9.786   8.635   6.461 -1.6421 -2.3694 -0.5094
26103WAT    EPW 6219   9.851   8.592   6.501 -0.1988  0.0367 -0.0918
26104WAT      O 6220  10.818   9.211   7.108 -0.2182  0.2007  0.4653
26104WAT     H1 6221  10.784   9.298   7.085 -1.4656 -0.3738  0.0420
26104WAT     H2 6222  10.802   9.158   7.030 -0.3351 -0.6429  1.0491
26104WAT    EPW 6223  10.811   9.216   7.095 -0.3982  0.0138  0.4864
26105WAT      O 6224  10.069   7.133   5.363 -0.4192 -0.1431  0.0928
26105WAT     H1 6225  10.133   7.200   5.341 -0.9622  0.6742  0.9353
26105WAT     H2 6226  10.081   7.066   5.295 -1.4432  1.8592 -2.2337
26105WAT    EPW 6227  10.079   7.133   5.351 -0.6256  0.2289 -0.1028
26106WAT      O 6228   3.609   7.558   6.304 -0.1236  0.2270  0.3388
26106WAT     H1 6229   3.565   7.506   6.370  0.4863  0.0947  0.6485
26106WAT     H2 6230   3.564   7.643   6.306  1.0327  0.8603  2.2186
26106WAT    EPW 6231   3.598   7.562   6.313  0.1093  0.2933  0.6275
26107WAT      O 6232   1.380   2.051   6.688  0.6206 -0.6817 -0.5135
26107WAT     H1 6233   1.472   2.048   6.713  0.7524  0.9386 -0.7027
26107WAT     H2 6234   1.358   1.960   6.665  1.7738 -1.3537  0.8634
26107WAT    EPW 6235   1.389   2.038   6.688  0.7901 -0.5567 -0.3564
26108WAT      O 6236   1.003   5.412   6.034 -0.3913 -0.1642  0.3239
26108WAT     H1 6237   1.017   5.333   5.982 -0.6885  0.5701 -0.9301
26108WAT     H2 6238   0.945   5.466   5.979 -0.7011  0.6563  1.4250
26108WAT    EPW 6239   0.997   5.409   6.020 -0.4714  0.0410  0.3037
26109WAT      O 6240  10.400   4.546   5.866 -0.6913  0.6045 -0.3987
26109WAT     H1 6241  10.489   4.570   5.892 -1.3420  0.6569  1.9401
26109WAT     H2 6242  10.397   4.451   5.874 -0.7380  0.5610 -0.8962
26109WAT    EPW 6243  10.412   4.537   5.870 -0.7834  0.6058 -0.1559
26110WAT      O 6244   0.704   6.360   5.478 -0.2455  0.0241 -0.1277
26110WAT     H1 6245   0.794   6.352   5.508  0.6179  1.4878 -2.0849
26110WAT     H2 6246   0.676   6.270   5.462  0.9144 -0.4400  0.3553
26110WAT    EPW 6247   0.712   6.347   5.480  0.0214  0.1559 -0.3219
26111WAT      O 6248   0.956   7.015   6.062  0.2144 -0.0153 -0.2947
26111WAT     H1 6249   0.918   6.927   6.070  1.1930 -0.5106 -0.8107
26111WAT     H2 6250   1.033   7.013   6.118  0.1683  0.5670 -0.2053
26111WAT    EPW 6251   0.961   7.003   6.070  0.3374 -0.0036 -0.3512
26112WAT      O 6252   1.159   6.788   4.720 -0.6596  0.3820 -0.0305
26112WAT     H1 6253   1.177   6.860   4.659  0.5076 -0.3824 -0.6349
26112WAT     H2 6254   1.246   6.752   4.741 -1.1132  0.0103  1.3318
26112WAT    EPW 6255   1.173   6.793   4.715 -0.5655  0.2322  0.0694
26113WAT      O 6256   3.324  10.252   5.515 -0.2896 -0.3553  0.4485
26113WAT     H1 6257   3.230  10.235   5.523 -0.6650  0.4423 -1.5702
26113WAT     H2 6258   3.365  10.167   5.531 -1.6346 -1.6142 -2.0540
26113WAT    EPW 6259   3.317  10.238   5.518 -0.5164 -0.4158 -0.1481
26114WAT      O 6260   2.326   7.789   5.430  0.3946  0.4239 -0.3392
26114WAT     H1 6261   2.260   7.781   5.361  1.9653 -1.5812 -1.7372
26114WAT     H2 6262   2.331   7.702   5.468  1.9017  0.6583  0.0555
26114WAT    EPW 6263   2.318   7.777   5.426  0.8004  0.1905 -0.4716
26115WAT      O 6264   9.801   9.663   6.703  0.8437  0.5164 -0.4371
26115WAT     H1 6265   9.787   9.600   6.632 -1.2111  0.7008 -0.2457
26115WAT     H2 6266   9.714   9.700   6.720  1.5490  1.5161  1.2173
26115WAT    EPW 6267   9.788   9.660   6.695  0.6657  0.6728 -0.1936
26116WAT      O 6268   9.355   9.174   6.884 -0.2879 -0.1314  0.2999
26116WAT     H1 6269   9.359   9.111   6.811 -1.2065 -0.1398  0.2467
26116WAT     H2 6270   9.262   9.180   6.905 -0.1241  0.6043  0.8415
26116WAT    EPW 6271   9.343   9.166   6.877 -0.3877 -0.0353  0.3643
26117WAT      O 6272   5.622   0.910   2.893 -0.3725  0.7237 -0.6612
26117WAT     H1 6273   5.716   0.894   2.882 -0.7478 -0.7917 -2.2178
26117WAT     H2 6274   5.584   0.823   2.900 -1.6679  1.3267  0.1211
26117WAT    EPW 6275   5.630   0.896   2.892 -0.5929  0.6034 -0.7632
26118WAT      O 6276   2.226   9.714   8.058 -0.5156  0.5389  0.1661
26118WAT     H1 6277   2.306   9.766   8.063 -1.0159  1.2077  2.4907
26118WAT     H2 6278   2.243   9.650   7.989  0.0461  3.8349 -3.0897
26118WAT    EPW 6279   2.239   9.713   8.049 -0.5076  1.0624  0.0434
26119WAT      O 6280   9.899   7.030   4.608  0.0648  0.2244  0.5969
26119WAT     H1 6281   9.991   7.005   4.603 -0.0372 -0.4503  1.6843
26119WAT     H2 6282   9.895   7.091   4.681 -0.3241  0.4080  0.4246
26119WAT    EPW 6283   9.911   7.035   4.617  0.0000  0.1595  0.7179
26120WAT      O 6284  10.980   8.313   8.338  0.6303  0.3926 -0.4096
26120WAT     H1 6285  10.958   8.342   8.427  0.7172  0.7703 -0.5104
26120WAT     H2 6286  11.076   8.316   8.334  0.6362  0.1877 -0.4555
26120WAT    EPW 6287  10.990   8.317   8.349  0.6426  0.4153 -0.4287
26121WAT      O 6288   4.168   0.084   5.953  0.3174 -0.2962  0.3665
26121WAT     H1 6289   4.130   0.065   6.039  0.8175 -0.8162  0.4785
26121WAT     H2 6290   4.191   0.176   5.958 -1.0128  0.0668  0.2586
26121WAT    EPW 6291   4.166   0.094   5.965  0.2079 -0.3169  0.3669
26122WAT      O 6292   2.962   7.769   7.573 -0.0180  0.4089  0.4738
26122WAT     H1 6293   2.881   7.762   7.523  0.3694  3.5823 -0.8299
26122WAT     H2 6294   3.018   7.700   7.537 -1.3513 -0.4205 -0.1122
26122WAT    EPW 6295   2.959   7.759   7.562 -0.1429  0.7179  0.2246
26123WAT      O 6296   9.343   7.386   4.206 -0.4730  0.6418 -0.9341
26123WAT     H1 6297   9.358   7.408   4.114 -0.0515 -2.2979 -1.6698
26123WAT     H2 6298   9.259   7.340   4.207 -0.6075  0.8761  0.2036
26123WAT    EPW 6299   9.334   7.383   4.194 -0.4354  0.2849 -0.8814
26124WAT      O 6300   6.163   9.686   2.770  0.1204 -0.8991  0.6094
26124WAT     H1 6301   6.167   9.754   2.837  0.8493  1.4011 -1.6329
26124WAT     H2 6302   6.069   9.670   2.758 -0.2041  1.2463 -0.1879
26124WAT    EPW 6303   6.151   9.693   2.777  0.1736 -0.3133  0.2085
26125WAT      O 6304   1.554   7.969   2.591 -0.2132 -0.1517  0.5986
26125WAT     H1 6305   1.630   7.928   2.631 -0.4094  0.2966  1.4393
26125WAT     H2 6306   1.585   8.052   2.557  0.0697 -0.7482 -0.6656
26125WAT    EPW 6307   1.568   7.974   2.592 -0.2018 -0.1714  0.5428
26126WAT      O 6308   7.816   1.644   3.333 -0.5691  0.1270  0.3859
26126WAT     H1 6309   7.768   1.699   3.396  2.8098  1.6932  1.8430
26126WAT     H2 6310   7.763   1.649   3.253 -2.6171  1.9717  1.7181
26126WAT    EPW 6311   7.802   1.652   3.331 -0.3936  0.5769  0.7539
26127WAT      O 6312   4.792   1.313   3.851 -0.3081 -0.1095  0.0771
26127WAT     H1 6313   4.765   1.357   3.932  2.2274 -1.9112  2.0584
26127WAT     H2 6314   4.835   1.233   3.880  0.9037 -0.7509 -3.0794
26127WAT    EPW 6315   4.794   1.308   3.866  0.1862 -0.4318 -0.0780
26128WAT      O 6316   0.491   0.631   7.677 -0.0630 -1.2868  0.0878
26128WAT     H1 6317   0.419   0.569   7.677  0.2801 -1.7011 -0.9883
26128WAT     H2 6318   0.512   0.645   7.585  0.1868  0.0633  0.3227
26128WAT    EPW 6319   0.484   0.625   7.665  0.0152 -1.1633 -0.0234
26129WAT      O 6320   7.081   6.738   5.115 -0.2227  0.0551  0.1617
26129WAT     H1 6321   7.119   6.815   5.157 -1.4520 -0.2971  2.0486
26129WAT     H2 6322   7.147   6.709   5.053  1.4969  0.9095  1.5236
26129WAT    EPW 6323   7.094   6.744   5.113 -0.1581  0.1214  0.5901
26130WAT      O 6324   1.998   8.509   4.480 -0.4759 -0.9388 -0.0668
26130WAT     H1 6325   2.010   8.414   4.476  0.2191 -0.8190 -1.1398
26130WAT     H2 6326   2.031   8.541   4.396 -2.0515  0.1210 -0.3179
26130WAT    EPW 6327   2.004   8.501   4.468 -0.5920 -0.7834 -0.2415
26131WAT      O 6328   2.618  10.041   3.446  0.0254  0.6628 -0.2544
26131WAT     H1 6329   2.666  10.056   3.365 -1.5313 -1.0610 -1.5531
26131WAT     H2 6330   2.535  10.002   3.419  0.2112 -1.7839  2.2219
26131WAT    EPW 6331   2.614  10.038   3.432 -0.1553  0.1130 -0.0991
26132WAT      O 6332  10.515   9.918   4.871 -0.3142  0.0401 -0.3711
26132WAT     H1 6333  10.511  10.012   4.886 -0.1131 -0.0989  0.6155
26132WAT     H2 6334  10.581   9.907   4.803 -0.8401  0.6580 -0.9911
26132WAT    EPW 6335  10.524   9.929   4.864 -0.3572  0.1030 -0.3226
26133WAT      O 6336   5.551   0.015   5.583  0.2263 -0.3896  0.0088
26133WAT     H1 6337   5.571  -0.030   5.501 -1.7529  0.8784 -1.2555
26133WAT     H2 6338   5.480  -0.036   5.622 -1.1296  0.8003 -0.7879
26133WAT    EPW 6339   5.544   0.002   5.577 -0.2136 -0.0655 -0.2630
26134WAT      O 6340   7.446   1.100   4.761 -0.4332  0.6589  0.6193
26134WAT     H1 6341   7.391   1.095   4.683 -0.3218  1.4758  0.4880
26134WAT     H2 6342   7.517   1.159   4.736  0.0392  0.2831  1.0733
26134WAT    EPW 6343   7.448   1.107   4.747 -0.3560  0.7171  0.6621
26135WAT      O 6344   4.842  10.145   3.182  0.3419 -0.6868  0.1558
26135WAT     H1 6345   4.823  10.206   3.111  1.3701  0.9686  1.2564
26135WAT     H2 6346   4.757  10.129   3.224 -0.0275 -0.4984 -0.5110
26135WAT    EPW 6347   4.828  10.151   3.178  0.4287 -0.4439  0.2130
26136WAT      O 6348   3.239   9.451   4.354  0.3339 -0.0599 -0.0746
26136WAT     H1 6349   3.311   9.488   4.302  0.5899 -0.8585 -0.3011
26136WAT     H2 6350   3.171   9.519   4.352  2.2638  2.2190  2.9511
26136WAT    EPW 6351   3.240   9.465   4.347  0.6220  0.1359  0.2949
26137WAT      O 6352   8.325   1.509   1.836 -0.0762  0.4570 -0.4819
26137WAT     H1 6353   8.296   1.456   1.909 -0.9819  0.5971 -0.7276
26137WAT     H2 6354   8.342   1.447   1.765 -2.0882  0.5184 -1.0892
26137WAT    EPW 6355   8.324   1.494   1.836 -0.4611  0.4836 -0.5944
26138WAT      O 6356   3.620   2.096   7.168 -0.0281 -0.8637 -0.2090
26138WAT     H1 6357   3.565   2.081   7.245 -0.4397  0.9947 -0.0937
26138WAT     H2 6358   3.696   2.143   7.203  1.8844 -3.6176 -0.3150
26138WAT    EPW 6359   3.623   2.100   7.183  0.1699 -0.9818 -0.2077
26139WAT      O 6360   6.023   1.137   5.872 -0.1919 -0.2605  0.3942
26139WAT     H1 6361   5.945   1.115   5.820 -0.1755 -0.4316  0.4415
26139WAT     H2 6362   6.014   1.231   5.890  0.2236 -0.0120 -0.6220
26139WAT    EPW 6363   6.011   1.146   5.868 -0.1349 -0.2503  0.2668
26140WAT      O 6364  10.992   7.906   0.337 -0.4446 -0.1730  0.4799
26140WAT     H1 6365  11.022   7.903   0.428 -0.3007  1.5885  0.5241
26140WAT     H2 6366  10.918   7.846   0.335  0.2822 -1.1503  1.4559
26140WAT    EPW 6367  10.986   7.898   0.349 -0.3298 -0.0696  0.6145
26141WAT      O 6368   6.548   1.927   4.535  0.1525  0.1908  0.7792
26141WAT     H1 6369   6.510   1.976   4.462  1.8247  0.5173  0.0746
26141WAT     H2 6370   6.517   1.837   4.523 -2.1745  0.8279  1.5416
26141WAT    EPW 6371   6.539   1.921   4.524  0.0658  0.3178  0.7868
26142WAT      O 6372   3.199   7.212   6.055 -0.9068 -0.2252 -0.4466
26142WAT     H1 6373   3.198   7.288   6.114 -1.7257 -1.5897  1.3974
26142WAT     H2 6374   3.279   7.222   6.004 -0.7958  1.6545  0.0413
26142WAT    EPW 6375   3.210   7.223   6.057 -1.0003 -0.1571 -0.1390
26143WAT      O 6376   7.755   1.446   4.518  0.2410  0.7822 -0.8332
26143WAT     H1 6377   7.811   1.469   4.444  0.7305  0.2945 -0.6161
26143WAT     H2 6378   7.767   1.518   4.581  1.4172  0.1817 -0.3527
26143WAT    EPW 6379   7.764   1.459   4.517  0.4606  0.6387 -0.7410
26144WAT      O 6380   5.881   9.006   1.340 -0.6517  0.6148  1.1841
26144WAT     H1 6381   5.825   9.022   1.416 -0.8443  1.4865  0.8765
26144WAT     H2 6382   5.851   8.923   1.303  0.3939 -0.5824  2.8881
26144WAT    EPW 6383   5.870   8.997   1.345 -0.5393  0.5717  1.3683
26145WAT      O 6384   4.238   8.900   5.232  0.6308 -0.3331  0.7067
26145WAT     H1 6385   4.175   8.943   5.174 -1.8003 -1.3057  2.4704
26145WAT     H2 6386   4.298   8.970   5.257 -0.3138  0.8813 -0.2631
26145WAT    EPW 6387   4.238   8.915   5.227  0.1855 -0.3014  0.8113
26146WAT      O 6388   1.625   9.371   2.641 -0.9824  0.6987 -0.1537
26146WAT     H1 6389   1.676   9.413   2.711  0.8199 -0.3396 -0.7663
26146WAT     H2 6390   1.557   9.435   2.620 -1.5201  1.1027  2.4170
26146WAT    EPW 6391   1.623   9.385   2.648 -0.8155  0.6146  0.1047
26147WAT      O 6392   4.692   1.055   2.237 -0.0777  0.1782  0.1812
26147WAT     H1 6393   4.608   1.101   2.247 -0.2953  0.2536 -1.6202
26147WAT     H2 6394   4.676   0.968   2.273 -1.4595 -0.3332 -1.5096
26147WAT    EPW 6395   4.679   1.050   2.243 -0.2887  0.1207 -0.2795
26148WAT      O 6396   1.694   9.989   4.304  0.4157 -0.4890  0.3288
26148WAT     H1 6397   1.781  10.024   4.286  0.5676 -0.5662  0.8949
26148WAT     H2 6398   1.662  10.041   4.377  0.3321 -1.0156  0.6723
26148WAT    EPW 6399   1.702  10.000   4.311  0.4247 -0.5693  0.4485
26149WAT      O 6400   5.821   0.949   5.028  0.5847  0.0314  0.2676
26149WAT     H1 6401   5.873   1.017   4.985  1.6385 -1.0316 -0.1988
26149WAT     H2 6402   5.749   0.932   4.968  0.9286 -0.0242 -0.1375
26149WAT    EPW 6403   5.819   0.956   5.015  0.7689 -0.1161  0.1528
26150WAT      O 6404   2.205   0.599   5.479  0.3409 -0.1014  0.1089
26150WAT     H1 6405   2.169   0.524   5.431 -2.6983  1.0577  0.3137
26150WAT     H2 6406   2.266   0.561   5.542  0.1169 -2.2063 -0.8766
26150WAT    EPW 6407   2.208   0.584   5.481 -0.0895 -0.2261  0.0062
26151WAT      O 6408   3.704   9.043   5.666  0.3645 -0.3410  0.1215
26151WAT     H1 6409   3.730   9.090   5.587  1.9391 -0.0039  0.7933
26151WAT     H2 6410   3.753   9.086   5.736  0.0088 -1.4635  1.0891
26151WAT    EPW 6411   3.714   9.055   5.665  0.5254 -0.4449  0.3376
26152WAT      O 6412   7.697   1.064   8.162 -0.3739 -0.4353 -0.8826
26152WAT     H1 6413   7.618   1.119   8.167  0.6774  1.1830 -1.4779
26152WAT     H2 6414   7.702   1.024   8.249  0.2789  2.5484  0.6001
26152WAT    EPW 6415   7.687   1.066   8.174 -0.1493  0.1717 -0.7653
26153WAT      O 6416   3.670   9.682   2.110  0.4999 -0.0303  0.5860
26153WAT     H1 6417   3.674   9.766   2.155 -0.6242  2.1345 -2.9137
26153WAT     H2 6418   3.597   9.637   2.151  0.6306  1.0051  2.0495
26153WAT    EPW 6419   3.661   9.687   2.121  0.3687  0.3920  0.3173
26154WAT      O 6420   4.487   2.313   4.406  0.2510 -0.1696 -0.4233
26154WAT     H1 6421   4.572   2.350   4.382  1.7362 -1.8597  1.8307
26154WAT     H2 6422   4.507   2.245   4.470 -2.7637 -1.2281 -0.4179
26154WAT    EPW 6423   4.501   2.309   4.411  0.0491 -0.5320 -0.1252
26155WAT      O 6424   1.019   8.051   1.695  0.2269  0.0790 -0.5597
26155WAT     H1 6425   0.991   8.112   1.763  1.0060  0.8180 -0.8870
26155WAT     H2 6426   1.092   8.095   1.651 -0.6637 -0.0939 -2.3086
26155WAT    EPW 6427   1.025   8.065   1.698  0.2121  0.1535 -0.8336
26156WAT      O 6428   4.409   1.262   4.726  0.4268 -0.2113  0.5519
26156WAT     H1 6429   4.492   1.279   4.681  0.6555  1.0538  1.3848
26156WAT     H2 6430   4.347   1.242   4.656  1.0236  0.6012 -0.2272
26156WAT    EPW 6431   4.412   1.261   4.711  0.5360  0.0628  0.5589
26157WAT      O 6432   6.457   2.158   5.951  0.1799  0.6567 -0.1128
26157WAT     H1 6433   6.529   2.168   5.889  0.1860 -2.0095 -0.6724
26157WAT     H2 6434   6.408   2.239   5.945  0.4859  0.7157 -3.2656
26157WAT    EPW 6435   6.460   2.170   5.942  0.2213  0.3128 -0.6022
26158WAT      O 6436   2.959   8.777   8.499  0.0479  0.0349  0.2715
26158WAT     H1 6437   2.885   8.721   8.477 -0.4280 -0.2798  2.4172
26158WAT     H2 6438   2.963   8.842   8.429 -1.7441 -0.4460 -0.3042
26158WAT    EPW 6439   2.950   8.778   8.487 -0.2513 -0.0701  0.4783
26159WAT      O 6440   4.359   0.050   7.238 -0.1101 -0.5305  0.2596
26159WAT     H1 6441   4.284   0.029   7.181 -0.7678 -2.7446  1.8097
26159WAT     H2 6442   4.392  -0.035   7.267  1.4392  0.4711  1.6267
26159WAT    EPW 6443   4.353   0.036   7.234  0.0076 -0.6904  0.6442
26160WAT      O 6444   4.947   2.553   6.180 -0.0351 -0.2373  0.5581
26160WAT     H1 6445   4.958   2.647   6.169  0.6764 -0.2758  0.9379
26160WAT     H2 6446   4.901   2.525   6.100  0.4851  0.2983  0.0604
26160WAT    EPW 6447   4.942   2.562   6.168  0.1273 -0.1717  0.5426
26161WAT      O 6448   4.109   8.259   4.192  0.8950 -0.0357  0.6232
26161WAT     H1 6449   4.130   8.234   4.102  0.2162  3.1850 -0.5432
26161WAT     H2 6450   4.177   8.321   4.217 -0.2041  0.8953  1.4388
26161WAT    EPW 6451   4.120   8.264   4.184  0.6604  0.5116  0.5770
26162WAT      O 6452   4.001   7.891   4.940 -1.1118 -0.2143 -0.0504
26162WAT     H1 6453   4.093   7.881   4.965 -0.8844  0.0524 -0.7537
26162WAT     H2 6454   4.004   7.941   4.858 -1.8434 -0.9985 -0.5652
26162WAT    EPW 6455   4.014   7.896   4.933 -1.1783 -0.2825 -0.2110
26163WAT      O 6456   3.783   0.405   7.095 -0.0985 -0.2790 -0.0935
26163WAT     H1 6457   3.869   0.446   7.088 -0.2189  0.8264  3.0340
26163WAT     H2 6458   3.757   0.421   7.186 -1.8246 -4.1676  0.2690
26163WAT    EPW 6459   3.791   0.413   7.106 -0.3421 -0.6461  0.3667
26164WAT      O 6460   4.233   4.743   2.702 -0.4855  0.4438 -0.2749
26164WAT     H1 6461   4.236   4.838   2.705  0.9780  0.4362 -0.3096
26164WAT     H2 6462   4.149   4.722   2.662 -0.2540  1.7616 -1.5328
26164WAT    EPW 6463   4.223   4.753   2.697 -0.2620  0.6168 -0.4452
26165WAT      O 6464   4.137  10.317   7.045  0.0013 -0.2738 -0.3593
26165WAT     H1 6465   4.167  10.305   7.135  0.0321 -1.7539 -0.5409
26165WAT     H2 6466   4.088  10.399   7.046  0.4748  0.0064  0.8741
26165WAT    EPW 6467   4.134  10.326   7.057  0.0677 -0.4315 -0.2205
26166WAT      O 6468   7.681   2.811   3.613 -0.4027  0.3860  0.2925
26166WAT     H1 6469   7.749   2.800   3.547 -1.1830  1.1259 -0.6695
26166WAT     H2 6470   7.703   2.748   3.681  2.0563  1.5373  0.7012
26166WAT    EPW 6471   7.693   2.801   3.613 -0.1814  0.6354  0.2196
26167WAT      O 6472   6.642   8.003   3.756  0.4301  0.0928  0.2321
26167WAT     H1 6473   6.705   7.932   3.768  3.3323  2.3676 -0.5366
26167WAT     H2 6474   6.605   7.988   3.669  1.5681 -0.1196 -0.2330
26167WAT    EPW 6475   6.645   7.992   3.746  0.9632  0.3643  0.0693
26168WAT      O 6476   4.603   3.530   2.421 -0.3589 -0.8142  0.0192
26168WAT     H1 6477   4.628   3.469   2.490 -0.7254  1.6573  2.5151
26168WAT     H2 6478   4.674   3.525   2.357  1.0873 -1.6927  1.6151
26168WAT    EPW 6479   4.616   3.521   2.422 -0.2165 -0.6040  0.5589
26169WAT      O 6480   7.351   4.521   2.415 -0.2525 -0.1329 -0.4032
26169WAT     H1 6481   7.285   4.480   2.359 -0.4597  0.6060 -0.7082
26169WAT     H2 6482   7.304   4.592   2.460  0.1096 -0.1988  0.0891
26169WAT    EPW 6483   7.336   4.525   2.413 -0.2320 -0.0441 -0.3785
26170WAT      O 6484   5.344   0.459   4.128  0.4750  0.1659  0.6031
26170WAT     H1 6485   5.383   0.512   4.197  3.8215 -1.7019  0.3322
26170WAT     H2 6486   5.281   0.517   4.086  1.5660  2.7877  2.3433
26170WAT    EPW 6487   5.341   0.474   4.132  1.0602  0.2653  0.7968
26171WAT      O 6488   2.772   8.635   3.311 -0.5064  0.0412  0.1045
26171WAT     H1 6489   2.856   8.620   3.354 -0.5524 -1.1199 -0.1674
26171WAT     H2 6490   2.717   8.675   3.378 -1.3134 -3.7796  1.9954
26171WAT    EPW 6491   2.776   8.638   3.325 -0.6188 -0.6156  0.3179
26172WAT      O 6492   7.574   0.135   5.046  0.0626  0.1680  0.3747
26172WAT     H1 6493   7.478   0.137   5.048 -0.0833 -1.4137 -1.9441
26172WAT     H2 6494   7.596   0.042   5.040  1.7782  0.5006  0.9945
26172WAT    EPW 6495   7.564   0.123   5.046  0.2697  0.0033  0.1509
26173WAT      O 6496   8.172   2.185   6.336  0.0041 -0.8053  0.4860
26173WAT     H1 6497   8.134   2.099   6.322  0.8462 -1.7648  3.4821
26173WAT     H2 6498   8.098   2.242   6.355 -0.4888 -0.9812 -0.8167
26173WAT    EPW 6499   8.157   2.181   6.336  0.0501 -0.9550  0.7093
26174WAT      O 6500   5.134   1.203   3.551 -0.2739  0.1918 -0.3239
26174WAT     H1 6501   5.227   1.181   3.557  0.1901  1.2670 -2.5473
26174WAT     H2 6502   5.090   1.139   3.607  1.5076 -2.3823 -1.6861
26174WAT    EPW 6503   5.140   1.192   3.559  0.0222 -0.0059 -0.7969
26175WAT      O 6504   3.872   8.355   7.916 -0.7893 -0.3068  0.5036
26175WAT     H1 6505   3.964   8.379   7.923 -0.9505  0.3067  0.5663
26175WAT     H2 6506   3.859   8.339   7.822 -0.7483  0.1527  0.4153
26175WAT    EPW 6507   3.882   8.356   7.904 -0.8050 -0.1655  0.5004
26176WAT      O 6508   8.488   0.579   6.173  0.0841 -0.2334  0.2727
26176WAT     H1 6509   8.521   0.624   6.251  0.7034 -2.8531  1.6463
26176WAT     H2 6510   8.488   0.646   6.104  0.6087  1.8829  2.2261
26176WAT    EPW 6511   8.493   0.594   6.174  0.2351 -0.2998  0.7117
26177WAT      O 6512   3.880   7.970   2.862 -0.2139  0.3745 -0.1331
26177WAT     H1 6513   3.967   7.985   2.901  0.7070 -5.0966  0.7504
26177WAT     H2 6514   3.897   7.960   2.769 -0.2093  0.8914 -0.1914
26177WAT    EPW 6515   3.894   7.971   2.855 -0.0919 -0.2789 -0.0242
26178WAT      O 6516   5.690   1.017   7.488  0.3358  0.0627 -0.4271
26178WAT     H1 6517   5.766   1.060   7.449 -0.5104  0.9035 -1.1850
26178WAT     H2 6518   5.706   1.022   7.583  0.3116  1.9829 -0.4926
26178WAT    EPW 6519   5.702   1.023   7.496  0.2208  0.4269 -0.5357
26179WAT      O 6520   1.970  10.291   4.007 -0.0850 -0.0509 -0.4215
26179WAT     H1 6521   2.061  10.267   4.021 -0.1352 -0.0800 -0.1198
26179WAT     H2 6522   1.925  10.261   4.087 -0.8401 -2.4781 -1.6492
26179WAT    EPW 6523   1.976  10.284   4.020 -0.1912 -0.3748 -0.5436
26180WAT      O 6524   5.542   9.698   4.798 -0.3967 -0.0186 -0.5371
26180WAT     H1 6525   5.618   9.706   4.741 -0.2183  1.4863 -0.1231
26180WAT     H2 6526   5.469   9.682   4.738 -0.1640  1.2231 -1.1775
26180WAT    EPW 6527   5.542   9.697   4.783 -0.3424  0.3433 -0.5670
26181WAT      O 6528   5.815   0.249   0.589 -0.7635  0.0450  0.3243
26181WAT     H1 6529   5.825   0.274   0.681 -0.4404 -0.6445  0.4861
26181WAT     H2 6530   5.746   0.183   0.589  1.1238 -2.0521  0.4977
26181WAT    EPW 6531   5.807   0.244   0.601 -0.4718 -0.3225  0.3685
26182WAT      O 6532   3.210   0.573   3.258 -0.4736 -0.5134 -0.4356
26182WAT     H1 6533   3.223   0.514   3.184  2.3613 -2.8769  1.7143
26182WAT     H2 6534   3.117   0.565   3.279 -1.2158 -0.2791 -3.1976
26182WAT    EPW 6535   3.200   0.564   3.251 -0.1975 -0.7942 -0.5165
26183WAT      O 6536   3.362   9.485   4.613 -0.3637  0.6352  0.2143
26183WAT     H1 6537   3.284   9.528   4.648 -1.4314 -0.2521 -1.0159
26183WAT     H2 6538   3.344   9.474   4.520  0.6224 -0.8940  0.1775
26183WAT    EPW 6539   3.349   9.489   4.605 -0.3746  0.3166  0.0474
26184WAT      O 6540   0.232   8.665   2.791 -0.6857  0.3494  0.0080
26184WAT     H1 6541   0.326   8.679   2.798 -0.8418  2.5424 -1.3582
26184WAT     H2 6542   0.218   8.642   2.700 -1.1916 -3.4309  0.8863
26184WAT    EPW 6543   0.242   8.664   2.780 -0.7730  0.1397 -0.0564
26185WAT      O 6544   3.625   0.856   7.087 -0.4460 -0.3868  0.3411
26185WAT     H1 6545   3.639   0.776   7.037  0.6142  0.1513 -0.2603
26185WAT     H2 6546   3.683   0.920   7.046 -0.3572  0.3604  1.5778
26185WAT    EPW 6547   3.635   0.854   7.075 -0.2944 -0.2172  0.4251
26186WAT      O 6548   7.877   1.129   2.145 -0.0380 -0.3511 -0.3242
26186WAT     H1 6549   7.798   1.076   2.158 -0.3580  0.6016  1.9052
26186WAT     H2 6550   7.949   1.068   2.162 -0.3666 -0.5011  0.5685
26186WAT    EPW 6551   7.876   1.114   2.149 -0.1235 -0.2452  0.0875
26187WAT      O 6552   3.134   1.120   7.412 -0.5440 -0.1123 -0.0345
26187WAT     H1 6553   3.174   1.051   7.358 -0.5517 -1.2574  1.3564
26187WAT     H2 6554   3.177   1.112   7.497 -0.5995  1.5852  0.1916
26187WAT    EPW 6555   3.145   1.110   7.416 -0.5524 -0.0395  0.1788
26188WAT      O 6556   6.208   0.279   6.735  0.2661 -0.3143 -0.3446
26188WAT     H1 6557   6.275   0.328   6.784  0.1162 -0.3266 -0.1273
26188WAT     H2 6558   6.247   0.193   6.721  0.3353 -0.2893 -0.3066
26188WAT    EPW 6559   6.222   0.274   6.740  0.2553 -0.3127 -0.3109
26189WAT      O 6560   4.629   0.027   5.374 -0.8061  0.2429 -0.4722
26189WAT     H1 6561   4.723   0.014   5.382 -0.9285 -0.3802  0.1197
26189WAT     H2 6562   4.619   0.110   5.327  0.0317 -0.7218 -2.4516
26189WAT    EPW 6563   4.640   0.036   5.369 -0.7117  0.0335 -0.6554
26190WAT      O 6564   4.080   7.983   6.905  0.2295  0.1436  0.6307
26190WAT     H1 6565   4.024   8.049   6.865  1.8732  2.5854  2.0759
26190WAT     H2 6566   4.125   7.941   6.832 -1.9878 -0.5649 -0.4191
26190WAT    EPW 6567   4.078   7.986   6.890  0.1540  0.3722  0.6828
26191WAT      O 6568   1.618   8.959   5.773 -0.0355  0.4954 -0.2640
26191WAT     H1 6569   1.671   9.037   5.789  1.3776  0.2392 -2.9686
26191WAT     H2 6570   1.534   8.978   5.815  1.9700  1.0215  4.0332
26191WAT    EPW 6571   1.614   8.972   5.780  0.4154  0.5307 -0.0541
26192WAT      O 6572  10.466   6.596   4.005  0.3696 -0.0820  0.2348
26192WAT     H1 6573  10.471   6.507   4.040  1.0064  0.0389  0.4819
26192WAT     H2 6574  10.376   6.605   3.974 -1.0157  0.5446  3.8633
26192WAT    EPW 6575  10.455   6.586   4.006  0.2704  0.0167  0.7458
26193WAT      O 6576   2.599   0.914   4.973 -0.2075  0.2257  0.2363
26193WAT     H1 6577   2.610   0.823   5.000 -0.3889  0.1399  0.0235
26193WAT     H2 6578   2.524   0.912   4.913 -0.5774  0.6033  0.6769
26193WAT    EPW 6579   2.591   0.902   4.968 -0.2801  0.2642  0.2666
26194WAT      O 6580   4.019   1.667   4.078  0.2227  0.1299  0.6679
26194WAT     H1 6581   4.104   1.710   4.069  1.9676 -3.0267  0.4414
26194WAT     H2 6582   4.041   1.579   4.110 -2.8737 -1.1740 -0.4410
26194WAT    EPW 6583   4.033   1.661   4.081  0.0446 -0.4585  0.4916
26195WAT      O 6584   8.288   0.683   3.718 -0.3232  0.2443 -0.4407
26195WAT     H1 6585   8.212   0.651   3.669 -0.2681 -0.6411  0.0187
26195WAT     H2 6586   8.306   0.613   3.781  0.4526  0.7528 -0.0862
26195WAT    EPW 6587   8.280   0.669   3.720 -0.2131  0.1945 -0.3334
26196WAT      O 6588   2.794   9.248   6.912  0.1371  0.5765 -0.0862
26196WAT     H1 6589   2.839   9.205   6.840 -2.1389 -0.6382 -0.8869
26196WAT     H2 6590   2.743   9.318   6.870 -2.6464 -1.2822 -0.0562
26196WAT    EPW 6591   2.793   9.252   6.897 -0.5301  0.1712 -0.1879
26197WAT      O 6592   4.293   7.207   5.432  0.7276 -0.1070  1.0304
26197WAT     H1 6593   4.364   7.211   5.496  0.4089 -0.1152  1.3878
26197WAT     H2 6594   4.232   7.143   5.468  1.5363 -1.7200 -0.3016
26197WAT    EPW 6595   4.295   7.199   5.445  0.7923 -0.3209  0.9017
26198WAT      O 6596   4.055   8.670   6.409  0.5712 -0.2649 -0.3389
26198WAT     H1 6597   4.126   8.634   6.355 -1.0941 -1.0463 -2.1681
26198WAT     H2 6598   4.081   8.761   6.425  0.4147  0.5874 -4.0365
26198WAT    EPW 6599   4.068   8.677   6.404  0.3309 -0.2556 -1.0679
26199WAT      O 6600   0.120   0.526   7.213 -0.4368 -0.3405  0.0803
26199WAT     H1 6601   0.055   0.587   7.178  0.6957  0.0357 -1.4574
26199WAT     H2 6602   0.092   0.510   7.304 -2.3871  0.1688 -0.3888
26199WAT    EPW 6603   0.108   0.532   7.221 -0.5446 -0.2237 -0.1843
26200WAT      O 6604   2.469   9.185   6.187 -0.2809  0.0107 -0.4134
26200WAT     H1 6605   2.429   9.105   6.153  0.2330 -0.4002 -0.0637
26200WAT     H2 6606   2.445   9.252   6.123  1.4064 -0.9072 -2.1231
26200WAT    EPW 6607   2.461   9.183   6.174  0.0094 -0.1645 -0.5927
26201WAT      O 6608   2.832  10.003   2.541  0.2486 -0.2819  0.4334
26201WAT     H1 6609   2.864  10.086   2.507  1.8478 -0.4280  1.4838
26201WAT     H2 6610   2.838   9.943   2.467  2.5433 -0.3050  0.5709
26201WAT    EPW 6611   2.837  10.006   2.527  0.7622 -0.3042  0.5901
26202WAT      O 6612   1.644   9.269   2.170  0.1050  0.7192 -0.1099
26202WAT     H1 6613   1.674   9.259   2.260 -0.5664  1.3072  0.2003
26202WAT     H2 6614   1.569   9.210   2.163  1.8962 -1.5886 -1.2115
26202WAT    EPW 6615   1.638   9.260   2.181  0.2528  0.4916 -0.2142
26203WAT      O 6616   7.834   1.010   2.738 -0.6332 -1.0779 -0.8469
26203WAT     H1 6617   7.752   1.059   2.736 -0.4960 -0.7011  1.0465
26203WAT     H2 6618   7.812   0.928   2.782  0.1626 -0.5477  0.6398
26203WAT    EPW 6619   7.821   1.005   2.744 -0.5102 -0.9583 -0.4010
26204WAT      O 6620   5.822   0.151   5.297  0.3933 -0.2448 -0.1313
26204WAT     H1 6621   5.739   0.193   5.275  0.6000 -0.6049 -1.7181
26204WAT     H2 6622   5.822   0.146   5.393 -1.3970 -0.2042 -0.0988
26204WAT    EPW 6623   5.811   0.156   5.307  0.1845 -0.2869 -0.3364
26205WAT      O 6624   1.584   7.159   6.445 -0.4630 -0.2192  0.3977
26205WAT     H1 6625   1.532   7.235   6.472 -1.0161 -0.1402 -0.8624
26205WAT     H2 6626   1.672   7.178   6.478 -1.0114  0.0549  1.7843
26205WAT    EPW 6627   1.589   7.172   6.453 -0.6083 -0.1726  0.4144
26206WAT      O 6628   9.925   1.721   5.447  0.0882 -0.2310 -0.5844
26206WAT     H1 6629   9.945   1.810   5.420 -2.7279 -0.0929 -2.6277
26206WAT     H2 6630   9.899   1.676   5.367 -2.6915 -1.6263  0.9345
26206WAT    EPW 6631   9.924   1.727   5.433 -0.6504 -0.3968 -0.6535
26207WAT      O 6632   2.546   7.943   5.366  0.6403 -0.0407 -0.3454
26207WAT     H1 6633   2.468   7.891   5.382  0.6034  0.3291  0.7327
26207WAT     H2 6634   2.518   8.034   5.376  1.0483  0.1268 -0.6610
26207WAT    EPW 6635   2.532   7.948   5.369  0.6891  0.0305 -0.2449
26208WAT      O 6636   1.548   1.534   5.120  0.4040 -0.7048  0.5033
26208WAT     H1 6637   1.551   1.439   5.121  0.3418 -0.7518 -1.1054
26208WAT     H2 6638   1.486   1.557   5.189 -1.4091 -1.9536 -0.6106
26208WAT    EPW 6639   1.540   1.525   5.129  0.1566 -0.8757  0.1440
26209WAT      O 6640   2.376   8.612   2.790  0.0438  0.1108 -0.2141
26209WAT     H1 6641   2.403   8.527   2.825  1.3016  0.3332 -0.5891
26209WAT     H2 6642   2.281   8.605   2.782  0.0532 -1.0156  0.3930
26209WAT    EPW 6643   2.367   8.600   2.793  0.2110 -0.0091 -0.1835
26210WAT      O 6644   8.818  10.152   3.953  0.7048 -0.3633 -0.1140
26210WAT     H1 6645   8.847  10.112   4.035  0.5266  0.5848  0.4261
26210WAT     H2 6646   8.820  10.246   3.970 -0.2986 -0.1872 -0.8692
26210WAT    EPW 6647   8.822  10.159   3.966  0.5488 -0.2151 -0.1425
26211WAT      O 6648   0.059   9.261   4.229  0.2332  0.5875 -0.0852
26211WAT     H1 6649   0.125   9.248   4.297  0.2866  1.5123  0.0524
26211WAT     H2 6650   0.007   9.181   4.231  0.2576  0.5797  1.0222
26211WAT    EPW 6651   0.061   9.249   4.238  0.2435  0.7081  0.0789
26212WAT      O 6652   3.073   9.572   4.899  0.2770 -0.7756 -0.4776
26212WAT     H1 6653   3.159   9.588   4.937  0.6088  0.2559 -1.5906
26212WAT     H2 6654   3.021   9.649   4.923 -0.1268 -1.0676 -0.3982
26212WAT    EPW 6655   3.077   9.584   4.907  0.2675 -0.6776 -0.6139
26213WAT      O 6656   5.320   2.929   2.993 -0.5427 -0.3653  1.2406
26213WAT     H1 6657   5.327   3.003   3.053 -2.2138  0.2043  0.7775
26213WAT     H2 6658   5.226   2.917   2.979 -0.2958 -2.2319  0.8641
26213WAT    EPW 6659   5.309   2.937   2.999 -0.7303 -0.5363  1.1300
26214WAT      O 6660   2.855   7.433   6.892 -0.1126 -0.8821 -0.2996
26214WAT     H1 6661   2.839   7.339   6.902  0.8981 -0.8648  2.0925
26214WAT     H2 6662   2.854   7.447   6.797 -1.1968 -3.1220 -0.6853
26214WAT    EPW 6663   2.853   7.423   6.881 -0.1223 -1.1752 -0.0350
26215WAT      O 6664   9.032   0.865   7.892  0.5166 -0.3050  0.0698
26215WAT     H1 6665   8.974   0.882   7.818 -0.1100  2.0293  1.0008
26215WAT     H2 6666   9.016   0.773   7.915 -4.1874  0.5241  1.3176
26215WAT    EPW 6667   9.022   0.855   7.886 -0.1864  0.1123  0.3574
26216WAT      O 6668   9.014   1.384   4.593  0.0037  0.4101 -0.3880
26216WAT     H1 6669   9.063   1.390   4.675  0.0183  0.2733 -0.3871
26216WAT     H2 6670   8.941   1.446   4.605 -0.9163 -0.7749  0.3733
26216WAT    EPW 6671   9.011   1.393   4.605 -0.1159  0.2357 -0.2871
26217WAT      O 6672   4.018   8.108   3.401 -0.1124 -0.1532 -0.1663
26217WAT     H1 6673   4.080   8.036   3.415 -0.0908 -0.3432 -1.1581
26217WAT     H2 6674   4.027   8.163   3.479  0.7912 -0.5526  0.0262
26217WAT    EPW 6675   4.027   8.106   3.413  0.0095 -0.2313 -0.2717
26218WAT      O 6676   2.184  10.162   4.202 -0.3574  0.1104  0.0813
26218WAT     H1 6677   2.219  10.081   4.164 -0.1127  1.0078 -1.7144
26218WAT     H2 6678   2.257  10.196   4.255 -0.2847 -0.5764  0.4357
26218WAT    EPW 6679   2.199  10.156   4.204 -0.3154  0.1383 -0.1090
26219WAT      O 6680   3.413   7.051   2.207 -0.2581  0.2974 -0.1071
26219WAT     H1 6681   3.326   7.070   2.172 -0.5113 -1.1913 -0.3572
26219WAT     H2 6682   3.396   7.008   2.291  0.2469  0.0777 -0.1152
26219WAT    EPW 6683   3.399   7.048   2.213 -0.2248  0.0715 -0.1410
26220WAT      O 6684   5.064   2.281   4.516  0.2519 -0.0563 -0.0621
26220WAT     H1 6685   5.063   2.295   4.611 -0.4585  0.4719 -0.1454
26220WAT     H2 6686   5.052   2.368   4.479  1.8056 -0.0750 -0.6672
26220WAT    EPW 6687   5.062   2.294   4.524  0.3631  0.0108 -0.1531
26221WAT      O 6688   3.739   9.475   4.504  0.4690 -0.1039  0.3480
26221WAT     H1 6689   3.831   9.470   4.475  0.0817 -2.8523 -0.7851
26221WAT     H2 6690   3.732   9.407   4.571 -0.9482 -0.6311 -0.3131
26221WAT    EPW 6691   3.750   9.465   4.509  0.2310 -0.5360  0.1113
26222WAT      O 6692   7.881   1.158   4.341  0.0906 -0.0231 -0.4422
26222WAT     H1 6693   7.799   1.133   4.298 -0.3749 -0.1989  0.5312
26222WAT     H2 6694   7.893   1.092   4.410  0.9415  0.1291 -0.4271
26222WAT    EPW 6695   7.872   1.146   4.344  0.1411 -0.0262 -0.3119
26223WAT      O 6696   7.427   0.450   5.140  0.2212  0.1992 -0.3169
26223WAT     H1 6697   7.522   0.444   5.136  0.1798  0.1609 -2.4382
26223WAT     H2 6698   7.396   0.364   5.113 -0.3558  0.8804 -2.0534
26223WAT    EPW 6699   7.435   0.438   5.136  0.1395  0.2840 -0.8259
26224WAT      O 6700   8.696   3.504   4.022  0.3058 -0.5606 -0.4577
26224WAT     H1 6701   8.772   3.521   3.966 -0.0344  2.0218 -0.2372
26224WAT     H2 6702   8.626   3.558   3.986  0.2545  1.8004  2.6897
26224WAT    EPW 6703   8.697   3.513   4.010  0.2542  0.0913 -0.0134
26225WAT      O 6704  10.444   8.787   4.868  0.1247  0.0229  1.3309
26225WAT     H1 6705  10.537   8.777   4.885  0.8448  0.8688 -1.5553
26225WAT     H2 6706  10.434   8.877   4.837 -1.2245 -0.6656 -0.4708
26225WAT    EPW 6707  10.455   8.798   4.866  0.0415  0.0439  0.7126
26226WAT      O 6708   5.933   2.089   3.862  0.1969 -0.0591  0.3898
26226WAT     H1 6709   5.861   2.111   3.921  0.3848  2.2352 -0.1453
26226WAT     H2 6710   5.997   2.158   3.875  0.9943 -0.4377 -1.2536
26226WAT    EPW 6711   5.932   2.101   3.871  0.3269  0.1936  0.1024
26227WAT      O 6712   6.577   1.321   4.251  0.0664  0.3285  0.0537
26227WAT     H1 6713   6.505   1.384   4.259 -0.6072 -0.4107 -0.0993
26227WAT     H2 6714   6.614   1.315   4.339 -0.3457  0.3820  0.2325
26227WAT    EPW 6715   6.572   1.329   4.264 -0.0770  0.2381  0.0570
26228WAT      O 6716   5.257   2.311   4.041  0.5362 -0.1646  0.4479
26228WAT     H1 6717   5.312   2.370   4.093  1.6113 -0.9935  0.2846
26228WAT     H2 6718   5.317   2.269   3.980 -0.3270 -0.9235  0.0888
26228WAT    EPW 6719   5.272   2.314   4.040  0.5643 -0.3738  0.3791
26229WAT      O 6720   1.480   9.731   8.157  0.4812  0.1789  0.7085
26229WAT     H1 6721   1.395   9.766   8.133  0.6792  0.5973  0.6077
26229WAT     H2 6722   1.464   9.638   8.176 -0.4579  0.7282  2.9941
26229WAT    EPW 6723   1.467   9.723   8.157  0.3834  0.3066  0.9971
26230WAT      O 6724   3.257   8.032   2.398 -1.2533  0.4809  0.1692
26230WAT     H1 6725   3.297   8.118   2.415 -0.0851  0.2851 -1.4229
26230WAT     H2 6726   3.207   8.045   2.318 -1.4789 -0.2082  0.1978
26230WAT    EPW 6727   3.256   8.045   2.390 -1.1289  0.3648 -0.0371
26231WAT      O 6728   3.704   9.764   4.534  0.2374 -1.2116 -0.3621
26231WAT     H1 6729   3.722   9.722   4.449  1.1987 -0.9138 -0.3115
26231WAT     H2 6730   3.708   9.692   4.597 -1.4001 -1.5990 -0.6589
26231WAT    EPW 6731   3.707   9.749   4.531  0.1483 -1.2231 -0.3943
26232WAT      O 6732   9.570  10.160   3.055 -0.0607  0.0061 -0.1897
26232WAT     H1 6733   9.657  10.139   3.088  0.4997  0.0321 -1.5693
26232WAT     H2 6734   9.519  10.081   3.069  0.6151 -0.5367 -0.7204
26232WAT    EPW 6735   9.575  10.147   3.061  0.1025 -0.0620 -0.4417
26233WAT      O 6736   1.859   4.486   6.155  0.1892  0.6215 -0.1030
26233WAT     H1 6737   1.880   4.420   6.220  1.1016  0.8337 -0.1681
26233WAT     H2 6738   1.805   4.550   6.202 -1.3391 -0.5176 -0.2321
26233WAT    EPW 6739   1.854   4.486   6.169  0.1080  0.4995 -0.1287
26234WAT      O 6740   1.193   8.514   4.209 -0.3099 -0.6458  0.2742
26234WAT     H1 6741   1.244   8.544   4.285  1.1038 -0.8987 -0.5283
26234WAT     H2 6742   1.176   8.595   4.160  0.4719 -0.7000 -0.1096
26234WAT    EPW 6743   1.198   8.529   4.213 -0.0203 -0.6862  0.1178
26235WAT      O 6744   3.857   5.633   6.297  0.1399 -0.3843  0.1914
26235WAT     H1 6745   3.762   5.642   6.304 -0.1157 -2.0990 -0.6325
26235WAT     H2 6746   3.877   5.554   6.346  1.1945  0.1232  0.5936
26235WAT    EPW 6747   3.847   5.624   6.304  0.2453 -0.5436  0.1359
26236WAT      O 6748  10.055   8.095   7.253 -0.8388 -0.2726 -0.0842
26236WAT     H1 6749  10.010   8.012   7.268  0.9112 -1.0982  0.9338
26236WAT     H2 6750  10.055   8.138   7.338  2.5065 -1.5255  0.7121
26236WAT    EPW 6751  10.049   8.090   7.266 -0.1669 -0.5469  0.1552
26237WAT      O 6752   1.465   8.555   3.044 -0.4738  0.2747  0.0823
26237WAT     H1 6753   1.467   8.568   2.949  2.1066  1.5518  0.2293
26237WAT     H2 6754   1.459   8.460   3.054  0.3705  0.0218 -1.4030
26237WAT    EPW 6755   1.465   8.544   3.032 -0.0221  0.4101 -0.0942
26238WAT      O 6756   1.954   9.509   6.874 -0.3842 -0.3412 -0.4181
26238WAT     H1 6757   1.937   9.545   6.962 -0.5870  1.4443 -1.1408
26238WAT     H2 6758   1.881   9.540   6.821  2.0028  2.6676 -2.2839
26238WAT    EPW 6759   1.942   9.518   6.879 -0.0961  0.2909 -0.7594
26239WAT      O 6760   4.253   2.331   1.961  0.1508  0.5668 -0.0247
26239WAT     H1 6761   4.157   2.333   1.971 -0.1191 -2.0247 -1.2807
26239WAT     H2 6762   4.273   2.410   1.910 -1.2839  1.2121  0.3561
26239WAT    EPW 6763   4.243   2.342   1.955 -0.0739  0.3101 -0.1401
26240WAT      O 6764   4.238   8.132   2.303 -0.2400  0.3615 -0.1506
26240WAT     H1 6765   4.314   8.104   2.354 -0.1015 -1.0670 -1.0969
26240WAT     H2 6766   4.202   8.206   2.353 -1.1271 -1.9416  2.9937
26240WAT    EPW 6767   4.243   8.138   2.316 -0.3388 -0.1311  0.1392
26241WAT      O 6768   6.577   1.251   5.703 -0.3388 -0.2491  0.5761
26241WAT     H1 6769   6.551   1.183   5.764  0.8004 -3.1790 -1.9540
26241WAT     H2 6770   6.670   1.265   5.720 -0.3729  0.0893  0.5047
26241WAT    EPW 6771   6.586   1.244   5.713 -0.1931 -0.5909  0.2332
26242WAT      O 6772   3.887   0.318   4.349 -0.6429 -0.4997 -0.3095
26242WAT     H1 6773   3.947   0.389   4.375 -1.9426  0.7353 -0.5465
26242WAT     H2 6774   3.915   0.295   4.260 -1.5319  1.2629 -1.0947
26242WAT    EPW 6775   3.899   0.324   4.341 -0.9316 -0.1043 -0.4439
26243WAT      O 6776  10.260   4.657   4.541  0.5282 -0.5256 -0.3508
26243WAT     H1 6777  10.330   4.704   4.587  1.7354 -1.1207 -1.5230
26243WAT     H2 6778  10.195   4.725   4.522  1.4413  0.3454 -0.4800
26243WAT    EPW 6779  10.261   4.672   4.545  0.8082 -0.4890 -0.5224
26244WAT      O 6780  10.367   9.992   2.436  0.4622  0.8149 -0.4210
26244WAT     H1 6781  10.322   9.918   2.393  1.3862  0.2368 -0.4163
26244WAT     H2 6782  10.364   9.969   2.529  2.7648 -0.4157 -0.5777
26244WAT    EPW 6783  10.360   9.979   2.443  0.8879  0.5765 -0.4411
26245WAT      O 6784   1.947   9.506   1.310  0.4720 -0.1635 -0.4338
26245WAT     H1 6785   2.036   9.469   1.307  0.2432 -0.7894  0.1938
26245WAT     H2 6786   1.924   9.520   1.218  1.7321  1.2806 -0.5786
26245WAT    EPW 6787   1.956   9.503   1.297  0.6081 -0.0553 -0.3700
26246WAT      O 6788   5.832   2.602   4.619  0.2675  0.5807 -0.1427
26246WAT     H1 6789   5.766   2.606   4.687  0.3428 -0.1934 -0.0152
26246WAT     H2 6790   5.795   2.651   4.546 -0.2478  0.5363  0.0884
26246WAT    EPW 6791   5.819   2.609   4.618  0.2096  0.4727 -0.0954
26247WAT      O 6792   6.983   1.753   1.644 -0.3251  0.4555 -0.5293
26247WAT     H1 6793   6.979   1.722   1.735 -0.3315 -1.8426 -1.2663
26247WAT     H2 6794   7.051   1.700   1.603  0.2113  1.9855 -1.7107
26247WAT    EPW 6795   6.991   1.742   1.651 -0.2553  0.3542 -0.7823
26248WAT      O 6796   4.536   8.689   3.274 -0.4063  0.8127 -0.3827
26248WAT     H1 6797   4.612   8.715   3.222  0.2849 -0.2198  0.0606
26248WAT     H2 6798   4.477   8.764   3.270  0.3706  1.4071 -1.2375
26248WAT    EPW 6799   4.539   8.702   3.266 -0.2129  0.7544 -0.4370
26249WAT      O 6800   8.775   0.423   6.529  1.1113  0.7114  0.5282
26249WAT     H1 6801   8.687   0.430   6.494  1.7160  4.0001 -0.7347
26249WAT     H2 6802   8.764   0.421   6.624 -0.3168  0.9287  0.3744
26249WAT    EPW 6803   8.762   0.424   6.537  1.0028  1.1738  0.3414
26250WAT      O 6804   3.482   3.575   4.887  0.1987 -0.1017  0.0961
26250WAT     H1 6805   3.486   3.600   4.979  0.5528 -0.1284  0.0903
26250WAT     H2 6806   3.489   3.658   4.839 -0.9599  0.0140  0.0974
26250WAT    EPW 6807   3.483   3.590   4.893  0.0927 -0.0900  0.0956
26251WAT      O 6808   2.309   0.464   4.865  0.0936  0.1818  0.2578
26251WAT     H1 6809   2.375   0.486   4.800  1.2186 -0.5305  1.1222
26251WAT     H2 6810   2.231   0.513   4.838  0.6755  0.2850 -1.3242
26251WAT    EPW 6811   2.307   0.473   4.853  0.3188  0.1014  0.1631
26252WAT      O 6812   3.999   8.457   2.911 -0.4206 -0.0152 -0.4374
26252WAT     H1 6813   4.066   8.489   2.971 -2.5056  1.2478  1.3577
26252WAT     H2 6814   4.013   8.506   2.830  0.5473  0.5180  0.0392
26252WAT    EPW 6815   4.010   8.467   2.908 -0.5679  0.2217 -0.1377
26253WAT      O 6816   4.343   8.114   4.823  0.1290  0.2301 -0.5452
26253WAT     H1 6817   4.391   8.045   4.870 -1.2762  0.7299  1.7478
26253WAT     H2 6818   4.383   8.196   4.852 -1.0009  0.5680  0.1023
26253WAT    EPW 6819   4.355   8.115   4.833 -0.2055  0.3409 -0.1576
26254WAT      O 6820   7.470   8.558   4.559 -0.0244  0.7746  0.8126
26254WAT     H1 6821   7.387   8.579   4.516 -0.0054  1.2602  1.0061
26254WAT     H2 6822   7.495   8.639   4.603  0.0890  0.3558  1.5285
26254WAT    EPW 6823   7.463   8.572   4.559 -0.0069  0.7830  0.9327
26255WAT      O 6824   9.946   9.985   5.769 -0.2103  0.5476 -0.7510
26255WAT     H1 6825   9.905   9.960   5.852 -1.3464  3.0414 -0.4439
26255WAT     H2 6826  10.009  10.054   5.794 -0.2651  1.0380 -1.9045
26255WAT    EPW 6827   9.949   9.991   5.783 -0.3672  0.9418 -0.8626
26256WAT      O 6828   2.679   1.577   4.512  0.9964 -0.4359 -0.3326
26256WAT     H1 6829   2.631   1.621   4.442  2.1120  1.9744  0.3171
26256WAT     H2 6830   2.768   1.567   4.477  1.5493  0.7500  0.6591
26256WAT    EPW 6831   2.685   1.581   4.498  1.2163  0.0383 -0.1161
26257WAT      O 6832  10.789   5.135   5.825  0.2524  0.2228  0.2518
26257WAT     H1 6833  10.853   5.205   5.819 -2.1251  2.7657  2.0625
26257WAT     H2 6834  10.801   5.099   5.913  2.5072 -2.9883 -1.1494
26257WAT    EPW 6835  10.799   5.139   5.836  0.2360  0.1347  0.3057
26258WAT      O 6836  10.068   6.897   5.198  0.5003  0.2530 -0.0799
26258WAT     H1 6837  10.011   6.862   5.129 -2.0230  0.6999  1.6628
26258WAT     H2 6838  10.095   6.820   5.248  1.8138  0.0019 -1.1061
26258WAT    EPW 6839  10.064   6.882   5.195  0.3409  0.2789  0.0145
26259WAT      O 6840   0.175   2.913   4.226  0.3455 -0.3413 -0.1001
26259WAT     H1 6841   0.131   2.904   4.141 -0.7861 -1.0613  0.5395
26259WAT     H2 6842   0.268   2.916   4.205  0.0858 -0.6694 -1.3547
26259WAT    EPW 6843   0.181   2.912   4.212  0.1620 -0.4795 -0.1814
26260WAT      O 6844   1.060   4.889   7.189 -0.8909 -0.0503 -0.3153
26260WAT     H1 6845   0.984   4.917   7.138 -1.2428 -1.8696 -0.8333
26260WAT     H2 6846   1.042   4.918   7.278 -1.8565  0.1502 -0.5684
26260WAT    EPW 6847   1.048   4.897   7.194 -1.0645 -0.2637 -0.4170
26261WAT      O 6848   2.223   2.504   3.473  0.0485 -0.0159  0.0443
26261WAT     H1 6849   2.298   2.556   3.443 -0.7930  1.1030 -0.1895
26261WAT     H2 6850   2.254   2.414   3.469  2.2346  0.5086  2.2911
26261WAT    EPW 6851   2.237   2.499   3.469  0.2259  0.2009  0.3097
26262WAT      O 6852   2.704   7.156   5.005  0.2366  0.4677 -0.0684
26262WAT     H1 6853   2.696   7.140   4.911 -1.1460  1.7787 -0.1991
26262WAT     H2 6854   2.621   7.126   5.042  0.0870  1.5267  0.4922
26262WAT    EPW 6855   2.692   7.150   4.998  0.0345  0.7803 -0.0117
26263WAT      O 6856  10.855   4.588   8.415 -0.8496  0.3711  0.5575
26263WAT     H1 6857  10.884   4.645   8.487  0.9188  2.5992 -1.7143
26263WAT     H2 6858  10.926   4.526   8.403 -0.4296  0.9694 -0.1662
26263WAT    EPW 6859  10.868   4.588   8.423 -0.5608  0.7439  0.1626
26264WAT      O 6860  10.788   4.111   7.017 -0.2463  0.4755 -0.1525
26264WAT     H1 6861  10.720   4.129   7.083 -1.9078 -0.9392 -1.3870
26264WAT     H2 6862  10.743   4.062   6.949  2.2247 -1.2895 -0.6526
26264WAT    EPW 6863  10.773   4.107   7.017 -0.1392  0.0563 -0.3815
26265WAT      O 6864   1.800   2.622   4.035  0.1337  0.4180 -0.2936
26265WAT     H1 6865   1.827   2.689   4.098  2.3176 -1.0674  0.4511
26265WAT     H2 6866   1.865   2.553   4.043 -2.6107 -2.3969 -0.1744
26265WAT    EPW 6867   1.812   2.622   4.044  0.0597 -0.1491 -0.1795
26266WAT      O 6868   2.145   7.294   2.273  0.0041 -0.7509  0.2690
26266WAT     H1 6869   2.175   7.307   2.363  1.3137 -3.5419  0.3449
26266WAT     H2 6870   2.223   7.262   2.227 -1.1177 -1.2590 -1.3564
26266WAT    EPW 6871   2.159   7.291   2.279  0.0290 -1.1861  0.0646
26267WAT      O 6872  10.299   2.734   0.252 -0.1631 -0.0091 -0.1614
26267WAT     H1 6873  10.221   2.777   0.215 -0.0401  0.6693  0.3412
26267WAT     H2 6874  10.319   2.664   0.191 -1.0913 -0.1013 -0.3709
26267WAT    EPW 6875  10.291   2.731   0.239 -0.2694  0.0683 -0.1228
26268WAT      O 6876  10.561   1.762   6.045  0.0763 -0.8693  0.4551
26268WAT     H1 6877  10.556   1.740   5.952  2.5720 -0.7308  0.2003
26268WAT     H2 6878  10.588   1.681   6.088 -0.2391 -0.7247  0.9297
26268WAT    EPW 6879  10.564   1.749   6.039  0.3638 -0.8320  0.4840
26269WAT      O 6880   2.690   2.859   4.414 -0.2484  0.0853  0.3800
26269WAT     H1 6881   2.659   2.773   4.386 -0.1853 -0.1191  0.9144
26269WAT     H2 6882   2.759   2.882   4.352 -0.0968 -0.3610  0.3809
26269WAT    EPW 6883   2.695   2.851   4.402 -0.2201 -0.0006  0.4506
26270WAT      O 6884   2.713   4.854   4.942  0.1877 -0.0330  0.2613
26270WAT     H1 6885   2.804   4.879   4.959 -0.3806  2.3871  0.0376
26270WAT     H2 6886   2.709   4.843   4.847  0.0434  0.8074  0.1652
26270WAT    EPW 6887   2.725   4.856   4.932  0.0937  0.3970  0.2193
26271WAT      O 6888   2.933   6.993   4.400  0.5178 -0.5515  0.2429
26271WAT     H1 6889   2.929   7.089   4.393 -0.2185 -0.6566 -1.0470
26271WAT     H2 6890   2.866   6.971   4.464  0.8810 -0.1923  0.7563
26271WAT    EPW 6891   2.923   7.003   4.407  0.4686 -0.5181  0.1407
26272WAT      O 6892   1.974   3.846   3.308 -0.6517  0.9489  0.6001
26272WAT     H1 6893   2.052   3.792   3.297 -2.0412 -0.9769 -0.4602
26272WAT     H2 6894   1.928   3.806   3.382 -2.2564 -0.1393 -0.8935
26272WAT    EPW 6895   1.978   3.833   3.317 -1.0467  0.5513  0.2633
26273WAT      O 6896   6.627   0.047   2.731  0.5997 -0.0815  0.2182
26273WAT     H1 6897   6.531   0.051   2.725  0.6370  2.1118  0.3801
26273WAT     H2 6898   6.653  -0.003   2.654 -0.6153  0.5681 -0.6551
26273WAT    EPW 6899   6.618   0.041   2.720  0.4444  0.2935  0.1245
26274WAT      O 6900   0.817   5.147   5.640 -0.7061  0.0027  0.3503
26274WAT     H1 6901   0.873   5.211   5.597 -1.5573  1.1982  0.9694
26274WAT     H2 6902   0.827   5.067   5.588  0.0740  0.7346 -0.6572
26274WAT    EPW 6903   0.826   5.145   5.628 -0.7155  0.2570  0.2992
26275WAT      O 6904   9.416   7.837   4.369 -0.4129 -0.3737 -0.1355
26275WAT     H1 6905   9.334   7.850   4.416  0.0523  1.3629  0.2640
26275WAT     H2 6906   9.480   7.888   4.419  0.8497 -1.4455 -0.6117
26275WAT    EPW 6907   9.414   7.845   4.382 -0.1845 -0.2861 -0.1457
26276WAT      O 6908   0.029   3.080   5.356 -0.2889  0.0964  0.5643
26276WAT     H1 6909   0.060   3.080   5.447  1.2842 -0.1727  0.0594
26276WAT     H2 6910  -0.063   3.104   5.362 -0.5065 -1.0074  2.3364
26276WAT    EPW 6911   0.021   3.083   5.369 -0.1101 -0.0848  0.7315
26277WAT      O 6912   0.443   3.022   0.701  0.2693  0.4712  0.6949
26277WAT     H1 6913   0.434   3.054   0.791  0.9237 -0.3624  1.0684
26277WAT     H2 6914   0.536   3.034   0.681 -0.1370  2.1107 -0.4546
26277WAT    EPW 6915   0.455   3.028   0.711  0.3020  0.5776  0.5925
26278WAT      O 6916   0.822   7.339   1.987 -0.2513 -0.9495 -0.4264
26278WAT     H1 6917   0.875   7.294   2.052  0.9305 -0.4917 -1.0586
26278WAT     H2 6918   0.881   7.356   1.914 -0.7806  1.1628 -0.4294
26278WAT    EPW 6919   0.837   7.336   1.986 -0.1653 -0.6104 -0.5101
26279WAT      O 6920   1.509   7.671   3.200 -0.0285  0.7154  0.0856
26279WAT     H1 6921   1.491   7.760   3.230  0.0906  0.4757  0.8729
26279WAT     H2 6922   1.517   7.680   3.105 -2.1699  1.1725 -0.0857
26279WAT    EPW 6923   1.508   7.684   3.191 -0.2953  0.7441  0.1668
26280WAT      O 6924  10.939   4.215   2.612 -0.0237 -0.8518  0.0951
26280WAT     H1 6925  10.978   4.258   2.536  0.7272  1.1791  1.5385
26280WAT     H2 6926  10.850   4.251   2.616  0.7984  1.1743  1.6520
26280WAT    EPW 6927  10.932   4.225   2.602  0.1836 -0.3169  0.4908
26281WAT      O 6928  10.010   3.324   7.874  0.8894 -0.0817 -0.3102
26281WAT     H1 6929   9.939   3.285   7.924 -0.8259  0.7006 -2.0132
26281WAT     H2 6930   9.998   3.291   7.785  1.6023  1.4161 -1.0074
26281WAT    EPW 6931   9.999   3.315   7.869  0.7567  0.2190 -0.6268
26282WAT      O 6932   0.155   3.756   3.514  0.0771  0.3529  0.3365
26282WAT     H1 6933   0.144   3.819   3.444 -3.9776  1.2946  1.5596
26282WAT     H2 6934   0.159   3.671   3.470  0.4967  1.0899 -1.1097
26282WAT    EPW 6935   0.154   3.753   3.499 -0.4024  0.5745  0.3072
26283WAT      O 6936   2.305   7.751   1.160  0.5917 -0.2278 -0.0626
26283WAT     H1 6937   2.225   7.798   1.181 -0.0232  0.1293 -2.8608
26283WAT     H2 6938   2.367   7.819   1.133  0.7164 -0.7490 -1.1410
26283WAT    EPW 6939   2.303   7.766   1.160  0.5269 -0.2494 -0.5740
26284WAT      O 6940   0.528   5.368   3.168  1.1237 -0.2551 -0.0144
26284WAT     H1 6941   0.526   5.273   3.175 -0.8013 -0.2196  0.3383
26284WAT     H2 6942   0.620   5.389   3.149  1.6079 -2.1492  0.1008
26284WAT    EPW 6943   0.540   5.359   3.166  0.9336 -0.5002  0.0473
26285WAT      O 6944   3.489   3.308   5.090 -0.3003  0.0572 -0.2355
26285WAT     H1 6945   3.498   3.217   5.119 -2.1443  0.1940  0.9495
26285WAT     H2 6946   3.528   3.310   5.003  0.9872 -1.5333  0.2485
26285WAT    EPW 6947   3.496   3.297   5.083 -0.3737 -0.1345 -0.0157
26286WAT      O 6948   0.109   6.417   6.754 -0.5528 -0.1069  0.9903
26286WAT     H1 6949   0.076   6.487   6.810 -2.4808 -1.2258  1.3252
26286WAT     H2 6950   0.087   6.445   6.665 -2.0098 -0.5769  1.1712
26286WAT    EPW 6951   0.102   6.430   6.750 -0.9993 -0.3164  1.0581
26287WAT      O 6952   0.409   6.396   1.106 -0.1280 -0.7744  0.1120
26287WAT     H1 6953   0.380   6.315   1.063  0.9257 -0.7879 -0.6162
26287WAT     H2 6954   0.395   6.464   1.041  4.2874 -1.1830 -1.6627
26287WAT    EPW 6955   0.404   6.394   1.092  0.5933 -0.8302 -0.2182
26288WAT      O 6956   9.588   3.317   3.790 -0.0946  0.6306 -0.8092
26288WAT     H1 6957   9.548   3.361   3.866  1.3645  1.6949 -0.6116
26288WAT     H2 6958   9.678   3.299   3.818  0.2532  0.3841 -2.0476
26288WAT    EPW 6959   9.595   3.320   3.804  0.1435  0.7386 -0.9465
26289WAT      O 6960  10.627   4.998   2.581 -0.0479  0.2060  0.2676
26289WAT     H1 6961  10.629   5.035   2.493  0.4024 -0.6057 -0.0818
26289WAT     H2 6962  10.720   4.991   2.606 -0.0145 -1.7918 -0.1936
26289WAT    EPW 6963  10.640   5.002   2.572  0.0157 -0.1645  0.1607
26290WAT      O 6964   2.325   6.499   4.673  0.4539  0.2973  0.3803
26290WAT     H1 6965   2.274   6.425   4.706 -0.9780  1.7552  1.5692
26290WAT     H2 6966   2.407   6.459   4.643 -0.1858 -1.7422  1.1430
26290WAT    EPW 6967   2.329   6.484   4.674  0.1807  0.2208  0.6378
26291WAT      O 6968   9.912   4.757   5.401 -0.5742 -0.1629  0.3248
26291WAT     H1 6969   9.853   4.683   5.415  1.1513 -1.5542  0.5231
26291WAT     H2 6970   9.908   4.773   5.306  0.0514 -1.3950  0.0793
26291WAT    EPW 6971   9.903   4.750   5.390 -0.2642 -0.5085  0.3185
26292WAT      O 6972   0.964   4.441   5.772  0.1583 -0.3123 -0.2879
26292WAT     H1 6973   0.906   4.408   5.703 -1.4271  2.4294 -0.4192
26292WAT     H2 6974   0.910   4.445   5.850  0.3859  1.4400 -0.1785
26292WAT    EPW 6975   0.950   4.437   5.773 -0.0207  0.2804 -0.2911
26293WAT      O 6976   2.834   2.535   6.415  0.6283  0.2984  0.3046
26293WAT     H1 6977   2.802   2.602   6.476  0.6295  1.3725 -0.8359
26293WAT     H2 6978   2.856   2.460   6.471 -0.4321  0.8402  1.4902
26293WAT    EPW 6979   2.833   2.534   6.431  0.4886  0.5115  0.3107
26294WAT      O 6980   0.631   6.172   4.199  0.0735 -0.8921 -0.1260
26294WAT     H1 6981   0.701   6.236   4.202  0.7291 -1.1951 -3.9207
26294WAT     H2 6982   0.648   6.121   4.119 -3.6379 -1.9329 -0.4604
26294WAT    EPW 6983   0.643   6.173   4.189 -0.3295 -1.0693 -0.6704
26295WAT      O 6984   9.479   5.746   2.913  0.5464  0.7935  0.1521
26295WAT     H1 6985   9.547   5.739   2.846 -0.1536 -2.2255 -0.4139
26295WAT     H2 6986   9.499   5.675   2.974 -1.4946  0.4724  0.5111
26295WAT    EPW 6987   9.491   5.735   2.912  0.1850  0.3529  0.1249
26296WAT      O 6988   3.043   9.461   6.231 -0.3309 -0.5172  1.0238
26296WAT     H1 6989   3.074   9.476   6.320 -0.8427 -3.5820  1.8514
26296WAT     H2 6990   2.973   9.397   6.241 -1.0905 -0.1768 -1.5196
26296WAT    EPW 6991   3.038   9.455   6.244 -0.4985 -0.8764  0.7975
26297WAT      O 6992   1.469   4.302   4.853  0.6177 -0.2981  0.1580
26297WAT     H1 6993   1.528   4.376   4.845 -2.7751  2.7179  0.4986
26297WAT     H2 6994   1.492   4.262   4.937  0.7871  2.1684  1.3640
26297WAT    EPW 6995   1.480   4.306   4.863  0.1925  0.4246  0.3619
26298WAT      O 6996   0.056   0.010   1.324  0.0318 -0.3264  0.8539
26298WAT     H1 6997   0.007  -0.021   1.248 -0.0332 -0.7825  1.0790
26298WAT     H2 6998   0.026   0.100   1.336  1.7142  0.5766 -1.0589
26298WAT    EPW 6999   0.045   0.018   1.315  0.2451 -0.2675  0.6313
26299WAT      O 7000   9.581   5.923   3.121 -0.3813 -1.3295 -0.0819
26299WAT     H1 7001   9.541   5.839   3.099  0.3996 -2.0365  1.0820
26299WAT     H2 7002   9.630   5.906   3.202  0.8537 -0.0941 -0.5225
26299WAT    EPW 7003   9.582   5.909   3.129 -0.1149 -1.2598  0.0135
26300WAT      O 7004  10.321   4.185   3.670  0.8495  0.4814  0.0503
26300WAT     H1 7005  10.244   4.180   3.613  0.8210 -0.4704  0.1476
26300WAT     H2 7006  10.394   4.202   3.611  0.6753  0.5491 -0.1471
26300WAT    EPW 7007  10.320   4.186   3.655  0.8230  0.3645  0.0372
26301WAT      O 7008   0.139   5.979   6.038  0.1882  0.2208  0.1170
26301WAT     H1 7009   0.057   5.999   6.082  1.0694  3.4845  0.4948
26301WAT     H2 7010   0.151   5.885   6.052 -3.6626 -0.5087 -0.4155
26301WAT    EPW 7011   0.130   5.969   6.046 -0.2035  0.5550  0.0968
26302WAT      O 7012   1.475   3.185   3.971  0.1733 -0.5406 -0.1528
26302WAT     H1 7013   1.386   3.195   3.936  1.2602  1.8576 -2.5988
26302WAT     H2 7014   1.473   3.232   4.055 -1.0050 -1.1362  0.1750
26302WAT    EPW 7015   1.463   3.193   3.978  0.1613 -0.3028 -0.4323
26303WAT      O 7016   1.299   4.521   8.688  0.1895  0.3592 -0.1931
26303WAT     H1 7017   1.265   4.580   8.755 -0.1631 -0.3574  0.2674
26303WAT     H2 7018   1.374   4.568   8.651  0.7610  0.5205  1.1012
26303WAT    EPW 7019   1.304   4.535   8.692  0.2184  0.2859  0.0391
26304WAT      O 7020   0.387   5.430   1.353  0.5193  0.4142  0.2575
26304WAT     H1 7021   0.314   5.483   1.383  0.7233 -0.8744  3.4678
26304WAT     H2 7022   0.463   5.488   1.356  0.1563  0.8891  0.2098
26304WAT    EPW 7023   0.388   5.444   1.357  0.4983  0.3068  0.6747
26305WAT      O 7024  10.415   7.188   1.690  0.1634  0.1257  0.6237
26305WAT     H1 7025  10.489   7.196   1.629 -0.4883  0.1654 -0.1779
26305WAT     H2 7026  10.349   7.249   1.656 -1.0056 -1.3193  0.1821
26305WAT    EPW 7027  10.416   7.197   1.677 -0.0772 -0.0596  0.4598
26306WAT      O 7028   8.671   6.553   0.492 -0.1121 -0.5989  0.3909
26306WAT     H1 7029   8.652   6.466   0.457  0.7357 -0.6486  0.0149
26306WAT     H2 7030   8.762   6.569   0.466 -0.6797  0.9797 -0.7634
26306WAT    EPW 7031   8.681   6.544   0.484 -0.0758 -0.3974  0.1891
26307WAT      O 7032  10.584   0.973   2.848  0.7753  0.1273  1.0524
26307WAT     H1 7033  10.524   1.000   2.778  3.3799  0.8046 -1.0745
26307WAT     H2 7034  10.526   0.936   2.915 -1.9146 -0.4452 -1.3483
26307WAT    EPW 7035  10.568   0.972   2.847  0.7644  0.1412  0.4553
26308WAT      O 7036  10.124   6.148   5.373 -0.1407  0.2499  1.1015
26308WAT     H1 7037  10.108   6.158   5.279 -0.4003  1.7595  1.2824
26308WAT     H2 7038  10.041   6.115   5.407 -0.9230  2.1136  1.1325
26308WAT    EPW 7039  10.111   6.145   5.365 -0.2775  0.6948  1.1294
26309WAT      O 7040   5.451   3.071   7.450 -0.5181 -0.4515  0.2052
26309WAT     H1 7041   5.475   3.012   7.379 -0.7170  1.3281 -1.4430
26309WAT     H2 7042   5.487   3.031   7.529 -0.3508 -2.5417 -0.8779
26309WAT    EPW 7043   5.459   3.058   7.451 -0.5221 -0.4925 -0.1550
26310WAT      O 7044  10.857   4.940   4.763 -0.0527 -0.1379  1.3994
26310WAT     H1 7045  10.921   4.878   4.796 -1.2403 -1.8521  0.6153
26310WAT     H2 7046  10.904   5.023   4.760  3.5705 -1.9557 -3.0456
26310WAT    EPW 7047  10.872   4.943   4.767  0.2685 -0.6034  0.7098
26311WAT      O 7048  10.277   7.823   2.284  0.5385  0.2857 -0.6881
26311WAT     H1 7049  10.265   7.915   2.263  1.2527  1.2080  2.4275
26311WAT     H2 7050  10.366   7.803   2.253  0.4980  0.7021 -1.0918
26311WAT    EPW 7051  10.287   7.832   2.277  0.6275  0.4623 -0.3303
26312WAT      O 7052  10.635   4.522   3.476  0.0403  0.1794 -1.0223
26312WAT     H1 7053  10.672   4.579   3.544 -0.8594  0.9435 -1.1446
26312WAT     H2 7054  10.639   4.575   3.396 -0.1879 -0.1808 -1.2741
26312WAT    EPW 7055  10.640   4.537   3.475 -0.1087  0.2327 -1.0715
26313WAT      O 7056   2.202   5.782   3.303  0.2536  0.0631  0.3248
26313WAT     H1 7057   2.161   5.859   3.264  0.4849 -0.3279 -0.7508
26313WAT     H2 7058   2.167   5.777   3.391 -1.7742 -0.0830 -0.4410
26313WAT    EPW 7059   2.192   5.792   3.309  0.0167 -0.0079  0.0819
26314WAT      O 7060   2.008   3.685   5.565 -0.3039  0.2164 -0.0125
26314WAT     H1 7061   1.952   3.662   5.490 -1.0261 -0.8893  0.8357
26314WAT     H2 7062   1.947   3.699   5.637  0.4581 -0.0168  0.6949
26314WAT    EPW 7063   1.992   3.684   5.565 -0.2986  0.0398  0.1929
26315WAT      O 7064   2.910   6.295   4.710 -0.7701  0.3952 -0.6822
26315WAT     H1 7065   2.890   6.205   4.736 -2.3366  0.6202 -0.9906
26315WAT     H2 7066   2.915   6.342   4.793  1.6099 -0.2197 -0.4143
26315WAT    EPW 7067   2.908   6.289   4.725 -0.6627  0.3440 -0.6874
26316WAT      O 7068   8.899   1.148   1.984  0.0681  0.3927  0.7246
26316WAT     H1 7069   8.834   1.218   1.995  0.8142  1.9009 -2.7182
26316WAT     H2 7070   8.971   1.191   1.935 -0.2902 -3.0588 -3.4479
26316WAT    EPW 7071   8.900   1.163   1.979  0.1187  0.1363 -0.2798
26317WAT      O 7072   7.582   0.391   5.967  0.3738  0.2475  0.4472
26317WAT     H1 7073   7.652   0.451   5.994  1.3473 -0.0948 -1.1583
26317WAT     H2 7074   7.505   0.446   5.956  0.7670  0.8780  0.7787
26317WAT    EPW 7075   7.581   0.406   5.969  0.5538  0.2855  0.2792
26318WAT      O 7076   5.225  10.352   5.675  0.0499 -0.2536 -0.8011
26318WAT     H1 7077   5.245  10.262   5.652 -0.8290 -0.6282 -0.1423
26318WAT     H2 7078   5.305  10.384   5.718  0.1261 -0.9199 -0.4409
26318WAT    EPW 7079   5.239  10.345   5.677 -0.0560 -0.3905 -0.6666
26319WAT      O 7080   0.743   5.184   2.693 -0.5916  0.1178 -0.6795
26319WAT     H1 7081   0.749   5.242   2.769  0.9192  0.0311 -0.7152
26319WAT     H2 7082   0.747   5.242   2.618  2.6785 -0.0457 -0.7638
26319WAT    EPW 7083   0.744   5.199   2.693  0.0390  0.0849 -0.6955
26320WAT      O 7084   3.341   1.305   4.843 -0.1889 -0.1190 -0.2503
26320WAT     H1 7085   3.360   1.339   4.931 -1.9097 -1.7242  0.8166
26320WAT     H2 7086   3.406   1.348   4.787  2.4989 -0.7122  2.1299
26320WAT    EPW 7087   3.352   1.315   4.848 -0.0614 -0.4090  0.2046
26321WAT      O 7088   2.480   4.070   2.468 -0.0615  0.2329  0.1528
26321WAT     H1 7089   2.510   3.979   2.470  1.0154  0.5102 -1.4317
26321WAT     H2 7090   2.481   4.093   2.375  0.7809  2.2060  0.6040
26321WAT    EPW 7091   2.484   4.061   2.456  0.1916  0.5298  0.0033
26322WAT      O 7092   9.213   5.962   1.374 -0.6069 -0.2451 -0.5201
26322WAT     H1 7093   9.256   5.949   1.289 -1.2532 -2.5770 -0.5607
26322WAT     H2 7094   9.264   5.909   1.435  0.1962  1.8432  0.7502
26322WAT    EPW 7095   9.225   5.954   1.371 -0.5865 -0.2773 -0.3580
26323WAT      O 7096   2.024   7.141   3.347 -0.0727 -0.0009  0.6988
26323WAT     H1 7097   1.996   7.055   3.316  0.4662 -0.7022  2.0526
26323WAT     H2 7098   1.966   7.160   3.421  2.0502 -0.9134  2.7466
26323WAT    EPW 7099   2.013   7.132   3.353  0.2782 -0.2136  1.1475
26324WAT      O 7100  10.136   2.764   5.617  0.0179 -0.5135  0.4953
26324WAT     H1 7101  10.127   2.672   5.593 -1.8933 -0.2227 -0.0686
26324WAT     H2 7102  10.046   2.793   5.635  0.1057  2.0248 -2.3915
26324WAT    EPW 7103  10.123   2.756   5.616 -0.2227 -0.1403  0.0403
26325WAT      O 7104   4.501   3.366   2.898  0.5624  0.0932  0.4005
26325WAT     H1 7105   4.557   3.412   2.961  1.5728  2.3829 -1.9563
26325WAT     H2 7106   4.413   3.373   2.934  1.3038 -0.5057  2.4913
26325WAT    EPW 7107   4.497   3.373   2.911  0.7937  0.3163  0.3655
26326WAT      O 7108  10.655   5.781   5.971 -0.4337  0.1124  0.5800
26326WAT     H1 7109  10.601   5.704   5.953 -0.8423  0.0209  2.0331
26326WAT     H2 7110  10.598   5.840   6.019  0.3672  0.5918  0.9685
26326WAT    EPW 7111  10.641   5.778   5.975 -0.3815  0.1638  0.8230
26327WAT      O 7112   1.765   4.587   3.512  0.5089 -0.1986 -0.0987
26327WAT     H1 7113   1.678   4.600   3.476 -0.6032  0.5320  2.6273
26327WAT     H2 7114   1.752   4.534   3.591  2.5345 -0.1648  0.3286
26327WAT    EPW 7115   1.752   4.582   3.518  0.6294 -0.0980  0.3172
26328WAT      O 7116   1.394   6.084   4.576 -0.4144  0.0595  0.0891
26328WAT     H1 7117   1.484   6.069   4.606 -0.0864 -1.7368 -1.5959
26328WAT     H2 7118   1.393   6.176   4.551  1.3726 -0.1965 -1.0989
26328WAT    EPW 7119   1.406   6.094   4.577 -0.1355 -0.2112 -0.2899
26329WAT      O 7120   0.446   2.928   7.129 -0.6712 -0.2099 -0.2890
26329WAT     H1 7121   0.435   3.014   7.088  0.4252  0.4419  0.7175
26329WAT     H2 7122   0.540   2.913   7.129 -0.7795 -0.9814  0.4194
26329WAT    EPW 7123   0.457   2.937   7.123 -0.5409 -0.2258 -0.0632
26330WAT      O 7124   1.049   3.495   3.240  0.3101  0.5094  0.6341
26330WAT     H1 7125   0.973   3.536   3.198  0.6295  1.6446  1.1082
26330WAT     H2 7126   1.113   3.488   3.170 -0.2044 -0.4017  0.2443
26330WAT    EPW 7127   1.047   3.500   3.225  0.2844  0.5389  0.6453
26331WAT      O 7128   2.740   3.800   5.168 -0.6618 -0.0021 -0.4530
26331WAT     H1 7129   2.721   3.888   5.136 -0.0489  0.1415 -0.4308
26331WAT     H2 7130   2.679   3.786   5.240 -2.0776 -0.3223 -1.6466
26331WAT    EPW 7131   2.729   3.809   5.173 -0.7676 -0.0253 -0.6073
26332WAT      O 7132  10.679   4.326   2.669 -0.4686 -0.0571  0.1137
26332WAT     H1 7133  10.662   4.308   2.761 -0.2760  0.4640  0.2572
26332WAT     H2 7134  10.636   4.255   2.622  0.3116 -0.9087  0.6547
26332WAT    EPW 7135  10.671   4.314   2.675 -0.3405 -0.1009  0.2041
26333WAT      O 7136   8.287   3.200   3.454 -0.3470 -0.1062 -0.9817
26333WAT     H1 7137   8.197   3.219   3.481  0.1456 -0.2195  0.8540
26333WAT     H2 7138   8.289   3.104   3.445  0.1318 -0.3652  1.2777
26333WAT    EPW 7139   8.275   3.190   3.456 -0.2184 -0.1553 -0.4416
26334WAT      O 7140  10.222   5.712   8.389 -0.1615  0.2176  0.5295
26334WAT     H1 7141  10.145   5.761   8.416 -0.0592  0.6780 -0.0120
26334WAT     H2 7142  10.278   5.711   8.467 -1.3775 -1.4938  1.4548
26334WAT    EPW 7143  10.219   5.718   8.403 -0.3085  0.0527  0.5798
26335WAT      O 7144   0.408   5.657   1.665 -0.1495  0.5398 -0.2306
26335WAT     H1 7145   0.328   5.699   1.633 -2.0124 -0.2215  2.9943
26335WAT     H2 7146   0.462   5.646   1.586 -3.4217  0.5737 -2.7090
26335WAT    EPW 7147   0.405   5.661   1.650 -0.8268  0.4437 -0.1321
26336WAT      O 7148   1.402   9.424   7.176 -0.2050 -0.4893  0.3273
26336WAT     H1 7149   1.429   9.383   7.093 -0.6300  2.7647 -1.6021
26336WAT     H2 7150   1.484   9.446   7.219  0.0678 -0.4211 -0.2090
26336WAT    EPW 7151   1.417   9.421   7.171 -0.2250 -0.0510  0.0019
26337WAT      O 7152   0.951   2.917   4.802 -0.3102 -0.2576  0.1424
26337WAT     H1 7153   0.969   2.992   4.858 -1.4503 -1.6388  2.5036
26337WAT     H2 7154   1.034   2.901   4.756 -0.2290  2.7589 -0.9482
26337WAT    EPW 7155   0.965   2.925   4.803 -0.4498 -0.0420  0.3099
26338WAT      O 7156   2.470   2.590   1.660 -0.3619  0.1826  0.0706
26338WAT     H1 7157   2.438   2.681   1.664 -0.8677  0.0012  0.1658
26338WAT     H2 7158   2.438   2.557   1.576  0.7151  0.4171 -0.4557
26338WAT    EPW 7159   2.462   2.598   1.649 -0.2867  0.1894  0.0138
26339WAT      O 7160   1.306   3.013   1.835 -0.8183 -0.4553  0.1938
26339WAT     H1 7161   1.382   2.988   1.887 -1.0260  0.8864  1.1899
26339WAT     H2 7162   1.233   3.008   1.895 -1.1124  0.8314 -0.0374
26339WAT    EPW 7163   1.307   3.009   1.849 -0.8845 -0.1087  0.2947
26340WAT      O 7164   3.387   5.903   1.806 -0.8965  0.0620 -0.1854
26340WAT     H1 7165   3.474   5.931   1.778 -0.6476  1.5304  1.8554
26340WAT     H2 7166   3.370   5.953   1.885 -2.1680 -2.7119  1.4473
26340WAT    EPW 7167   3.396   5.913   1.812 -1.0314 -0.1101  0.2991
26341WAT      O 7168   0.141   4.675   2.520  0.4044 -0.2578  0.4147
26341WAT     H1 7169   0.209   4.633   2.469  0.1291  1.0798 -1.1112
26341WAT     H2 7170   0.145   4.632   2.606  1.2569 -2.1420 -0.5327
26341WAT    EPW 7171   0.150   4.664   2.525  0.4806 -0.3300  0.0883
26342WAT      O 7172   8.968   2.796   4.948 -0.4025  0.1374 -0.3308
26342WAT     H1 7173   8.884   2.818   4.908 -2.6062 -2.1168  2.6004
26342WAT     H2 7174   8.998   2.718   4.902  0.1724  0.9609 -1.3963
26342WAT    EPW 7175   8.961   2.789   4.937 -0.6175 -0.0513 -0.0849
26343WAT      O 7176   0.177   8.294   4.952  0.3015  0.0142  0.7848
26343WAT     H1 7177   0.105   8.350   4.980 -1.1725 -0.6735 -1.4416
26343WAT     H2 7178   0.136   8.211   4.930  1.6314 -0.1775 -1.2208
26343WAT    EPW 7179   0.162   8.291   4.953  0.2825 -0.1016  0.2265
26344WAT      O 7180   2.454   5.074   6.920  0.2547  0.3723 -0.1137
26344WAT     H1 7181   2.495   4.989   6.910  3.8767  2.1047 -1.9599
26344WAT     H2 7182   2.496   5.113   6.997 -3.6320 -0.4061  2.7712
26344WAT    EPW 7183   2.465   5.068   6.929  0.2199  0.4981  0.0231
26345WAT      O 7184   0.329   5.912   4.342  0.9627  0.2173 -0.3539
26345WAT     H1 7185   0.337   5.826   4.301 -0.5871 -0.2634  0.2636
26345WAT     H2 7186   0.419   5.938   4.363  1.4889 -1.0126 -1.0111
26345WAT    EPW 7187   0.342   5.904   4.339  0.8277 -0.0083 -0.3595
26346WAT      O 7188   2.108   6.328   5.113  0.3814  0.8923  0.1811
26346WAT     H1 7189   2.026   6.363   5.148 -0.3193 -0.5646  0.0828
26346WAT     H2 7190   2.159   6.305   5.191 -0.9406 -1.8036  0.3843
26346WAT    EPW 7191   2.104   6.329   5.128  0.1146  0.3445  0.1953
26347WAT      O 7192   0.739   3.514   5.219 -0.6180  0.5609  0.6486
26347WAT     H1 7193   0.770   3.423   5.217 -0.5607  0.5524  1.4684
26347WAT     H2 7194   0.797   3.557   5.282 -0.5749  1.1957  0.1796
26347WAT    EPW 7195   0.751   3.508   5.227 -0.6048  0.6435  0.6948
26348WAT      O 7196   9.955   0.165   3.217  1.0473  0.3681 -0.0102
26348WAT     H1 7197   9.878   0.221   3.205  1.0916  0.0766 -1.9172
26348WAT     H2 7198  10.013   0.189   3.144  2.4792  0.0954  1.0051
26348WAT    EPW 7199   9.953   0.176   3.206  1.2422  0.2937 -0.1278
26349WAT      O 7200   7.654   6.648   0.661 -0.4131  0.1265 -0.4359
26349WAT     H1 7201   7.691   6.730   0.629  2.2904 -1.1948 -0.9739
26349WAT     H2 7202   7.606   6.672   0.740  1.0192  2.1328 -0.1055
26349WAT    EPW 7203   7.653   6.662   0.667  0.1326  0.2167 -0.4633
26350WAT      O 7204   0.213   5.547   3.572 -0.7554  0.2077  0.8434
26350WAT     H1 7205   0.199   5.536   3.666 -1.1715 -1.4265  0.6300
26350WAT     H2 7206   0.152   5.616   3.546  0.6397  1.9680  2.0390
26350WAT    EPW 7207   0.203   5.555   3.581 -0.6263  0.2244  0.9730
26351WAT      O 7208   1.550   6.519   4.819  0.1441 -0.0865 -0.0714
26351WAT     H1 7209   1.507   6.437   4.843  2.9726 -1.6958 -0.0893
26351WAT     H2 7210   1.575   6.507   4.727  1.8682  0.1618  0.3375
26351WAT    EPW 7211   1.547   6.507   4.810  0.7445 -0.2658 -0.0200
26352WAT      O 7212   2.872   4.197   4.796 -0.3237  0.0164  0.4547
26352WAT     H1 7213   2.850   4.205   4.703  0.0962 -0.7885  0.2732
26352WAT     H2 7214   2.924   4.276   4.815 -0.2360  0.0843 -0.0479
26352WAT    EPW 7215   2.876   4.209   4.786 -0.2568 -0.0806  0.3645
26353WAT      O 7216   0.597   5.643   3.889  0.1749 -0.6780  0.5099
26353WAT     H1 7217   0.670   5.685   3.935  0.2549 -0.6056  0.3170
26353WAT     H2 7218   0.615   5.658   3.797 -1.5146  1.8036  0.4776
26353WAT    EPW 7219   0.609   5.651   3.883 -0.0374 -0.3412  0.4802
26354WAT      O 7220   4.038   1.510   8.928 -0.1289  0.8517 -0.5224
26354WAT     H1 7221   3.989   1.430   8.949 -0.0278  1.1565  1.0180
26354WAT     H2 7222   4.097   1.522   9.002  2.5992  0.3245 -2.4538
26354WAT    EPW 7223   4.039   1.501   8.941  0.2441  0.8223 -0.5746
26355WAT      O 7224   6.980   8.336   8.463  0.2888  0.2623  0.1666
26355WAT     H1 7225   6.967   8.305   8.553 -0.0062  0.4057  0.1750
26355WAT     H2 7226   7.075   8.334   8.451  0.3652 -6.5945 -1.8920
26355WAT    EPW 7227   6.991   8.332   8.474  0.2599 -0.6227 -0.1040
26356WAT      O 7228  10.625   5.270   3.051 -0.5816 -0.7253 -0.0561
26356WAT     H1 7229  10.551   5.322   3.083 -2.0051 -2.0823 -0.9919
26356WAT     H2 7230  10.659   5.227   3.130 -0.7478 -0.0676  0.3893
26356WAT    EPW 7231  10.620   5.271   3.066 -0.7915 -0.8178 -0.1208
26357WAT      O 7232   0.853   3.343   4.479 -0.8768  0.1704  0.0304
26357WAT     H1 7233   0.898   3.280   4.535 -0.7784  0.9986  0.9078
26357WAT     H2 7234   0.861   3.307   4.391 -0.0111 -0.5646  0.3996
26357WAT    EPW 7235   0.860   3.330   4.475 -0.7497  0.1827  0.1948
26358WAT      O 7236   1.111   5.190   2.263 -0.7144  0.0077  1.0250
26358WAT     H1 7237   1.174   5.125   2.294 -0.3509 -0.7780 -1.1744
26358WAT     H2 7238   1.067   5.221   2.342  1.6052 -0.2621  2.5060
26358WAT    EPW 7239   1.113   5.185   2.278 -0.3604 -0.1314  0.9302
26359WAT      O 7240   1.198   3.771   2.852 -0.3643  0.2422 -0.4058
26359WAT     H1 7241   1.142   3.725   2.789 -2.5404  1.6474  0.4048
26359WAT     H2 7242   1.261   3.818   2.797  1.7436 -3.2550 -1.2721
26359WAT    EPW 7243   1.199   3.771   2.836 -0.3732 -0.0336 -0.4132
26360WAT      O 7244  10.186   2.919   6.814 -0.0091 -0.3417 -0.2003
26360WAT     H1 7245  10.095   2.906   6.788  0.4515  0.1376 -2.1887
26360WAT     H2 7246  10.192   2.878   6.901 -2.2280  0.0763  0.2117
26360WAT    EPW 7247  10.175   2.912   6.822 -0.2408 -0.2233 -0.4082
26361WAT      O 7248   1.482   6.823   3.036 -0.0290 -1.1908 -0.2544
26361WAT     H1 7249   1.418   6.895   3.035 -0.9113 -1.7343  3.1385
26361WAT     H2 7250   1.435   6.749   2.997 -0.1062 -0.6405 -1.2248
26361WAT    EPW 7251   1.467   6.823   3.031 -0.1555 -1.1899  0.0652
26362WAT      O 7252   0.900   4.706   6.446 -0.4851 -0.1491  0.6743
26362WAT     H1 7253   0.981   4.706   6.395 -1.4207 -2.1230 -0.9709
26362WAT     H2 7254   0.928   4.723   6.536  2.0042 -2.2938  0.4342
26362WAT    EPW 7255   0.914   4.708   6.451 -0.2802 -0.6924  0.4258
26363WAT      O 7256   3.045   5.444   5.530 -0.0920  0.2055  0.4980
26363WAT     H1 7257   3.005   5.503   5.466 -1.0692 -0.1764  0.7353
26363WAT     H2 7258   3.004   5.468   5.613  0.0889 -0.2660  0.7291
26363WAT    EPW 7259   3.034   5.455   5.532 -0.1971  0.0930  0.5598
26364WAT      O 7260   9.386   4.748   5.907  0.5139  0.3306  0.3021
26364WAT     H1 7261   9.407   4.772   5.997 -3.6083 -1.8592  2.1035
26364WAT     H2 7262   9.401   4.653   5.903  0.7329  0.4049 -1.3713
26364WAT    EPW 7263   9.391   4.738   5.918 -0.0010  0.0515  0.3190
26365WAT      O 7264   0.581   3.921   5.855  0.4746  0.5484 -0.1150
26365WAT     H1 7265   0.589   3.867   5.776  3.5126  0.4463  0.1514
26365WAT     H2 7266   0.510   3.880   5.904  0.3833 -1.0927 -1.5058
26365WAT    EPW 7267   0.572   3.908   5.851  0.8633  0.3185 -0.2635
26366WAT      O 7268   1.088   4.539   3.832 -0.0264 -0.0417  0.2957
26366WAT     H1 7269   1.170   4.505   3.797 -0.4703 -1.1014  0.2598
26366WAT     H2 7270   1.113   4.578   3.916  0.5370 -0.2101  0.2135
26366WAT    EPW 7271   1.102   4.540   3.838 -0.0106 -0.2038  0.2800
26367WAT      O 7272   0.441   7.151   5.339 -0.0321 -0.0364 -0.3510
26367WAT     H1 7273   0.351   7.178   5.357 -0.7602 -0.3098 -3.1881
26367WAT     H2 7274   0.476   7.219   5.282  1.4926 -0.1146  0.4261
26367WAT    EPW 7275   0.434   7.164   5.334  0.0730 -0.0830 -0.6227
26368WAT      O 7276   0.641   4.637   2.512  0.0184 -0.2663  0.3105
26368WAT     H1 7277   0.702   4.707   2.536  1.6523 -1.2264 -0.8829
26368WAT     H2 7278   0.677   4.558   2.552 -0.7563 -0.7682  0.0420
26368WAT    EPW 7279   0.654   4.636   2.520  0.1317 -0.4592  0.1177
26369WAT      O 7280   2.269   5.819   6.460 -0.1652  0.5760 -0.3794
26369WAT     H1 7281   2.292   5.887   6.523 -2.9792  1.6751 -0.3573
26369WAT     H2 7282   2.210   5.863   6.398  1.2268 -0.8605 -2.8820
26369WAT    EPW 7283   2.264   5.833   6.460 -0.3527  0.5314 -0.7064
26370WAT      O 7284   0.238   3.941   3.711  0.1049  0.5444  0.2974
26370WAT     H1 7285   0.213   3.873   3.648  0.1363  2.4869 -1.9119
26370WAT     H2 7286   0.184   3.922   3.788 -0.2136 -1.6913 -0.3975
26370WAT    EPW 7287   0.227   3.929   3.713  0.0671  0.5057 -0.0856
26371WAT      O 7288   9.194   0.919   4.556  0.1033 -0.5054 -0.5507
26371WAT     H1 7289   9.198   1.005   4.516 -0.7676 -0.5666 -0.7731
26371WAT     H2 7290   9.284   0.902   4.585  0.7486 -0.4301 -2.3902
26371WAT    EPW 7291   9.207   0.928   4.555  0.0739 -0.5036 -0.8228
26372WAT      O 7292   1.508   6.970   5.254  0.1352  0.5539 -0.5521
26372WAT     H1 7293   1.417   6.954   5.276  0.3047  0.0937 -0.1731
26372WAT     H2 7294   1.535   7.041   5.313  0.3647 -0.1409  0.1966
26372WAT    EPW 7295   1.500   6.977   5.265  0.1878  0.4015 -0.4029
26373WAT      O 7296   4.401   2.785   3.250 -0.6743 -0.1100  0.7234
26373WAT     H1 7297   4.436   2.696   3.247 -0.4223  0.0174 -1.4375
26373WAT     H2 7298   4.394   2.804   3.344 -2.4150 -3.0259  1.3280
26373WAT    EPW 7299   4.404   2.776   3.262 -0.8707 -0.4778  0.5181
26374WAT      O 7300   2.249   4.961   7.200 -0.5668  0.1581 -0.6173
26374WAT     H1 7301   2.169   4.984   7.152 -0.2939 -0.3624 -1.3385
26374WAT     H2 7302   2.290   4.894   7.146  1.2353  1.6128 -1.1358
26374WAT    EPW 7303   2.244   4.955   7.186 -0.2933  0.2816 -0.7808
26375WAT      O 7304   0.285   4.956   8.276 -0.3816  0.6988  0.4694
26375WAT     H1 7305   0.254   5.037   8.236 -1.3811  0.6773  1.1327
26375WAT     H2 7306   0.250   4.887   8.220  1.7058  0.7071 -0.9421
26375WAT    EPW 7307   0.276   4.958   8.264 -0.2381  0.6969  0.3705
26376WAT      O 7308   5.851   7.387   3.309  0.9385  0.4427 -0.4184
26376WAT     H1 7309   5.850   7.317   3.244  2.5027  0.2905 -0.3237
26376WAT     H2 7310   5.830   7.343   3.391  0.8476  0.2729 -0.5316
26376WAT    EPW 7311   5.848   7.372   3.311  1.1327  0.4001 -0.4208
26377WAT      O 7312   3.328   8.425   0.800  0.1542  0.0269 -0.1972
26377WAT     H1 7313   3.311   8.511   0.762 -2.5347 -1.0528 -1.6515
26377WAT     H2 7314   3.261   8.416   0.868  1.0003 -0.5861  0.5751
26377WAT    EPW 7315   3.317   8.435   0.804 -0.0888 -0.1960 -0.2871
26378WAT      O 7316   1.456   8.475   4.722  0.4682 -0.1330 -0.7416
26378WAT     H1 7317   1.522   8.518   4.668  0.7370 -0.1197 -0.4028
26378WAT     H2 7318   1.447   8.388   4.685 -0.1243  0.2270 -1.4727
26378WAT    EPW 7319   1.463   8.469   4.710  0.4256 -0.0839 -0.7935
26379WAT      O 7320   1.077   7.696   4.837  0.6871 -0.5591 -0.0610
26379WAT     H1 7321   1.124   7.614   4.820  0.6306 -0.5294 -0.3607
26379WAT     H2 7322   1.138   7.765   4.813  0.3401 -0.5246 -0.8594
26379WAT    EPW 7323   1.091   7.694   4.832  0.6339 -0.5505 -0.2058
26380WAT      O 7324  10.825   6.175   4.910 -0.2197  0.6252 -0.6255
26380WAT     H1 7325  10.831   6.263   4.873 -1.0074  1.3886  0.9870
26380WAT     H2 7326  10.732   6.164   4.931  0.0522 -0.1388  0.2361
26380WAT    EPW 7327  10.814   6.185   4.908 -0.2871  0.6251 -0.2992
26381WAT      O 7328   2.420   6.450   3.325  1.2861  0.0727  0.0042
26381WAT     H1 7329   2.449   6.441   3.415 -0.5631  1.2116  0.7661
26381WAT     H2 7330   2.457   6.533   3.295  0.0027  0.8754  0.5446
26381WAT    EPW 7331   2.429   6.460   3.333  0.8730  0.3288  0.1761
26382WAT      O 7332   3.342   4.924   4.413  0.4199 -0.2560 -0.4717
26382WAT     H1 7333   3.350   4.830   4.395 -1.3217 -0.6378  0.5744
26382WAT     H2 7334   3.354   4.965   4.327  3.8234 -1.1863 -0.5820
26382WAT    EPW 7335   3.345   4.917   4.399  0.6392 -0.4292 -0.3481
26383WAT      O 7336  10.273   9.027   4.188  0.7236 -0.1417  0.7012
26383WAT     H1 7337  10.334   9.026   4.261 -1.6951  2.3170  3.0065
26383WAT     H2 7338  10.256   9.120   4.172  0.0453 -0.6432 -2.0892
26383WAT    EPW 7339  10.279   9.039   4.196  0.3157  0.1163  0.6373
26384WAT      O 7340   1.804   6.151   2.872 -0.1656 -0.5498 -0.1429
26384WAT     H1 7341   1.806   6.080   2.935  1.9791 -0.7702 -0.3740
26384WAT     H2 7342   1.895   6.158   2.841 -0.2153  2.4515  0.0798
26384WAT    EPW 7343   1.816   6.143   2.876  0.1108 -0.1833 -0.1441
26385WAT      O 7344   0.449   8.569   3.462 -0.7621  0.2470  1.0001
26385WAT     H1 7345   0.411   8.631   3.400  3.0424  2.4415  0.5344
26385WAT     H2 7346   0.431   8.608   3.548  0.0076  1.0162  0.8195
26385WAT    EPW 7347   0.441   8.582   3.465 -0.1588  0.6380  0.9148
26386WAT      O 7348   2.975   4.986   3.363  0.1293 -0.2564 -0.4884
26386WAT     H1 7349   2.904   4.924   3.348  0.1882 -0.2980 -0.5910
26386WAT     H2 7350   2.954   5.026   3.448  0.2417 -0.6204 -0.2872
26386WAT    EPW 7351   2.963   4.984   3.372  0.1520 -0.3099 -0.4756
26387WAT      O 7352   2.381   7.185   2.214 -0.8871  0.5788 -0.2233
26387WAT     H1 7353   2.407   7.205   2.304 -2.9739  0.6515  0.4072
26387WAT     H2 7354   2.436   7.241   2.160 -1.5578  2.6768  1.1534
26387WAT    EPW 7355   2.392   7.195   2.219 -1.2506  0.8650  0.0414
26388WAT      O 7356   4.095   6.844   3.522  0.0906  0.4102  0.5954
26388WAT     H1 7357   4.164   6.778   3.514 -0.7846 -0.4212 -0.3027
26388WAT     H2 7358   4.044   6.816   3.598  0.6591  0.9709  1.1988
26388WAT    EPW 7359   4.098   6.832   3.531  0.0503  0.3748  0.5565
26389WAT      O 7360   1.247   6.441   3.605 -0.1234 -0.6697  0.1203
26389WAT     H1 7361   1.278   6.448   3.695 -0.9270 -0.6070  0.3955
26389WAT     H2 7362   1.318   6.479   3.553  0.6495 -1.3258  0.6601
26389WAT    EPW 7363   1.260   6.447   3.610 -0.1274 -0.7482  0.2278
26390WAT      O 7364   1.067   5.006   1.265 -0.1155  0.2832 -0.1715
26390WAT     H1 7365   1.105   4.977   1.183 -0.4625 -0.2468 -0.1496
26390WAT     H2 7366   1.018   4.930   1.297 -0.0179  0.4982  0.5005
26390WAT    EPW 7367   1.065   4.992   1.259 -0.1484  0.2415 -0.0800
26391WAT      O 7368   2.159   3.556   3.339 -0.2717 -0.2281 -1.0348
26391WAT     H1 7369   2.253   3.536   3.345 -0.2168  0.1942 -0.3422
26391WAT     H2 7370   2.144   3.620   3.408 -1.0037 -0.0147 -1.3801
26391WAT    EPW 7371   2.170   3.562   3.349 -0.3611 -0.1442 -0.9891
26392WAT      O 7372  10.415   8.258   6.117 -0.2053 -0.2501  0.4804
26392WAT     H1 7373  10.448   8.204   6.046 -1.0889 -1.5768  1.0549
26392WAT     H2 7374  10.491   8.312   6.143  0.5957 -0.9586 -0.3194
26392WAT    EPW 7375  10.430   8.258   6.111 -0.2165 -0.5183  0.4508
26393WAT      O 7376   0.410   6.723   5.952  0.4486  0.2162 -0.8164
26393WAT     H1 7377   0.452   6.774   6.021  0.1900 -0.4024 -0.1897
26393WAT     H2 7378   0.430   6.632   5.974 -1.9034 -0.1742 -0.0047
26393WAT    EPW 7379   0.418   6.718   5.964  0.1042  0.0830 -0.6266
26394WAT      O 7380  10.330   0.957   4.697  0.4801 -0.1269  0.3241
26394WAT     H1 7381  10.320   0.862   4.701  1.8395 -0.2888  0.3991
26394WAT     H2 7382  10.249   0.992   4.734  0.4011 -1.2734  1.2772
26394WAT    EPW 7383  10.318   0.949   4.702  0.6490 -0.2995  0.4597
26395WAT      O 7384   3.959   5.914   3.670  0.1935 -0.0824 -0.7609
26395WAT     H1 7385   3.996   5.870   3.747 -0.1852  0.1656 -0.4320
26395WAT     H2 7386   4.028   5.909   3.604 -0.6009 -3.2189 -1.5457
26395WAT    EPW 7387   3.973   5.907   3.672  0.0386 -0.4635 -0.8210
26396WAT      O 7388   1.480   5.776   3.141  0.9317  0.1996 -0.8356
26396WAT     H1 7389   1.471   5.725   3.221 -0.4811 -1.0863 -1.7698
26396WAT     H2 7390   1.501   5.865   3.172 -0.7796  0.0286  1.0142
26396WAT    EPW 7391   1.482   5.781   3.156  0.5197  0.0076 -0.7149
26397WAT      O 7392   2.054   5.108   7.362  0.5049  0.2661  0.4621
26397WAT     H1 7393   2.095   5.183   7.319  0.0367 -0.2453 -0.9304
26397WAT     H2 7394   1.985   5.146   7.416  0.6648  0.8697  0.2447
26397WAT    EPW 7395   2.051   5.123   7.364  0.4642  0.2782  0.2496
26398WAT      O 7396   2.169   7.304   3.948 -0.4234  0.0800  0.3404
26398WAT     H1 7397   2.162   7.380   4.005 -0.7401  1.4570 -1.4571
26398WAT     H2 7398   2.262   7.300   3.925 -0.1967 -0.8100  1.3712
26398WAT    EPW 7399   2.181   7.314   3.952 -0.4352  0.1442  0.2394
26399WAT      O 7400   0.498   8.536   6.315  0.7212 -0.0059 -0.1211
26399WAT     H1 7401   0.503   8.597   6.241 -1.2069 -1.2378 -1.3545
26399WAT     H2 7402   0.572   8.560   6.371  2.5980  0.6580 -2.6998
26399WAT    EPW 7403   0.509   8.547   6.312  0.7144 -0.0811 -0.6239
26400WAT      O 7404   8.155   6.122   0.959  0.5434 -0.5956 -0.3404
26400WAT     H1 7405   8.247   6.122   0.932  0.6706  1.8059 -0.1757
26400WAT     H2 7406   8.114   6.185   0.900 -0.0584  1.5646  2.2230
26400WAT    EPW 7407   8.162   6.130   0.947  0.4802  0.0060  0.0194
26401WAT      O 7408   0.886   7.429   2.498 -0.5503  0.2914  0.6569
26401WAT     H1 7409   0.875   7.454   2.590 -1.5353  1.5923  0.2283
26401WAT     H2 7410   0.975   7.395   2.492 -0.5393  0.0305  2.1257
26401WAT    EPW 7411   0.896   7.428   2.509 -0.6788  0.4287  0.7941
26402WAT      O 7412   2.212   5.399   5.441  0.4149 -0.0389 -0.1576
26402WAT     H1 7413   2.118   5.396   5.425  0.3741 -0.5740  0.1612
26402WAT     H2 7414   2.251   5.406   5.353  0.1113 -0.6582 -0.3472
26402WAT    EPW 7415   2.205   5.399   5.427  0.3694 -0.1915 -0.1407
26403WAT      O 7416   1.483   7.390   4.405  0.6230 -0.4774  0.0976
26403WAT     H1 7417   1.518   7.434   4.482 -0.5399 -1.0230  0.9793
26403WAT     H2 7418   1.452   7.461   4.349  1.7710 -0.0630 -0.0342
26403WAT    EPW 7419   1.483   7.405   4.408  0.6210 -0.4945  0.1965
26404WAT      O 7420  10.020   5.935   3.419  0.5002  0.6662  0.3565
26404WAT     H1 7421  10.050   5.894   3.338  0.4463 -1.0790  1.1769
26404WAT     H2 7422  10.001   6.026   3.395  0.6418  0.2221 -1.5300
26404WAT    EPW 7423  10.021   5.942   3.405  0.5126  0.3777  0.2159
26405WAT      O 7424   2.052   5.469   3.450  0.1804 -0.9767  0.1520
26405WAT     H1 7425   2.119   5.456   3.382 -0.7488  1.4162 -1.3525
26405WAT     H2 7426   2.055   5.389   3.502  3.3800 -1.4586 -0.5601
26405WAT    EPW 7427   2.062   5.457   3.448  0.4799 -0.7246 -0.1405
26406WAT      O 7428   0.710   6.683   5.072  0.1097  0.0547 -0.6736
26406WAT     H1 7429   0.761   6.614   5.115  0.3670  1.7221  1.9291
26406WAT     H2 7430   0.769   6.717   5.004 -1.3184 -4.5487 -4.8218
26406WAT    EPW 7431   0.725   6.678   5.069 -0.0447 -0.3326 -0.8774
26407WAT      O 7432   3.851   6.602   2.277 -0.5077 -0.4129 -0.2073
26407WAT     H1 7433   3.867   6.559   2.194 -6.5939  0.8055 -2.4873
26407WAT     H2 7434   3.876   6.693   2.263 -0.3795 -0.4592 -0.2704
26407WAT    EPW 7435   3.856   6.609   2.264 -1.2937 -0.2584 -0.5163
26408WAT      O 7436   2.811   7.314   5.597 -0.3376 -0.4525  0.1722
26408WAT     H1 7437   2.851   7.360   5.523  2.2646 -0.0202  1.7359
26408WAT     H2 7438   2.726   7.286   5.564 -1.5051  4.0686 -1.4539
26408WAT    EPW 7439   2.805   7.316   5.583 -0.1483  0.2010  0.1638
26409WAT      O 7440   1.853   7.118   3.613  0.0850  0.3605  0.1588
26409WAT     H1 7441   1.843   7.210   3.641 -0.1747  0.0202  1.2240
26409WAT     H2 7442   1.937   7.091   3.649  0.8098  0.5574 -1.2990
26409WAT    EPW 7443   1.863   7.127   3.621  0.1464  0.3417  0.1068
26410WAT      O 7444   0.405   7.572   1.981 -0.4718 -0.6174  0.3948
26410WAT     H1 7445   0.501   7.576   1.987 -0.2736 -0.7202 -1.6928
26410WAT     H2 7446   0.387   7.482   1.955 -1.2583 -0.9051  1.8447
26410WAT    EPW 7447   0.415   7.561   1.978 -0.5494 -0.6688  0.3107
26411WAT      O 7448   9.192   6.863   4.680 -0.0607 -0.2639  0.5164
26411WAT     H1 7449   9.254   6.837   4.748  0.3572  2.4010  1.2714
26411WAT     H2 7450   9.245   6.909   4.616 -0.9167 -0.0057 -0.0196
26411WAT    EPW 7451   9.207   6.865   4.681 -0.1192  0.1216  0.5455
26412WAT      O 7452   0.324   6.339   3.941  0.2387 -0.1357  0.2581
26412WAT     H1 7453   0.347   6.260   3.989 -0.0868  0.6298  1.7133
26412WAT     H2 7454   0.230   6.347   3.952  0.1624  0.0647 -0.5007
26412WAT    EPW 7455   0.315   6.330   3.949  0.1856 -0.0083  0.3500
26413WAT      O 7456   2.586   7.314   4.332  0.3885  0.4621  0.0356
26413WAT     H1 7457   2.678   7.300   4.353  0.8606 -0.3690 -2.2471
26413WAT     H2 7458   2.560   7.236   4.284 -0.6803  1.8518 -1.7905
26413WAT    EPW 7459   2.595   7.302   4.328  0.3097  0.5357 -0.5064
26414WAT      O 7460   0.399   7.666   4.203 -0.3994 -0.0948  0.3289
26414WAT     H1 7461   0.478   7.668   4.256 -0.9317 -2.5012  1.3525
26414WAT     H2 7462   0.331   7.704   4.258 -0.0651  1.8100 -0.4858
26414WAT    EPW 7463   0.400   7.671   4.217 -0.4255 -0.1609  0.3567
26415WAT      O 7464   2.076   7.284   5.459 -0.4182  0.1044  0.8137
26415WAT     H1 7465   2.020   7.219   5.416 -0.6311  1.4011 -0.9491
26415WAT     H2 7466   2.123   7.327   5.388 -0.0782  1.6994  1.9511
26415WAT    EPW 7467   2.074   7.281   5.444 -0.4015  0.4861  0.7312
26416WAT      O 7468   2.813   6.389   4.474  1.0053 -0.2997  0.6074
26416WAT     H1 7469   2.860   6.416   4.553 -1.4328 -1.7489  2.7139
26416WAT     H2 7470   2.869   6.322   4.435  1.8430 -0.2393  1.6378
26416WAT    EPW 7471   2.826   6.384   4.479  0.7943 -0.4830  1.0211
26417WAT      O 7472   2.498   7.409   5.265  0.1545  0.0050 -0.3551
26417WAT     H1 7473   2.409   7.437   5.242  0.2791  0.5689 -0.1871
26417WAT     H2 7474   2.554   7.479   5.231  0.7928 -1.5780 -2.7545
26417WAT    EPW 7475   2.493   7.422   5.258  0.2550 -0.1292 -0.6495
26418WAT      O 7476   1.856   4.830   4.985  0.1868  0.0693 -0.5018
26418WAT     H1 7477   1.773   4.784   4.979 -0.3003  0.8744 -0.1477
26418WAT     H2 7478   1.846   4.887   5.062  0.4537  1.3477 -1.3835
26418WAT    EPW 7479   1.844   4.832   4.994  0.1578  0.3440 -0.5713
26419WAT      O 7480   3.040   7.661   5.313  0.3213  0.4246  0.5497
26419WAT     H1 7481   2.955   7.619   5.295  0.3689  0.2125  0.8081
26419WAT     H2 7482   3.073   7.684   5.226 -1.2716  3.0938  0.5497
26419WAT    EPW 7483   3.033   7.658   5.299  0.1174  0.7486  0.5836
26420WAT      O 7484   4.397   6.712   3.049  0.5261 -0.5687 -0.0319
26420WAT     H1 7485   4.479   6.730   3.094 -0.4122 -1.0575  2.0228
26420WAT     H2 7486   4.333   6.770   3.092 -0.0482  0.5536 -2.2734
26420WAT    EPW 7487   4.399   6.722   3.061  0.3266 -0.4852 -0.0566
26421WAT      O 7488  10.723   4.043   0.912 -0.0767  0.5773  0.3639
26421WAT     H1 7489  10.728   4.047   0.817 -1.3779  2.0966  0.3129
26421WAT     H2 7490  10.633   4.017   0.931 -0.0269  0.9381  1.1718
26421WAT    EPW 7491  10.712   4.040   0.902 -0.2418  0.8249  0.4638
26422WAT      O 7492   9.941   4.974   5.615 -0.1133 -0.3999 -0.0090
26422WAT     H1 7493   9.916   4.943   5.528 -0.1421 -2.9332  0.8208
26422WAT     H2 7494  10.012   4.917   5.641  0.9035  1.2865  1.0772
26422WAT    EPW 7495   9.947   4.963   5.607  0.0167 -0.5114  0.2437
26423WAT      O 7496   3.013   7.272   1.739 -0.0602 -0.3414 -0.5393
26423WAT     H1 7497   3.049   7.339   1.797  1.0647  0.0110 -1.6175
26423WAT     H2 7498   2.962   7.322   1.675 -0.0528 -0.6089 -0.7515
26423WAT    EPW 7499   3.011   7.287   1.738  0.0892 -0.3302 -0.7095
26424WAT      O 7500   1.883   4.396   5.183  0.1450 -0.6510 -0.1007
26424WAT     H1 7501   1.890   4.306   5.214  1.8458  0.0537  1.7563
26424WAT     H2 7502   1.815   4.435   5.237 -1.1400 -0.9641 -1.4223
26424WAT    EPW 7503   1.875   4.390   5.194  0.1999 -0.5991 -0.0300
26425WAT      O 7504   0.093   9.140   2.041  0.2763  0.0080  0.0762
26425WAT     H1 7505   0.099   9.135   1.946  2.1364 -2.6870  0.2181
26425WAT     H2 7506   0.166   9.197   2.066  0.2138  0.1600 -0.0839
26425WAT    EPW 7507   0.104   9.147   2.032  0.5134 -0.3276  0.0739
26426WAT      O 7508   2.531   7.123   2.701 -0.0664  0.2957 -0.5058
26426WAT     H1 7509   2.567   7.192   2.757 -2.2244  0.9508  0.1776
26426WAT     H2 7510   2.454   7.091   2.748  1.5352 -3.5904 -0.1529
26426WAT    EPW 7511   2.525   7.128   2.714 -0.1398 -0.1304 -0.3691
26427WAT      O 7512   1.967   3.701   2.025 -0.1299 -0.0706  0.1598
26427WAT     H1 7513   1.995   3.785   1.988  3.0604 -1.4420 -0.9256
26427WAT     H2 7514   1.921   3.657   1.953 -0.6686  0.2304  0.3164
26427WAT    EPW 7515   1.965   3.706   2.011  0.2198 -0.2118  0.0372
26428WAT      O 7516   1.575   5.276   5.733  0.0559  0.5616  0.2930
26428WAT     H1 7517   1.670   5.278   5.741  0.1177  1.1593 -0.5263
26428WAT     H2 7518   1.558   5.287   5.640 -0.8534  2.0740  0.6061
26428WAT    EPW 7519   1.585   5.278   5.722 -0.0559  0.8402  0.2265
26429WAT      O 7520   0.975   5.726   4.634  0.2071  0.5398 -0.4591
26429WAT     H1 7521   0.948   5.743   4.724  1.1512  0.2377 -0.1101
26429WAT     H2 7522   1.033   5.799   4.611  0.8649  0.0270 -0.4329
26429WAT    EPW 7523   0.979   5.738   4.643  0.4184  0.4323 -0.4098
26430WAT      O 7524   3.333   9.929   4.488  0.4190  0.0991  0.3427
26430WAT     H1 7525   3.420   9.967   4.494 -0.9785  3.6756  0.1505
26430WAT     H2 7526   3.311   9.904   4.577  0.9520  0.9309  0.7121
26430WAT    EPW 7527   3.341   9.930   4.500  0.3051  0.6800  0.3660
26431WAT      O 7528   1.216   9.365   6.759 -0.4648  0.1342 -0.4144
26431WAT     H1 7529   1.166   9.307   6.816  0.4628 -1.9923 -1.6451
26431WAT     H2 7530   1.192   9.338   6.670  0.3307  1.3398 -1.0240
26431WAT    EPW 7531   1.207   9.354   6.755 -0.2376  0.0134 -0.6571
26432WAT      O 7532   5.308   8.950   2.039 -0.1122 -0.5209 -0.4251
26432WAT     H1 7533   5.387   8.897   2.029  1.2869  0.7082  2.7308
26432WAT     H2 7534   5.327   9.030   1.989  0.3894 -0.4949 -0.2026
26432WAT    EPW 7535   5.321   8.954   2.031  0.1383 -0.3557  0.0205
26433WAT      O 7536   2.204   4.156   5.200 -0.1262  0.3369  0.2985
26433WAT     H1 7537   2.143   4.090   5.168  0.5267 -0.1280 -0.0142
26433WAT     H2 7538   2.237   4.199   5.121  1.7195 -1.0196  0.2714
26433WAT    EPW 7539   2.200   4.153   5.185  0.2034  0.0966  0.2539
26434WAT      O 7540   2.466   6.189   4.073  0.1190 -0.2458 -0.0157
26434WAT     H1 7541   2.508   6.240   4.142 -0.1745  0.2354 -0.1830
26434WAT     H2 7542   2.492   6.099   4.090 -1.2107 -0.3663  1.6639
26434WAT    EPW 7543   2.475   6.184   4.084 -0.0951 -0.1981  0.1838
26435WAT      O 7544   8.639   7.507   5.618  0.1867 -0.6864  0.3322
26435WAT     H1 7545   8.665   7.522   5.709  2.1040  1.2300 -0.4464
26435WAT     H2 7546   8.719   7.477   5.575  0.3037  1.7884 -1.4063
26435WAT    EPW 7547   8.653   7.505   5.624  0.4549 -0.1073  0.0000
26436WAT      O 7548   3.224   6.233   5.114 -0.1564 -0.0049 -0.3363
26436WAT     H1 7549   3.205   6.189   5.197  0.5325  1.2930  0.5384
26436WAT     H2 7550   3.319   6.231   5.107 -0.1366  1.0617 -0.4414
26436WAT    EPW 7551   3.234   6.227   5.124 -0.0629  0.3068 -0.2346
26437WAT      O 7552   2.417   7.549   4.275 -0.0987  0.1882  0.7706
26437WAT     H1 7553   2.456   7.598   4.202 -1.5398  0.9577  0.4762
26437WAT     H2 7554   2.483   7.485   4.299  0.6064  0.2454 -0.9032
26437WAT    EPW 7555   2.431   7.547   4.268 -0.1957  0.2973  0.5109
26438WAT      O 7556   9.923   6.217   3.555 -0.2521 -0.6936 -0.0203
26438WAT     H1 7557   9.857   6.264   3.605 -0.1855 -0.5075 -0.1083
26438WAT     H2 7558   9.997   6.277   3.550  0.2453 -1.2165  0.7911
26438WAT    EPW 7559   9.924   6.231   3.561 -0.1783 -0.7384  0.0752
26439WAT      O 7560   3.944   3.116   3.193  1.1462  0.0033  0.2244
26439WAT     H1 7561   3.909   3.182   3.133 -0.1314  1.3629  2.3182
26439WAT     H2 7562   4.013   3.072   3.143  1.0481  1.9292 -1.7716
26439WAT    EPW 7563   3.949   3.119   3.179  0.9646  0.4367  0.2372
26440WAT      O 7564   2.858   2.390   5.300  0.2299 -0.5981  0.0353
26440WAT     H1 7565   2.906   2.454   5.352 -0.2686  0.3674 -0.6483
26440WAT     H2 7566   2.916   2.315   5.294  1.1989  0.1261  0.1258
26440WAT    EPW 7567   2.872   2.389   5.306  0.2919 -0.3753 -0.0429
26441WAT      O 7568   0.106   3.259   4.523 -0.4955  0.5017  0.1344
26441WAT     H1 7569   0.079   3.171   4.548 -0.5520  0.7514  1.0095
26441WAT     H2 7570   0.066   3.316   4.589  2.2510  0.8748  1.6245
26441WAT    EPW 7571   0.097   3.255   4.535 -0.1407  0.5839  0.4461
26442WAT      O 7572   1.774   5.749   2.898  0.2795 -1.0534 -0.4964
26442WAT     H1 7573   1.738   5.800   2.825  0.2536 -3.0763 -1.9862
26442WAT     H2 7574   1.698   5.714   2.943  0.3058 -1.4477 -0.7501
26442WAT    EPW 7575   1.760   5.752   2.894  0.2795 -1.3723 -0.7265
26443WAT      O 7576   2.018   4.911   7.561  0.2418 -0.0615 -0.8312
26443WAT     H1 7577   2.030   4.949   7.474 -0.1959  2.1199  0.0110
26443WAT     H2 7578   1.980   4.825   7.544 -0.9519  0.7723 -2.7872
26443WAT    EPW 7579   2.014   4.905   7.547  0.0267  0.3362 -0.9780
26444WAT      O 7580   2.989   3.926   4.488  0.4962  0.0846  0.4043
26444WAT     H1 7581   2.894   3.914   4.486  0.4667  0.4091 -1.2328
26444WAT     H2 7582   3.001   4.020   4.505  0.4631  0.4178 -1.2599
26444WAT    EPW 7583   2.978   3.937   4.490  0.4880  0.1715 -0.0312
26445WAT      O 7584   1.985   8.682   6.619 -0.0316  0.0462 -0.0389
26445WAT     H1 7585   2.027   8.596   6.627 -1.6418 -0.8344 -0.5719
26445WAT     H2 7586   2.046   8.734   6.567  0.8455 -0.8590  0.0506
26445WAT    EPW 7587   1.999   8.677   6.614 -0.1283 -0.1893 -0.0975
26446WAT      O 7588   4.152   5.891   4.958  0.3788 -0.5762 -0.3957
26446WAT     H1 7589   4.153   5.800   4.986  1.4159 -0.3381  0.3992
26446WAT     H2 7590   4.212   5.935   5.018  1.0976  0.3384 -1.7407
26446WAT    EPW 7591   4.160   5.885   4.969  0.6106 -0.4244 -0.4683
26447WAT      O 7592  10.714   6.611   2.677  0.2410 -0.3048 -0.3938
26447WAT     H1 7593  10.723   6.704   2.659 -4.1201 -0.1015 -2.8383
26447WAT     H2 7594  10.700   6.606   2.772  0.1717  1.5936 -0.2698
26447WAT    EPW 7595  10.713   6.622   2.687 -0.3433 -0.0277 -0.6999
26448WAT      O 7596   3.707   5.073   3.885 -0.1980  0.6517 -0.2358
26448WAT     H1 7597   3.793   5.084   3.927  0.2283 -1.1897 -0.5665
26448WAT     H2 7598   3.722   5.007   3.817 -2.2056 -0.9687  0.8003
26448WAT    EPW 7599   3.721   5.066   3.882 -0.4065  0.1953 -0.1428
26449WAT      O 7600   1.999   3.970   5.128 -0.5997 -0.3570  0.4070
26449WAT     H1 7601   2.082   3.926   5.111 -1.9465 -3.3793  1.0047
26449WAT     H2 7602   1.946   3.952   5.051 -1.0423  0.6909  0.4513
26449WAT    EPW 7603   2.003   3.962   5.116 -0.8358 -0.6174  0.4919
26450WAT      O 7604   6.457   1.083   8.388 -0.2394  0.0532  1.1481
26450WAT     H1 7605   6.490   1.085   8.478 -0.9445 -0.3453  1.4234
26450WAT     H2 7606   6.519   1.028   8.341 -0.6776 -0.9611  1.7338
26450WAT    EPW 7607   6.469   1.076   8.394 -0.3903 -0.1331  1.2617
26451WAT      O 7608   2.743   4.080   5.521  0.0752  0.3198  0.1064
26451WAT     H1 7609   2.838   4.089   5.514  0.1265 -1.2300 -2.1058
26451WAT     H2 7610   2.710   4.095   5.432 -1.8313  1.3543  0.9210
26451WAT    EPW 7611   2.751   4.083   5.509 -0.1695  0.2520 -0.0780
26452WAT      O 7612   1.799   9.876   0.545 -0.1267 -0.5666 -0.0376
26452WAT     H1 7613   1.893   9.885   0.560 -0.3137 -0.3304  1.1202
26452WAT     H2 7614   1.781   9.784   0.563 -0.1155 -0.6099 -0.2494
26452WAT    EPW 7615   1.809   9.865   0.549 -0.1500 -0.5407  0.0872
26453WAT      O 7616   0.572   8.123   1.048 -0.2670 -0.2140 -0.3026
26453WAT     H1 7617   0.538   8.033   1.052  0.2910 -0.4527 -0.6935
26453WAT     H2 7618   0.503   8.177   1.087 -0.0485 -0.9632  1.1627
26453WAT    EPW 7619   0.558   8.118   1.054 -0.1646 -0.3443 -0.1608
26454WAT      O 7620   9.961   5.171   3.161  0.0083  0.1020  0.1113
26454WAT     H1 7621  10.032   5.194   3.101 -0.6545  1.2831 -0.2445
26454WAT     H2 7622   9.962   5.075   3.163  1.9353  0.0909  0.5206
26454WAT    EPW 7623   9.970   5.161   3.153  0.1755  0.2563  0.1183
26455WAT      O 7624   0.369   4.216   4.232  0.8124  0.2195 -0.3143
26455WAT     H1 7625   0.449   4.167   4.256  0.8434  0.1038 -0.6501
26455WAT     H2 7626   0.399   4.305   4.217  0.7868  0.3026  0.1119
26455WAT    EPW 7627   0.384   4.221   4.233  0.8131  0.2153 -0.3026
26456WAT      O 7628   7.622   5.997   5.061  0.0333 -0.6914  0.2889
26456WAT     H1 7629   7.659   6.076   5.023 -1.2163 -0.3507 -0.2752
26456WAT     H2 7630   7.609   5.938   4.987 -2.2381 -0.0933  0.1342
26456WAT    EPW 7631   7.625   5.999   5.046 -0.4308 -0.5677  0.1941
26457WAT      O 7632   4.267   6.985   1.935  0.1219  0.1184  0.6837
26457WAT     H1 7633   4.291   7.009   2.025  2.9024 -0.2536  0.1538
26457WAT     H2 7634   4.291   7.062   1.883  1.0159 -0.6065 -0.0089
26457WAT    EPW 7635   4.274   6.998   1.940  0.6065 -0.0260  0.5224
26458WAT      O 7636   1.605   4.171   1.058  0.2482  0.3707 -0.9429
26458WAT     H1 7637   1.553   4.241   1.098  1.5134  0.6550  0.2523
26458WAT     H2 7638   1.610   4.104   1.127 -0.0757 -0.4599 -1.7132
26458WAT    EPW 7639   1.599   4.172   1.073  0.3724  0.2985 -0.8869
26459WAT      O 7640   2.472   0.885   2.449 -0.1944  0.7147  0.3822
26459WAT     H1 7641   2.566   0.876   2.433 -0.5390  0.2189 -1.7301
26459WAT     H2 7642   2.460   0.859   2.540  1.5722 -0.3129  0.3634
26459WAT    EPW 7643   2.483   0.880   2.459 -0.0067  0.5138  0.1012
26460WAT      O 7644   1.811   5.635   3.296 -0.6119 -0.5806 -0.0485
26460WAT     H1 7645   1.891   5.663   3.342 -1.3447  1.0313  0.3140
26460WAT     H2 7646   1.813   5.540   3.302  0.6470 -0.5276  1.0620
26460WAT    EPW 7647   1.822   5.626   3.303 -0.5425 -0.3610  0.1458
26461WAT      O 7648   5.720   9.094   4.074 -0.0516 -0.4229  0.3762
26461WAT     H1 7649   5.655   9.024   4.066 -0.2741 -0.4447  1.9634
26461WAT     H2 7650   5.680   9.168   4.030  1.0099 -1.7376 -3.0916
26461WAT    EPW 7651   5.706   9.094   4.067  0.0591 -0.5984  0.1278
26462WAT      O 7652   4.382   5.762   3.754  0.3266 -0.5183  0.1702
26462WAT     H1 7653   4.387   5.669   3.775 -1.0017 -0.8102 -0.6684
26462WAT     H2 7654   4.469   5.796   3.772  0.7055 -1.8336  0.9059
26462WAT    EPW 7655   4.394   5.754   3.759  0.2012 -0.7303  0.1566
26463WAT      O 7656   2.475   8.872   3.970  0.0068 -0.8589 -0.6589
26463WAT     H1 7657   2.479   8.967   3.965  1.5193 -0.7218  1.6732
26463WAT     H2 7658   2.381   8.851   3.969 -0.3311  0.5300 -2.0991
26463WAT    EPW 7659   2.463   8.882   3.969  0.1616 -0.6576 -0.5413
26464WAT      O 7660   8.828   8.295   3.711  0.2832 -0.0999 -1.2983
26464WAT     H1 7661   8.817   8.263   3.800  1.2427  1.0712 -0.7358
26464WAT     H2 7662   8.793   8.225   3.656  2.2114 -2.0975 -0.1280
26464WAT    EPW 7663   8.822   8.281   3.715  0.6642 -0.2084 -1.0699
26465WAT      O 7664   0.690   6.654   4.051  0.1307 -0.0558 -0.5070
26465WAT     H1 7665   0.618   6.665   3.989 -0.3536 -1.6107 -0.2558
26465WAT     H2 7666   0.733   6.573   4.023  2.8704  1.6618 -1.6981
26465WAT    EPW 7667   0.687   6.645   4.039  0.4282 -0.0346 -0.6309
26466WAT      O 7668  10.325   3.535   2.741  0.4138  0.2224  0.9009
26466WAT     H1 7669  10.385   3.538   2.667  0.8422 -0.1327  1.2233
26466WAT     H2 7670  10.347   3.453   2.786  1.2954  1.2045  2.3625
26466WAT    EPW 7671  10.336   3.524   2.737  0.5865  0.3051  1.1362
26467WAT      O 7672   1.566   5.103   4.756  0.3441  0.3990 -0.5545
26467WAT     H1 7673   1.558   5.112   4.851  3.4551  2.2349 -0.3557
26467WAT     H2 7674   1.613   5.021   4.744 -2.4903 -1.3135 -0.7756
26467WAT    EPW 7675   1.571   5.093   4.767  0.3806  0.4153 -0.5574
26468WAT      O 7676   3.529   8.724   4.328  0.0828  0.6736  0.1106
26468WAT     H1 7677   3.611   8.748   4.372  0.9121  0.1005 -1.0644
26468WAT     H2 7678   3.502   8.643   4.371  2.3933 -1.4818 -2.1449
26468WAT    EPW 7679   3.536   8.716   4.339  0.4969  0.3142 -0.3419
26469WAT      O 7680   0.490   5.052   3.945 -0.2742  0.1325  0.3196
26469WAT     H1 7681   0.554   5.123   3.948 -0.0067 -0.1060  0.3730
26469WAT     H2 7682   0.516   5.001   3.868 -0.1571 -0.1912  0.5719
26469WAT    EPW 7683   0.502   5.055   3.935 -0.2234  0.0584  0.3600
26470WAT      O 7684   1.311   6.358   3.088 -0.5612 -0.7675  0.4740
26470WAT     H1 7685   1.249   6.383   3.157  0.5739  0.1188  1.2026
26470WAT     H2 7686   1.255   6.330   3.015 -1.9165  1.4999  0.5233
26470WAT    EPW 7687   1.295   6.358   3.087 -0.5902 -0.3517  0.5766
26471WAT      O 7688   0.435   3.130   0.953 -0.3921  0.2558  0.0082
26471WAT     H1 7689   0.516   3.130   1.004  0.7890 -1.9572 -1.6426
26471WAT     H2 7690   0.431   3.218   0.915  0.4556  0.8664  1.2728
26471WAT    EPW 7691   0.445   3.141   0.955 -0.1245  0.0443 -0.0428
26472WAT      O 7692   1.239   1.900   3.354 -0.1347 -0.0875  0.3994
26472WAT     H1 7693   1.281   1.815   3.348  0.9069  0.2570  2.0872
26472WAT     H2 7694   1.301   1.954   3.403 -0.4398  1.8753 -1.2232
26472WAT    EPW 7695   1.253   1.896   3.360 -0.0376  0.2168  0.4081
26473WAT      O 7696  10.836   8.678   2.666  0.1130  0.1812 -0.1272
26473WAT     H1 7697  10.892   8.656   2.591 -0.0000  1.0344 -0.4758
26473WAT     H2 7698  10.888   8.739   2.718  0.3030 -0.6384  0.6531
26473WAT    EPW 7699  10.850   8.683   2.663  0.1230  0.1855 -0.0703
26474WAT      O 7700   0.288   6.941   1.128 -0.1215  0.1217 -0.5176
26474WAT     H1 7701   0.343   6.996   1.185  1.8299 -0.3759 -1.8207
26474WAT     H2 7702   0.244   7.004   1.070  1.5140  0.4153 -1.5038
26474WAT    EPW 7703   0.289   6.957   1.128  0.3516  0.0949 -0.8196
26475WAT      O 7704   3.785   7.303   4.809 -0.3786  0.5491  0.0352
26475WAT     H1 7705   3.812   7.328   4.897 -1.2943 -0.2060  0.5555
26475WAT     H2 7706   3.730   7.375   4.778 -0.5897  0.5246  0.3490
26475WAT    EPW 7707   3.781   7.316   4.817 -0.5273  0.4461  0.1454
26476WAT      O 7708   0.301   6.080   4.076  0.2694  0.2189  0.5850
26476WAT     H1 7709   0.329   6.087   4.168  0.4432  1.9802  0.4336
26476WAT     H2 7710   0.205   6.080   4.080  0.1738 -3.0668  0.9262
26476WAT    EPW 7711   0.292   6.081   4.089  0.2797  0.0176  0.6099
26477WAT      O 7712   2.524   6.576   7.953  0.5318 -0.2367 -0.0179
26477WAT     H1 7713   2.570   6.604   8.033  1.1119 -0.5268 -0.2380
26477WAT     H2 7714   2.459   6.644   7.937 -0.0018 -0.4738  1.0358
26477WAT    EPW 7715   2.522   6.588   7.961  0.5380 -0.3059  0.0920
26478WAT      O 7716   4.077   8.296   6.344  0.0249 -0.2195 -0.2718
26478WAT     H1 7717   4.076   8.216   6.397  1.5906 -0.6166 -0.7860
26478WAT     H2 7718   4.137   8.354   6.390 -0.2505  0.2482 -0.4999
26478WAT    EPW 7719   4.085   8.293   6.357  0.1948 -0.2093 -0.3698
26479WAT      O 7720   3.816   4.857   3.694 -0.2744  0.3118  0.2360
26479WAT     H1 7721   3.863   4.829   3.773 -0.6871  1.8042  1.0530
26479WAT     H2 7722   3.884   4.882   3.632  0.0472 -0.4828  0.2597
26479WAT    EPW 7723   3.831   4.856   3.697 -0.2866  0.4036  0.3468
26480WAT      O 7724   1.137   6.251   2.884  0.3082  0.6207  0.3565
26480WAT     H1 7725   1.160   6.176   2.830  1.0318  1.2405 -0.2258
26480WAT     H2 7726   1.062   6.291   2.839  0.2052  0.5056  0.4248
26480WAT    EPW 7727   1.130   6.247   2.871  0.3901  0.6876  0.2887
26481WAT      O 7728   0.562   9.177   0.940 -0.0549 -0.7942  0.1407
26481WAT     H1 7729   0.515   9.221   1.011 -0.4519 -2.2455  0.8125
26481WAT     H2 7730   0.541   9.228   0.862  0.0315  0.5772  0.9809
26481WAT    EPW 7731   0.553   9.190   0.939 -0.0958 -0.8044  0.3402
26482WAT      O 7732   0.963   8.359   5.488 -0.2579  0.3006 -0.0603
26482WAT     H1 7733   0.914   8.441   5.493 -2.4640 -0.9688  0.9619
26482WAT     H2 7734   0.941   8.313   5.570  1.5909 -0.9613 -0.2076
26482WAT    EPW 7735   0.953   8.364   5.500 -0.3050 -0.0334  0.0548
26483WAT      O 7736   9.699   9.771   3.737 -0.4428 -0.2706 -0.2010
26483WAT     H1 7737   9.724   9.822   3.814 -0.4371  0.7950 -0.8925
26483WAT     H2 7738   9.644   9.830   3.686  1.0591 -0.2754 -1.9401
26483WAT    EPW 7739   9.695   9.786   3.741 -0.2437 -0.1307 -0.5217
26484WAT      O 7740   0.942   4.319   5.024 -0.2164  0.0658 -0.6050
26484WAT     H1 7741   0.928   4.400   5.072 -2.0713 -0.9054  0.5605
26484WAT     H2 7742   1.023   4.283   5.061 -1.0867 -0.1750  1.1361
26484WAT    EPW 7743   0.951   4.325   5.035 -0.5759 -0.0939 -0.2215
26485WAT      O 7744   1.537   5.317   6.161 -0.7266 -0.3655 -0.6291
26485WAT     H1 7745   1.449   5.355   6.161 -0.1095  1.2910  1.5013
26485WAT     H2 7746   1.542   5.267   6.080 -3.4252 -0.0606 -1.0649
26485WAT    EPW 7747   1.526   5.316   6.150 -1.0011 -0.1068 -0.4055
26486WAT      O 7748  10.723   4.577   5.333  0.7672 -0.7147 -0.2716
26486WAT     H1 7749  10.708   4.646   5.398  1.0245 -2.1331  1.3670
26486WAT     H2 7750  10.816   4.583   5.313  0.5987  0.0246 -0.8956
26486WAT    EPW 7751  10.733   4.587   5.339  0.7792 -0.8042 -0.1380
26487WAT      O 7752   6.349   0.685   1.430  0.1923 -0.7599 -0.4020
26487WAT     H1 7753   6.299   0.612   1.468 -0.6970  0.2258  0.3594
26487WAT     H2 7754   6.369   0.655   1.341  0.5118 -2.2457  0.1264
26487WAT    EPW 7755   6.345   0.671   1.423  0.1173 -0.8259 -0.2319
26488WAT      O 7756   0.388   6.657   4.327  0.0511  0.2244 -0.2414
26488WAT     H1 7757   0.453   6.589   4.307  2.2361  2.4567 -1.1460
26488WAT     H2 7758   0.369   6.644   4.420  1.3153 -0.8903 -0.0998
26488WAT    EPW 7759   0.394   6.646   4.337  0.5060  0.3717 -0.3419
26489WAT      O 7760   1.695   6.090   7.469  0.1203  0.3725  0.5630
26489WAT     H1 7761   1.701   6.034   7.546 -0.6554 -0.0986  0.2835
26489WAT     H2 7762   1.772   6.068   7.417  0.4298  0.4030  0.9974
26489WAT    EPW 7763   1.706   6.080   7.472  0.0588  0.3142  0.5834
26490WAT      O 7764   3.787   7.614   5.881  0.4775 -0.1691 -0.1768
26490WAT     H1 7765   3.839   7.624   5.801  0.5053 -3.7629 -0.8033
26490WAT     H2 7766   3.710   7.564   5.854  1.1675 -2.7765  2.1246
26490WAT    EPW 7767   3.784   7.608   5.867  0.5722 -0.9871  0.0439
26491WAT      O 7768  10.129   3.028   4.065  0.4041 -0.1007  0.2900
26491WAT     H1 7769  10.176   3.098   4.111 -0.1281  1.4780 -1.4296
26491WAT     H2 7770  10.116   2.960   4.132 -0.0561  1.8984  2.3711
26491WAT    EPW 7771  10.134   3.028   4.080  0.2737  0.3712  0.3378
26492WAT      O 7772   2.732   9.836   5.036  0.6915  0.2850 -0.2768
26492WAT     H1 7773   2.818   9.862   5.004  0.3450 -0.8705 -2.4098
26492WAT     H2 7774   2.702   9.771   4.972 -2.0214  1.0999  0.0333
26492WAT    EPW 7775   2.739   9.831   5.023  0.2880  0.2398 -0.5171
26493WAT      O 7776   2.609   6.318   2.820  0.1650 -0.2387  0.0202
26493WAT     H1 7777   2.602   6.265   2.900  0.6102 -0.6229 -0.1971
26493WAT     H2 7778   2.568   6.264   2.752  3.1184 -1.5923 -0.8223
26493WAT    EPW 7779   2.602   6.304   2.822  0.6132 -0.4680 -0.1196
26494WAT      O 7780   1.081   8.199   2.153 -0.6886  0.5143 -0.6031
26494WAT     H1 7781   1.154   8.146   2.121 -0.6548 -0.9125  1.6734
26494WAT     H2 7782   1.062   8.259   2.080  2.1039  0.3067 -1.6210
26494WAT    EPW 7783   1.088   8.200   2.139 -0.3158  0.2985 -0.4370
26495WAT      O 7784   2.904   3.145   4.674 -0.4584 -0.2660  0.4512
26495WAT     H1 7785   2.976   3.207   4.675 -1.6255  1.1497 -0.1825
26495WAT     H2 7786   2.926   3.084   4.603 -0.5073  0.9476 -0.6386
26495WAT    EPW 7787   2.916   3.145   4.665 -0.6187  0.0807  0.2239
26496WAT      O 7788   0.790   3.966   2.903 -0.7013 -0.6365 -0.1718
26496WAT     H1 7789   0.816   3.875   2.917 -0.2726 -0.5728 -0.5218
26496WAT     H2 7790   0.770   3.971   2.809  0.1869 -0.1523 -0.3435
26496WAT    EPW 7791   0.791   3.955   2.892 -0.5276 -0.5642 -0.2407
26497WAT      O 7792  10.874   5.383   4.339 -0.6823 -0.2246 -0.1280
26497WAT     H1 7793  10.780   5.377   4.354 -0.1849 -3.5015  3.0957
26497WAT     H2 7794  10.906   5.438   4.410 -0.0822  0.4975 -0.9388
26497WAT    EPW 7795  10.866   5.389   4.350 -0.5379 -0.5615  0.1903
26498WAT      O 7796   4.033   7.623   1.650  0.2783  0.1230  1.0758
26498WAT     H1 7797   3.996   7.642   1.736 -1.8343 -0.7486  0.4356
26498WAT     H2 7798   4.105   7.685   1.640 -0.9718  1.9073  2.4805
26498WAT    EPW 7799   4.038   7.634   1.660 -0.1652  0.2434  1.1765
26499WAT      O 7800  10.707   5.837   1.437 -0.3831 -0.0744 -0.1789
26499WAT     H1 7801  10.673   5.866   1.353 -2.3887 -0.0228  0.5925
26499WAT     H2 7802  10.768   5.766   1.415 -0.1164  0.5881 -1.6955
26499WAT    EPW 7803  10.711   5.831   1.423 -0.6123  0.0200 -0.2772
26500WAT      O 7804   2.653   8.101   6.527  0.1522 -0.2571  0.3392
26500WAT     H1 7805   2.642   8.183   6.479 -2.4094 -0.6454  0.1275
26500WAT     H2 7806   2.614   8.119   6.613  2.9890 -0.1593  1.7187
26500WAT    EPW 7807   2.646   8.115   6.532  0.1885 -0.2956  0.4935
26501WAT      O 7808   1.852   4.130   5.946  0.3790  0.3416 -0.5583
26501WAT     H1 7809   1.875   4.079   5.869  0.1109 -2.0319  0.8323
26501WAT     H2 7810   1.776   4.182   5.919 -0.3600 -1.2329 -1.6091
26501WAT    EPW 7811   1.845   4.130   5.933  0.2461 -0.1793 -0.5136
26502WAT      O 7812   3.206   4.393   5.255 -0.9167 -0.0427 -0.4812
26502WAT     H1 7813   3.292   4.353   5.265 -0.7514  0.4069 -0.0533
26502WAT     H2 7814   3.224   4.480   5.220 -1.2469 -0.2037 -1.0715
26502WAT    EPW 7815   3.220   4.399   5.252 -0.9384 -0.0045 -0.5026
26503WAT      O 7816   1.962   6.882   5.042 -0.0629 -0.0004  0.7300
26503WAT     H1 7817   2.014   6.946   5.092  1.4736 -0.4786 -0.1889
26503WAT     H2 7818   1.884   6.868   5.095  0.1376  1.7151  1.5516
26503WAT    EPW 7819   1.959   6.889   5.055  0.1662  0.1626  0.7174
26504WAT      O 7820   3.376   3.303   4.461  0.0657 -0.6236  0.2567
26504WAT     H1 7821   3.305   3.335   4.406  0.4194  0.3802  0.3743
26504WAT     H2 7822   3.451   3.295   4.402 -0.5104 -3.2792 -0.2555
26504WAT    EPW 7823   3.377   3.306   4.446  0.0362 -0.8416  0.2046
26505WAT      O 7824   3.561   4.568   4.773  0.4863 -0.1498 -0.9389
26505WAT     H1 7825   3.584   4.657   4.798  0.6911 -0.4104 -0.1599
26505WAT     H2 7826   3.478   4.551   4.818  1.3353 -0.9537  0.3909
26505WAT    EPW 7827   3.553   4.577   4.783  0.6254 -0.2902 -0.6609
26506WAT      O 7828   2.827   7.541   4.615 -0.2947  0.3604  0.6284
26506WAT     H1 7829   2.822   7.607   4.545  3.7350  0.0843 -0.1599
26506WAT     H2 7830   2.774   7.468   4.583 -0.4587  1.1637 -1.0341
26506WAT    EPW 7831   2.820   7.540   4.602  0.2153  0.4301  0.3054
26507WAT      O 7832  10.771   7.334   3.166 -0.3468 -0.0239 -0.4205
26507WAT     H1 7833  10.840   7.400   3.164 -0.1167 -0.2568 -0.2160
26507WAT     H2 7834  10.696   7.376   3.124 -0.0992  0.2526 -0.5869
26507WAT    EPW 7835  10.770   7.348   3.160 -0.2837 -0.0181 -0.4156
26508WAT      O 7836   4.204   8.944   3.574 -0.6694 -0.6278 -0.0778
26508WAT     H1 7837   4.266   8.876   3.599 -0.5082 -0.9708 -1.3250
26508WAT     H2 7838   4.124   8.922   3.621  0.4766  0.6233  2.7104
26508WAT    EPW 7839   4.202   8.932   3.584 -0.4971 -0.5078  0.1254
26509WAT      O 7840   2.574   6.656   0.849 -0.1516  0.1054 -0.3766
26509WAT     H1 7841   2.601   6.709   0.923 -2.1847 -0.5230  0.9120
26509WAT     H2 7842   2.620   6.573   0.860 -0.2768  0.0941  0.0803
26509WAT    EPW 7843   2.583   6.652   0.860 -0.4363  0.0210 -0.1464
26510WAT      O 7844  10.944   5.516   0.940  0.5396  0.0676 -0.1943
26510WAT     H1 7845  11.019   5.565   0.907  2.1240 -1.0163  1.5681
26510WAT     H2 7846  10.913   5.466   0.864  0.9658  1.2809 -1.1936
26510WAT    EPW 7847  10.950   5.516   0.925  0.8049  0.0849 -0.0937
26511WAT      O 7848   0.992   3.576   4.561 -0.0428  0.3731  0.2904
26511WAT     H1 7849   0.945   3.498   4.533 -1.3975  0.5637  1.8447
26511WAT     H2 7850   0.925   3.644   4.566  0.3430  0.6802  2.5082
26511WAT    EPW 7851   0.977   3.575   4.558 -0.1706  0.4388  0.7880
26512WAT      O 7852   4.357   8.623   6.002 -0.0110 -0.0883 -0.2178
26512WAT     H1 7853   4.436   8.660   5.963  2.1128 -1.1480  2.7318
26512WAT     H2 7854   4.357   8.531   5.974 -1.5677  0.4116 -2.0712
26512WAT    EPW 7855   4.368   8.615   5.993  0.0639 -0.1626 -0.0732
26513WAT      O 7856   0.363   8.730   1.726  0.1782 -0.2530  0.1000
26513WAT     H1 7857   0.450   8.768   1.737 -0.1264  0.5608 -0.2456
26513WAT     H2 7858   0.361   8.657   1.787  1.2330 -0.5013 -0.1474
26513WAT    EPW 7859   0.374   8.725   1.735  0.2771 -0.1783  0.0218
26514WAT      O 7860   0.058   6.391   5.594  0.1179 -0.4915  0.6449
26514WAT     H1 7861   0.017   6.348   5.670  0.2061  0.1411  1.0618
26514WAT     H2 7862   0.044   6.330   5.522  1.1087 -1.6815  1.4223
26514WAT    EPW 7863   0.051   6.377   5.595  0.2602 -0.5651  0.8025
26515WAT      O 7864   2.014   7.781   0.202  0.6925 -0.1898  0.1384
26515WAT     H1 7865   2.052   7.833   0.272 -0.7968  0.1536  0.7163
26515WAT     H2 7866   2.001   7.694   0.241 -3.7096  0.9254  1.7017
26515WAT    EPW 7867   2.018   7.776   0.217 -0.0845  0.0026  0.4208
26516WAT      O 7868   9.901   9.286   4.231  0.2170 -0.0650 -0.7090
26516WAT     H1 7869   9.926   9.267   4.321  0.7963 -0.1114 -0.8767
26516WAT     H2 7870   9.965   9.239   4.177 -0.0530  0.0548 -1.1415
26516WAT    EPW 7871   9.913   9.277   4.235  0.2570 -0.0553 -0.7880
26517WAT      O 7872   2.481   3.572   4.049  0.8067  0.1420 -0.1449
26517WAT     H1 7873   2.475   3.478   4.030  2.2809 -0.1064  0.4772
26517WAT     H2 7874   2.434   3.614   3.977 -1.2451 -1.1055  0.3695
26517WAT    EPW 7875   2.474   3.565   4.037  0.7304 -0.0552  0.0048
26518WAT      O 7876   2.581   5.219   2.456  0.2228  0.3558 -0.4441
26518WAT     H1 7877   2.623   5.196   2.539 -0.6982  0.8752  0.1718
26518WAT     H2 7878   2.510   5.278   2.480 -1.3606 -1.0823 -1.3805
26518WAT    EPW 7879   2.577   5.224   2.470 -0.1075  0.2346 -0.4864
26519WAT      O 7880  10.639   7.255   2.557 -0.1927  0.4486 -0.2861
26519WAT     H1 7881  10.704   7.190   2.528 -1.8068 -1.6004  0.4624
26519WAT     H2 7882  10.657   7.332   2.503  2.1029 -0.4151 -0.9049
26519WAT    EPW 7883  10.650   7.257   2.546 -0.1030  0.0644 -0.2688
26520WAT      O 7884   3.223   7.496   7.155 -0.1263  0.2897  0.7101
26520WAT     H1 7885   3.134   7.462   7.147 -0.5584  1.7062 -1.2596
26520WAT     H2 7886   3.267   7.467   7.075  0.1265  2.3688  0.0323
26520WAT    EPW 7887   3.217   7.488   7.144 -0.1498  0.7508  0.3610
26521WAT      O 7888  10.930   7.039   5.107 -0.4060  0.1596 -0.6087
26521WAT     H1 7889  10.884   6.959   5.131 -0.7454  0.5761  0.1457
26521WAT     H2 7890  10.869   7.109   5.128 -0.3210  0.6062 -1.7583
26521WAT    EPW 7891  10.916   7.038   5.113 -0.4396  0.2737 -0.6609
26522WAT      O 7892   2.301   4.044   6.059  0.2897  0.4053  0.0341
26522WAT     H1 7893   2.292   4.131   6.021 -1.0160  0.4858  0.4662
26522WAT     H2 7894   2.273   4.054   6.150  0.8642 -0.3170  0.3034
26522WAT    EPW 7895   2.296   4.056   6.066  0.1934  0.3204  0.1266
26523WAT      O 7896  10.336   8.028   3.172 -0.3851  0.2122  0.1048
26523WAT     H1 7897  10.387   8.002   3.096 -0.5686  1.3891 -0.4419
26523WAT     H2 7898  10.304   7.946   3.210  1.7932 -0.5417  0.4048
26523WAT    EPW 7899  10.338   8.014   3.167 -0.1216  0.2685  0.0722
26524WAT      O 7900   2.857   8.918   2.668  0.9786 -0.4843 -0.0471
26524WAT     H1 7901   2.837   8.926   2.574  0.9249  1.7239  0.1099
26524WAT     H2 7902   2.802   8.984   2.710  2.5841  0.0479  1.2940
26524WAT    EPW 7903   2.847   8.927   2.661  1.1833 -0.1235  0.1506
26525WAT      O 7904   0.837   5.497   0.749  0.3151 -0.0109 -0.1309
26525WAT     H1 7905   0.841   5.591   0.732  1.4139 -0.3076 -1.7411
26525WAT     H2 7906   0.773   5.464   0.685  0.1790 -0.4015  0.2028
26525WAT    EPW 7907   0.829   5.505   0.738  0.4421 -0.1013 -0.2993
26526WAT      O 7908   1.617   6.052   5.367 -0.2177  0.2205 -0.1882
26526WAT     H1 7909   1.540   6.108   5.374  0.4104  0.9833  1.0959
26526WAT     H2 7910   1.592   5.983   5.307 -1.8972  0.4556  0.2059
26526WAT    EPW 7911   1.604   6.050   5.360 -0.3564  0.3519  0.0329
26527WAT      O 7912   0.718   5.001   6.035 -0.6677 -0.1048  0.9398
26527WAT     H1 7913   0.660   5.060   5.986  0.7141  0.5804  0.0619
26527WAT     H2 7914   0.723   5.039   6.123 -0.9452  0.2623  0.7954
26527WAT    EPW 7915   0.711   5.014   6.040 -0.5220  0.0339  0.8049
26528WAT      O 7916   5.156   9.803   8.270 -0.0593 -0.2202  0.1208
26528WAT     H1 7917   5.185   9.835   8.184  1.1946 -0.0974  0.5783
26528WAT     H2 7918   5.181   9.710   8.270 -1.2254 -0.5532 -0.1321
26528WAT    EPW 7919   5.163   9.795   8.259 -0.0477 -0.2480  0.1473
26529WAT      O 7920   2.003   6.365   3.215  0.1301  0.4042 -0.1350
26529WAT     H1 7921   2.062   6.437   3.240  1.5099 -0.4283 -0.8355
26529WAT     H2 7922   1.994   6.314   3.295 -1.1684  1.5179  0.4750
26529WAT    EPW 7923   2.010   6.368   3.229  0.1407  0.4413 -0.1470
26530WAT      O 7924   1.937   6.833   3.381 -0.0703 -0.3375  0.4396
26530WAT     H1 7925   1.911   6.868   3.466 -0.0199  0.2177  0.2327
26530WAT     H2 7926   1.860   6.785   3.350 -0.3573  0.0895  0.4701
26530WAT    EPW 7927   1.923   6.832   3.388 -0.1016 -0.2081  0.4164
26531WAT      O 7928   1.171   6.862   0.755 -0.6591 -0.1104 -0.9344
26531WAT     H1 7929   1.163   6.927   0.825  3.0335  0.0693 -0.4353
26531WAT     H2 7930   1.150   6.779   0.797 -1.7778  0.3385 -0.5688
26531WAT    EPW 7931   1.167   6.860   0.770 -0.3196 -0.0277 -0.8203
26532WAT      O 7932   2.887   6.059   4.829 -0.0194  0.1128  0.6434
26532WAT     H1 7933   2.881   6.076   4.923 -1.5942 -2.8089  1.1925
26532WAT     H2 7934   2.975   6.025   4.817  0.0886  0.2146  1.1211
26532WAT    EPW 7935   2.898   6.056   4.840 -0.2129 -0.2592  0.7789
26533WAT      O 7936   2.193   6.331   6.929 -0.4742  0.2402 -0.5698
26533WAT     H1 7937   2.220   6.240   6.924 -0.9101  0.0639  0.1990
26533WAT     H2 7938   2.275   6.381   6.919 -0.0253 -0.2644  0.4701
26533WAT    EPW 7939   2.207   6.326   6.927 -0.4724  0.1502 -0.3309
26534WAT      O 7940   0.984   3.773   1.664  0.7305 -0.6916 -0.2626
26534WAT     H1 7941   0.927   3.841   1.628  1.6377  1.1448  1.5770
26534WAT     H2 7942   1.068   3.817   1.677  1.5792 -2.4023  0.2376
26534WAT    EPW 7943   0.987   3.788   1.661  0.9621 -0.6750  0.0460
26535WAT      O 7944   3.211   4.083   3.895 -0.2265 -0.3153  0.2538
26535WAT     H1 7945   3.135   4.125   3.937 -2.1717 -1.9375 -1.4006
26535WAT     H2 7946   3.172   4.022   3.832  2.5020  0.3874 -2.3034
26535WAT    EPW 7947   3.196   4.080   3.892 -0.1231 -0.4365 -0.3017
26536WAT      O 7948   2.758   8.838   8.822  0.4223 -0.5856 -0.4819
26536WAT     H1 7949   2.776   8.747   8.800  0.2768 -0.5257 -0.8472
26536WAT     H2 7950   2.771   8.842   8.917  2.4747 -0.5092 -0.7317
26536WAT    EPW 7951   2.762   8.827   8.832  0.6738 -0.5679 -0.5631
26537WAT      O 7952   2.222   5.426   5.785  0.1484 -0.5146 -0.2536
26537WAT     H1 7953   2.202   5.335   5.765 -0.7988 -0.2730 -0.4412
26537WAT     H2 7954   2.142   5.474   5.763  0.6923  0.3857 -0.3266
26537WAT    EPW 7955   2.209   5.421   5.779  0.0951 -0.3638 -0.2880
26538WAT      O 7956   9.039   1.358   6.234 -0.1240  0.2204  0.0792
26538WAT     H1 7957   8.969   1.387   6.175 -1.5052 -2.1807  0.3975
26538WAT     H2 7958   9.103   1.316   6.176  1.4133  2.8317 -0.2700
26538WAT    EPW 7959   9.038   1.356   6.218 -0.1030  0.2482  0.0751
26539WAT      O 7960   1.377   4.891   4.028  0.8034 -0.0968 -0.0098
26539WAT     H1 7961   1.326   4.970   4.048  0.8666  0.3356 -1.4508
26539WAT     H2 7962   1.428   4.874   4.107 -1.2934 -0.3439  1.3684
26539WAT    EPW 7963   1.377   4.899   4.041  0.5351 -0.0722 -0.0181
26540WAT      O 7964   2.257   3.294   3.255 -0.1304 -0.5587  0.8088
26540WAT     H1 7965   2.184   3.233   3.261 -0.5122 -0.5377 -2.2339
26540WAT     H2 7966   2.228   3.360   3.193  0.6121  2.3461  3.3275
26540WAT    EPW 7967   2.244   3.294   3.248 -0.0829 -0.1730  0.7398
26541WAT      O 7968   1.679   3.622   5.570  0.2221 -0.1788  0.2950
26541WAT     H1 7969   1.590   3.620   5.605  0.0971  0.2992  0.0048
26541WAT     H2 7970   1.711   3.532   5.583  0.2074 -0.0088  1.6851
26541WAT    EPW 7971   1.671   3.610   5.576  0.2037 -0.0933  0.4399
26542WAT      O 7972   1.289   6.774   2.592  0.1815 -0.1103  0.0697
26542WAT     H1 7973   1.274   6.838   2.662 -0.7298 -1.1042  0.8246
26542WAT     H2 7974   1.361   6.719   2.625 -1.8789 -2.1680  1.4721
26542WAT    EPW 7975   1.297   6.775   2.606 -0.2105 -0.5128  0.3543
26543WAT      O 7976   2.822   6.873   3.987  0.2560 -0.7160  0.3465
26543WAT     H1 7977   2.875   6.804   4.025  0.6182 -1.0973 -0.8092
26543WAT     H2 7978   2.764   6.828   3.926  1.2774  0.0677 -1.2876
26543WAT    EPW 7979   2.821   6.858   3.984  0.4385 -0.6630 -0.0213
26544WAT      O 7980   0.918   6.162   5.157  0.5850 -0.2984 -0.1698
26544WAT     H1 7981   0.954   6.212   5.084 -1.3597  1.7072  0.1514
26544WAT     H2 7982   0.823   6.175   5.151  0.3188 -0.6989  2.2623
26544WAT    EPW 7983   0.910   6.170   5.147  0.2934 -0.0868  0.1931
26545WAT      O 7984   1.666   5.426   4.390  0.2149  0.6118  0.3036
26545WAT     H1 7985   1.703   5.372   4.459 -0.0439  1.1707  0.8900
26545WAT     H2 7986   1.663   5.514   4.427  0.2007  0.9462 -0.4700
26545WAT    EPW 7987   1.670   5.431   4.404  0.1790  0.7298  0.2789
26546WAT      O 7988   0.622   5.816   2.642 -0.3526 -0.2119  0.8208
26546WAT     H1 7989   0.658   5.749   2.584  1.6380 -1.5286  3.3665
26546WAT     H2 7990   0.555   5.770   2.693  1.7065 -0.7115  3.2782
26546WAT    EPW 7991   0.617   5.801   2.641  0.1815 -0.4513  1.4807
26547WAT      O 7992  10.958   9.524   7.142 -0.1942 -0.1079  0.9143
26547WAT     H1 7993  11.032   9.579   7.117 -0.4947  0.3230  0.9575
26547WAT     H2 7994  10.995   9.460   7.203  0.2911 -0.3707  0.3487
26547WAT    EPW 7995  10.973   9.523   7.147 -0.1698 -0.0858  0.8454
26548WAT      O 7996   3.450   7.902   5.721 -0.4557  0.2124  0.3293
26548WAT     H1 7997   3.442   7.993   5.694 -1.7096  0.7128  2.1753
26548WAT     H2 7998   3.469   7.906   5.815  1.2873 -1.4322  0.1051
26548WAT    EPW 7999   3.451   7.914   5.730 -0.3911  0.0615  0.5434
26549WAT      O 8000   0.667   3.046   4.099  0.2501 -0.0671  0.0994
26549WAT     H1 8001   0.731   3.022   4.166  2.2131  4.1670  0.0684
26549WAT     H2 8002   0.702   3.008   4.018  0.7999 -0.6917  0.6160
26549WAT    EPW 8003   0.680   3.037   4.097  0.5816  0.4090  0.1633
26550WAT      O 8004   9.811   3.911   5.580  0.1032 -0.1757  0.7388
26550WAT     H1 8005   9.837   3.819   5.576 -1.0149 -0.4657 -1.5841
26550WAT     H2 8006   9.717   3.910   5.595  0.0091  0.5791  0.2679
26550WAT    EPW 8007   9.802   3.899   5.581 -0.0563 -0.1144  0.3705
26551WAT      O 8008   1.203   5.500   2.915  0.3710  0.3128  0.2644
26551WAT     H1 8009   1.190   5.538   2.828 -0.4812 -1.1005 -0.2591
26551WAT     H2 8010   1.187   5.573   2.975 -0.0109  1.0751 -0.7230
26551WAT    EPW 8011   1.199   5.515   2.911  0.2081  0.2270  0.0651
26552WAT      O 8012   0.316   6.315   3.659 -0.7658  0.6545 -0.1890
26552WAT     H1 8013   0.326   6.306   3.753 -0.0574 -0.8594 -0.3763
26552WAT     H2 8014   0.327   6.226   3.625 -0.6907  1.2187 -1.7268
26552WAT    EPW 8015   0.318   6.302   3.667 -0.6624  0.5295 -0.4166
26553WAT      O 8016  10.843   5.778   4.546 -0.2849 -0.0859  0.1581
26553WAT     H1 8017  10.804   5.840   4.485  0.6598  1.3196  0.9473
26553WAT     H2 8018  10.922   5.822   4.579  0.2033 -1.5382  1.0347
26553WAT    EPW 8019  10.848   5.792   4.542 -0.0958 -0.0918  0.3777
26554WAT      O 8020   2.886   7.102   1.919 -0.2282  0.4326  0.2559
26554WAT     H1 8021   2.929   7.160   1.857  0.6675 -1.2768 -0.8176
26554WAT     H2 8022   2.949   7.030   1.931 -1.8120 -0.9689  0.4797
26554WAT    EPW 8023   2.900   7.100   1.912 -0.3190  0.0222  0.1437
26555WAT      O 8024   0.055   7.524   2.557  0.7003 -0.5365  0.1844
26555WAT     H1 8025   0.063   7.610   2.516 -1.2781 -1.3700 -2.1187
26555WAT     H2 8026  -0.039   7.512   2.570  0.8596 -2.6987 -0.3589
26555WAT    EPW 8027   0.044   7.534   2.553  0.4604 -0.9315 -0.1911
26556WAT      O 8028   3.585   6.604   5.456  0.8178 -0.1972 -0.5343
26556WAT     H1 8029   3.634   6.595   5.538 -0.4794  1.2727  0.4754
26556WAT     H2 8030   3.509   6.658   5.480  1.3342  1.8618 -3.1190
26556WAT    EPW 8031   3.581   6.610   5.470  0.7149  0.2685 -0.7420
26557WAT      O 8032  10.958   6.236   0.405  0.1261  0.3335 -0.4672
26557WAT     H1 8033  10.947   6.265   0.315 -3.4765  1.1237  0.0928
26557WAT     H2 8034  10.929   6.145   0.405  0.7032  0.1433 -0.1844
26557WAT    EPW 8035  10.953   6.227   0.394 -0.2732  0.4127 -0.3561
26558WAT      O 8036   0.783   5.769   0.703  0.0548 -0.3812 -0.5482
26558WAT     H1 8037   0.721   5.816   0.647 -0.3432  0.1259  0.2939
26558WAT     H2 8038   0.820   5.837   0.760 -1.0377 -1.1671  1.1595
26558WAT    EPW 8039   0.780   5.784   0.703 -0.1418 -0.4177 -0.2119
26559WAT      O 8040   4.288   9.195   4.121  0.3138 -0.6174 -0.4651
26559WAT     H1 8041   4.265   9.279   4.081  0.2889 -1.8217 -3.1861
26559WAT     H2 8042   4.377   9.178   4.090  1.1286 -0.7085  1.7288
26559WAT    EPW 8043   4.297   9.204   4.112  0.4182 -0.7887 -0.5348
26560WAT      O 8044   0.483   5.793   5.094  0.9537 -0.3622  0.2812
26560WAT     H1 8045   0.418   5.863   5.097 -0.6836 -1.7102 -1.6928
26560WAT     H2 8046   0.460   5.741   5.018  2.6591 -2.5758  1.1525
26560WAT    EPW 8047   0.472   5.796   5.085  0.9627 -0.8321  0.1359
26561WAT      O 8048   0.538   2.830   4.526 -0.9624 -0.0013  0.2702
26561WAT     H1 8049   0.549   2.748   4.574 -0.7679 -0.2442 -0.1819
26561WAT     H2 8050   0.472   2.809   4.459  0.9553 -0.5717 -1.5588
26561WAT    EPW 8051   0.530   2.816   4.523 -0.6838 -0.1085 -0.0308
26562WAT      O 8052   2.009   5.153   5.124  0.3726 -0.0928  0.6357
26562WAT     H1 8053   2.099   5.172   5.153 -0.2138  0.4680  2.2213
26562WAT     H2 8054   1.961   5.234   5.142 -0.4388 -0.3381 -0.3381
26562WAT    EPW 8055   2.015   5.166   5.130  0.1882 -0.0510  0.7167
26563WAT      O 8056   7.648   8.479   4.053 -0.3725 -0.8154  0.2253
26563WAT     H1 8057   7.744   8.483   4.056 -0.3678 -1.5752  1.7183
26563WAT     H2 8058   7.627   8.491   3.960  1.0981  0.4946  0.0237
26563WAT    EPW 8059   7.658   8.481   4.041 -0.1783 -0.7429  0.3953
26564WAT      O 8060   3.429   9.194   5.456 -0.7183  0.3494 -0.0971
26564WAT     H1 8061   3.458   9.156   5.539 -2.3612 -1.3907 -0.2406
26564WAT     H2 8062   3.505   9.188   5.398 -0.0309  0.1200  0.8095
26564WAT    EPW 8063   3.443   9.188   5.459 -0.8444  0.0901  0.0036
26565WAT      O 8064   2.105   9.159   1.815 -0.0595  0.4356  0.6278
26565WAT     H1 8065   2.040   9.190   1.878  0.1657 -1.8014  2.0865
26565WAT     H2 8066   2.179   9.132   1.869  1.3129  1.0611 -0.8618
26565WAT    EPW 8067   2.106   9.160   1.830  0.1512  0.2232  0.6237
26566WAT      O 8068   5.089   9.041   4.621  0.0813  0.3838 -0.1395
26566WAT     H1 8069   5.111   9.120   4.572 -0.6527  1.1156  0.6850
26566WAT     H2 8070   5.130   9.054   4.707 -1.6051  0.7394  0.6424
26566WAT    EPW 8071   5.097   9.053   4.626 -0.2379  0.5274  0.0725
26567WAT      O 8072   6.904   1.023   2.704  0.1014 -0.2537  0.0955
26567WAT     H1 8073   6.967   0.985   2.765  3.2055  1.9220 -1.5070
26567WAT     H2 8074   6.865   1.096   2.752 -0.1420 -0.7233  0.6205
26567WAT    EPW 8075   6.907   1.027   2.719  0.4787 -0.0287 -0.0467
26568WAT      O 8076   3.036   6.436   5.151 -0.2672 -0.0805 -0.4216
26568WAT     H1 8077   2.986   6.431   5.232  0.8340  1.2800  0.3771
26568WAT     H2 8078   3.076   6.349   5.142 -0.6248 -0.3307  0.3335
26568WAT    EPW 8079   3.034   6.424   5.160 -0.1690  0.0660 -0.2167
26569WAT      O 8080   0.677   5.010   4.185  0.7731 -0.2170 -0.2995
26569WAT     H1 8081   0.609   5.039   4.246 -0.1926 -2.9838  0.0959
26569WAT     H2 8082   0.645   5.036   4.099  0.4078  0.5814  0.0622
26569WAT    EPW 8083   0.664   5.017   4.182  0.5975 -0.4768 -0.1996
26570WAT      O 8084   2.202   1.759   7.506 -0.0580  0.6322 -0.3813
26570WAT     H1 8085   2.230   1.849   7.494 -0.4820  0.7311 -0.6273
26570WAT     H2 8086   2.148   1.761   7.585 -0.1205  0.6040 -0.4234
26570WAT    EPW 8087   2.199   1.771   7.515 -0.1222  0.6415 -0.4196
26571WAT      O 8088   1.549   7.542   2.152 -0.1896  0.3365 -0.4033
26571WAT     H1 8089   1.503   7.461   2.176  0.0459 -0.4554 -2.3792
26571WAT     H2 8090   1.637   7.514   2.129 -0.4038  0.9385 -2.1567
26571WAT    EPW 8091   1.555   7.528   2.152 -0.1868  0.3114 -0.8951
26572WAT      O 8092   0.645   1.585   4.024 -0.1886  0.2322  0.0769
26572WAT     H1 8093   0.602   1.634   3.954  0.6687  2.4445  1.0026
26572WAT     H2 8094   0.622   1.633   4.104  1.8423 -0.0345  0.8795
26572WAT    EPW 8095   0.636   1.598   4.025  0.1923  0.4888  0.3049
26573WAT      O 8096   2.041   4.640   5.041 -0.3131 -0.3228  0.1298
26573WAT     H1 8097   1.985   4.569   5.070 -0.5826 -1.4505 -2.7946
26573WAT     H2 8098   1.983   4.716   5.037 -0.9310 -0.7987 -0.1320
26573WAT    EPW 8099   2.026   4.641   5.044 -0.4303 -0.5345 -0.2902
26574WAT      O 8100   1.703   6.492   5.984  0.2834  0.2550 -0.2639
26574WAT     H1 8101   1.648   6.415   5.970  0.3013  0.0169  0.8792
26574WAT     H2 8102   1.792   6.462   5.969  0.6236 -0.8256  3.2410
26574WAT    EPW 8103   1.707   6.478   5.980  0.3306  0.0808  0.3490
26575WAT      O 8104   2.187   8.459   7.771 -0.1661 -0.6102 -0.0273
26575WAT     H1 8105   2.272   8.464   7.728 -0.5148  0.5899 -0.6172
26575WAT     H2 8106   2.185   8.372   7.810 -0.0207 -1.9688 -2.8429
26575WAT    EPW 8107   2.198   8.448   7.770 -0.1930 -0.6313 -0.4764
26576WAT      O 8108  10.794   5.625   4.185 -0.1311  0.3837 -1.1307
26576WAT     H1 8109  10.798   5.577   4.103  4.4654 -1.6471 -0.0524
26576WAT     H2 8110  10.810   5.559   4.253 -3.0000  2.0693  1.4842
26576WAT    EPW 8111  10.796   5.610   4.183  0.0973  0.3383 -0.6435
26577WAT      O 8112   1.413   9.457   5.648 -0.7174 -0.3782 -0.0983
26577WAT     H1 8113   1.380   9.537   5.607 -0.4548 -0.3703 -0.2973
26577WAT     H2 8114   1.346   9.391   5.629  0.2162 -0.8395 -2.1522
26577WAT    EPW 8115   1.400   9.459   5.640 -0.5596 -0.4387 -0.3955
26578WAT      O 8116   2.778   6.058   5.504  0.1191 -0.5703 -0.1848
26578WAT     H1 8117   2.736   5.991   5.559  0.9434 -1.2595 -0.3787
26578WAT     H2 8118   2.708   6.087   5.446 -0.4411 -0.7299  0.3865
26578WAT    EPW 8119   2.763   6.053   5.504  0.1539 -0.6826 -0.1349
26579WAT      O 8120   8.888   7.178   6.239 -0.4202 -0.3255  0.2713
26579WAT     H1 8121   8.961   7.241   6.241 -0.7593  0.1015 -0.3993
26579WAT     H2 8122   8.895   7.136   6.153 -1.1823 -0.0158  0.0521
26579WAT    EPW 8123   8.898   7.181   6.228 -0.5660 -0.2282  0.1540
26580WAT      O 8124  10.386   5.351   3.182  0.5699  0.2382 -0.2998
26580WAT     H1 8125  10.338   5.328   3.261  1.1415  0.8585  0.2354
26580WAT     H2 8126  10.323   5.335   3.111  0.8071 -2.6853  0.0048
26580WAT    EPW 8127  10.371   5.345   3.183  0.6766 -0.0658 -0.1891
26581WAT      O 8128   2.699   7.651   3.318 -0.4351  0.7873 -0.5148
26581WAT     H1 8129   2.612   7.611   3.316  0.6922 -1.8966 -0.4648
26581WAT     H2 8130   2.706   7.696   3.234 -1.8862  1.1351 -0.4859
26581WAT    EPW 8131   2.688   7.652   3.307 -0.4777  0.4790 -0.5044
26582WAT      O 8132   0.089   5.654   4.199  0.4888 -0.1327 -0.4483
26582WAT     H1 8133   0.038   5.587   4.153  0.0363  0.4368 -0.7862
26582WAT     H2 8134   0.024   5.717   4.228  0.9392  0.2781 -0.3298
26582WAT    EPW 8135   0.074   5.653   4.197  0.4885 -0.0036 -0.4773
26583WAT      O 8136   2.410   5.921   4.190 -0.3222  0.0569  0.0787
26583WAT     H1 8137   2.473   5.851   4.205  0.8893  0.9630 -0.5930
26583WAT     H2 8138   2.340   5.880   4.138 -1.3195 -1.4501  2.4622
26583WAT    EPW 8139   2.409   5.906   4.185 -0.2940 -0.0222  0.3042
26584WAT      O 8140   8.806   7.367   1.412 -0.0380 -0.0003  0.2523
26584WAT     H1 8141   8.830   7.459   1.418  0.7011 -0.1917  0.2909
26584WAT     H2 8142   8.715   7.364   1.444 -0.1267  0.7337  0.0749
26584WAT    EPW 8143   8.797   7.379   1.417  0.0472  0.0713  0.2341
26585WAT      O 8144   0.513   3.762   3.128  0.2095 -0.0783 -0.4781
26585WAT     H1 8145   0.432   3.716   3.107  0.7283 -1.7193  0.8687
26585WAT     H2 8146   0.520   3.757   3.223  0.2677  2.9654 -0.2372
26585WAT    EPW 8147   0.504   3.755   3.137  0.2856  0.1067 -0.2687
26586WAT      O 8148   2.874   7.534   4.240 -0.2365  0.1432  0.2199
26586WAT     H1 8149   2.969   7.545   4.244 -0.0558 -1.5771  1.9130
26586WAT     H2 8150   2.840   7.604   4.295  0.0285  0.7079 -0.3165
26586WAT    EPW 8151   2.882   7.545   4.248 -0.1776 -0.0091  0.3724
26587WAT      O 8152   2.245   4.375   3.846  0.4807  0.3997  0.0392
26587WAT     H1 8153   2.246   4.298   3.902 -4.3661  0.5763  0.7461
26587WAT     H2 8154   2.273   4.447   3.903 -1.0865  0.0576  1.2984
26587WAT    EPW 8155   2.249   4.375   3.861 -0.3653  0.3779  0.2985
26588WAT      O 8156   1.180   6.799   4.210 -0.3884  0.5455  0.2215
26588WAT     H1 8157   1.251   6.802   4.146 -1.9844  1.1575 -1.6283
26588WAT     H2 8158   1.132   6.719   4.190 -0.4931  0.3573  1.1622
26588WAT    EPW 8159   1.183   6.789   4.199 -0.6127  0.6018  0.1018
26589WAT      O 8160   3.984   5.986   1.508 -0.5362 -0.1598 -0.7839
26589WAT     H1 8161   3.987   5.948   1.596  2.8157  0.8533 -0.3169
26589WAT     H2 8162   3.896   6.022   1.501 -0.6044  0.7193  2.6367
26589WAT    EPW 8163   3.973   5.986   1.519 -0.1031  0.0896 -0.2711
26590WAT      O 8164   0.754   5.510   5.929  0.5421  0.0913  0.4121
26590WAT     H1 8165   0.732   5.459   6.007 -1.2313  1.9028  1.1855
26590WAT     H2 8166   0.693   5.583   5.930 -1.0774 -0.8736 -3.8238
26590WAT    EPW 8167   0.743   5.513   5.939  0.0946  0.2029 -0.0443
26591WAT      O 8168   1.778   7.394   3.666  0.0271 -0.0289 -0.0535
26591WAT     H1 8169   1.740   7.398   3.754  0.8471 -0.7867  0.3618
26591WAT     H2 8170   1.726   7.454   3.614 -0.5836  0.3052  0.9181
26591WAT    EPW 8171   1.766   7.402   3.671  0.0547 -0.0849  0.1293
26592WAT      O 8172   2.855   3.597   4.503  0.2549 -0.5421 -0.2619
26592WAT     H1 8173   2.800   3.527   4.536 -0.0251 -0.1527  0.1013
26592WAT     H2 8174   2.921   3.552   4.449  0.9199 -1.2191  1.0822
26592WAT    EPW 8175   2.857   3.582   4.500  0.3057 -0.5801 -0.0367
26593WAT      O 8176   3.673   7.348   0.968  0.0115  0.0392  0.2583
26593WAT     H1 8177   3.725   7.392   0.900 -1.0244  0.5405 -0.2338
26593WAT     H2 8178   3.584   7.348   0.933 -0.0535 -2.4558  0.2341
26593WAT    EPW 8179   3.668   7.353   0.954 -0.1336 -0.2236  0.1902
26594WAT      O 8180   3.486   2.635   1.826 -0.2276 -0.3046 -1.2374
26594WAT     H1 8181   3.519   2.545   1.820 -2.2267 -1.2665  0.5885
26594WAT     H2 8182   3.558   2.689   1.796  2.1752 -2.3659  0.3704
26594WAT    EPW 8183   3.500   2.630   1.821 -0.1744 -0.7032 -0.7845
26595WAT      O 8184   2.677   8.440   2.894  0.7182 -0.2888  0.2667
26595WAT     H1 8185   2.763   8.443   2.936  1.4765  0.0048 -1.2430
26595WAT     H2 8186   2.696   8.422   2.802 -0.9241 -1.5529  0.1315
26595WAT    EPW 8187   2.691   8.438   2.887  0.6016 -0.4163  0.0497
26596WAT      O 8188   1.700   8.728   4.130 -0.9823  0.5484 -0.7377
26596WAT     H1 8189   1.636   8.722   4.200 -0.3511  1.0420 -0.1090
26596WAT     H2 8190   1.741   8.814   4.141 -1.7019  1.1541 -2.4499
26596WAT    EPW 8191   1.697   8.738   4.141 -0.9940  0.6933 -0.8805
26597WAT      O 8192   1.862   9.172   3.450 -0.5508 -0.4571 -0.1127
26597WAT     H1 8193   1.899   9.214   3.527  0.1180 -0.9188 -0.1767
26597WAT     H2 8194   1.878   9.234   3.379 -0.0228 -0.5915 -0.1134
26597WAT    EPW 8195   1.869   9.186   3.451 -0.3929 -0.5355 -0.1214
26598WAT      O 8196   2.020   6.952   4.294  1.2200  0.5913  0.2307
26598WAT     H1 8197   1.953   6.955   4.225  2.4237  0.4621 -0.9806
26598WAT     H2 8198   2.090   7.008   4.262  0.8462  2.4538  2.4515
26598WAT    EPW 8199   2.020   6.960   4.280  1.3295  0.8199  0.3638
26599WAT      O 8200   7.108   0.527   3.515  0.2846  0.2495 -0.2473
26599WAT     H1 8201   7.188   0.574   3.538 -0.8365  2.2241 -0.2330
26599WAT     H2 8202   7.091   0.472   3.592  2.5483 -1.6235 -0.9594
26599WAT    EPW 8203   7.117   0.526   3.528  0.4354  0.2629 -0.3395
26600WAT      O 8204   1.323   8.546   6.126 -0.5300  0.0574  0.2714
26600WAT     H1 8205   1.324   8.582   6.037  0.6661 -1.0273 -0.1945
26600WAT     H2 8206   1.413   8.557   6.157 -0.4686 -1.2325  0.6240
26600WAT    EPW 8207   1.335   8.552   6.118 -0.3642 -0.2561  0.2563
26601WAT      O 8208   2.431   8.443   2.055  0.0178 -0.6038  0.3689
26601WAT     H1 8209   2.476   8.405   2.130 -1.3830 -0.5257  1.2847
26601WAT     H2 8210   2.362   8.381   2.033 -1.2077  0.5344  0.8047
26601WAT    EPW 8211   2.428   8.430   2.062 -0.3285 -0.4435  0.5472
26602WAT      O 8212   6.552   7.478   5.541 -0.6334 -0.3492 -0.2576
26602WAT     H1 8213   6.523   7.563   5.574 -2.2878 -0.1482 -2.0603
26602WAT     H2 8214   6.498   7.415   5.588 -0.0435 -0.3691  0.4140
26602WAT    EPW 8215   6.541   7.481   5.552 -0.7737 -0.3254 -0.4067
26603WAT      O 8216   1.886   8.060   1.496 -0.2507  0.2594  0.3786
26603WAT     H1 8217   1.847   8.096   1.576  1.2129 -1.9759  2.2355
26603WAT     H2 8218   1.819   8.001   1.462  0.2384 -1.1290  1.7437
26603WAT    EPW 8219   1.872   8.057   1.502  0.0069 -0.2189  0.8035
26604WAT      O 8220   2.668   7.109   4.149  0.2412  0.0672  0.5351
26604WAT     H1 8221   2.606   7.068   4.089 -0.2726  2.1017 -0.3930
26604WAT     H2 8222   2.739   7.045   4.157 -0.1512 -0.6959 -1.4586
26604WAT    EPW 8223   2.669   7.095   4.142  0.1216  0.2348  0.1497
26605WAT      O 8224   3.549   5.975   3.351 -0.6107 -1.0290  0.2536
26605WAT     H1 8225   3.612   5.928   3.405 -1.2134 -3.3855 -0.9810
26605WAT     H2 8226   3.520   5.911   3.286 -1.7231  0.9868 -1.3518
26605WAT    EPW 8227   3.553   5.961   3.350 -0.8368 -1.0741 -0.1210
26606WAT      O 8228   1.826   8.818   4.657  0.1930  0.1177 -0.3289
26606WAT     H1 8229   1.849   8.852   4.570 -0.4843  0.6660 -0.3046
26606WAT     H2 8230   1.811   8.896   4.710  0.5321 -0.2169  0.2661
26606WAT    EPW 8231   1.827   8.833   4.652  0.1484  0.1459 -0.2468
26607WAT      O 8232   1.289   8.438   1.890 -0.4034 -0.5768  0.1147
26607WAT     H1 8233   1.256   8.525   1.912 -1.1581 -0.9380  0.4648
26607WAT     H2 8234   1.384   8.449   1.884 -0.4453  0.1700  0.6445
26607WAT    EPW 8235   1.297   8.451   1.892 -0.5084 -0.5260  0.2307
26608WAT      O 8236  10.351   9.927   1.265  0.2550 -0.5547  0.1307
26608WAT     H1 8237  10.361   9.860   1.197  0.1941 -1.0187  0.5639
26608WAT     H2 8238  10.417   9.903   1.330  0.2083 -0.2089  0.3028
26608WAT    EPW 8239  10.361   9.915   1.265  0.2413 -0.5698  0.2105
26609WAT      O 8240   4.327   6.084   1.984  0.6190  0.1905  0.8164
26609WAT     H1 8241   4.328   5.992   1.961  0.2390  0.6661 -1.3316
26609WAT     H2 8242   4.235   6.109   1.982  0.8838  1.4033 -2.4657
26609WAT    EPW 8243   4.315   6.075   1.981  0.6037  0.4132  0.1002
26610WAT      O 8244   4.928   9.067   7.723 -0.5334  0.3397  0.2325
26610WAT     H1 8245   4.967   9.054   7.809  0.0937  0.2414 -0.0602
26610WAT     H2 8246   4.834   9.052   7.736 -0.5475  1.0624  1.0487
26610WAT    EPW 8247   4.920   9.064   7.736 -0.4525  0.4225  0.3016
26611WAT      O 8248   2.393   8.310   2.850 -0.3511 -0.0250  0.0465
26611WAT     H1 8249   2.413   8.242   2.915  2.0874 -0.2306 -0.8135
26611WAT     H2 8250   2.320   8.274   2.800  2.3362 -3.3437 -1.9579
26611WAT    EPW 8251   2.386   8.296   2.852  0.3250 -0.4902 -0.3313
26612WAT      O 8252   1.302   8.486   8.438 -0.6350  0.2109  0.3234
26612WAT     H1 8253   1.257   8.413   8.396  0.5526  0.3058 -1.1740
26612WAT     H2 8254   1.374   8.508   8.379 -1.4993  3.2248  0.1966
26612WAT    EPW 8255   1.305   8.480   8.425 -0.5924  0.6213  0.1092
26613WAT      O 8256   9.798   7.514   3.627  0.0269  0.7619  0.1967
26613WAT     H1 8257   9.743   7.576   3.676  0.0182  1.0156 -0.1303
26613WAT     H2 8258   9.874   7.499   3.684  0.0349  1.0863  0.2758
26613WAT    EPW 8259   9.801   7.520   3.641  0.0267  0.8383  0.1640
26614WAT      O 8260   2.300   8.019   3.064 -0.0311 -0.1893  0.4211
26614WAT     H1 8261   2.357   7.946   3.038  0.3771  0.3048 -0.0967
26614WAT     H2 8262   2.212   7.990   3.040  0.2388 -0.1008 -0.7483
26614WAT    EPW 8263   2.296   8.006   3.057  0.0584 -0.1125  0.1986
26615WAT      O 8264   1.218   7.528   0.690 -0.3028  0.7244  0.0976
26615WAT     H1 8265   1.147   7.544   0.628 -0.5005  0.2520  0.2060
26615WAT     H2 8266   1.297   7.530   0.636 -0.5923 -1.4752 -0.5016
26615WAT    EPW 8267   1.219   7.531   0.675 -0.3671  0.3719  0.0329
26616WAT      O 8268   2.801   6.199   6.047  0.0014  0.3367  0.6021
26616WAT     H1 8269   2.764   6.180   5.961 -1.7917  2.8366  0.7164
26616WAT     H2 8270   2.895   6.195   6.034 -0.2077 -2.0000 -0.7702
26616WAT    EPW 8271   2.808   6.196   6.034 -0.2626  0.3581  0.4363
26617WAT      O 8272   3.336   8.238   2.838 -0.2590  0.2630  0.3039
26617WAT     H1 8273   3.309   8.155   2.877  2.0189  0.1569  1.7919
26617WAT     H2 8274   3.275   8.302   2.875 -2.3494 -0.6922 -1.2158
26617WAT    EPW 8275   3.324   8.236   2.848 -0.2342  0.1230  0.2998
26618WAT      O 8276   2.984  10.357   5.793  0.9345 -0.0682 -0.4887
26618WAT     H1 8277   3.017  10.370   5.704  0.7449 -4.2406 -1.3988
26618WAT     H2 8278   2.893  10.387   5.790  0.6639 -0.9088 -2.0140
26618WAT    EPW 8279   2.977  10.363   5.781  0.8739 -0.7296 -0.8101
26619WAT      O 8280   2.898   5.061   2.196 -0.7247 -0.1916  0.1809
26619WAT     H1 8281   2.982   5.074   2.152 -0.3324  1.6662  1.3591
26619WAT     H2 8282   2.840   5.126   2.157 -0.9470  0.0858  0.9613
26619WAT    EPW 8283   2.902   5.072   2.185 -0.7024  0.0901  0.4392
26620WAT      O 8284   0.864   4.406   3.948 -0.1894  0.0793 -0.1431
26620WAT     H1 8285   0.889   4.358   4.026 -0.9446  2.0762  1.4133
26620WAT     H2 8286   0.947   4.419   3.900  0.2081 -1.5506  0.0365
26620WAT    EPW 8287   0.878   4.401   3.952 -0.2365  0.1278  0.0858
26621WAT      O 8288   3.184   9.870   1.594 -0.7846 -0.7092  0.4671
26621WAT     H1 8289   3.233   9.950   1.612 -1.8920 -0.4523  2.6579
26621WAT     H2 8290   3.118   9.896   1.529 -0.4780 -0.1010  0.3970
26621WAT    EPW 8291   3.182   9.884   1.588 -0.8903 -0.5946  0.7468
26622WAT      O 8292   7.547   3.087   0.901  0.8574  0.0925 -0.4076
26622WAT     H1 8293   7.581   3.108   0.989  0.2916 -3.1330  0.7154
26622WAT     H2 8294   7.500   3.166   0.875  2.6001  1.8479  1.3432
26622WAT    EPW 8295   7.545   3.100   0.909  1.0126 -0.1014 -0.0286
26623WAT      O 8296   5.278   8.065   4.577 -0.6229  0.8035 -0.2591
26623WAT     H1 8297   5.345   8.029   4.635  2.0672  3.8318 -1.2120
26623WAT     H2 8298   5.201   8.073   4.633  1.0976  1.2845  2.2234
26623WAT    EPW 8299   5.277   8.061   4.592 -0.0412  1.2665 -0.0575
26624WAT      O 8300   3.817   8.253   6.552  0.0190 -0.4263  0.2566
26624WAT     H1 8301   3.729   8.288   6.534  1.1915  2.1530 -1.0422
26624WAT     H2 8302   3.845   8.299   6.631  0.5116 -0.5902  0.1799
26624WAT    EPW 8303   3.809   8.264   6.560  0.2387 -0.1078  0.0753
26625WAT      O 8304   4.154   5.440   4.693  0.3609 -0.1791  0.2818
26625WAT     H1 8305   4.217   5.433   4.622  0.1546  0.3527  0.0421
26625WAT     H2 8306   4.118   5.528   4.685 -1.2768 -0.8659 -0.3283
26625WAT    EPW 8307   4.157   5.451   4.683  0.1173 -0.1993  0.1695
26626WAT      O 8308   1.160   6.176   6.429  0.3115 -0.6531  0.6016
26626WAT     H1 8309   1.206   6.111   6.376  1.4302 -0.3524  1.1590
26626WAT     H2 8310   1.179   6.259   6.386  1.0367 -0.4337  1.3302
26626WAT    EPW 8311   1.169   6.178   6.416  0.5547 -0.5844  0.7713
26627WAT      O 8312   0.929   5.516   5.110  0.0819 -0.2268 -0.0695
26627WAT     H1 8313   1.023   5.501   5.121  0.3121  0.5468 -0.8552
26627WAT     H2 8314   0.898   5.539   5.198  0.9931  1.3337 -0.1136
26627WAT    EPW 8315   0.938   5.517   5.123  0.2324  0.0813 -0.1791
26628WAT      O 8316   8.634   0.258   3.487  0.3671 -0.4762  0.2461
26628WAT     H1 8317   8.626   0.311   3.566 -0.7499  1.4509 -1.0774
26628WAT     H2 8318   8.726   0.232   3.484  1.3499  2.6421  0.2647
26628WAT    EPW 8319   8.645   0.261   3.497  0.3495  0.1893  0.0740
26629WAT      O 8320   2.902   8.065   5.238 -0.2519 -0.0065 -0.3688
26629WAT     H1 8321   2.997   8.057   5.233 -0.1731 -0.1110  1.0957
26629WAT     H2 8322   2.887   8.142   5.293 -1.0214 -0.0357 -0.5184
26629WAT    EPW 8323   2.912   8.074   5.244 -0.3431 -0.0243 -0.1955
26630WAT      O 8324   2.688   7.559   4.016  0.0240 -0.8548  0.2024
26630WAT     H1 8325   2.750   7.558   4.088  0.9382  1.5124 -0.4560
26630WAT     H2 8326   2.722   7.495   3.954  1.3077 -0.3081  0.2995
26630WAT    EPW 8327   2.701   7.551   4.017  0.3139 -0.4702  0.1285
26631WAT      O 8328   7.410   2.524   3.478 -0.1962  0.0949 -0.3950
26631WAT     H1 8329   7.361   2.485   3.551 -0.9322 -0.0355 -0.9405
26631WAT     H2 8330   7.497   2.487   3.485 -0.4439 -0.4300  0.0290
26631WAT    EPW 8331   7.415   2.514   3.489 -0.3259  0.0085 -0.4109
26632WAT      O 8332   7.957   9.157   4.239  0.6893 -0.0446 -0.0854
26632WAT     H1 8333   7.871   9.139   4.201  0.7417 -2.0879  0.6449
26632WAT     H2 8334   7.957   9.251   4.255 -2.2566 -0.2514  1.8681
26632WAT    EPW 8335   7.946   9.167   4.236  0.3078 -0.3414  0.2687
26633WAT      O 8336   7.929   1.443   0.433  0.0511  0.6368 -0.7028
26633WAT     H1 8337   8.012   1.474   0.467 -1.0277  1.9028  0.9184
26633WAT     H2 8338   7.940   1.348   0.424  1.5944  0.7727 -0.3713
26633WAT    EPW 8339   7.941   1.434   0.436  0.1123  0.8217 -0.4452
26634WAT      O 8340   1.061   7.532   3.946  0.4086 -0.4950  0.2795
26634WAT     H1 8341   1.052   7.490   4.032  2.0193 -1.7760 -0.1347
26634WAT     H2 8342   1.145   7.578   3.951 -1.4804  3.3471  0.9101
26634WAT    EPW 8343   1.071   7.532   3.958  0.3719 -0.1574  0.3080
26635WAT      O 8344   0.371   7.888   4.576  0.6455  0.5473 -0.1605
26635WAT     H1 8345   0.380   7.963   4.516 -0.5297  0.1524 -0.8604
26635WAT     H2 8346   0.304   7.915   4.638  2.4226  1.2720  1.5399
26635WAT    EPW 8347   0.364   7.902   4.576  0.7249  0.5908 -0.0286
26636WAT      O 8348   2.580   9.483   2.922  0.1938 -0.3622  0.1817
26636WAT     H1 8349   2.592   9.393   2.951 -0.0957 -0.6745 -0.6370
26636WAT     H2 8350   2.526   9.476   2.843  2.9807  0.2392 -1.9377
26636WAT    EPW 8351   2.574   9.471   2.915  0.5232 -0.3238 -0.2059
26637WAT      O 8352   0.762   7.675   3.052 -0.6912  0.2952 -0.4740
26637WAT     H1 8353   0.836   7.616   3.065  2.0149  3.0659 -1.8885
26637WAT     H2 8354   0.719   7.679   3.137  0.5693 -1.6466  0.3335
26637WAT    EPW 8355   0.766   7.668   3.065 -0.1680  0.4044 -0.5541
26638WAT      O 8356  10.183   7.319   4.140  0.2817  0.0964  0.5151
26638WAT     H1 8357  10.134   7.313   4.222 -3.5795  1.3516 -1.4339
26638WAT     H2 8358  10.226   7.404   4.143  1.8212 -0.6703  1.9222
26638WAT    EPW 8359  10.182   7.329   4.151 -0.0243  0.1607  0.4435
26639WAT      O 8360   2.884   9.548   3.217 -0.1962 -0.0059 -0.8904
26639WAT     H1 8361   2.797   9.585   3.205 -0.7786  0.3430  2.9567
26639WAT     H2 8362   2.900   9.497   3.138 -3.3755  0.8600 -2.2420
26639WAT    EPW 8363   2.875   9.546   3.205 -0.6924  0.1540 -0.5614
26640WAT      O 8364  10.826   6.106   2.903  0.2543  0.3010 -0.2149
26640WAT     H1 8365  10.865   6.184   2.863  0.3787  0.1460 -0.3964
26640WAT     H2 8366  10.796   6.136   2.989 -0.6704  0.8193 -0.7064
26640WAT    EPW 8367  10.827   6.120   2.909  0.1488  0.3490 -0.3037
26641WAT      O 8368   2.297   6.959   4.200  0.5061  0.3104 -0.0042
26641WAT     H1 8369   2.361   6.900   4.240  2.4364 -0.9426 -4.3463
26641WAT     H2 8370   2.349   7.014   4.141 -2.2016  0.2177 -2.6948
26641WAT    EPW 8371   2.313   6.959   4.198  0.4036  0.1330 -0.9320
26642WAT      O 8372   3.596   6.857   5.668  0.0384  0.0502 -0.7322
26642WAT     H1 8373   3.507   6.837   5.638 -0.6456 -1.1806  1.8619
26642WAT     H2 8374   3.644   6.775   5.656  0.8523  0.6876 -2.0509
26642WAT    EPW 8375   3.591   6.844   5.662  0.0556 -0.0284 -0.5639
26643WAT      O 8376   4.232   0.099   1.023 -0.2333  0.2753 -0.8661
26643WAT     H1 8377   4.299   0.101   0.955 -0.7456  0.1974 -1.3798
26643WAT     H2 8378   4.207   0.007   1.031  0.9865  0.0267  0.6019
26643WAT    EPW 8379   4.238   0.087   1.015 -0.1400  0.2323 -0.7402
26644WAT      O 8380   8.031   0.217   3.730 -0.1685  0.1923  0.1858
26644WAT     H1 8381   8.108   0.268   3.753  0.3402 -0.7873  0.6987
26644WAT     H2 8382   8.002   0.179   3.812 -1.1447  0.4666 -0.0211
26644WAT    EPW 8383   8.037   0.219   3.744 -0.2303  0.0992  0.2261
26645WAT      O 8384   1.511   8.836   8.287 -0.1798 -0.0708 -0.2516
26645WAT     H1 8385   1.470   8.886   8.357 -0.2096 -1.2519  0.6175
26645WAT     H2 8386   1.570   8.897   8.244  0.0088  0.6218  0.9608
26645WAT    EPW 8387   1.513   8.851   8.291 -0.1588 -0.1354  0.0234
26646WAT      O 8388   6.076   5.939   1.309 -0.4046 -0.2949  0.3771
26646WAT     H1 8389   6.080   5.927   1.404 -0.4570 -1.5504  0.2294
26646WAT     H2 8390   6.153   5.991   1.289  0.9408 -2.0128  0.8402
26646WAT    EPW 8391   6.086   5.944   1.319 -0.2341 -0.6871  0.4187
26647WAT      O 8392   2.613   3.670   4.378 -0.4331  0.1595 -0.2584
26647WAT     H1 8393   2.605   3.602   4.311 -0.3443  1.3107 -1.4860
26647WAT     H2 8394   2.697   3.653   4.421 -0.2730 -0.3181 -0.7609
26647WAT    EPW 8395   2.623   3.659   4.375 -0.4002  0.2482 -0.4866
26648WAT      O 8396   2.021  10.097   2.937  0.2442  0.0525  0.0774
26648WAT     H1 8397   1.971  10.178   2.937  0.1158 -0.0189 -0.6809
26648WAT     H2 8398   2.085  10.109   2.866  1.0958  0.0207  0.8305
26648WAT    EPW 8399   2.023  10.109   2.927  0.3394  0.0391  0.0767
26649WAT      O 8400   4.047   6.980   4.067  0.4154 -0.0234  0.6338
26649WAT     H1 8401   4.115   6.917   4.045  1.8124  1.1391  1.4025
26649WAT     H2 8402   4.042   6.977   4.163 -1.4359 -0.8803  0.5504
26649WAT    EPW 8403   4.056   6.971   4.077  0.3555  0.0172  0.7241
26650WAT      O 8404   2.985   8.480   5.804 -0.3893  0.0752 -0.6937
26650WAT     H1 8405   3.061   8.523   5.843 -0.9912  0.8637 -0.3603
26650WAT     H2 8406   2.957   8.539   5.734  1.0226 -1.5952 -2.7903
26650WAT    EPW 8407   2.992   8.493   5.800 -0.2825 -0.0415 -0.9258
26651WAT      O 8408   2.887   7.188   3.247  0.1406  0.2605 -0.4334
26651WAT     H1 8409   2.878   7.281   3.227  1.1546 -0.0809 -2.8862
26651WAT     H2 8410   2.977   7.167   3.222  0.1126 -1.2593  0.6593
26651WAT    EPW 8411   2.897   7.198   3.241  0.2706  0.0150 -0.6127
26652WAT      O 8412   3.654   4.636   4.526  0.1611  0.5988  0.2791
26652WAT     H1 8413   3.742   4.668   4.549 -0.4887  1.9178  1.0435
26652WAT     H2 8414   3.619   4.602   4.609  1.3140 -3.5459 -0.7148
26652WAT    EPW 8415   3.661   4.636   4.540  0.2275  0.2260  0.2489
26653WAT      O 8416   2.133   8.978   4.560 -0.1077  0.0688  0.9622
26653WAT     H1 8417   2.164   8.900   4.606 -1.0984 -0.7722  0.2584
26653WAT     H2 8418   2.208   9.005   4.506  0.3557 -0.1992  1.4663
26653WAT    EPW 8419   2.147   8.971   4.559 -0.1771 -0.0772  0.9358
26654WAT      O 8420   4.728   9.496   3.003  0.2085  0.5063 -0.3076
26654WAT     H1 8421   4.673   9.530   3.073  3.7229  1.1038  2.4194
26654WAT     H2 8422   4.730   9.401   3.018 -0.4492  0.4014 -0.7960
26654WAT    EPW 8423   4.721   9.488   3.014  0.5853  0.5713 -0.0125
26655WAT      O 8424   3.250   8.410   3.417 -0.6305  0.1681  0.3635
26655WAT     H1 8425   3.302   8.341   3.458  1.6209  1.9330  0.6678
26655WAT     H2 8426   3.164   8.370   3.404  0.2329 -2.3005  1.5481
26655WAT    EPW 8427   3.246   8.395   3.421 -0.2196  0.0749  0.5599
26656WAT      O 8428   0.796   9.468   3.016 -0.2785 -0.2116  1.0574
26656WAT     H1 8429   0.818   9.402   3.083 -1.3791 -2.0745 -0.3213
26656WAT     H2 8430   0.839   9.437   2.937  0.3844  1.5710  0.6726
26656WAT    EPW 8431   0.804   9.455   3.015 -0.3362 -0.2217  0.8247
26657WAT      O 8432   2.650   8.945   0.977  0.3801 -0.4682  0.2324
26657WAT     H1 8433   2.558   8.926   0.957  0.2983 -0.2956  0.4444
26657WAT     H2 8434   2.653   8.956   1.072  0.6299 -0.5243  0.2334
26657WAT    EPW 8435   2.638   8.944   0.987  0.4023 -0.4535  0.2605
26658WAT      O 8436   0.669   7.437   7.586  0.4901 -0.3668  0.4836
26658WAT     H1 8437   0.607   7.502   7.617 -0.9262 -1.7429  0.6807
26658WAT     H2 8438   0.663   7.366   7.650 -0.2750 -1.9779 -1.2716
26658WAT    EPW 8439   0.660   7.436   7.598  0.2024 -0.7610  0.2782
26659WAT      O 8440   5.034   5.484   0.943 -0.0726 -0.0477 -0.2851
26659WAT     H1 8441   4.998   5.443   0.864  0.3159 -1.5874  0.3019
26659WAT     H2 8442   4.971   5.462   1.012  0.5212 -0.3057  0.1812
26659WAT    EPW 8443   5.021   5.475   0.941  0.0570 -0.2847 -0.1462
26660WAT      O 8444   6.079   9.502   3.579  0.2679  0.0983  0.4498
26660WAT     H1 8445   6.121   9.428   3.623  1.8576 -0.0669 -1.2308
26660WAT     H2 8446   6.046   9.464   3.497  1.9824  1.4080 -0.9069
26660WAT    EPW 8447   6.080   9.487   3.574  0.7038  0.2494  0.0492
26661WAT      O 8448  10.201   4.608   8.654 -0.4663  0.4345  0.2294
26661WAT     H1 8449  10.185   4.571   8.567  1.7522  0.6951 -0.3653
26661WAT     H2 8450  10.177   4.538   8.715 -1.5085  0.0361 -0.6107
26661WAT    EPW 8451  10.196   4.594   8.650 -0.3104  0.4163  0.0401
26662WAT      O 8452   3.036   6.889   6.253  0.2498  0.0022 -0.1328
26662WAT     H1 8453   3.010   6.860   6.166  1.4706 -0.1556 -0.4693
26662WAT     H2 8454   2.956   6.887   6.304 -0.2895 -0.9112 -0.9819
26662WAT    EPW 8455   3.022   6.885   6.248  0.3397 -0.1392 -0.2892
26663WAT      O 8456   3.007   1.215   4.631  0.4163  0.3984 -0.0384
26663WAT     H1 8457   3.004   1.246   4.540 -0.6569 -0.6194 -0.3751
26663WAT     H2 8458   3.093   1.173   4.639 -0.2748 -1.3591 -1.2528
26663WAT    EPW 8459   3.018   1.213   4.620  0.1837  0.0324 -0.2432
26664WAT      O 8460   4.324   4.573   3.356 -0.6606  0.2291  0.0735
26664WAT     H1 8461   4.370   4.517   3.418 -0.3589  0.3958  0.0024
26664WAT     H2 8462   4.290   4.645   3.409 -1.5372 -0.3075  0.2592
26664WAT    EPW 8463   4.326   4.575   3.371 -0.7362  0.1802  0.0886
26665WAT      O 8464   4.224   6.739   1.395 -0.1276 -0.1242  0.7819
26665WAT     H1 8465   4.173   6.792   1.455 -2.9086 -0.4195 -1.1082
26665WAT     H2 8466   4.283   6.801   1.352 -2.8449  1.4770 -0.9141
26665WAT    EPW 8467   4.225   6.754   1.397 -0.8531  0.0482  0.3089
26666WAT      O 8468   2.768   7.597   2.975 -0.6168  0.0478 -0.3014
26666WAT     H1 8469   2.756   7.686   2.941  0.4750  1.7789  3.2782
26666WAT     H2 8470   2.863   7.582   2.969 -0.7405 -0.7194 -0.4612
26666WAT    EPW 8471   2.779   7.607   2.970 -0.4891  0.1750  0.1497
26667WAT      O 8472   6.266   2.105   1.879 -0.5248  0.7914  0.9995
26667WAT     H1 8473   6.202   2.043   1.914 -0.2137  2.0466  4.0207
26667WAT     H2 8474   6.345   2.052   1.864 -1.3795 -0.2237 -0.1318
26667WAT    EPW 8475   6.268   2.090   1.881 -0.5968  0.8230  1.2488
26668WAT      O 8476  10.661   3.060   3.040  0.6620  0.2809  0.1309
26668WAT     H1 8477  10.718   3.111   2.984  1.5253 -1.7729 -0.9780
26668WAT     H2 8478  10.715   3.039   3.116  1.1748 -1.0019 -0.5574
26668WAT    EPW 8479  10.675   3.064   3.043  0.8430 -0.1591 -0.1063
26669WAT      O 8480   4.869   0.417   2.445 -0.3518 -0.5392 -0.0198
26669WAT     H1 8481   4.879   0.469   2.524 -0.0418  0.4688 -0.6963
26669WAT     H2 8482   4.778   0.430   2.419 -0.1184  0.1546 -0.5101
26669WAT    EPW 8483   4.858   0.425   2.452 -0.2801 -0.3148 -0.1736
26670WAT      O 8484   2.952   6.535   0.932  0.5310 -0.0268 -0.1784
26670WAT     H1 8485   2.969   6.606   0.871 -0.0290 -0.0132 -0.3226
26670WAT     H2 8486   2.868   6.498   0.904  0.3599 -0.1436  0.4610
26670WAT    EPW 8487   2.943   6.539   0.920  0.4345 -0.0405 -0.1131
26671WAT      O 8488  10.930   6.324   1.297 -0.2566 -0.4038  0.0059
26671WAT     H1 8489  10.886   6.297   1.216  2.4346 -1.6974 -1.1490
26671WAT     H2 8490  10.997   6.257   1.311  3.0698  2.7134  0.1934
26671WAT    EPW 8491  10.933   6.311   1.289  0.5369 -0.1633 -0.1217
26672WAT      O 8492   4.177   8.317   3.328  0.3158 -0.1086  0.2345
26672WAT     H1 8493   4.101   8.260   3.318  1.3639 -1.3110 -1.3932
26672WAT     H2 8494   4.251   8.262   3.301  1.5299  1.6145 -0.0698
26672WAT    EPW 8495   4.177   8.302   3.323  0.6144 -0.0401 -0.0204
26673WAT      O 8496   6.145   1.320   5.649 -0.2006  0.3983 -0.6467
26673WAT     H1 8497   6.162   1.340   5.741 -0.3683 -3.9614  0.5509
26673WAT     H2 8498   6.212   1.369   5.601  3.7073 -1.4601  2.3310
26673WAT    EPW 8499   6.156   1.329   5.655  0.2928 -0.4218 -0.0963
26674WAT      O 8500   2.516  10.071   2.538 -0.5670  0.3997  0.4939
26674WAT     H1 8501   2.507  10.087   2.632 -1.3947  1.0046  0.3231
26674WAT     H2 8502   2.587  10.007   2.531  0.1995  1.1056  1.4674
26674WAT    EPW 8503   2.524  10.065   2.549 -0.5751  0.5727  0.5997
26675WAT      O 8504   0.526   8.504   1.013  0.4496 -0.6541  0.4693
26675WAT     H1 8505   0.464   8.451   1.063 -2.0556 -0.0675 -1.7649
26675WAT     H2 8506   0.519   8.592   1.051 -1.1108 -0.3104 -0.5022
26675WAT    EPW 8507   0.517   8.509   1.024 -0.0866 -0.5317  0.0465
26676WAT      O 8508   3.450   7.104   3.982 -0.5652  0.2520 -0.4422
26676WAT     H1 8509   3.534   7.150   3.976 -0.4321 -0.0359 -0.8248
26676WAT     H2 8510   3.385   7.169   3.953 -0.1366 -0.5062 -3.4091
26676WAT    EPW 8511   3.453   7.119   3.977 -0.4910  0.1140 -0.8839
26677WAT      O 8512   5.277   8.133   5.003  0.3276  0.2039 -1.0025
26677WAT     H1 8513   5.284   8.039   5.018 -1.2263 -0.1438 -2.2113
26677WAT     H2 8514   5.193   8.157   5.042  0.7109  1.1173 -0.7029
26677WAT    EPW 8515   5.267   8.124   5.010  0.1731  0.2785 -1.1222
26678WAT      O 8516   5.119   1.193   2.677 -0.2991 -0.1096 -0.0858
26678WAT     H1 8517   5.150   1.161   2.762  1.2656 -2.5785 -1.4810
26678WAT     H2 8518   5.051   1.131   2.652  0.1342 -0.1641 -1.1730
26678WAT    EPW 8519   5.114   1.180   2.685 -0.0358 -0.4424 -0.4132
26679WAT      O 8520   4.786   7.644   1.737 -0.3924  0.1812 -0.2157
26679WAT     H1 8521   4.790   7.569   1.679 -3.0134  0.2633 -0.6181
26679WAT     H2 8522   4.820   7.717   1.685  0.8733 -0.4374 -0.2848
26679WAT    EPW 8523   4.791   7.644   1.723 -0.5713  0.1101 -0.2779
26680WAT      O 8524   3.084   8.529   4.062  0.3306 -0.0833  0.0704
26680WAT     H1 8525   3.137   8.450   4.072  1.1840  0.4861  0.1223
26680WAT     H2 8526   3.013   8.503   4.002  0.1890 -1.0757  0.6537
26680WAT    EPW 8527   3.082   8.515   4.055  0.4244 -0.1392  0.1543
26681WAT      O 8528   6.134   1.349   3.646  0.5118 -0.2020 -0.3821
26681WAT     H1 8529   6.096   1.298   3.718 -2.0125  0.2777 -1.2744
26681WAT     H2 8530   6.215   1.304   3.625 -0.0513 -1.9616  0.9622
26681WAT    EPW 8531   6.139   1.337   3.653  0.1044 -0.3708 -0.3225
26682WAT      O 8532   3.804   8.569   6.735 -0.2269  0.0233  0.2351
26682WAT     H1 8533   3.878   8.547   6.678 -0.3891 -1.5297  0.5728
26682WAT     H2 8534   3.787   8.661   6.718  1.0839  0.1224 -0.6611
26682WAT    EPW 8535   3.812   8.578   6.725 -0.0753 -0.1688  0.1614
26683WAT      O 8536   1.674   5.043   3.435 -0.6644  0.3624  0.9101
26683WAT     H1 8537   1.708   4.994   3.510 -2.1632 -0.5970  1.0096
26683WAT     H2 8538   1.677   5.134   3.463 -0.8983  0.0474  2.0385
26683WAT    EPW 8539   1.679   5.048   3.449 -0.8929  0.1945  1.0719
26684WAT      O 8540   4.666   7.656   4.013 -0.3536 -0.2817  0.1550
26684WAT     H1 8541   4.745   7.615   3.978 -0.4396  0.1154 -0.5354
26684WAT     H2 8542   4.698   7.713   4.083  0.1238  0.7034 -0.8289
26684WAT    EPW 8543   4.681   7.658   4.018 -0.3018 -0.0994 -0.0658
26685WAT      O 8544   3.129   5.383   3.992 -0.7465 -0.2159  0.8572
26685WAT     H1 8545   3.086   5.401   4.076 -0.8917  1.7155  0.4201
26685WAT     H2 8546   3.060   5.346   3.937 -1.3980  1.0684  0.7665
26685WAT    EPW 8547   3.115   5.380   3.996 -0.8516  0.2084  0.7877
26686WAT      O 8548   3.558   6.838   6.377  0.1484 -0.2593 -0.4522
26686WAT     H1 8549   3.566   6.835   6.473 -3.1634  0.3990 -0.0380
26686WAT     H2 8550   3.499   6.766   6.356  0.4221 -0.0682 -1.9743
26686WAT    EPW 8551   3.552   6.828   6.387 -0.2522 -0.1473 -0.5982
26687WAT      O 8552   3.456   7.568   1.954 -1.0525 -0.0944  0.1819
26687WAT     H1 8553   3.527   7.603   1.901  0.2744 -0.2905  1.7608
26687WAT     H2 8554   3.498   7.504   2.012 -2.8694 -1.9466 -0.3884
26687WAT    EPW 8555   3.471   7.564   1.955 -1.1171 -0.3645  0.3150
26688WAT      O 8556   2.170   8.746   4.328  0.6085 -0.0040  0.6002
26688WAT     H1 8557   2.136   8.789   4.249  1.4107  0.7395  0.6374
26688WAT     H2 8558   2.160   8.812   4.396 -1.3356 -1.1035  1.4658
26688WAT    EPW 8559   2.164   8.761   4.326  0.4578 -0.0515  0.7193
26689WAT      O 8560   4.176   7.387   8.624  0.3657 -0.8800  1.1114
26689WAT     H1 8561   4.139   7.331   8.692 -0.1512 -1.0559  0.6903
26689WAT     H2 8562   4.194   7.470   8.669  1.6634 -1.5466  1.8723
26689WAT    EPW 8563   4.173   7.391   8.639  0.4685 -0.9909  1.1568
26690WAT      O 8564  10.846   5.772   3.055 -0.9498  0.0729  0.3868
26690WAT     H1 8565  10.774   5.788   2.993 -1.3364  2.5959  1.3490
26690WAT     H2 8566  10.924   5.798   3.007 -0.9514 -0.4075  0.1221
26690WAT    EPW 8567  10.847   5.778   3.040 -1.0009  0.3424  0.4789
26691WAT      O 8568   2.353   6.984   1.755 -0.5780  0.2315 -0.5961
26691WAT     H1 8569   2.389   6.983   1.844  0.3947  3.5020 -0.8217
26691WAT     H2 8570   2.362   6.894   1.724 -0.9437 -1.0012  2.5713
26691WAT    EPW 8571   2.359   6.972   1.762 -0.4979  0.5002 -0.2080
26692WAT      O 8572   3.168   9.970   2.491 -0.7615  0.3546  0.3343
26692WAT     H1 8573   3.163   9.909   2.565 -0.2326  1.0493  0.9552
26692WAT     H2 8574   3.262   9.979   2.474 -0.8221 -2.7347 -2.9353
26692WAT    EPW 8575   3.179   9.963   2.498 -0.6998  0.0391 -0.0151
26693WAT      O 8576  10.465   9.555   0.558  0.9400 -0.0611  0.1988
26693WAT     H1 8577  10.516   9.628   0.593 -0.5909  1.3298 -0.3341
26693WAT     H2 8578  10.386   9.553   0.612  0.5566 -0.7522 -0.3711
26693WAT    EPW 8579  10.461   9.564   0.570  0.6876  0.0310  0.0533
26694WAT      O 8580  10.776   4.083   2.964  0.2246 -0.1707 -0.0879
26694WAT     H1 8581  10.858   4.105   2.919 -0.5508  0.8046 -1.0890
26694WAT     H2 8582  10.771   3.988   2.960  2.2944 -0.4458  1.8208
26694WAT    EPW 8583  10.786   4.073   2.957  0.3958 -0.0782  0.0318
26695WAT      O 8584   3.560   4.511   4.024  0.1652  0.1547  0.5604
26695WAT     H1 8585   3.578   4.594   4.069  0.2963  0.9634 -0.9084
26695WAT     H2 8586   3.610   4.446   4.074  0.3483  1.0148  1.5376
26695WAT    EPW 8587   3.569   4.513   4.037  0.2066  0.3750  0.4957
26696WAT      O 8588   5.267   6.723   6.945 -0.4671  0.2792 -0.2057
26696WAT     H1 8589   5.182   6.760   6.969 -0.0038  0.2659  1.6224
26696WAT     H2 8590   5.246   6.635   6.911 -1.1526  0.0307  0.8045
26696WAT    EPW 8591   5.253   6.716   6.944 -0.4966  0.2446  0.1686
26697WAT      O 8592   4.781   6.254   2.859 -0.1863  0.3427  0.0032
26697WAT     H1 8593   4.730   6.173   2.844  0.0779  0.5662 -2.3686
26697WAT     H2 8594   4.714   6.322   2.867 -0.3489  0.5164 -2.3372
26697WAT    EPW 8595   4.765   6.252   2.858 -0.1731  0.3951 -0.6182
26698WAT      O 8596   2.532   4.423   7.200 -0.6634  0.1314 -0.0969
26698WAT     H1 8597   2.623   4.397   7.188 -0.5813  0.4301 -0.1212
26698WAT     H2 8598   2.525   4.447   7.292 -0.7905 -0.1746 -0.0256
26698WAT    EPW 8599   2.543   4.423   7.210 -0.6691  0.1304 -0.0908
26699WAT      O 8600   3.876  10.151   4.378 -0.0614  0.5700  0.4043
26699WAT     H1 8601   3.849  10.202   4.455 -1.8095  0.0509  0.1834
26699WAT     H2 8602   3.796  10.141   4.327  0.4558 -1.4407 -0.1150
26699WAT    EPW 8603   3.862  10.156   4.381 -0.2238  0.2360  0.3068
26700WAT      O 8604   1.546   7.216   7.148  0.3889  0.3487 -0.1138
26700WAT     H1 8605   1.524   7.216   7.055 -0.5485 -0.0482  0.0938
26700WAT     H2 8606   1.577   7.305   7.166  1.0866  0.2699 -0.9129
26700WAT    EPW 8607   1.547   7.227   7.138  0.3573  0.2859 -0.1917
26701WAT      O 8608   0.069   7.595   2.833 -0.1368 -0.5530 -0.1262
26701WAT     H1 8609   0.082   7.589   2.738  0.8718 -0.5162 -0.0052
26701WAT     H2 8610  -0.009   7.542   2.850 -2.0848  1.7404 -1.3130
26701WAT    EPW 8611   0.061   7.588   2.823 -0.2607 -0.2456 -0.2668
26702WAT      O 8612   7.368   0.509   4.830 -0.0845  0.3275 -0.0780
26702WAT     H1 8613   7.337   0.589   4.788 -2.3070 -0.4886 -0.1429
26702WAT     H2 8614   7.358   0.526   4.924  0.1438  0.3868 -0.0644
26702WAT    EPW 8615   7.362   0.522   4.837 -0.3474  0.2277 -0.0849
26703WAT      O 8616   1.636   8.147   4.383 -0.5128 -0.5794  0.1447
26703WAT     H1 8617   1.710   8.119   4.330 -1.3680 -1.8369 -0.4168
26703WAT     H2 8618   1.662   8.233   4.416  0.1675  0.1186 -2.0543
26703WAT    EPW 8619   1.650   8.155   4.381 -0.5359 -0.6533 -0.2193
26704WAT      O 8620   4.198  10.111   2.540  0.2971  0.1583  0.0259
26704WAT     H1 8621   4.154  10.072   2.465  2.5953  0.0002 -1.3517
26704WAT     H2 8622   4.290  10.116   2.513  0.9365  1.5946  2.2294
26704WAT    EPW 8623   4.204  10.107   2.527  0.6845  0.3266  0.1348
26705WAT      O 8624   3.061   7.960   4.454  0.4447 -0.1287 -1.2103
26705WAT     H1 8625   3.128   7.911   4.502  0.1868 -0.8930 -1.6228
26705WAT     H2 8626   2.984   7.904   4.456  0.1850  0.2006 -1.8017
26705WAT    EPW 8627   3.060   7.946   4.461  0.3765 -0.1862 -1.3425
26706WAT      O 8628   3.021   5.933   3.944 -0.5124 -0.0865 -0.1171
26706WAT     H1 8629   3.069   5.860   3.906 -1.1472 -1.4696  1.6011
26706WAT     H2 8630   2.947   5.893   3.989 -0.0107  1.4304  2.2445
26706WAT    EPW 8631   3.017   5.918   3.945 -0.5299 -0.0689  0.4209
26707WAT      O 8632   3.039   8.323   1.737 -0.2526  0.5639 -0.5489
26707WAT     H1 8633   2.965   8.339   1.796  0.8009  2.3609  0.3888
26707WAT     H2 8634   3.106   8.285   1.794  0.3847  1.2639 -0.8143
26707WAT    EPW 8635   3.038   8.320   1.752 -0.0297  0.8931 -0.4602
26708WAT      O 8636   1.104   7.417   4.225 -0.3312  0.1029  0.8294
26708WAT     H1 8637   1.017   7.403   4.262 -0.7872 -1.3351 -0.6676
26708WAT     H2 8638   1.161   7.356   4.273 -1.1932 -2.8783 -1.5984
26708WAT    EPW 8639   1.100   7.407   4.236 -0.5050 -0.4802  0.3116
26709WAT      O 8640   3.360   8.216   4.523  0.3254 -0.1415  0.0913
26709WAT     H1 8641   3.272   8.182   4.505  1.2550 -1.9528 -1.2899
26709WAT     H2 8642   3.370   8.207   4.618 -1.3331  1.1294  0.4486
26709WAT    EPW 8643   3.350   8.211   4.533  0.2292 -0.2131 -0.0436
26710WAT      O 8644   2.304   9.495   1.842  0.2879 -0.5631 -0.7301
26710WAT     H1 8645   2.271   9.584   1.831 -3.8465 -1.6124  1.2706
26710WAT     H2 8646   2.339   9.493   1.931  1.2369 -0.7789 -1.0876
26710WAT    EPW 8647   2.304   9.506   1.852 -0.1322 -0.7300 -0.5134
26711WAT      O 8648   1.673  10.009   5.490 -0.1455 -0.0901 -1.0628
26711WAT     H1 8649   1.721  10.046   5.416 -1.7929  0.9460 -1.6821
26711WAT     H2 8650   1.588   9.984   5.454 -0.2513 -1.4832  0.0633
26711WAT    EPW 8651   1.668  10.011   5.476 -0.3768 -0.1369 -0.9959
26712WAT      O 8652   0.807   7.150   5.858  0.1884  0.1131  0.3812
26712WAT     H1 8653   0.853   7.122   5.779 -0.7836 -1.4472  0.3207
26712WAT     H2 8654   0.853   7.107   5.930  0.5659  0.8711  0.6044
26712WAT    EPW 8655   0.819   7.141   5.857  0.1099  0.0072  0.4027
26713WAT      O 8656   4.151  10.125   6.852 -0.2455  0.3713  0.1587
26713WAT     H1 8657   4.149  10.201   6.911  0.0179  0.6358 -0.1736
26713WAT     H2 8658   4.151  10.049   6.911  1.6217  0.6321  0.5655
26713WAT    EPW 8659   4.151  10.125   6.868  0.0355  0.4406  0.1686
26714WAT      O 8660   3.276   7.730   1.690 -0.1629  0.0018 -0.5586
26714WAT     H1 8661   3.212   7.673   1.732  0.7025 -0.5051  0.1237
26714WAT     H2 8662   3.328   7.671   1.635 -0.7085  0.5146 -1.6472
26714WAT    EPW 8663   3.275   7.715   1.688 -0.1206  0.0029 -0.6121
26715WAT      O 8664   0.421   4.165   3.701  0.5989 -0.9402  0.3728
26715WAT     H1 8665   0.494   4.183   3.761  0.1390  0.0336  0.6615
26715WAT     H2 8666   0.375   4.091   3.741  2.5520 -2.9304 -0.8558
26715WAT    EPW 8667   0.425   4.158   3.714  0.7958 -1.0741  0.2488
26716WAT      O 8668   3.789   1.044   3.589  0.0962 -0.2396 -0.1401
26716WAT     H1 8669   3.720   1.093   3.633 -0.3953 -0.8307 -0.2339
26716WAT     H2 8670   3.870   1.072   3.632  0.2301  2.8895 -2.1648
26716WAT    EPW 8671   3.791   1.054   3.600  0.0490  0.0951 -0.4196
26717WAT      O 8672   5.235   9.326   3.789 -0.0636 -0.4361  0.0169
26717WAT     H1 8673   5.191   9.396   3.837  0.9239  0.5744 -0.4892
26717WAT     H2 8674   5.328   9.340   3.807  0.1544 -1.6741 -0.0462
26717WAT    EPW 8675   5.242   9.337   3.798  0.0954 -0.4663 -0.0582
26718WAT      O 8676   3.916   6.901   4.356  0.1985 -0.2411 -0.5466
26718WAT     H1 8677   3.935   6.984   4.399 -0.8624 -0.1865 -0.1662
26718WAT     H2 8678   3.989   6.844   4.382 -0.8184 -0.4756  2.0891
26718WAT    EPW 8679   3.928   6.904   4.365 -0.0756 -0.2646 -0.1490
26719WAT      O 8680   1.181   9.678   5.622  0.2262 -0.2201  0.0945
26719WAT     H1 8681   1.124   9.675   5.545  1.3154 -1.9630 -0.7043
26719WAT     H2 8682   1.159   9.598   5.670 -0.9679  1.1997  2.0546
26719WAT    EPW 8683   1.171   9.667   5.618  0.2123 -0.2627  0.2477
26720WAT      O 8684   1.998   8.022   6.247 -0.2019 -0.1004  0.8078
26720WAT     H1 8685   1.993   8.091   6.313 -1.4256  1.8886 -1.2244
26720WAT     H2 8686   2.087   8.029   6.212 -0.4300  0.7279  0.3654
26720WAT    EPW 8687   2.009   8.032   6.251 -0.3934  0.2713  0.4814
26721WAT      O 8688   3.073   6.750   2.803 -0.0732 -0.8567  0.9701
26721WAT     H1 8689   3.148   6.739   2.861 -0.6597 -0.3742  1.8553
26721WAT     H2 8690   3.108   6.737   2.715  0.9142 -1.2511  1.4023
26721WAT    EPW 8691   3.087   6.746   2.799 -0.0205 -0.8450  1.1438
26722WAT      O 8692   7.246   0.302   6.482  0.2612  0.1607  0.0068
26722WAT     H1 8693   7.341   0.292   6.488  0.3108  0.3799 -0.3412
26722WAT     H2 8694   7.234   0.382   6.430 -0.1160  0.6338  0.7969
26722WAT    EPW 8695   7.257   0.312   6.476  0.2179  0.2520  0.0651
26723WAT      O 8696   3.501   8.918   2.785 -0.0094  0.1566 -0.1628
26723WAT     H1 8697   3.449   8.996   2.768 -0.6765 -0.4390 -0.8971
26723WAT     H2 8698   3.460   8.849   2.733  0.6423 -0.6618  0.3758
26723WAT    EPW 8699   3.489   8.920   2.776 -0.0114 -0.0300 -0.1886
26724WAT      O 8700   0.194   8.296   4.457 -0.3999 -0.2794  0.2021
26724WAT     H1 8701   0.192   8.332   4.368 -0.0123  1.2314  0.7780
26724WAT     H2 8702   0.268   8.234   4.456  0.3628  0.6101 -0.2167
26724WAT    EPW 8703   0.204   8.293   4.445 -0.2482  0.0367  0.2227
26725WAT      O 8704   4.518   7.796   1.577 -0.3392 -0.1382 -0.3186
26725WAT     H1 8705   4.534   7.832   1.490  2.1423 -1.9019 -0.6923
26725WAT     H2 8706   4.590   7.829   1.631  0.5605 -2.3873 -0.0532
26725WAT    EPW 8707   4.530   7.805   1.573  0.1068 -0.6673 -0.3328
26726WAT      O 8708   3.784   7.139   1.138 -0.0741 -0.3631 -0.2378
26726WAT     H1 8709   3.708   7.133   1.195 -0.2964  0.4993 -0.4264
26726WAT     H2 8710   3.757   7.200   1.069  1.2247  1.0424  0.4339
26726WAT    EPW 8711   3.771   7.146   1.136  0.0678 -0.0639 -0.1740
26727WAT      O 8712   2.321   3.453   2.312  0.1222  0.2153  0.5426
26727WAT     H1 8713   2.227   3.437   2.324 -0.3195  2.5493  0.7419
26727WAT     H2 8714   2.359   3.441   2.399  0.1643 -1.4831  0.3120
26727WAT    EPW 8715   2.313   3.450   2.325  0.0696  0.2991  0.5385
26728WAT      O 8716   3.976   6.786   5.032  0.0268 -0.3334 -0.2097
26728WAT     H1 8717   3.932   6.777   4.947  0.0813  0.4171 -0.3209
26728WAT     H2 8718   4.035   6.860   5.021 -2.0796  1.7183  1.3254
26728WAT    EPW 8719   3.978   6.795   5.019 -0.2438  0.0362 -0.0217
26729WAT      O 8720   1.492   6.822   1.865  0.6618 -0.1711  0.1257
26729WAT     H1 8721   1.424   6.827   1.932  1.1212 -4.4396  1.2337
26729WAT     H2 8722   1.564   6.776   1.908  2.7082  0.6627 -2.1665
26729WAT    EPW 8723   1.493   6.816   1.879  0.9922 -0.6242 -0.0306
26730WAT      O 8724   2.019   9.988   4.556  0.1608  0.7200  0.3206
26730WAT     H1 8725   1.970  10.021   4.481  1.3582  3.3635  0.5868
26730WAT     H2 8726   2.047   9.900   4.530  1.0794  1.7813 -2.5884
26730WAT    EPW 8727   2.016   9.981   4.543  0.4399  1.2078 -0.0281
26731WAT      O 8728   0.876   8.997   3.995  0.1107 -0.6034  0.2506
26731WAT     H1 8729   0.941   9.005   4.065  1.0506 -0.7133 -0.5784
26731WAT     H2 8730   0.885   8.906   3.965  0.7876 -0.1495 -0.9975
26731WAT    EPW 8731   0.886   8.986   4.000  0.3239 -0.5584 -0.0232
26732WAT      O 8732   8.333   0.715   1.945  0.1968 -0.0432  0.2751
26732WAT     H1 8733   8.350   0.674   2.030  0.1002  1.5833  1.1406
26732WAT     H2 8734   8.240   0.736   1.948  0.6269  2.0584  0.7830
26732WAT    EPW 8735   8.323   0.713   1.957  0.2408  0.4485  0.4562
26733WAT      O 8736   1.590   8.502   1.865  0.2160 -0.1944 -0.1586
26733WAT     H1 8737   1.633   8.545   1.792 -1.0774 -0.5650 -1.1859
26733WAT     H2 8738   1.661   8.464   1.916  1.1898  0.7062 -0.8102
26733WAT    EPW 8739   1.605   8.502   1.862  0.1739 -0.1249 -0.3801
26734WAT      O 8740   1.594   9.927   4.026 -0.5665 -0.0036 -0.9740
26734WAT     H1 8741   1.532   9.991   3.992 -0.9712 -0.0852 -0.4051
26734WAT     H2 8742   1.647   9.976   4.088 -1.1917 -0.3153 -0.1762
26734WAT    EPW 8743   1.593   9.942   4.030 -0.7023 -0.0553 -0.7935
26735WAT      O 8744   9.093   7.364   2.878  0.0746 -0.0188  0.1261
26735WAT     H1 8745   9.146   7.441   2.896 -0.5619  0.2283  1.0353
26735WAT     H2 8746   9.132   7.325   2.800  0.4363  1.1870 -0.3132
26735WAT    EPW 8747   9.105   7.369   2.870  0.0386  0.1729  0.1881
26736WAT      O 8748   1.985   9.723   5.346  0.1393  0.3350  0.4202
26736WAT     H1 8749   2.078   9.705   5.362 -0.5241 -3.0227  1.3160
26736WAT     H2 8750   1.962   9.788   5.412  1.8301  1.3219  0.1137
26736WAT    EPW 8751   1.994   9.729   5.357  0.2749  0.0224  0.4978
26737WAT      O 8752   0.141   7.766   6.731  0.0438 -0.6191 -0.7168
26737WAT     H1 8753   0.155   7.846   6.679 -2.4631 -0.4830 -1.3139
26737WAT     H2 8754   0.135   7.696   6.666 -1.0083 -0.7655 -0.4890
26737WAT    EPW 8755   0.142   7.768   6.715 -0.4256 -0.6204 -0.7653
26738WAT      O 8756   2.907   1.426   2.250  0.3512  0.3589 -0.9935
26738WAT     H1 8757   2.860   1.481   2.313  0.1956 -0.4123 -0.4204
26738WAT     H2 8758   2.872   1.452   2.165 -0.9964 -0.0620 -0.5977
26738WAT    EPW 8759   2.896   1.437   2.247  0.1529  0.2018 -0.8657
26739WAT      O 8760  10.470   3.211   8.600  0.1893  0.1430 -0.0887
26739WAT     H1 8761  10.565   3.203   8.606  0.1672 -1.1907 -1.0506
26739WAT     H2 8762  10.442   3.134   8.550 -1.3631  0.6922 -0.1398
26739WAT    EPW 8763  10.479   3.200   8.594 -0.0186  0.0395 -0.2217
26740WAT      O 8764   5.226   0.162   3.061  0.1726 -0.0758  0.1511
26740WAT     H1 8765   5.320   0.180   3.065  0.5105 -1.8623  1.0720
26740WAT     H2 8766   5.220   0.068   3.043 -1.4751  0.4514 -2.6444
26740WAT    EPW 8767   5.238   0.152   3.059 -0.0002 -0.2419 -0.0962
26741WAT      O 8768  10.619   6.909   6.517  0.6167 -0.1213  0.9129
26741WAT     H1 8769  10.554   6.968   6.481 -0.2670  0.3850  3.1763
26741WAT     H2 8770  10.568   6.838   6.557  1.4110  0.2091  2.6023
26741WAT    EPW 8771  10.604   6.907   6.517  0.6051 -0.0112  1.4341
26742WAT      O 8772   4.820   6.744   1.987  0.0154  0.2333  0.1941
26742WAT     H1 8773   4.876   6.666   1.988 -1.8808 -1.2068  1.3920
26742WAT     H2 8774   4.773   6.740   2.070  0.3397  3.0841  0.5867
26742WAT    EPW 8775   4.821   6.733   1.998 -0.1919  0.4194  0.4039
26743WAT      O 8776   2.706   8.966   0.419  0.1002  0.5335 -0.0108
26743WAT     H1 8777   2.723   8.951   0.326 -2.2888  0.7840 -0.5543
26743WAT     H2 8778   2.793   8.978   0.457  1.1436  0.6673 -2.2429
26743WAT    EPW 8779   2.720   8.966   0.411 -0.0772  0.5841 -0.3769
26744WAT      O 8780   4.797   9.155   0.951 -0.0712 -0.7270 -0.2464
26744WAT     H1 8781   4.736   9.139   0.878  0.7059  0.0276 -1.0843
26744WAT     H2 8782   4.752   9.218   1.007  1.0600  2.2837 -2.4447
26744WAT    EPW 8783   4.783   9.161   0.948  0.1807 -0.2303 -0.6469
26745WAT      O 8784   2.466   8.720   8.546  0.6235 -0.8682 -0.1081
26745WAT     H1 8785   2.405   8.680   8.484  1.5888  0.7353 -2.2424
26745WAT     H2 8786   2.552   8.689   8.518  1.2085  1.0369 -0.5654
26745WAT    EPW 8787   2.470   8.711   8.534  0.8279 -0.4053 -0.4497
26746WAT      O 8788   5.211   8.442   3.160  0.0201  0.2056 -0.9989
26746WAT     H1 8789   5.223   8.463   3.253 -2.7457  2.3804 -1.0237
26746WAT     H2 8790   5.151   8.367   3.161 -0.5893  0.6885 -1.0216
26746WAT    EPW 8791   5.205   8.435   3.173 -0.4249  0.5555 -1.0052
26747WAT      O 8792   0.637  10.151   5.868  0.4042 -0.1216  0.0191
26747WAT     H1 8793   0.656  10.195   5.785 -2.8316  1.4229 -0.0203
26747WAT     H2 8794   0.564  10.093   5.848  0.5887 -0.8892  1.4796
26747WAT    EPW 8795   0.630  10.149   5.854  0.0018 -0.0196  0.2065
26748WAT      O 8796   3.693   8.507   5.078  0.1749 -0.7076  0.0497
26748WAT     H1 8797   3.713   8.436   5.140 -0.1650  1.6338  3.0547
26748WAT     H2 8798   3.613   8.478   5.034 -0.7472 -1.6195  2.2082
26748WAT    EPW 8799   3.685   8.493   5.080  0.0083 -0.5183  0.7305
26749WAT      O 8800   0.613   0.659   4.596  0.5259 -0.3997  0.2440
26749WAT     H1 8801   0.606   0.694   4.507 -0.3329 -1.6599 -0.2180
26749WAT     H2 8802   0.645   0.570   4.583 -1.4449 -1.2804  1.0072
26749WAT    EPW 8803   0.616   0.652   4.582  0.1527 -0.6821  0.2837
26750WAT      O 8804   1.781   3.824   2.200 -0.5414  0.2676 -0.4995
26750WAT     H1 8805   1.826   3.768   2.137 -1.4719 -0.2374 -0.7267
26750WAT     H2 8806   1.844   3.894   2.219 -0.0309  0.0961 -1.5266
26750WAT    EPW 8807   1.795   3.826   2.195 -0.5968  0.1785 -0.6649
26751WAT      O 8808   6.725   0.621   3.842  0.1594 -0.0801 -0.3252
26751WAT     H1 8809   6.703   0.575   3.760  2.9237 -1.2520 -0.5088
26751WAT     H2 8810   6.815   0.650   3.830 -0.5660  3.2069  0.8665
26751WAT    EPW 8811   6.734   0.619   3.829  0.4284  0.1988 -0.1922
26752WAT      O 8812   0.973   2.766   5.316  0.1067 -0.3303  0.1335
26752WAT     H1 8813   1.003   2.815   5.393 -0.0284  0.2685 -0.1876
26752WAT     H2 8814   0.888   2.804   5.295  0.0176 -0.6781 -0.1472
26752WAT    EPW 8815   0.966   2.778   5.323  0.0771 -0.2971  0.0544
26753WAT      O 8816   0.728   5.659   2.984 -0.2462  0.9431 -0.7097
26753WAT     H1 8817   0.641   5.684   2.954 -0.3254 -0.0424 -1.3424
26753WAT     H2 8818   0.752   5.727   3.047 -0.8974  1.9821 -1.5342
26753WAT    EPW 8819   0.720   5.671   2.988 -0.3425  0.9501 -0.9018
26754WAT      O 8820   3.641   7.342   7.113 -0.0103  0.6982  0.6917
26754WAT     H1 8821   3.707   7.338   7.045  0.1678  0.4886  0.8742
26754WAT     H2 8822   3.680   7.296   7.188 -1.1536 -1.3122  0.1414
26754WAT    EPW 8823   3.655   7.335   7.114 -0.1377  0.4055  0.6433
26755WAT      O 8824   8.823   3.101   8.524 -0.1665 -0.6623  0.6131
26755WAT     H1 8825   8.896   3.046   8.553 -0.7219 -2.1295 -0.6379
26755WAT     H2 8826   8.781   3.129   8.605  1.9532  0.5259  1.3864
26755WAT    EPW 8827   8.827   3.098   8.539  0.0405 -0.6990  0.5503
26756WAT      O 8828   5.704   8.126   4.841  0.1862  0.0705 -0.3212
26756WAT     H1 8829   5.648   8.074   4.898 -1.2167  1.0905 -0.7253
26756WAT     H2 8830   5.720   8.206   4.890  0.1161  0.3755 -0.7950
26756WAT    EPW 8831   5.699   8.129   4.855 -0.0079  0.2456 -0.4370
26757WAT      O 8832   3.444   7.852   4.391  0.4162  0.0161 -0.1283
26757WAT     H1 8833   3.451   7.944   4.418  1.5012  0.6826 -2.4132
26757WAT     H2 8834   3.429   7.856   4.296  0.2651 -2.1796 -0.2528
26757WAT    EPW 8835   3.443   7.865   4.382  0.5394 -0.1855 -0.4461
26758WAT      O 8836   3.328   7.897   3.730  0.5795  0.3358  0.3772
26758WAT     H1 8837   3.255   7.947   3.769  1.5410  0.6643  1.8338
26758WAT     H2 8838   3.286   7.840   3.666 -0.6205  2.8544 -1.2434
26758WAT    EPW 8839   3.313   7.896   3.727  0.5480  0.7117  0.3555
26759WAT      O 8840   1.215   9.959   0.335 -0.5954  0.9029 -0.7179
26759WAT     H1 8841   1.282   9.925   0.394  0.3704  0.7752 -1.8567
26759WAT     H2 8842   1.206  10.051   0.360  0.9651  1.2681 -1.3689
26759WAT    EPW 8843   1.223   9.967   0.346 -0.2621  0.9341 -0.9539
26760WAT      O 8844   2.831   7.235   3.510  0.1650  0.5437  0.0816
26760WAT     H1 8845   2.868   7.199   3.429  1.7707  0.1879  0.9321
26760WAT     H2 8846   2.751   7.280   3.482 -1.5281 -2.8919 -1.1610
26760WAT    EPW 8847   2.825   7.236   3.496  0.1534  0.0436  0.0298
26761WAT      O 8848   2.614   4.492   5.738  0.0288 -1.3609 -0.2569
26761WAT     H1 8849   2.627   4.470   5.645  2.7982  0.2996 -0.3697
26761WAT     H2 8850   2.701   4.516   5.769 -1.3314  1.1365  1.9994
26761WAT    EPW 8851   2.627   4.492   5.729  0.2146 -0.8128  0.0257
26762WAT      O 8852   5.325   0.339   4.441 -0.6720  0.1620  0.5033
26762WAT     H1 8853   5.276   0.288   4.506  1.1888 -0.3719  1.5602
26762WAT     H2 8854   5.296   0.303   4.356 -3.0247  0.7686  0.9722
26762WAT    EPW 8855   5.315   0.328   4.438 -0.7367  0.1716  0.7045
26763WAT      O 8856   2.768   4.576   4.723 -0.0405 -0.1487  0.5540
26763WAT     H1 8857   2.712   4.563   4.799  0.2187  0.5150  0.8655
26763WAT     H2 8858   2.852   4.537   4.748  1.8267  4.5044  2.7854
26763WAT    EPW 8859   2.772   4.569   4.737  0.2400  0.5524  0.8893
26764WAT      O 8860   0.576   6.856   4.216  0.0647  0.0353  0.4595
26764WAT     H1 8861   0.647   6.798   4.188  0.1133  0.5727 -0.5623
26764WAT     H2 8862   0.510   6.797   4.252 -0.6020 -0.8776 -2.0166
26764WAT    EPW 8863   0.577   6.840   4.217 -0.0168 -0.0138 -0.0017
26765WAT      O 8864   2.617   9.482   5.511  0.1645  0.0865  0.3256
26765WAT     H1 8865   2.570   9.404   5.480 -0.3654 -0.6908  2.8496
26765WAT     H2 8866   2.708   9.453   5.521  0.3903  0.4131 -0.6742
26765WAT    EPW 8867   2.623   9.468   5.508  0.1243  0.0267  0.5267
26766WAT      O 8868   2.732   5.993   7.133  0.4088  0.3119 -0.2847
26766WAT     H1 8869   2.706   5.956   7.218  2.4494  0.3960  0.4257
26766WAT     H2 8870   2.757   6.083   7.153 -0.5325  0.8250 -1.2833
26766WAT    EPW 8871   2.732   6.000   7.147  0.5537  0.3905 -0.3226
26767WAT      O 8872   1.772   8.717   3.546  0.3911 -0.5781  0.0132
26767WAT     H1 8873   1.716   8.660   3.598 -0.1264 -0.6336 -0.5889
26767WAT     H2 8874   1.819   8.770   3.610 -0.7603 -0.1438  0.5201
26767WAT    EPW 8875   1.771   8.716   3.561  0.1709 -0.5283  0.0008
26768WAT      O 8876   4.027   4.801   3.151  0.3605  0.4177  0.3916
26768WAT     H1 8877   3.977   4.826   3.228  1.1105  0.4229  0.8796
26768WAT     H2 8878   4.012   4.707   3.142  2.2867 -0.1147  2.0605
26768WAT    EPW 8879   4.018   4.792   3.160  0.7136  0.3481  0.6759
26769WAT      O 8880   5.260   6.184   3.153 -0.1123  0.0867  0.6043
26769WAT     H1 8881   5.224   6.167   3.066 -0.9760  0.9390  0.7799
26769WAT     H2 8882   5.344   6.228   3.137 -0.3593  0.4114  0.1980
26769WAT    EPW 8883   5.266   6.187   3.140 -0.2587  0.2422  0.5738
26770WAT      O 8884   4.102   8.014   4.321  0.7476  0.0555 -0.4786
26770WAT     H1 8885   4.089   8.097   4.274 -1.5503 -0.1004 -0.2232
26770WAT     H2 8886   4.053   7.950   4.271  1.3868 -0.8900  0.0832
26770WAT    EPW 8887   4.094   8.017   4.308  0.5286 -0.0896 -0.3707
26771WAT      O 8888   1.868   7.285   5.019  0.8723 -0.5044  0.2545
26771WAT     H1 8889   1.851   7.232   5.098  3.3856 -1.1255  0.4520
26771WAT     H2 8890   1.897   7.370   5.053  1.9809 -0.7809  0.0433
26771WAT    EPW 8891   1.869   7.289   5.034  1.3500 -0.6227  0.2525
26772WAT      O 8892   2.518   7.952   4.035  0.1711  0.4081 -0.0588
26772WAT     H1 8893   2.501   7.971   4.127 -1.1554 -0.3708 -0.1151
26772WAT     H2 8894   2.506   8.035   3.990  0.0652  0.6314  0.3809
26772WAT    EPW 8895   2.514   7.965   4.041 -0.0179  0.3347 -0.0083
26773WAT      O 8896  10.693   1.431   3.578 -0.1669 -0.0629  0.3388
26773WAT     H1 8897  10.684   1.344   3.539 -0.5880  0.6445 -1.1863
26773WAT     H2 8898  10.609   1.473   3.562  0.0235  0.6299  1.0956
26773WAT    EPW 8899  10.681   1.425   3.571 -0.1974  0.1218  0.2373
26774WAT      O 8900   6.816   0.275   2.427 -0.6637 -0.5696 -0.0166
26774WAT     H1 8901   6.830   0.236   2.341 -0.6529  1.0310 -0.7694
26774WAT     H2 8902   6.763   0.352   2.411  3.3464  2.6734  0.6316
26774WAT    EPW 8903   6.811   0.280   2.414 -0.1330  0.0692 -0.0303
26775WAT      O 8904   3.506   8.483   6.064  0.9435 -0.5136 -0.2079
26775WAT     H1 8905   3.559   8.539   6.006  0.6927  0.2160  0.2599
26775WAT     H2 8906   3.570   8.440   6.120  1.0501  0.7430  0.6918
26775WAT    EPW 8907   3.522   8.485   6.063  0.9246 -0.2522 -0.0277
26776WAT      O 8908   4.553   8.762   2.721  0.7656 -0.1415  0.0872
26776WAT     H1 8909   4.646   8.749   2.738  0.7241  2.3320  3.1107
26776WAT     H2 8910   4.510   8.740   2.803 -0.9556  1.5558 -0.2653
26776WAT    EPW 8911   4.560   8.758   2.734  0.5331  0.4086  0.4396
26777WAT      O 8912   2.827   3.742   7.513  0.8598 -0.3293  0.3086
26777WAT     H1 8913   2.909   3.770   7.473 -0.4766  1.9502 -1.0871
26777WAT     H2 8914   2.799   3.667   7.461  1.8966 -0.9482  0.6217
26777WAT    EPW 8915   2.834   3.736   7.501  0.8203 -0.1104  0.1662
26778WAT      O 8916   0.727   8.586   5.298  0.3336  0.3652  1.0148
26778WAT     H1 8917   0.758   8.606   5.210 -0.8332 -0.1763  0.4457
26778WAT     H2 8918   0.645   8.635   5.306 -0.9397 -1.5836  0.7652
26778WAT    EPW 8919   0.720   8.595   5.287  0.0117  0.0367  0.9069
26779WAT      O 8920   7.810   7.899   3.569  0.8837 -0.3996 -0.3986
26779WAT     H1 8921   7.815   7.891   3.474  1.0111 -2.2963 -0.2662
26779WAT     H2 8922   7.741   7.838   3.595  0.4872  0.4617  0.7068
26779WAT    EPW 8923   7.801   7.890   3.560  0.8483 -0.5362 -0.2354
26780WAT      O 8924   0.283   5.570   4.439  0.1486  1.0686  0.2171
26780WAT     H1 8925   0.240   5.600   4.519  2.4242  3.8698  0.5489
26780WAT     H2 8926   0.218   5.582   4.370 -1.6646 -0.8752  1.4793
26780WAT    EPW 8927   0.269   5.575   4.441  0.2096  1.1816  0.4272
26781WAT      O 8928   0.863   2.077   3.483 -0.2434 -0.3330  0.0684
26781WAT     H1 8929   0.889   2.166   3.506 -0.2805  0.0378 -1.2432
26781WAT     H2 8930   0.901   2.062   3.397  1.3161 -2.2779  1.0130
26781WAT    EPW 8931   0.871   2.087   3.475 -0.0426 -0.5406  0.0200
26782WAT      O 8932   3.996   4.086   4.596 -0.1499 -0.3419 -0.4663
26782WAT     H1 8933   4.053   4.114   4.525 -0.1884 -0.5726 -0.5892
26782WAT     H2 8934   4.033   4.127   4.674 -0.0730 -0.1370 -0.6094
26782WAT    EPW 8935   4.009   4.095   4.597 -0.1447 -0.3457 -0.5012
26783WAT      O 8936   2.027   7.538   4.978  0.2944  0.3700 -0.8563
26783WAT     H1 8937   2.074   7.471   4.928  0.5827  0.9848 -1.4192
26783WAT     H2 8938   2.058   7.621   4.942  1.5694  0.8856  1.2874
26783WAT    EPW 8939   2.037   7.540   4.966  0.5007  0.5190 -0.6478
26784WAT      O 8940   4.338   9.086   2.251 -0.2478 -0.6252 -0.5327
26784WAT     H1 8941   4.300   9.159   2.299 -0.2893  0.3842 -2.0327
26784WAT     H2 8942   4.426   9.116   2.228  0.1173 -1.4731 -0.2689
26784WAT    EPW 8943   4.344   9.100   2.254 -0.2050 -0.6037 -0.6958
26785WAT      O 8944   6.067   7.425   2.822 -0.5830  0.2328  0.4339
26785WAT     H1 8945   6.063   7.512   2.782  2.2304  0.2128 -0.0474
26785WAT     H2 8946   6.057   7.364   2.749  0.4455  0.1742  0.3396
26785WAT    EPW 8947   6.065   7.429   2.807 -0.0765  0.2224  0.3581
26786WAT      O 8948   4.532   1.290   2.029  0.2486  0.1080 -0.6746
26786WAT     H1 8949   4.536   1.198   2.005 -1.1657  0.5786 -2.9740
26786WAT     H2 8950   4.476   1.292   2.107 -0.4902 -0.8959 -1.1678
26786WAT    EPW 8951   4.525   1.278   2.036 -0.0355  0.0377 -1.0430
26787WAT      O 8952   2.452   7.303   3.853 -0.6832 -0.5882 -0.7292
26787WAT     H1 8953   2.458   7.387   3.809  1.8337  0.9185  2.1499
26787WAT     H2 8954   2.542   7.283   3.879 -1.8248 -1.5099  3.2044
26787WAT    EPW 8955   2.465   7.311   3.851 -0.5018 -0.5112  0.1693
26788WAT      O 8956   4.647   8.762   3.901  0.0619  0.9603  0.6209
26788WAT     H1 8957   4.724   8.781   3.956 -0.6677 -0.1479  2.1036
26788WAT     H2 8958   4.581   8.731   3.963 -0.9339 -0.0107 -0.8718
26788WAT    EPW 8959   4.648   8.761   3.917 -0.1657  0.6862  0.6196
26789WAT      O 8960   2.096   7.007   2.382  0.5384  0.0084  0.0087
26789WAT     H1 8961   2.180   6.973   2.411  0.8560  1.1920  0.5239
26789WAT     H2 8962   2.113   7.098   2.358 -0.6800  0.4200  0.5889
26789WAT    EPW 8963   2.109   7.014   2.383  0.4196  0.2186  0.1532
26790WAT      O 8964   1.937   8.909   6.429  0.8093  0.1699  0.1645
26790WAT     H1 8965   1.988   8.942   6.355 -0.2597  0.3498 -0.5190
26790WAT     H2 8966   1.887   8.985   6.458 -0.9233 -0.5577 -0.7799
26790WAT    EPW 8967   1.937   8.923   6.423  0.4398  0.0978 -0.0503
26791WAT      O 8968   4.658   8.414   4.219 -0.4320 -0.0008 -0.0239
26791WAT     H1 8969   4.618   8.366   4.292  0.8907  1.9159  2.1230
26791WAT     H2 8970   4.748   8.430   4.248  1.0366 -1.4602 -3.3149
26791WAT    EPW 8971   4.665   8.410   4.233 -0.0637  0.0591 -0.1750
26792WAT      O 8972   0.294   0.456   1.173 -0.3739  0.3259 -0.4819
26792WAT     H1 8973   0.275   0.539   1.217 -2.2013  0.5871 -1.6567
26792WAT     H2 8974   0.347   0.480   1.097 -0.6282  0.3741 -0.6435
26792WAT    EPW 8975   0.298   0.470   1.169 -0.6484  0.3667 -0.6582
26793WAT      O 8976   4.394   6.461   3.747 -0.1193  0.1149  0.2296
26793WAT     H1 8977   4.313   6.460   3.797  0.8740 -1.4368  1.9101
26793WAT     H2 8978   4.375   6.519   3.673 -3.0508 -0.9422  0.0123
26793WAT    EPW 8979   4.381   6.469   3.744 -0.3753 -0.2294  0.4226
26794WAT      O 8980   1.727   8.582   4.732  0.5313  0.5962 -0.1208
26794WAT     H1 8981   1.813   8.568   4.773 -0.4976  1.0775  2.3244
26794WAT     H2 8982   1.740   8.658   4.676  1.6393  0.8025  0.3859
26794WAT    EPW 8983   1.740   8.590   4.730  0.5417  0.6866  0.2682
26795WAT      O 8984   3.234   5.681   4.538  0.4017 -0.5740  0.1576
26795WAT     H1 8985   3.228   5.751   4.473  0.2458 -0.0538  0.7327
26795WAT     H2 8986   3.205   5.603   4.491 -1.0639  0.0433 -0.0194
26795WAT    EPW 8987   3.229   5.680   4.523  0.1879 -0.4239  0.2100
26796WAT      O 8988   8.924   9.083   5.654 -1.0528  0.2950 -0.0113
26796WAT     H1 8989   9.005   9.131   5.670 -1.5765  0.9203  0.7925
26796WAT     H2 8990   8.937   8.999   5.698  0.7545 -1.3024 -3.2427
26796WAT    EPW 8991   8.937   9.078   5.662 -0.8836  0.1664 -0.3314
26797WAT      O 8992   4.821   0.335   3.525  0.1639 -0.7025  1.0312
26797WAT     H1 8993   4.853   0.365   3.610 -1.2194  0.4329  1.1911
26797WAT     H2 8994   4.748   0.393   3.505 -0.1361 -1.5486 -0.5072
26797WAT    EPW 8995   4.816   0.346   3.534 -0.0582 -0.6644  0.8494
26798WAT      O 8996   5.133   8.605   8.756 -0.2487  1.1575  0.5769
26798WAT     H1 8997   5.057   8.552   8.733  0.3044  0.5580  0.0750
26798WAT     H2 8998   5.193   8.593   8.683  0.8604  0.5769  1.5458
26798WAT    EPW 8999   5.131   8.596   8.743 -0.0296  1.0014  0.6385
26799WAT      O 9000   1.968   8.471   0.095 -0.1092  0.1952  0.5263
26799WAT     H1 9001   1.912   8.426   0.158  0.0798 -0.4548  0.2281
26799WAT     H2 9002   2.041   8.503   0.148  0.0922 -0.4229  0.6275
26799WAT    EPW 9003   1.970   8.470   0.110 -0.0576  0.0281  0.5003
26800WAT      O 9004   2.413   5.848   4.597 -0.6588  0.1637 -0.0512
26800WAT     H1 9005   2.454   5.834   4.512 -1.1056  0.7885 -0.3796
26800WAT     H2 9006   2.485   5.843   4.660  0.0008  1.5546 -0.6481
26800WAT    EPW 9007   2.428   5.846   4.594 -0.6309  0.4294 -0.1733
26801WAT      O 9008   7.594   7.159   6.160 -0.0703 -0.3372  0.5222
26801WAT     H1 9009   7.678   7.199   6.182  0.7479  0.3871 -3.2654
26801WAT     H2 9010   7.606   7.066   6.175  0.9408 -0.0894  1.3235
26801WAT    EPW 9011   7.606   7.152   6.165  0.1709 -0.2091  0.1283
26802WAT      O 9012   4.684   6.596   5.954  0.1470 -0.5490 -0.5017
26802WAT     H1 9013   4.728   6.575   5.872  2.3718  0.6359  0.2998
26802WAT     H2 9014   4.693   6.516   6.006  2.8876  0.0838  0.1967
26802WAT    EPW 9015   4.691   6.583   5.950  0.8016 -0.3090 -0.3037
26803WAT      O 9016   4.409   8.714   3.631  0.3058 -0.3297  0.6327
26803WAT     H1 9017   4.395   8.702   3.725 -1.2067 -1.1484  0.3406
26803WAT     H2 9018   4.455   8.635   3.603 -0.1707 -0.5617  0.5069
26803WAT    EPW 9019   4.413   8.702   3.639  0.0439 -0.4678  0.5776
26804WAT      O 9020   5.317   6.625   7.614  0.3221  0.4921  0.4073
26804WAT     H1 9021   5.290   6.591   7.700 -1.3528 -1.4869 -0.7982
26804WAT     H2 9022   5.410   6.604   7.607 -0.0310 -1.3646  0.8841
26804WAT    EPW 9023   5.325   6.618   7.624  0.0546 -0.0138  0.3111
26805WAT      O 9024   8.747   0.050   4.057  0.2676 -0.9310 -0.2581
26805WAT     H1 9025   8.753  -0.036   4.099 -0.4268 -0.2422  1.3316
26805WAT     H2 9026   8.782   0.110   4.122  0.9914 -0.0125 -1.4567
26805WAT    EPW 9027   8.753   0.046   4.071  0.2718 -0.7190 -0.2062
26806WAT      O 9028   7.160   5.405   5.696 -0.2385 -0.4765 -0.0405
26806WAT     H1 9029   7.236   5.462   5.704 -1.2898  0.9008  0.4913
26806WAT     H2 9030   7.158   5.381   5.603 -1.5031  2.9321 -1.0488
26806WAT    EPW 9031   7.170   5.409   5.685 -0.5438  0.1550 -0.1032
26807WAT      O 9032   8.348   8.507   1.828 -0.3534  0.4364  0.6899
26807WAT     H1 9033   8.337   8.523   1.734  0.3096 -2.6999 -0.0543
26807WAT     H2 9034   8.284   8.439   1.848 -1.4467  2.0160  2.8982
26807WAT    EPW 9035   8.338   8.500   1.818 -0.4101  0.2308  0.8830
26808WAT      O 9036   3.825   5.468   5.853  0.3098 -0.0387 -0.0692
26808WAT     H1 9037   3.740   5.497   5.820  1.3772  1.7249 -1.4553
26808WAT     H2 9038   3.809   5.380   5.886 -1.6090 -0.6020 -2.2461
26808WAT    EPW 9039   3.812   5.460   5.853  0.1975  0.1197 -0.5391
26809WAT      O 9040   8.294   8.955   3.754  0.0644 -0.2325 -0.5335
26809WAT     H1 9041   8.292   8.996   3.667  1.5185  0.4067 -0.2994
26809WAT     H2 9042   8.202   8.944   3.777 -0.3699  1.1436 -1.4403
26809WAT    EPW 9043   8.282   8.959   3.745  0.1993  0.0334 -0.6223
26810WAT      O 9044   2.092   9.531   3.020 -0.1615  0.4507 -0.1341
26810WAT     H1 9045   2.140   9.556   3.098  2.2274  1.9751 -1.9509
26810WAT     H2 9046   2.143   9.459   2.983 -0.4544  0.6831 -1.0193
26810WAT    EPW 9047   2.105   9.524   3.025  0.1149  0.6828 -0.4905
26811WAT      O 9048   5.473   7.013   4.220 -0.1687 -0.5407 -0.0261
26811WAT     H1 9049   5.552   7.063   4.239 -0.9249  0.2154  1.2215
26811WAT     H2 9050   5.485   6.983   4.130  2.6390 -2.5307  0.8788
26811WAT    EPW 9051   5.485   7.016   4.210  0.1020 -0.7036  0.2577
26812WAT      O 9052   7.876   3.230   6.967 -0.0970  0.8455 -0.2374
26812WAT     H1 9053   7.882   3.136   6.989  0.7282  0.9601  0.0750
26812WAT     H2 9054   7.942   3.271   7.023  1.2585  1.3055 -2.0931
26812WAT    EPW 9055   7.886   3.223   6.977  0.1907  0.9212 -0.4411
26813WAT      O 9056   9.687   3.536   4.987  0.4103 -0.4453  0.4682
26813WAT     H1 9057   9.637   3.555   4.908  1.8547  2.0223  0.0341
26813WAT     H2 9058   9.628   3.556   5.059 -0.0877 -0.1999 -0.0049
26813WAT    EPW 9059   9.673   3.541   4.986  0.5350 -0.0874  0.3486
26814WAT      O 9060   6.015   7.689   5.013 -0.5059 -0.9016 -0.6209
26814WAT     H1 9061   5.939   7.738   4.982  0.4283  0.2318 -1.1857
26814WAT     H2 9062   6.001   7.600   4.980 -2.0319 -0.9569  0.0780
26814WAT    EPW 9063   6.003   7.683   5.005 -0.5839 -0.7594 -0.6034
26815WAT      O 9064   4.305   0.748   0.487 -0.8229  0.1546 -0.0471
26815WAT     H1 9065   4.384   0.796   0.463  0.0922 -0.1088  2.2007
26815WAT     H2 9066   4.235   0.812   0.482 -0.3390  0.6046 -1.2644
26815WAT    EPW 9067   4.307   0.762   0.483 -0.6385  0.1792  0.0888
26816WAT      O 9068   9.229   1.941   5.255  0.0179 -0.2374 -0.2048
26816WAT     H1 9069   9.212   1.963   5.346  0.3410  0.4013 -0.2903
26816WAT     H2 9070   9.143   1.939   5.214 -0.0955 -0.1205  0.0287
26816WAT    EPW 9071   9.215   1.944   5.262  0.0453 -0.1377 -0.1853
26817WAT      O 9072   4.844   8.403   1.126  0.4876 -0.5945  0.1288
26817WAT     H1 9073   4.813   8.395   1.036  2.2056 -0.6138 -0.4958
26817WAT     H2 9074   4.779   8.459   1.169  0.5699  0.8938 -1.5834
26817WAT    EPW 9075   4.831   8.409   1.120  0.7248 -0.4010 -0.1795
26818WAT      O 9076   5.334   7.482   5.819 -0.0277 -0.1088 -0.0629
26818WAT     H1 9077   5.275   7.558   5.817 -0.4093 -0.3991  0.1419
26818WAT     H2 9078   5.279   7.410   5.849  0.4637 -0.3570  0.2499
26818WAT    EPW 9079   5.319   7.483   5.823 -0.0131 -0.1798  0.0052
26819WAT      O 9080   4.960   8.642   3.041 -0.0214 -0.7599  0.2513
26819WAT     H1 9081   4.991   8.619   2.953  0.2303  1.7735 -0.3945
26819WAT     H2 9082   5.011   8.586   3.100  3.0342  0.4693 -1.0190
26819WAT    EPW 9083   4.971   8.631   3.037  0.4151 -0.2632 -0.0015
26820WAT      O 9084   1.473   4.913   8.891 -1.2694  0.1087 -0.4152
26820WAT     H1 9085   1.463   4.904   8.986 -0.1638 -1.8217 -0.4206
26820WAT     H2 9086   1.549   4.969   8.880 -1.0597 -0.1201 -0.1442
26820WAT    EPW 9087   1.482   4.919   8.902 -1.0960 -0.1762 -0.3800
26821WAT      O 9088   6.296   8.814   4.982  0.1088  0.4666 -0.2850
26821WAT     H1 9089   6.360   8.871   5.024  0.4398 -0.1597  0.0824
26821WAT     H2 9090   6.304   8.833   4.889  0.3122  0.9153 -0.1777
26821WAT    EPW 9091   6.305   8.824   4.976  0.1791  0.4435 -0.2222
26822WAT      O 9092   3.983   7.649   7.609  0.3198 -0.9425  0.1942
26822WAT     H1 9093   4.071   7.613   7.616  0.7398 -0.1057 -0.6064
26822WAT     H2 9094   3.965   7.686   7.696  1.1425 -0.2747  0.0902
26822WAT    EPW 9095   3.992   7.649   7.621  0.4838 -0.7439  0.0749
26823WAT      O 9096   0.607   2.786   7.836  0.3239  0.2696  0.0453
26823WAT     H1 9097   0.672   2.854   7.825 -0.1059  1.1417  2.3057
26823WAT     H2 9098   0.530   2.831   7.870 -0.3719 -1.1788  0.5063
26823WAT    EPW 9099   0.605   2.801   7.839  0.1754  0.1936  0.4041
26824WAT      O 9100   4.147  10.190   1.399 -0.8568 -0.0051 -0.4182
26824WAT     H1 9101   4.079  10.257   1.407 -1.0859 -0.4655  2.6788
26824WAT     H2 9102   4.179  10.200   1.309 -3.4027  1.7489 -1.2707
26824WAT    EPW 9103   4.142  10.200   1.388 -1.2231  0.1655 -0.1221
26825WAT      O 9104   0.994   9.044   4.286  0.2092  0.3269  0.3408
26825WAT     H1 9105   0.948   8.985   4.345  1.2121 -0.9221 -0.0695
26825WAT     H2 9106   1.075   8.998   4.265  0.4170  1.2708 -1.0574
26825WAT    EPW 9107   0.999   9.031   4.291  0.3689  0.2871  0.1023
26826WAT      O 9108   6.975   9.855   2.801  0.8035 -0.1823 -0.4187
26826WAT     H1 9109   7.008   9.799   2.872 -1.1132  0.2200  0.8662
26826WAT     H2 9110   6.886   9.825   2.786  0.8274  0.4239 -1.9882
26826WAT    EPW 9111   6.968   9.844   2.808  0.5538 -0.0491 -0.4562
26827WAT      O 9112   9.473   9.204   4.813  0.0492 -0.3744  0.2434
26827WAT     H1 9113   9.463   9.171   4.724 -3.1184 -0.1305  0.4009
26827WAT     H2 9114   9.518   9.288   4.802  2.6447 -1.7763 -0.7258
26827WAT    EPW 9115   9.478   9.211   4.800 -0.0262 -0.5274  0.1364
26828WAT      O 9116   2.047   7.257   6.167  0.1935  0.4382 -0.0096
26828WAT     H1 9117   2.084   7.234   6.253 -0.3837 -0.6073 -0.0236
26828WAT     H2 9118   2.115   7.235   6.105 -0.2160 -0.9329  0.0100
26828WAT    EPW 9119   2.061   7.251   6.170  0.0634  0.1194 -0.0088
26829WAT      O 9120   6.934   2.240   5.593  0.1545  0.6243 -0.5060
26829WAT     H1 9121   6.966   2.297   5.523 -0.4491  1.3957 -0.1665
26829WAT     H2 9122   6.870   2.293   5.640  0.7573  0.2271  0.8207
26829WAT    EPW 9123   6.930   2.254   5.590  0.1543  0.6734 -0.2861
26830WAT      O 9124  10.057   1.146   3.854  0.1654  0.1694  0.3892
26830WAT     H1 9125  10.077   1.146   3.948  0.2851  1.1912  0.3775
26830WAT     H2 9126   9.971   1.104   3.848  0.5956 -0.8155  0.8389
26830WAT    EPW 9127  10.048   1.140   3.866  0.2379  0.1743  0.4470
26831WAT      O 9128   2.333   9.931   3.358  0.0660  0.6245  0.1704
26831WAT     H1 9129   2.292   9.846   3.371  2.4221 -0.5370  0.3863
26831WAT     H2 9130   2.317   9.952   3.266 -4.2679  2.1347  0.9810
26831WAT    EPW 9131   2.325   9.923   3.348 -0.1949  0.6709  0.3059
26832WAT      O 9132   5.251   9.910   2.799  0.1712  0.5678  0.4098
26832WAT     H1 9133   5.274   9.958   2.877  3.5958 -0.6894  0.3392
26832WAT     H2 9134   5.192   9.841   2.830  1.0139  0.4375  1.7956
26832WAT    EPW 9135   5.246   9.907   2.813  0.7339  0.3858  0.5832
26833WAT      O 9136   2.377   5.479   4.055  0.3128 -0.2633 -0.5174
26833WAT     H1 9137   2.360   5.497   3.962  0.7040 -1.9747 -0.9561
26833WAT     H2 9138   2.314   5.411   4.078 -0.2994  0.6950  0.7113
26833WAT    EPW 9139   2.366   5.473   4.045  0.2836 -0.3629 -0.4134
26834WAT      O 9140   7.644   0.235   5.729  0.1162  0.5488 -0.4772
26834WAT     H1 9141   7.562   0.250   5.682 -1.6301  0.7136  2.3581
26834WAT     H2 9142   7.633   0.282   5.812  3.9125  2.2040 -0.6928
26834WAT    EPW 9143   7.632   0.243   5.734  0.3867  0.7889 -0.1316
26835WAT      O 9144   3.663   8.793   3.237  0.3233 -0.3526  0.1881
26835WAT     H1 9145   3.676   8.722   3.301 -1.6101  0.8042  1.9996
26835WAT     H2 9146   3.743   8.792   3.185  1.8377 -1.6947  2.3191
26835WAT    EPW 9147   3.675   8.783   3.239  0.2680 -0.3767  0.7080
26836WAT      O 9148   2.687   8.737   2.856 -0.2310 -0.3889  0.2993
26836WAT     H1 9149   2.657   8.648   2.836 -2.5375  0.8453 -2.4534
26836WAT     H2 9150   2.781   8.736   2.837 -0.2688 -2.1777  0.0614
26836WAT    EPW 9151   2.696   8.725   2.851 -0.5403 -0.4621 -0.0952
26837WAT      O 9152   4.286   8.449   4.283  0.3585  0.3131  0.6800
26837WAT     H1 9153   4.206   8.500   4.273  0.3615  0.1644 -0.1652
26837WAT     H2 9154   4.354   8.503   4.242  0.3433 -0.3988 -0.3255
26837WAT    EPW 9155   4.284   8.463   4.276  0.3572  0.1993  0.4361
26838WAT      O 9156   6.186   2.474   2.957  0.4141 -0.1506 -0.0872
26838WAT     H1 9157   6.220   2.385   2.945  1.9001  0.1409  1.5060
26838WAT     H2 9158   6.249   2.529   2.910  0.7667  0.2078  0.7905
26838WAT    EPW 9159   6.199   2.469   2.949  0.6568 -0.0647  0.2387
26839WAT      O 9160   9.933   3.225   3.268  0.0045  0.2769  0.3632
26839WAT     H1 9161   9.876   3.163   3.222 -1.5705  0.8135  1.4968
26839WAT     H2 9162   9.965   3.177   3.343  3.5018 -0.9783 -1.7083
26839WAT    EPW 9163   9.929   3.211   3.272  0.2575  0.1820  0.2395
26840WAT      O 9164   4.730   9.287   1.235  0.1409  0.5708 -0.3354
26840WAT     H1 9165   4.724   9.305   1.328 -0.7475  0.9695 -0.4599
26840WAT     H2 9166   4.822   9.267   1.220  0.1315 -0.4332  0.7921
26840WAT    EPW 9167   4.741   9.287   1.245  0.0224  0.4907 -0.2031
26841WAT      O 9168   3.881   7.438   4.180  0.5198  0.6234 -0.4709
26841WAT     H1 9169   3.974   7.447   4.157  1.4884 -0.0002  2.6692
26841WAT     H2 9170   3.853   7.528   4.199  0.2803  0.8797 -1.9163
26841WAT    EPW 9171   3.890   7.451   4.180  0.6158  0.5751 -0.2472
26842WAT      O 9172   6.502   1.582   3.991  0.0793  0.3928  0.5502
26842WAT     H1 9173   6.519   1.627   3.909 -1.4587  1.8262  0.9569
26842WAT     H2 9174   6.558   1.504   3.988  0.5609  0.7592 -1.5235
26842WAT    EPW 9175   6.512   1.577   3.980 -0.0596  0.6301  0.3302
26843WAT      O 9176   2.942   9.871   3.350 -0.2983 -0.0872 -0.7147
26843WAT     H1 9177   2.939   9.847   3.258 -0.0020 -1.0445 -0.4781
26843WAT     H2 9178   2.910   9.962   3.352  0.0150  0.0559 -1.7900
26843WAT    EPW 9179   2.937   9.880   3.338 -0.2180 -0.1945 -0.8253
26844WAT      O 9180   1.199   8.077   3.704  0.3480  0.1926 -0.3714
26844WAT     H1 9181   1.263   8.139   3.741  0.8772 -0.5983  0.0566
26844WAT     H2 9182   1.139   8.133   3.655  0.2176  1.1687  0.8395
26844WAT    EPW 9183   1.200   8.093   3.702  0.4005  0.2170 -0.1552
26845WAT      O 9184   4.753   9.588   3.869  0.3567 -0.1497 -0.0129
26845WAT     H1 9185   4.722   9.526   3.802 -0.0492  0.8215 -0.7411
26845WAT     H2 9186   4.678   9.600   3.927  0.7996 -1.2249  0.8365
26845WAT    EPW 9187   4.739   9.581   3.868  0.3617 -0.1636  0.0030
26846WAT      O 9188   8.752   1.577   7.848 -0.2704 -0.3705  0.4003
26846WAT     H1 9189   8.753   1.614   7.936  1.9075  0.6038  0.0261
26846WAT     H2 9190   8.835   1.531   7.840  0.6144  1.3870 -1.8294
26846WAT    EPW 9191   8.763   1.576   7.858  0.1330 -0.0102  0.0567
26847WAT      O 9192  10.319   0.909   5.525  0.1935 -0.1737 -0.1525
26847WAT     H1 9193  10.224   0.913   5.531  0.1857 -1.1813  0.6348
26847WAT     H2 9194  10.346   1.000   5.515 -0.8241  0.1540 -0.0290
26847WAT    EPW 9195  10.310   0.921   5.524  0.0587 -0.2634 -0.0324
26848WAT      O 9196   3.581   7.322   1.784  0.3622 -0.6267 -0.3017
26848WAT     H1 9197   3.593   7.415   1.799 -0.3059 -0.5394 -0.2479
26848WAT     H2 9198   3.524   7.293   1.855 -1.0642 -0.6570 -1.4021
26848WAT    EPW 9199   3.575   7.330   1.795  0.0859 -0.6192 -0.4398
26849WAT      O 9200   7.159   9.191   3.004  0.1660 -0.5625 -0.8400
26849WAT     H1 9201   7.076   9.234   2.984  1.2870  3.1406  1.5120
26849WAT     H2 9202   7.138   9.097   3.002 -3.9655  0.1483 -0.6897
26849WAT    EPW 9203   7.145   9.184   3.001 -0.2310  0.0200 -0.5100
26850WAT      O 9204   4.476   4.104   2.523 -0.3942 -0.0873  0.4681
26850WAT     H1 9205   4.415   4.140   2.458 -1.4876 -1.6484  0.5600
26850WAT     H2 9206   4.553   4.080   2.472 -1.2235 -1.2579 -0.2896
26850WAT    EPW 9207   4.478   4.106   2.508 -0.6478 -0.4478  0.3802
26851WAT      O 9208   2.902   7.028   1.150 -0.1022 -0.1685 -0.3369
26851WAT     H1 9209   2.873   7.015   1.241 -0.0121  1.3848 -0.0637
26851WAT     H2 9210   2.937   7.117   1.149 -2.3634  0.8233 -2.4426
26851WAT    EPW 9211   2.903   7.038   1.162 -0.3887  0.1671 -0.5787
26852WAT      O 9212   3.622   8.930   5.045 -0.5877 -0.3147  0.3292
26852WAT     H1 9213   3.533   8.898   5.058 -0.3930 -1.1030 -0.1767
26852WAT     H2 9214   3.665   8.915   5.129 -0.4997 -1.4460  0.1058
26852WAT    EPW 9215   3.616   8.924   5.058 -0.5504 -0.5674  0.2332
26853WAT      O 9216   6.526   7.731   1.385  0.2432 -0.1728 -0.1250
26853WAT     H1 9217   6.536   7.663   1.451  0.4753 -0.1989 -0.1843
26853WAT     H2 9218   6.616   7.756   1.363  0.2340 -1.0710 -1.3548
26853WAT    EPW 9219   6.539   7.725   1.391  0.2728 -0.2947 -0.2950
26854WAT      O 9220   4.331   5.122   1.163 -0.6234  0.5086 -0.1635
26854WAT     H1 9221   4.386   5.094   1.090 -0.4624  1.2927 -0.3532
26854WAT     H2 9222   4.242   5.098   1.137 -0.6090  1.1249 -0.7853
26854WAT    EPW 9223   4.327   5.115   1.150 -0.6003  0.6931 -0.2705
26855WAT      O 9224   0.253   4.121   5.932 -0.1555  0.9137  0.0713
26855WAT     H1 9225   0.251   4.025   5.938  3.3795  0.7861  3.5063
26855WAT     H2 9226   0.252   4.139   5.838  0.8638 -2.6155 -0.7876
26855WAT    EPW 9227   0.252   4.110   5.921  0.4452  0.4315  0.4113
26856WAT      O 9228   5.140   7.446   2.453 -0.1197  0.3783  0.3932
26856WAT     H1 9229   5.208   7.464   2.518  0.1987 -1.2911  0.5753
26856WAT     H2 9230   5.187   7.439   2.371  0.3338 -2.7176  0.7838
26856WAT    EPW 9231   5.155   7.447   2.451 -0.0179 -0.2501  0.4687
26857WAT      O 9232   7.010   9.796   4.276  0.8489  0.6783  0.3607
26857WAT     H1 9233   7.039   9.706   4.291  0.1166  0.6035  1.3663
26857WAT     H2 9234   6.966   9.792   4.191  0.0737 -0.1060  0.7776
26857WAT    EPW 9235   7.008   9.784   4.266  0.6499  0.5651  0.5481
26858WAT      O 9236   5.137   9.140   0.710  0.1785 -0.0349 -0.5446
26858WAT     H1 9237   5.103   9.053   0.731 -3.2442  0.7512 -2.2702
26858WAT     H2 9238   5.186   9.128   0.629 -0.9212 -0.2550 -1.1876
26858WAT    EPW 9239   5.139   9.127   0.702 -0.4179  0.0401 -0.8571
26859WAT      O 9240   5.377   0.065   2.721 -0.3328 -0.5329 -0.1407
26859WAT     H1 9241   5.284   0.071   2.701 -0.5063 -1.3143  0.3769
26859WAT     H2 9242   5.419   0.130   2.665 -1.2244  0.0341 -0.1534
26859WAT    EPW 9243   5.371   0.074   2.711 -0.4733 -0.5612 -0.0741
26860WAT      O 9244   8.207   2.997   7.108 -0.1356 -0.4797  1.0163
26860WAT     H1 9245   8.292   3.005   7.064 -0.0273 -1.4359  1.0430
26860WAT     H2 9246   8.225   3.024   7.198  0.1266 -0.6226  1.0084
26860WAT    EPW 9247   8.221   3.002   7.114 -0.0863 -0.6248  1.0188
26861WAT      O 9248   4.813  10.208   4.732 -0.1672  0.6371  0.7646
26861WAT     H1 9249   4.762  10.159   4.667  0.9458  0.0103  0.3390
26861WAT     H2 9250   4.829  10.146   4.802  2.8947 -0.3410 -0.6241
26861WAT    EPW 9251   4.808  10.193   4.732  0.3834  0.4253  0.5255
26862WAT      O 9252   0.005   2.331   2.580  0.0861  0.3361  0.3303
26862WAT     H1 9253  -0.062   2.275   2.540 -0.6952  0.2619  1.6774
26862WAT     H2 9254   0.065   2.271   2.623  0.7153  0.4345 -0.3798
26862WAT    EPW 9255   0.004   2.316   2.580  0.0658  0.3394  0.4143
26863WAT      O 9256   6.667   2.600   6.025  0.0142 -0.7034  0.1862
26863WAT     H1 9257   6.709   2.582   6.109 -4.0347 -0.9522  2.4188
26863WAT     H2 9258   6.652   2.695   6.026 -0.6479 -0.8015  0.0939
26863WAT    EPW 9259   6.671   2.610   6.036 -0.6075 -0.7492  0.4685
26864WAT      O 9260   6.131  10.028   4.092  0.3210  0.0878 -0.3435
26864WAT     H1 9261   6.152  10.024   3.998 -0.7761 -1.4207 -0.5700
26864WAT     H2 9262   6.072   9.954   4.106  0.3949  0.3413  1.5405
26864WAT    EPW 9263   6.126  10.018   4.081  0.1860 -0.0772 -0.1247
26865WAT      O 9264   7.215   2.034   2.915  0.2390 -0.3015 -0.1856
26865WAT     H1 9265   7.186   2.005   2.829 -0.9802  0.7920 -0.1812
26865WAT     H2 9266   7.209   1.957   2.970 -0.8849 -0.5632 -0.6439
26865WAT    EPW 9267   7.210   2.020   2.911 -0.0701 -0.1917 -0.2455
26866WAT      O 9268   7.312   2.760   3.791 -0.7260 -0.0758 -0.3387
26866WAT     H1 9269   7.359   2.677   3.782 -0.5613 -0.1338  0.8216
26866WAT     H2 9270   7.234   2.739   3.842  0.6032  0.8509  2.2830
26866WAT    EPW 9271   7.308   2.746   3.797 -0.5288  0.0387  0.1601
26867WAT      O 9272   3.013   8.230   4.257 -0.1680 -0.5833 -0.0604
26867WAT     H1 9273   2.966   8.167   4.202 -0.9962 -0.3622  0.3736
26867WAT     H2 9274   2.944   8.274   4.307  0.4990 -0.1896  0.5330
26867WAT    EPW 9275   2.997   8.227   4.257 -0.1894 -0.5026  0.0751
26868WAT      O 9276   6.552   7.822   2.812  0.1382  0.2415  0.4640
26868WAT     H1 9277   6.592   7.895   2.859  1.2271 -0.5955  0.8568
26868WAT     H2 9278   6.525   7.761   2.880  1.4565 -0.8409  0.0672
26868WAT    EPW 9279   6.554   7.824   2.827  0.4554 -0.0117  0.4635
26869WAT      O 9280   1.898   8.370   4.069 -0.0810 -0.8152 -0.1331
26869WAT     H1 9281   1.827   8.378   4.006 -0.5719 -1.4362  0.3336
26869WAT     H2 9282   1.905   8.276   4.086  0.7142 -0.7432 -0.0184
26869WAT    EPW 9283   1.890   8.358   4.063 -0.0408 -0.8874 -0.0563
26870WAT      O 9284   4.067   7.747   3.227 -0.4014 -0.1978  0.8972
26870WAT     H1 9285   4.056   7.700   3.145  0.1510 -0.5689  1.0334
26870WAT     H2 9286   3.979   7.753   3.263 -0.5362 -0.7473  0.6686
26870WAT    EPW 9287   4.054   7.742   3.221 -0.3464 -0.3192  0.8850
26871WAT      O 9288   4.443   5.769   4.147 -0.1071 -0.1057 -0.2567
26871WAT     H1 9289   4.349   5.763   4.129 -0.6259 -0.9278  2.2790
26871WAT     H2 9290   4.448   5.812   4.232  1.8824  0.4591 -0.6127
26871WAT    EPW 9291   4.431   5.774   4.156  0.0868 -0.1395  0.0308
26872WAT      O 9292   2.858   7.460   3.210  0.6172 -0.0168  0.3523
26872WAT     H1 9293   2.804   7.485   3.135  1.2500 -0.3506 -0.2301
26872WAT     H2 9294   2.824   7.512   3.282 -0.3210 -0.0453 -0.0536
26872WAT    EPW 9295   2.846   7.470   3.209  0.5771 -0.0646  0.2218
26873WAT      O 9296   4.019   0.307   1.936 -0.3792 -0.7188 -0.4601
26873WAT     H1 9297   4.034   0.393   1.897 -0.5081 -0.5988 -0.2520
26873WAT     H2 9298   4.002   0.249   1.862 -0.4973 -0.5214 -0.5875
26873WAT    EPW 9299   4.019   0.311   1.921 -0.4117 -0.6770 -0.4494
26874WAT      O 9300   4.285   7.941   5.220  0.5997 -0.1501  0.1646
26874WAT     H1 9301   4.251   8.026   5.194  0.4149 -0.4577 -0.6261
26874WAT     H2 9302   4.315   7.901   5.138  3.7182  0.4434  0.9028
26874WAT    EPW 9303   4.285   7.947   5.206  0.9868 -0.1121  0.1578
26875WAT      O 9304   2.528   9.131   1.525 -0.0011  0.1453  0.3766
26875WAT     H1 9305   2.593   9.091   1.584 -1.9384 -1.4092  1.6012
26875WAT     H2 9306   2.497   9.208   1.573  0.2676  0.3569  0.2123
26875WAT    EPW 9307   2.533   9.136   1.539 -0.2213 -0.0319  0.5165
26876WAT      O 9308   8.539   1.080   3.753  0.5809 -0.3688 -0.2371
26876WAT     H1 9309   8.503   1.026   3.683  1.4923  0.3766 -1.3045
26876WAT     H2 9310   8.630   1.049   3.763  0.2854 -0.8869  1.0527
26876WAT    EPW 9311   8.547   1.069   3.745  0.6623 -0.3389 -0.2077
26877WAT      O 9312   4.063   7.915   6.082 -1.5722  0.3388  0.2768
26877WAT     H1 9313   3.989   7.949   6.032 -2.2582  3.7735  3.1811
26877WAT     H2 9314   4.135   7.974   6.061 -0.4976 -1.0874 -0.1764
26877WAT    EPW 9315   4.062   7.927   6.073 -1.5209  0.6034  0.6003
26878WAT      O 9316   9.331   1.560   1.988  0.3951 -0.8090 -0.1415
26878WAT     H1 9317   9.425   1.576   1.997 -0.1236  3.5270 -0.3044
26878WAT     H2 9318   9.308   1.511   2.067  2.5038 -0.5563  0.7173
26878WAT    EPW 9319   9.341   1.555   2.000  0.6046 -0.2038 -0.0497
26879WAT      O 9320   3.924  10.083   5.261 -0.4852 -0.1921  0.3835
26879WAT     H1 9321   3.909  10.130   5.179 -2.1717 -1.1882  0.0684
26879WAT     H2 9322   3.837  10.077   5.301  0.1146 -0.8102  1.6458
26879WAT    EPW 9323   3.911  10.088   5.255 -0.6286 -0.4048  0.5083
26880WAT      O 9324   3.010   7.924   2.804  0.1865  0.0867 -0.2822
26880WAT     H1 9325   2.930   7.961   2.766  1.0750  1.8994 -0.5219
26880WAT     H2 9326   3.066   7.907   2.729  0.9645  1.2480  0.0075
26880WAT    EPW 9327   3.007   7.927   2.789  0.4063  0.4790 -0.2756
26881WAT      O 9328   1.273   3.220   4.642 -0.8232  0.5755 -0.4515
26881WAT     H1 9329   1.211   3.161   4.598 -1.4143  0.8711 -0.0167
26881WAT     H2 9330   1.223   3.260   4.713 -0.0810  0.6783  0.0257
26881WAT    EPW 9331   1.258   3.218   4.645 -0.8034  0.6281 -0.3312
26882WAT      O 9332   5.546   1.047   2.232 -0.4862  0.2949  0.2664
26882WAT     H1 9333   5.458   1.013   2.243 -0.4338  0.6333  2.2332
26882WAT     H2 9334   5.556   1.111   2.303  1.3258  0.2834  0.0799
26882WAT    EPW 9335   5.536   1.051   2.243 -0.2403  0.3380  0.5012
26883WAT      O 9336   8.673   0.168   2.154  0.4157  0.6227 -0.3263
26883WAT     H1 9337   8.675   0.077   2.182  0.3608  0.1925 -1.6528
26883WAT     H2 9338   8.640   0.216   2.230 -0.5361 -0.5957  0.0646
26883WAT    EPW 9339   8.669   0.162   2.168  0.2832  0.4053 -0.4497
26884WAT      O 9340   0.502   2.924   8.651 -0.3352  0.0629  0.8850
26884WAT     H1 9341   0.594   2.943   8.670 -0.5910  1.1094  1.1463
26884WAT     H2 9342   0.456   3.004   8.676 -1.3321 -0.4930  0.8603
26884WAT    EPW 9343   0.508   2.937   8.657 -0.5004  0.1278  0.9160
26885WAT      O 9344   7.704   2.487   4.388  0.4095 -0.1357  0.2468
26885WAT     H1 9345   7.713   2.497   4.483  0.9973  0.4519  0.1402
26885WAT     H2 9346   7.788   2.515   4.353 -0.2147  0.8541 -0.5178
26885WAT    EPW 9347   7.716   2.492   4.396  0.4048  0.0725  0.1316
26886WAT      O 9348   4.513   7.186   4.294 -0.1527 -0.2727  0.1475
26886WAT     H1 9349   4.512   7.282   4.298 -0.4823 -0.3294  2.7467
26886WAT     H2 9350   4.600   7.165   4.258 -0.0571  0.9809 -0.4038
26886WAT    EPW 9351   4.525   7.196   4.290 -0.1836 -0.1147  0.4177
26887WAT      O 9352   3.436   8.529   1.391 -0.2865  0.3557  0.0536
26887WAT     H1 9353   3.506   8.499   1.333 -0.2151  0.0803  0.2770
26887WAT     H2 9354   3.453   8.623   1.402 -0.5754  0.5045 -0.7366
26887WAT    EPW 9355   3.448   8.537   1.385 -0.3152  0.3390 -0.0211
26888WAT      O 9356   5.642   0.258   1.772 -0.4503  0.5453  0.3124
26888WAT     H1 9357   5.561   0.245   1.723 -0.1413 -0.4537  0.0423
26888WAT     H2 9358   5.696   0.182   1.750  0.6731  1.3227  0.2662
26888WAT    EPW 9359   5.638   0.246   1.763 -0.2618  0.5161  0.2707
26889WAT      O 9360   9.726   0.219   3.511 -0.2338 -0.4664  0.0931
26889WAT     H1 9361   9.663   0.234   3.440 -0.9453 -0.1281  0.7817
26889WAT     H2 9362   9.720   0.298   3.565 -2.7511 -2.2763  2.8217
26889WAT    EPW 9363   9.717   0.231   3.509 -0.6595 -0.6605  0.5437
26890WAT      O 9364   6.960   0.322   1.724 -0.5199 -0.0664 -0.2405
26890WAT     H1 9365   6.881   0.285   1.764 -0.5325  0.3832  0.1603
26890WAT     H2 9366   7.030   0.261   1.749 -0.7236 -0.4221 -0.5312
26890WAT    EPW 9367   6.959   0.309   1.733 -0.5484 -0.0540 -0.2260
26891WAT      O 9368   1.639   9.673   4.446  0.2256 -0.3288  0.3197
26891WAT     H1 9369   1.582   9.727   4.502  1.9831 -1.5456  3.5796
26891WAT     H2 9370   1.717   9.727   4.433  0.3996 -0.5914  0.2684
26891WAT    EPW 9371   1.642   9.687   4.452  0.4804 -0.5236  0.7427
26892WAT      O 9372   2.419   8.485   0.759 -0.2000 -0.5568 -0.1088
26892WAT     H1 9373   2.440   8.502   0.851 -0.4792 -1.3255  0.1032
26892WAT     H2 9374   2.383   8.568   0.728  0.7526 -0.0058  0.2136
26892WAT    EPW 9375   2.417   8.498   0.767 -0.1112 -0.5856 -0.0383
26893WAT      O 9376   2.699   7.330   2.378  0.3011 -0.9144 -0.3822
26893WAT     H1 9377   2.620   7.320   2.432  0.3925 -0.4409 -0.1605
26893WAT     H2 9378   2.726   7.420   2.391 -1.0511 -0.0070 -3.1529
26893WAT    EPW 9379   2.692   7.340   2.387  0.1347 -0.7324 -0.7185
26894WAT      O 9380   3.159   8.381   4.823  0.0469 -0.1178 -0.1354
26894WAT     H1 9381   3.115   8.459   4.791  1.3364  0.8040  0.2219
26894WAT     H2 9382   3.167   8.324   4.747 -0.2376  0.4355 -0.5843
26894WAT    EPW 9383   3.154   8.384   4.809  0.1794  0.0768 -0.1476
26895WAT      O 9384   1.259   6.870   5.761 -0.0697 -1.1425 -0.5904
26895WAT     H1 9385   1.304   6.825   5.833  0.1765 -0.7941 -0.5248
26895WAT     H2 9386   1.273   6.963   5.779 -3.3047 -0.8415  1.0757
26895WAT    EPW 9387   1.267   6.876   5.773 -0.4640 -1.0569 -0.3617
26896WAT      O 9388   6.596   2.115   4.751 -0.2426 -0.2601 -0.6013
26896WAT     H1 9389   6.682   2.087   4.782 -0.7725 -2.3754 -0.8551
26896WAT     H2 9390   6.571   2.049   4.686 -3.8410 -2.3182  2.4227
26896WAT    EPW 9391   6.604   2.103   4.746 -0.7873 -0.8106 -0.2358
26897WAT      O 9392   6.528   3.134   3.757  0.0279 -0.0921  0.5698
26897WAT     H1 9393   6.530   3.162   3.665  0.8524  3.2438  1.5064
26897WAT     H2 9394   6.614   3.155   3.791 -1.2715  1.8699  2.9122
26897WAT    EPW 9395   6.539   3.140   3.749 -0.0348  0.6067  1.0023
26898WAT      O 9396   5.734   9.913   2.670  0.1800 -0.5324 -0.2789
26898WAT     H1 9397   5.711   9.943   2.758  1.0132 -1.5871  0.3117
26898WAT     H2 9398   5.753   9.820   2.680  1.5198 -0.4030 -1.3287
26898WAT    EPW 9399   5.733   9.905   2.683  0.4668 -0.6537 -0.3395
26899WAT      O 9400   5.826   1.165   6.902  0.0912  0.5733 -0.1956
26899WAT     H1 9401   5.808   1.222   6.977  1.6537 -0.1745  0.7847
26899WAT     H2 9402   5.772   1.088   6.917  0.6386  0.2891  0.3333
26899WAT    EPW 9403   5.817   1.163   6.914  0.3695  0.4371  0.0036
26900WAT      O 9404   4.859   7.996   2.412 -0.3806  0.5841  0.3581
26900WAT     H1 9405   4.851   8.078   2.461 -1.4135  0.5351  0.3061
26900WAT     H2 9406   4.910   8.019   2.335  0.4493  0.8732  0.9812
26900WAT    EPW 9407   4.865   8.010   2.408 -0.4075  0.6161  0.4333
26901WAT      O 9408  10.614   1.524   6.225 -0.2088  0.0602 -0.3046
26901WAT     H1 9409  10.661   1.442   6.241  0.1381  0.8026  3.1648
26901WAT     H2 9410  10.522   1.501   6.228 -0.1163 -0.1839  0.9948
26901WAT    EPW 9411  10.608   1.510   6.227 -0.1512  0.1259  0.3245
26902WAT      O 9412   9.587   1.529   5.126  1.0731  0.0139 -0.8469
26902WAT     H1 9413   9.553   1.606   5.081  1.2718 -0.1556 -1.2910
26902WAT     H2 9414   9.512   1.496   5.176  1.2733  1.1218  0.2310
26902WAT    EPW 9415   9.573   1.535   5.127  1.1258  0.1377 -0.7632
26903WAT      O 9416   4.213   7.114   3.305  0.0573 -0.1367 -0.4106
26903WAT     H1 9417   4.126   7.141   3.274 -0.5715 -2.0986 -0.4827
26903WAT     H2 9418   4.237   7.181   3.369 -0.1754  2.0700 -2.4835
26903WAT    EPW 9419   4.205   7.126   3.309 -0.0560 -0.1044 -0.6936
26904WAT      O 9420   8.558   6.669   8.673  1.1550  0.5097  0.3432
26904WAT     H1 9421   8.589   6.759   8.661  1.3218  0.4661  0.4493
26904WAT     H2 9422   8.631   6.614   8.644  1.5117  0.3993  1.3861
26904WAT    EPW 9423   8.572   6.673   8.668  1.2240  0.4895  0.4945
26905WAT      O 9424   2.290   9.898   4.140 -0.4812 -0.3968 -0.0279
26905WAT     H1 9425   2.330   9.831   4.196  0.4881  1.0167  1.0716
26905WAT     H2 9426   2.330   9.885   4.054  1.7111  0.3439  0.8079
26905WAT    EPW 9427   2.301   9.887   4.136 -0.0641 -0.1130  0.2275
26906WAT      O 9428   5.378   9.209   1.595 -0.2625 -0.4158  0.6888
26906WAT     H1 9429   5.312   9.226   1.528 -0.9192 -1.9497  0.8943
26906WAT     H2 9430   5.401   9.117   1.584 -0.8618 -0.9173  2.9474
26906WAT    EPW 9431   5.373   9.199   1.585 -0.4284 -0.6843  1.0138
26907WAT      O 9432   8.011   3.121   6.409 -0.3225 -0.3684 -0.1299
26907WAT     H1 9433   7.981   3.121   6.500 -0.1605 -0.8766 -0.0741
26907WAT     H2 9434   8.106   3.108   6.414 -0.4621 -1.6454 -0.4043
26907WAT    EPW 9435   8.020   3.119   6.421 -0.3195 -0.6040 -0.1588
26908WAT      O 9436   4.858   7.486   2.538  0.0598  0.6375  0.2767
26908WAT     H1 9437   4.861   7.447   2.625  2.3870 -0.1816 -0.1209
26908WAT     H2 9438   4.949   7.492   2.510 -0.6363 -0.1702 -2.5687
26908WAT    EPW 9439   4.870   7.482   2.545  0.2749  0.4227 -0.1509
26909WAT      O 9440   7.361   0.788   8.536 -0.5441 -0.4058 -0.0745
26909WAT     H1 9441   7.266   0.777   8.549 -0.5460  0.5531  1.0020
26909WAT     H2 9442   7.399   0.768   8.622  0.2795 -1.1997 -0.6138
26909WAT    EPW 9443   7.353   0.784   8.549 -0.4358 -0.3840 -0.0038
26910WAT      O 9444   7.824   0.089   4.562  0.2014  0.6807 -0.2680
26910WAT     H1 9445   7.864   0.162   4.516 -1.0297  2.7191  1.7272
26910WAT     H2 9446   7.847   0.102   4.654 -0.2582 -1.3296  0.1779
26910WAT    EPW 9447   7.832   0.100   4.568 -0.0212  0.6844  0.0541
26911WAT      O 9448   0.381   1.625   8.038 -0.3132 -0.0550  0.2611
26911WAT     H1 9449   0.304   1.679   8.021 -2.0579 -2.5301 -0.3118
26911WAT     H2 9450   0.404   1.644   8.129  1.0562  3.7289 -0.7058
26911WAT    EPW 9451   0.374   1.634   8.048 -0.3627  0.1176  0.0582
26912WAT      O 9452   4.896  10.016   2.098 -0.4234  0.1640  0.2036
26912WAT     H1 9453   4.850   9.977   2.024 -0.3337  2.4598 -1.1698
26912WAT     H2 9454   4.850  10.098   2.115  1.9554  1.6552 -0.0225
26912WAT    EPW 9455   4.884  10.022   2.090 -0.0975  0.6633 -0.0073
26913WAT      O 9456   0.305   4.644   8.652  0.0558 -0.0986  0.0943
26913WAT     H1 9457   0.216   4.675   8.636 -0.3592 -0.7594  1.0422
26913WAT     H2 9458   0.359   4.723   8.650 -0.8948  0.6623  1.9410
26913WAT    EPW 9459   0.300   4.658   8.650 -0.1244 -0.0856  0.4630
26914WAT      O 9460   4.228  10.243   2.188  0.2216 -0.5088 -0.4591
26914WAT     H1 9461   4.297  10.186   2.221  0.2449  0.6200  1.6069
26914WAT     H2 9462   4.271  10.327   2.174 -0.2869 -0.3752 -1.3373
26914WAT    EPW 9463   4.242  10.247   2.190  0.1576 -0.3424 -0.3023
26915WAT      O 9464   4.033   6.217   4.850  0.6180  0.3399 -0.0511
26915WAT     H1 9465   4.062   6.145   4.794 -3.0311 -0.5176 -1.1106
26915WAT     H2 9466   4.026   6.179   4.938  0.0322 -0.2463 -0.3438
26915WAT    EPW 9467   4.036   6.203   4.854  0.0591  0.1497 -0.2296
26916WAT      O 9468   2.655   9.749   5.301 -0.8373  0.1414  0.0959
26916WAT     H1 9469   2.667   9.656   5.283 -3.2547 -0.0173 -1.1769
26916WAT     H2 9470   2.667   9.792   5.216 -1.6067  0.7346  0.2702
26916WAT    EPW 9471   2.658   9.742   5.287 -1.2575  0.1988 -0.0489
26917WAT      O 9472   8.549   0.323   6.263 -0.2805  0.2431  0.5791
26917WAT     H1 9473   8.514   0.341   6.350 -2.9723 -0.4414 -0.2746
26917WAT     H2 9474   8.520   0.397   6.210  0.8344  0.3557  0.0940
26917WAT    EPW 9475   8.541   0.335   6.268 -0.4883  0.1677  0.4022
26918WAT      O 9476   5.147   8.702   6.998  0.0984 -0.1655 -0.3560
26918WAT     H1 9477   5.230   8.700   6.951 -0.0308  0.1525 -0.6061
26918WAT     H2 9478   5.117   8.611   6.998  0.9106 -0.4519  0.5845
26918WAT    EPW 9479   5.154   8.690   6.992  0.1886 -0.1612 -0.2649
26919WAT      O 9480  10.631   1.898   3.504 -0.6300  0.1372  0.4353
26919WAT     H1 9481  10.552   1.926   3.458 -1.7586 -1.1554  1.4992
26919WAT     H2 9482  10.599   1.856   3.584  1.2154  1.1820  1.8103
26919WAT    EPW 9483  10.617   1.896   3.508 -0.5350  0.1045  0.7570
26920WAT      O 9484   7.270   9.726   2.421  0.1716 -0.1202 -0.4156
26920WAT     H1 9485   7.181   9.748   2.449  0.4282 -0.4421  0.7214
26920WAT     H2 9486   7.326   9.779   2.477  0.7293 -1.2658  0.1490
26920WAT    EPW 9487   7.266   9.736   2.432  0.2789 -0.3142 -0.1912
26921WAT      O 9488   3.648   8.205   4.517 -0.0725  0.2620  0.2453
26921WAT     H1 9489   3.566   8.253   4.523 -0.5497 -0.3213 -1.2384
26921WAT     H2 9490   3.716   8.273   4.517 -0.6422  0.8421 -0.2038
26921WAT    EPW 9491   3.646   8.220   4.518 -0.2106  0.2613 -0.0095
26922WAT      O 9492   3.752   7.964   6.924 -0.7439 -0.3691  0.1891
26922WAT     H1 9493   3.782   7.958   6.833 -1.5788 -0.8360 -0.0623
26922WAT     H2 9494   3.699   7.886   6.936 -2.4036  0.7568  0.4206
26922WAT    EPW 9495   3.749   7.953   6.913 -1.0729 -0.2820  0.1867
26923WAT      O 9496   4.591   1.187   5.776  0.1380 -0.3097 -0.4622
26923WAT     H1 9497   4.506   1.207   5.814 -0.7291 -2.9469 -0.7842
26923WAT     H2 9498   4.643   1.156   5.850 -0.1102 -1.2588 -0.6657
26923WAT    EPW 9499   4.587   1.185   5.791 -0.0093 -0.7827 -0.5314
26924WAT      O 9500   1.991  10.152   1.167 -0.1119 -0.4861  0.0781
26924WAT     H1 9501   2.029  10.205   1.237 -0.2932  1.1878 -1.0280
26924WAT     H2 9502   1.920  10.206   1.132  0.0186 -1.2366 -1.4431
26924WAT    EPW 9503   1.986  10.166   1.172 -0.1187 -0.3643 -0.2685
26925WAT      O 9504   2.660   7.178   2.056  0.6183 -0.7327  0.0266
26925WAT     H1 9505   2.735   7.161   2.000  0.1865  1.3744 -1.3063
26925WAT     H2 9506   2.667   7.113   2.126  1.6543 -2.9032 -1.9579
26925WAT    EPW 9507   2.671   7.167   2.058  0.6981 -0.7410 -0.4108
26926WAT      O 9508   7.517   1.899   1.258  0.2470  0.3078  0.0996
26926WAT     H1 9509   7.422   1.908   1.266  0.3942  2.5750 -0.1133
26926WAT     H2 9510   7.530   1.812   1.222 -1.9233  0.9231 -2.4122
26926WAT    EPW 9511   7.506   1.889   1.255 -0.0198  0.6880 -0.2598
26927WAT      O 9512   5.158  10.286   1.729 -0.2109  0.5191 -0.0564
26927WAT     H1 9513   5.214  10.353   1.688 -0.3804  1.0703  0.5840
26927WAT     H2 9514   5.213  10.249   1.798  0.3331 -0.9168 -1.2045
26927WAT    EPW 9515   5.173  10.290   1.733 -0.1616  0.4029 -0.1234
26928WAT      O 9516   7.537   4.189   8.735 -0.0092 -0.1366  0.1904
26928WAT     H1 9517   7.495   4.269   8.703  1.6990  0.3204 -1.0258
26928WAT     H2 9518   7.465   4.127   8.746 -1.1780  1.0875 -0.3135
26928WAT    EPW 9519   7.522   4.192   8.732  0.0620  0.0851 -0.0367
26929WAT      O 9520   8.034   3.319   8.179  0.4924  0.7602 -0.1826
26929WAT     H1 9521   8.025   3.282   8.267 -1.8520  3.6077  0.9687
26929WAT     H2 9522   8.126   3.307   8.157  1.0972 -0.3267  2.5422
26929WAT    EPW 9523   8.045   3.313   8.188  0.2632  0.9925  0.3290
26930WAT      O 9524   6.266   9.221   4.765  0.3173 -0.4731  0.5377
26930WAT     H1 9525   6.232   9.249   4.850 -2.6033  3.1898 -1.5391
26930WAT     H2 9526   6.235   9.131   4.755 -2.3506  0.1914  1.9690
26930WAT    EPW 9527   6.258   9.212   4.775 -0.4199  0.0982  0.4525
26931WAT      O 9528   6.181   0.293   3.379  0.4808 -0.4996 -0.1894
26931WAT     H1 9529   6.160   0.241   3.456  2.1944 -2.5635 -1.0373
26931WAT     H2 9530   6.120   0.367   3.384 -3.2997 -3.2901  0.2441
26931WAT    EPW 9531   6.170   0.296   3.390  0.2081 -1.1399 -0.2440
26932WAT      O 9532   4.489   8.617   5.157 -0.1575  0.4196 -0.3178
26932WAT     H1 9533   4.435   8.563   5.215 -1.9931  1.4928 -0.9456
26932WAT     H2 9534   4.434   8.631   5.079  1.7939 -0.0415 -1.8723
26932WAT    EPW 9535   4.474   8.612   5.154 -0.1421  0.4997 -0.6056
26933WAT      O 9536   6.385   8.333   5.802 -0.4383  0.0153  0.0124
26933WAT     H1 9537   6.395   8.426   5.782  0.9743  0.1192  1.0316
26933WAT     H2 9538   6.290   8.320   5.810 -0.9665  0.5613 -3.6040
26933WAT    EPW 9539   6.374   8.343   5.801 -0.3219  0.1011 -0.3302
26934WAT      O 9540   8.363   1.118   6.666 -0.0525 -0.4539 -0.3323
26934WAT     H1 9541   8.277   1.153   6.689 -0.2022 -0.2616 -1.1401
26934WAT     H2 9542   8.357   1.024   6.685  0.3382 -0.0827  1.8122
26934WAT    EPW 9543   8.351   1.110   6.671 -0.0205 -0.3796 -0.1559
26935WAT      O 9544   6.699   0.095   1.293  0.1744 -0.2914  0.7801
26935WAT     H1 9545   6.748   0.093   1.375  3.5492  1.1118 -0.9898
26935WAT     H2 9546   6.668   0.186   1.287  2.7924  0.6053 -0.8471
26935WAT    EPW 9547   6.702   0.107   1.303  0.9646  0.0120  0.3321
26936WAT      O 9548   8.347   4.174   2.678 -0.4138  0.3912  0.4523
26936WAT     H1 9549   8.438   4.196   2.659 -0.2126  0.0346  0.9793
26936WAT     H2 9550   8.296   4.221   2.611  0.0419  1.8347  1.0947
26936WAT    EPW 9551   8.352   4.183   2.666 -0.3271  0.5348  0.6065
26937WAT      O 9552   6.766   0.518   2.864  0.5164 -0.0783 -0.0688
26937WAT     H1 9553   6.689   0.544   2.814  1.4144 -0.3041 -1.6701
26937WAT     H2 9554   6.801   0.443   2.815  2.9411  1.3541 -0.6850
26937WAT    EPW 9555   6.761   0.511   2.851  0.9546  0.0809 -0.3614
26938WAT      O 9556   7.159   0.867   1.303 -0.0384 -0.0648 -0.2696
26938WAT     H1 9557   7.095   0.859   1.374 -0.1052 -0.5498 -0.3779
26938WAT     H2 9558   7.210   0.786   1.308 -1.0326 -0.8469 -1.7214
26938WAT    EPW 9559   7.157   0.855   1.313 -0.1783 -0.2319 -0.4753
26939WAT      O 9560   2.483   9.752   5.532 -0.0493  0.3818  0.6216
26939WAT     H1 9561   2.525   9.718   5.452 -0.6101  0.6467  0.2055
26939WAT     H2 9562   2.501   9.686   5.598 -2.2902 -1.4924 -0.4775
26939WAT    EPW 9563   2.491   9.739   5.530 -0.4188  0.1698  0.4218
26940WAT      O 9564   3.930   4.902   4.282 -0.3179 -0.4689  0.0767
26940WAT     H1 9565   3.912   4.969   4.215 -0.9474 -0.3332  0.3810
26940WAT     H2 9566   3.996   4.943   4.339 -0.9285  0.0130  0.4414
26940WAT    EPW 9567   3.937   4.916   4.280 -0.4814 -0.3874  0.1650
26941WAT      O 9568   2.396   6.196   3.809  0.1529 -0.1525 -0.1851
26941WAT     H1 9569   2.354   6.111   3.797  0.2070 -0.1260 -0.5680
26941WAT     H2 9570   2.432   6.193   3.898 -2.3102  0.5268  0.9391
26941WAT    EPW 9571   2.395   6.184   3.819 -0.1649 -0.0594 -0.0873
26942WAT      O 9572   6.344   2.773   1.694  0.3029 -0.4040 -0.5944
26942WAT     H1 9573   6.279   2.764   1.623 -2.2305 -1.4304  1.6743
26942WAT     H2 9574   6.292   2.802   1.770  2.8311  0.2783  0.9827
26942WAT    EPW 9575   6.328   2.776   1.694  0.3021 -0.4493 -0.0871
26943WAT      O 9576   6.714   9.054   3.918  0.5208 -0.0823  0.2247
26943WAT     H1 9577   6.768   8.984   3.955 -0.3325  0.1721  2.0872
26943WAT     H2 9578   6.626   9.036   3.951  0.0196  1.1087 -0.3962
26943WAT    EPW 9579   6.709   9.042   3.927  0.3419  0.1082  0.3884
26944WAT      O 9580   1.626   8.211   2.470 -0.5270  0.1215 -0.1156
26944WAT     H1 9581   1.544   8.244   2.433 -0.0224  0.7618 -0.7078
26944WAT     H2 9582   1.667   8.163   2.399  0.4985  1.4417 -0.4618
26944WAT    EPW 9583   1.621   8.209   2.456 -0.3251  0.3800 -0.2393
26945WAT      O 9584   5.526   0.140   3.109 -0.5151 -0.1017  0.2075
26945WAT     H1 9585   5.540   0.166   3.200  0.1959  3.2260 -0.7238
26945WAT     H2 9586   5.555   0.216   3.058 -0.7225 -1.9152 -2.8256
26945WAT    EPW 9587   5.532   0.153   3.114 -0.4487  0.0980 -0.3154
26946WAT      O 9588   0.728   5.273   8.949  0.4974 -0.9130 -0.2289
26946WAT     H1 9589   0.732   5.326   8.870 -1.6711  0.4276  0.4785
26946WAT     H2 9590   0.706   5.335   9.019  1.1171 -2.2520  1.2099
26946WAT    EPW 9591   0.725   5.288   8.948  0.2937 -0.9129  0.0542
26947WAT      O 9592   3.995   8.268   0.409 -0.5309  0.1892 -0.4073
26947WAT     H1 9593   4.066   8.329   0.388 -0.5197 -0.2639 -1.7608
26947WAT     H2 9594   3.915   8.316   0.387 -0.6696  0.6343  0.9509
26947WAT    EPW 9595   3.994   8.283   0.404 -0.5475  0.1879 -0.4067
26948WAT      O 9596   5.518   6.286   3.217  0.5607 -0.3141 -0.6763
26948WAT     H1 9597   5.489   6.339   3.292 -2.3632 -1.8976 -0.5345
26948WAT     H2 9598   5.560   6.210   3.257 -1.0306 -1.1761 -0.5867
26948WAT    EPW 9599   5.520   6.283   3.232 -0.0348 -0.6366 -0.6458
26949WAT      O 9600   5.534   8.186   2.949 -1.2551  0.5943  0.1755
26949WAT     H1 9601   5.529   8.105   2.899  4.1033  0.6272 -1.0442
26949WAT     H2 9602   5.536   8.255   2.882 -0.2862  1.2007  0.8096
26949WAT    EPW 9603   5.533   8.185   2.933 -0.4206  0.6785  0.0982
26950WAT      O 9604   6.104   0.456   4.373  0.0159 -0.2103 -0.2373
26950WAT     H1 9605   6.028   0.448   4.315 -0.4046  1.5221  0.0161
26950WAT     H2 9606   6.108   0.550   4.394  2.9251 -0.0131 -1.1965
26950WAT    EPW 9607   6.095   0.468   4.368  0.3438  0.0442 -0.3304
26951WAT      O 9608   0.561   3.246   3.950 -0.7088 -0.3445  0.2125
26951WAT     H1 9609   0.600   3.175   4.001 -0.0707 -1.2682 -1.4593
26951WAT     H2 9610   0.554   3.210   3.861  2.5851  2.6415 -1.5320
26951WAT    EPW 9611   0.565   3.232   3.945 -0.1902 -0.0725 -0.2381
26952WAT      O 9612   3.080   9.334   6.836 -0.0459 -0.2299 -0.1205
26952WAT     H1 9613   3.032   9.414   6.852  0.1857  0.2667 -1.7492
26952WAT     H2 9614   3.048   9.272   6.902  0.8739  1.6061  2.1793
26952WAT    EPW 9615   3.070   9.336   6.847  0.1059  0.0782 -0.0319
26953WAT      O 9616   3.253   4.467   4.687  0.1818  0.7017  0.1902
26953WAT     H1 9617   3.230   4.537   4.626  0.9404  1.8087  1.1369
26953WAT     H2 9618   3.264   4.390   4.631 -0.0815  1.4646 -0.9480
26953WAT    EPW 9619   3.252   4.466   4.671  0.2471  0.9484  0.1650
26954WAT      O 9620   5.644   0.347   4.234 -0.1543 -0.6810 -0.7314
26954WAT     H1 9621   5.651   0.304   4.149 -0.8697 -1.5647 -0.3549
26954WAT     H2 9622   5.612   0.435   4.214 -0.2058 -0.8430 -1.3780
26954WAT    EPW 9623   5.641   0.353   4.220 -0.2553 -0.8189 -0.7668
26955WAT      O 9624   4.988   9.040   3.434 -0.3992 -0.2834 -0.4033
26955WAT     H1 9625   4.998   8.955   3.476 -1.3367  0.3801  1.2959
26955WAT     H2 9626   4.994   9.022   3.341  0.8223 -1.9886 -0.0318
26955WAT    EPW 9627   4.990   9.027   3.427 -0.3617 -0.4206 -0.1302
26956WAT      O 9628   7.970   2.632   4.137  0.0227 -0.5375 -0.3086
26956WAT     H1 9629   8.017   2.715   4.127 -0.1725 -0.4744 -0.7039
26956WAT     H2 9630   8.012   2.590   4.212 -0.2637  0.1752  0.2606
26956WAT    EPW 9631   7.982   2.637   4.146 -0.0410 -0.4351 -0.2854
26957WAT      O 9632   1.627   6.014   7.947  0.4824  0.1774  0.1108
26957WAT     H1 9633   1.587   5.972   7.871  1.1562 -2.2050  0.9555
26957WAT     H2 9634   1.555   6.027   8.008  0.5933 -2.5756  0.9732
26957WAT    EPW 9635   1.613   6.010   7.945  0.5859 -0.5000  0.3362
26958WAT      O 9636   2.680   8.549   1.623 -0.1236  0.1367 -0.3579
26958WAT     H1 9637   2.665   8.630   1.575  3.8317  1.5549  0.4165
26958WAT     H2 9638   2.655   8.570   1.714 -0.9116 -0.2014 -0.4866
26958WAT    EPW 9639   2.675   8.562   1.629  0.2942  0.2794 -0.2727
26959WAT      O 9640   5.159   8.904   1.775  0.1882  0.3414  0.1729
26959WAT     H1 9641   5.232   8.964   1.760 -1.0270  2.0283  0.6991
26959WAT     H2 9642   5.116   8.938   1.853 -1.4971 -0.2837 -0.4434
26959WAT    EPW 9643   5.163   8.916   1.783 -0.1943  0.4816  0.1610
26960WAT      O 9644   4.935   8.766   2.494 -0.1020  0.5005  0.0688
26960WAT     H1 9645   5.002   8.806   2.550  0.3684 -0.4545  0.2081
26960WAT     H2 9646   4.870   8.731   2.555 -0.9621  1.7793 -0.0764
26960WAT    EPW 9647   4.935   8.767   2.510 -0.1535  0.5431  0.0681
26961WAT      O 9648   2.624   5.280   1.746  0.0604  0.2424 -0.3094
26961WAT     H1 9649   2.577   5.199   1.765 -0.0211  0.7244  1.8530
26961WAT     H2 9650   2.601   5.338   1.819  2.1311  1.3002 -0.4324
26961WAT    EPW 9651   2.615   5.277   1.758  0.3227  0.4456 -0.0404
26962WAT      O 9652   7.688   1.442   4.897  0.4994 -0.2682  0.2177
26962WAT     H1 9653   7.671   1.369   4.957  1.9729  0.0640  1.1211
26962WAT     H2 9654   7.741   1.503   4.949  1.5149  0.2171 -1.3019
26962WAT    EPW 9655   7.693   1.440   4.912  0.8278 -0.1603  0.1364
26963WAT      O 9656   5.059   9.668   1.624  0.9961  0.1924  0.7397
26963WAT     H1 9657   5.154   9.671   1.609  0.7708  1.4564 -0.7833
26963WAT     H2 9658   5.021   9.692   1.540 -0.6900 -0.1333  1.3665
26963WAT    EPW 9659   5.067   9.672   1.611  0.7436  0.3161  0.6215
26964WAT      O 9660   5.130   8.759   3.280  0.4859 -0.1827 -0.0064
26964WAT     H1 9661   5.077   8.750   3.200 -0.1260 -3.1834  0.6035
26964WAT     H2 9662   5.220   8.757   3.249  0.2572 -1.1675 -0.6722
26964WAT    EPW 9663   5.135   8.757   3.265  0.3750 -0.7086 -0.0138
26965WAT      O 9664   7.086   5.925   6.978  0.0893 -0.3192  0.6518
26965WAT     H1 9665   7.177   5.955   6.972  0.0072  0.1552  1.6095
26965WAT     H2 9666   7.038   6.002   7.008 -0.5384 -0.7286  0.7033
26965WAT    EPW 9667   7.092   5.939   6.981 -0.0043 -0.3107  0.7846
26966WAT      O 9668   8.164   2.130   2.470 -0.4997 -0.0954 -0.5881
26966WAT     H1 9669   8.160   2.051   2.416 -2.3582  0.8385 -1.9132
26966WAT     H2 9670   8.095   2.117   2.535  0.6123 -0.4595  0.5688
26966WAT    EPW 9671   8.154   2.118   2.471 -0.5980 -0.0201 -0.6104
26967WAT      O 9672   4.205   4.812   3.452  0.4430  0.2829  0.0644
26967WAT     H1 9673   4.289   4.856   3.447  0.8895 -0.6334 -1.1297
26967WAT     H2 9674   4.207   4.765   3.535  0.6196  1.2040  0.5837
26967WAT    EPW 9675   4.216   4.811   3.462  0.5250  0.2832 -0.0246
26968WAT      O 9676   9.588   1.780   5.397  0.6490 -0.0671  0.6383
26968WAT     H1 9677   9.536   1.710   5.357  1.1932 -0.7241  1.0652
26968WAT     H2 9678   9.523   1.846   5.423  0.0425 -0.8351  1.0844
26968WAT    EPW 9679   9.573   1.780   5.395  0.6404 -0.2550  0.7534
26969WAT      O 9680   2.385   7.707   2.501 -0.2299 -0.2530  0.1152
26969WAT     H1 9681   2.411   7.795   2.529  1.8124 -0.6466 -0.4010
26969WAT     H2 9682   2.313   7.721   2.439  0.8817  1.1578 -0.9137
26969WAT    EPW 9683   2.379   7.720   2.497  0.1861 -0.1187 -0.0885
26970WAT      O 9684   6.238   1.321   1.641 -0.5863 -0.3853  0.6356
26970WAT     H1 9685   6.188   1.255   1.688 -1.1542  0.7985  1.7349
26970WAT     H2 9686   6.290   1.365   1.708 -0.4777  0.5135 -0.0135
26970WAT    EPW 9687   6.238   1.318   1.656 -0.6468 -0.1106  0.6950
26971WAT      O 9688   7.865   8.996   4.811  0.2873 -0.5429  0.0236
26971WAT     H1 9689   7.815   8.993   4.729 -3.5480 -4.1424  2.1281
26971WAT     H2 9690   7.820   9.061   4.864 -0.5494 -1.8670  0.9848
26971WAT    EPW 9691   7.853   9.004   4.807 -0.3285 -1.1926  0.4280
26972WAT      O 9692   6.617   8.049   3.006 -0.7224 -1.0505  0.1030
26972WAT     H1 9693   6.542   8.084   3.055 -0.4472 -0.4730  0.1193
26972WAT     H2 9694   6.673   8.009   3.073 -0.7691 -1.0308  0.1545
26972WAT    EPW 9695   6.614   8.048   3.021 -0.6921 -0.9713  0.1119
26973WAT      O 9696   8.953   2.183   3.867  0.2119 -0.0956  1.1841
26973WAT     H1 9697   9.009   2.117   3.826  0.8159  1.0007  0.2007
26973WAT     H2 9698   8.943   2.251   3.800 -2.0819 -0.1147  1.4110
26973WAT    EPW 9699   8.959   2.183   3.852 -0.0110  0.0465  1.0843
26974WAT      O 9700   0.718   1.351   4.424 -0.4320  0.4325  0.2496
26974WAT     H1 9701   0.669   1.276   4.391  1.0531  0.3330 -1.9165
26974WAT     H2 9702   0.792   1.360   4.364  0.1910  2.7941  1.2506
26974WAT    EPW 9703   0.721   1.343   4.412 -0.1540  0.7308  0.0961
26975WAT      O 9704   3.855  10.243   3.938 -0.4956  0.2543  0.1549
26975WAT     H1 9705   3.830  10.249   3.846 -0.3460  1.0930  0.1611
26975WAT     H2 9706   3.852  10.333   3.970  0.0045  0.0470  0.8239
26975WAT    EPW 9707   3.852  10.255   3.930 -0.4100  0.3376  0.2439
26976WAT      O 9708   2.004   5.656   4.076  0.2155  0.0171  0.4358
26976WAT     H1 9709   2.000   5.561   4.074  0.0442  0.0247  0.4512
26976WAT     H2 9710   1.945   5.681   4.147  0.9799  0.0860  1.0621
26976WAT    EPW 9711   1.996   5.647   4.085  0.2936  0.0269  0.5202
26977WAT      O 9712   3.697  10.357   2.807 -0.2717  0.2269 -0.2630
26977WAT     H1 9713   3.768  10.336   2.748 -0.4199  0.9585 -0.7226
26977WAT     H2 9714   3.717  10.445   2.839  0.8065 -0.8444  2.2949
26977WAT    EPW 9715   3.709  10.366   2.804 -0.1491  0.1822  0.0137
26978WAT      O 9716   1.413   7.843   4.403 -0.0423 -0.6003  0.1128
26978WAT     H1 9717   1.419   7.769   4.343 -1.5064 -1.2182  0.6670
26978WAT     H2 9718   1.495   7.840   4.453  0.5682 -0.9233 -0.8810
26978WAT    EPW 9719   1.425   7.833   4.402 -0.1549 -0.7246  0.0546
26979WAT      O 9720   0.969   4.150   2.108 -0.2608 -0.6447 -0.3351
26979WAT     H1 9721   0.984   4.243   2.123  2.1785 -0.8355 -1.2176
26979WAT     H2 9722   0.913   4.147   2.031 -0.4620  0.0711 -0.2255
26979WAT    EPW 9723   0.963   4.162   2.100  0.0344 -0.5755 -0.4369
26980WAT      O 9724   4.481   6.748   3.563 -0.3097 -0.8299 -0.0159
26980WAT     H1 9725   4.521   6.815   3.507  1.2747 -2.1390 -0.5111
26980WAT     H2 9726   4.432   6.799   3.628  3.4329  1.0445  1.6428
26980WAT    EPW 9727   4.479   6.764   3.564  0.3929 -0.7555  0.1377
26981WAT      O 9728   0.710   9.307   1.343  0.5108  0.1757  0.2076
26981WAT     H1 9729   0.795   9.349   1.331  0.2463  1.0126  1.1628
26981WAT     H2 9730   0.647   9.371   1.311  0.0872  0.6402  1.8755
26981WAT    EPW 9731   0.713   9.321   1.337  0.4200  0.3481  0.5535
26982WAT      O 9732   4.336   8.114   3.617 -0.6594  0.0266  0.3697
26982WAT     H1 9733   4.360   8.027   3.584  1.6755  0.4747  0.7503
26982WAT     H2 9734   4.353   8.110   3.711  3.1819  1.9131 -0.0663
26982WAT    EPW 9735   4.341   8.102   3.625  0.1552  0.3347  0.3624
26983WAT      O 9736   8.870   1.763   4.032  0.2589  0.0902  0.4136
26983WAT     H1 9737   8.830   1.848   4.017  2.2195  0.8831 -0.6161
26983WAT     H2 9738   8.843   1.710   3.958  0.5812  0.4159  0.0619
26983WAT    EPW 9739   8.862   1.767   4.021  0.5598  0.2377  0.2315
26984WAT      O 9740   3.753   7.770   4.034 -0.5347 -0.2433 -0.2215
26984WAT     H1 9741   3.705   7.810   3.962 -0.8072 -1.5714 -0.7941
26984WAT     H2 9742   3.690   7.711   4.076  0.1110 -0.7694  0.0380
26984WAT    EPW 9743   3.739   7.767   4.030 -0.4853 -0.4878 -0.2627
26985WAT      O 9744   6.311   1.902   5.976 -0.0831 -0.1992  0.2286
26985WAT     H1 9745   6.401   1.878   5.954  0.2333 -0.3875  1.6537
26985WAT     H2 9746   6.317   1.994   6.001 -0.4546  0.0379 -0.5208
26985WAT    EPW 9747   6.324   1.911   5.976 -0.0904 -0.1929  0.3181
26986WAT      O 9748   7.217   0.151   7.276 -0.4702  0.1197  0.3604
26986WAT     H1 9749   7.152   0.200   7.225  0.8593  0.4666 -1.0973
26986WAT     H2 9750   7.229   0.069   7.228  2.2238  1.2451 -1.1587
26986WAT    EPW 9751   7.210   0.147   7.263  0.0603  0.3139 -0.0322
26987WAT      O 9752   6.159   0.506   1.539 -0.3080  0.0323  0.5238
26987WAT     H1 9753   6.218   0.525   1.612  1.3006 -1.2250 -0.3909
26987WAT     H2 9754   6.194   0.427   1.499 -0.9538  0.8274 -1.8108
26987WAT    EPW 9755   6.172   0.498   1.543 -0.1812 -0.0286  0.0952
26988WAT      O 9756   1.363   7.759   2.125  0.0372  0.0206 -0.5719
26988WAT     H1 9757   1.320   7.759   2.210 -1.3349 -0.9682 -1.2221
26988WAT     H2 9758   1.422   7.683   2.128  1.6688  1.2466  0.2372
26988WAT    EPW 9759   1.365   7.749   2.137  0.0715  0.0517 -0.5509
26989WAT      O 9760   8.434   2.878   7.964  0.2101  0.4061  0.0001
26989WAT     H1 9761   8.396   2.902   8.049  2.7079  0.6497  1.1347
26989WAT     H2 9762   8.470   2.791   7.978  3.5642  1.7080  0.3368
26989WAT    EPW 9763   8.434   2.870   7.977  0.9813  0.6100  0.1941
26990WAT      O 9764   5.156   1.157   4.814 -0.2911 -0.1168  0.3901
26990WAT     H1 9765   5.160   1.141   4.720 -2.2265 -0.8483  0.3768
26990WAT     H2 9766   5.247   1.157   4.843  0.2989 -0.6871 -1.3462
26990WAT    EPW 9767   5.168   1.155   4.805 -0.4687 -0.2885  0.1593
26991WAT      O 9768   1.653  10.223   4.135  0.5521 -0.3171  0.0637
26991WAT     H1 9769   1.567  10.260   4.154  1.1133  1.4469 -0.6924
26991WAT     H2 9770   1.665  10.156   4.203 -0.8240  0.3719  1.0403
26991WAT    EPW 9771   1.643  10.219   4.147  0.4446  0.0067  0.0930
26992WAT      O 9772   5.513   7.916   2.851 -0.2836 -0.2022 -0.2348
26992WAT     H1 9773   5.528   7.879   2.764 -2.6494 -1.7938 -0.0741
26992WAT     H2 9774   5.420   7.939   2.851 -0.5455 -1.0127  2.1350
26992WAT    EPW 9775   5.503   7.914   2.839 -0.6301 -0.5188  0.0989
26993WAT      O 9776   4.134   9.903   4.277  0.4421  0.6717  1.0820
26993WAT     H1 9777   4.078   9.928   4.204 -0.4725  0.3324  1.6465
26993WAT     H2 9778   4.205   9.968   4.276 -0.1147  1.2916  0.5266
26993WAT    EPW 9779   4.136   9.915   4.267  0.2480  0.7091  1.0831
26994WAT      O 9780   4.224   9.452   4.012 -0.2111 -0.3019  0.5401
26994WAT     H1 9781   4.298   9.486   3.961 -2.6281  3.7222 -0.7784
26994WAT     H2 9782   4.234   9.493   4.098  0.2674 -1.6547  1.1547
26994WAT    EPW 9783   4.235   9.462   4.017 -0.4666  0.0510  0.4475
26995WAT      O 9784   7.798   0.649   4.350  0.4832 -0.6121 -0.4996
26995WAT     H1 9785   7.888   0.682   4.346 -0.1678  1.3511 -0.1083
26995WAT     H2 9786   7.743   0.728   4.347 -1.2434 -1.7737 -0.9672
26995WAT    EPW 9787   7.803   0.664   4.349  0.1698 -0.5064 -0.5095
26996WAT      O 9788   3.840   9.931   2.822 -0.0026  0.7713 -0.1203
26996WAT     H1 9789   3.753   9.893   2.810  0.1730 -0.1715  1.3823
26996WAT     H2 9790   3.829   9.994   2.893  0.5832  0.5021  0.2107
26996WAT    EPW 9791   3.827   9.934   2.829  0.0979  0.6118  0.1216
26997WAT      O 9792   7.186   1.081   5.251  0.1980 -0.0288  0.7887
26997WAT     H1 9793   7.104   1.031   5.253 -0.9026  1.6941  1.3874
26997WAT     H2 9794   7.211   1.082   5.159  0.6952 -2.2795  0.8414
26997WAT    EPW 9795   7.178   1.075   5.239  0.1185 -0.0985  0.8743
26998WAT      O 9796   3.360   7.563   8.003  0.3104 -0.9468 -0.4553
26998WAT     H1 9797   3.330   7.520   8.084  1.4536  3.5249  2.7670
26998WAT     H2 9798   3.286   7.556   7.943 -2.4716 -0.7818  2.6637
26998WAT    EPW 9799   3.346   7.557   8.006  0.0943 -0.3352  0.3815
26999WAT      O 9800   5.439   3.712   3.079  0.0403 -0.0207 -0.7354
26999WAT     H1 9801   5.359   3.676   3.116  1.1370 -1.2620  0.5505
26999WAT     H2 9802   5.450   3.666   2.995 -0.6775  0.3141 -1.0209
26999WAT    EPW 9803   5.430   3.701   3.073  0.0901 -0.1403 -0.6033
27000WAT      O 9804   7.360   1.211   1.171 -0.2182 -0.4821 -0.7658
27000WAT     H1 9805   7.374   1.116   1.173  0.6186 -0.3576  0.1630
27000WAT     H2 9806   7.432   1.245   1.119 -0.6685 -0.3623 -1.3254
27000WAT    EPW 9807   7.371   1.203   1.165 -0.1671 -0.4499 -0.7170
27001WAT      O 9808  10.069   4.346   7.305 -0.2671  0.0051 -0.6659
27001WAT     H1 9809  10.041   4.438   7.311  1.5354  0.7195 -2.1353
27001WAT     H2 9810  10.016   4.301   7.370 -0.8652  2.1630  0.4503
27001WAT    EPW 9811  10.058   4.352   7.314 -0.1082  0.3841 -0.7126
27002WAT      O 9812   3.557   7.981   4.944 -0.1265  0.0854  0.2162
27002WAT     H1 9813   3.593   7.984   4.855 -0.7039 -3.7193 -0.3543
27002WAT     H2 9814   3.579   7.893   4.975 -1.8522  0.5148  3.0246
27002WAT    EPW 9815   3.565   7.969   4.936 -0.4303 -0.3595  0.5114
27003WAT      O 9816   1.770  10.102   1.617 -0.0502  0.7646 -0.1936
27003WAT     H1 9817   1.827  10.041   1.663 -0.1908  1.5224  1.0310
27003WAT     H2 9818   1.805  10.105   1.528  0.8096 -0.0107  0.0973
27003WAT    EPW 9819   1.782  10.094   1.611  0.0446  0.7625  0.0063
27004WAT      O 9820   5.020   9.957   7.639 -0.5527 -0.6838  0.2549
27004WAT     H1 9821   4.951   9.923   7.583 -0.4908 -2.6943  1.3239
27004WAT     H2 9822   4.977  10.022   7.695 -0.4465  2.1043 -2.5853
27004WAT    EPW 9823   5.005   9.961   7.639 -0.5305 -0.5808  0.0212
27005WAT      O 9824   1.191   9.331   6.489  0.2608  1.1770 -0.0703
27005WAT     H1 9825   1.175   9.422   6.462 -0.0697  1.3741  0.7620
27005WAT     H2 9826   1.121   9.281   6.446 -1.9412  1.8436  2.4036
27005WAT    EPW 9827   1.179   9.336   6.480 -0.0733  1.2908  0.3660
27006WAT      O 9828   4.846   6.029   3.972  0.0837 -0.0429  0.2163
27006WAT     H1 9829   4.752   6.015   3.958 -0.2314  2.7924 -1.2500
27006WAT     H2 9830   4.886   6.004   3.889  0.7473 -1.6547  0.9799
27006WAT    EPW 9831   4.839   6.024   3.959  0.1297  0.1185  0.1237
27007WAT      O 9832   1.941   7.446   4.349 -0.6886  0.6543 -0.0542
27007WAT     H1 9833   1.977   7.470   4.435  1.6633 -1.3497 -0.3502
27007WAT     H2 9834   1.911   7.356   4.360  0.3137  0.1051 -1.4582
27007WAT    EPW 9835   1.942   7.437   4.362 -0.2462  0.3176 -0.2782
27008WAT      O 9836   4.202   8.953   4.609  0.4176 -0.2831 -0.0563
27008WAT     H1 9837   4.152   8.927   4.532 -0.3142  1.5764 -0.2852
27008WAT     H2 9838   4.136   8.992   4.667  1.6465  4.0402 -1.1519
27008WAT    EPW 9839   4.186   8.955   4.607  0.4835  0.5322 -0.2308
27009WAT      O 9840   3.474   9.225   1.054  0.3670  0.1091 -0.0738
27009WAT     H1 9841   3.468   9.156   0.988  0.2075 -0.7019  0.7644
27009WAT     H2 9842   3.388   9.225   1.097  0.7608  0.0021  0.7305
27009WAT    EPW 9843   3.462   9.216   1.051  0.3979 -0.0119  0.1429
27010WAT      O 9844   5.598   0.344   2.384  0.3019 -0.5875  0.2755
27010WAT     H1 9845   5.571   0.303   2.466 -0.5786  0.9175  0.7776
27010WAT     H2 9846   5.660   0.412   2.410 -1.1826  0.9887 -0.0624
27010WAT    EPW 9847   5.603   0.348   2.398 -0.0098 -0.1811  0.2972
27011WAT      O 9848   6.541   9.068   5.185 -0.0002  0.1545 -0.0590
27011WAT     H1 9849   6.507   9.050   5.098 -0.2147 -0.3079  0.1164
27011WAT     H2 9850   6.510   9.156   5.206 -0.7545 -0.1054 -0.0643
27011WAT    EPW 9851   6.533   9.077   5.176 -0.1280  0.0591 -0.0367
27012WAT      O 9852   2.279   8.495   3.799 -0.2778  0.0159  0.2646
27012WAT     H1 9853   2.325   8.557   3.856  0.8558 -1.0661  0.5746
27012WAT     H2 9854   2.265   8.418   3.855  2.5254 -1.8276 -1.2946
27012WAT    EPW 9855   2.284   8.493   3.814  0.2414 -0.3700  0.0998
27013WAT      O 9856   3.604   9.878   2.322  0.1256 -0.0102  0.3910
27013WAT     H1 9857   3.515   9.908   2.302  0.6740  0.5251 -1.4977
27013WAT     H2 9858   3.655   9.959   2.332 -0.0321 -0.2259  4.1310
27013WAT    EPW 9859   3.599   9.893   2.321  0.1773  0.0319  0.6353
27014WAT      O 9860   7.693   9.899   4.354  0.4066  0.0443  0.4722
27014WAT     H1 9861   7.674   9.842   4.428 -2.7075  0.8236  0.4033
27014WAT     H2 9862   7.764   9.955   4.385  2.0874 -2.3456  1.2907
27014WAT    EPW 9863   7.700   9.899   4.368  0.2177 -0.1678  0.5710
27015WAT      O 9864   3.787   9.445   4.963  0.2540 -0.3272  0.3569
27015WAT     H1 9865   3.736   9.495   4.899 -0.4291  0.1553  1.2540
27015WAT     H2 9866   3.725   9.381   4.998  0.3626  0.0275  1.2021
27015WAT    EPW 9867   3.772   9.443   4.959  0.1782 -0.2174  0.5867
27016WAT      O 9868   3.522   6.644   3.327 -0.5156  0.3059  0.6374
27016WAT     H1 9869   3.435   6.684   3.336  0.0197  1.8122 -0.4493
27016WAT     H2 9870   3.582   6.708   3.365  0.8026  2.6286 -4.4324
27016WAT    EPW 9871   3.518   6.658   3.333 -0.2712  0.8111 -0.1746
27017WAT      O 9872   3.796   0.654   2.464 -0.2321  0.3373 -0.1859
27017WAT     H1 9873   3.891   0.646   2.474 -0.1960 -1.2621 -1.4757
27017WAT     H2 9874   3.784   0.730   2.408  0.1625  1.4856  1.2020
27017WAT    EPW 9875   3.807   0.663   2.458 -0.1752  0.2778 -0.1729
27018WAT      O 9876   9.506   2.669   4.206  0.1746  0.1501  0.5092
27018WAT     H1 9877   9.450   2.725   4.259 -1.1099 -1.9413  1.5052
27018WAT     H2 9878   9.451   2.593   4.185  2.1256 -1.2679  0.2074
27018WAT    EPW 9879   9.491   2.666   4.211  0.2627 -0.3128  0.6008
27019WAT      O 9880   5.628   7.108   3.650  0.6524 -0.0353 -0.6857
27019WAT     H1 9881   5.624   7.093   3.555  1.8940  0.8839 -0.9099
27019WAT     H2 9882   5.719   7.131   3.667  0.2369  0.7994  0.5806
27019WAT    EPW 9883   5.639   7.109   3.640  0.7613  0.1960 -0.5482
27020WAT      O 9884   8.696   1.003   4.673  0.5317  0.6206  0.4598
27020WAT     H1 9885   8.766   1.056   4.711  0.8969  0.5080 -0.0606
27020WAT     H2 9886   8.737   0.957   4.600 -0.2805  1.2302 -0.4091
27020WAT    EPW 9887   8.710   1.004   4.668  0.4730  0.6861  0.2768
27021WAT      O 9888   4.728   9.603   1.012 -0.4050 -0.1836  0.1924
27021WAT     H1 9889   4.671   9.561   1.076 -0.2770 -0.9377 -0.1778
27021WAT     H2 9890   4.721   9.548   0.933  0.3350  0.0681 -0.0610
27021WAT    EPW 9891   4.720   9.590   1.010 -0.2906 -0.2499  0.1101
27022WAT      O 9892   3.983  10.132   4.702  0.1230  0.0616 -0.7565
27022WAT     H1 9893   4.020  10.186   4.632 -0.9504  0.4873 -1.0219
27022WAT     H2 9894   4.054  10.073   4.728  1.5420  1.9703 -0.0511
27022WAT    EPW 9895   3.997  10.131   4.696  0.1687  0.3691 -0.6981
27023WAT      O 9896   6.698   9.331   2.835  0.1255 -0.8816 -0.4113
27023WAT     H1 9897   6.625   9.391   2.854  0.1930 -1.1595  0.8536
27023WAT     H2 9898   6.660   9.244   2.846  0.3255 -1.0489 -1.0582
27023WAT    EPW 9899   6.683   9.327   2.839  0.1607 -0.9403 -0.3297
27024WAT      O 9900   8.158   9.254   4.407 -0.3238  0.3561 -0.1321
27024WAT     H1 9901   8.196   9.341   4.397 -0.2103  0.0993 -3.1317
27024WAT     H2 9902   8.217   9.208   4.465 -0.0618  2.0774  1.0266
27024WAT    EPW 9903   8.171   9.259   4.413 -0.2742  0.5493 -0.3750
27025WAT      O 9904   7.419   0.590   5.419 -0.0119  0.2104  0.0146
27025WAT     H1 9905   7.446   0.681   5.407 -1.6241  0.4904 -1.8651
27025WAT     H2 9906   7.430   0.550   5.333  0.1862 -1.2545  0.6907
27025WAT    EPW 9907   7.424   0.597   5.406 -0.1984  0.0541 -0.1442
27026WAT      O 9908   4.870  10.140   3.976  0.0700 -0.3037 -0.1579
27026WAT     H1 9909   4.811  10.122   3.903  1.4343 -2.4897 -0.8341
27026WAT     H2 9910   4.826  10.208   4.028 -1.3303  0.6960 -2.5219
27026WAT    EPW 9911   4.856  10.147   3.973  0.0651 -0.4606 -0.5589
27027WAT      O 9912  10.589   8.640   2.041  0.0280 -0.7883 -0.1512
27027WAT     H1 9913  10.656   8.691   1.995 -0.3287  0.8893  1.0835
27027WAT     H2 9914  10.533   8.606   1.972  1.0170 -0.5566 -1.0998
27027WAT    EPW 9915  10.591   8.643   2.026  0.1116 -0.5369 -0.1135
27028WAT      O 9916   9.417  10.300   2.673  0.4253  0.3483  0.5205
27028WAT     H1 9917   9.415  10.332   2.763  1.6651 -1.3028  1.1847
27028WAT     H2 9918   9.509  10.302   2.648  0.9489 -4.0337  1.2317
27028WAT    EPW 9919   9.428  10.304   2.681  0.6576 -0.4473  0.7019
27029WAT      O 9920   5.085  10.367   3.751  0.7958  0.0866 -0.1287
27029WAT     H1 9921   5.161  10.422   3.729  1.7596 -0.1696  2.1858
27029WAT     H2 9922   5.085  10.366   3.847 -2.8061  0.9415  0.0058
27029WAT    EPW 9923   5.095  10.374   3.761  0.4478  0.1655  0.1943
27030WAT      O 9924   9.150   9.976   1.963 -0.7183 -0.3675 -0.5778
27030WAT     H1 9925   9.240   9.991   1.935  0.3897 -1.1582  2.1471
27030WAT     H2 9926   9.108   9.932   1.890  1.4999 -1.1358 -1.4575
27030WAT    EPW 9927   9.156   9.972   1.950 -0.2789 -0.5732 -0.3344
27031WAT      O 9928   5.780  10.207   4.836 -0.0672 -0.3334  0.8489
27031WAT     H1 9929   5.790  10.302   4.822 -2.7698 -0.0027  0.6689
27031WAT     H2 9930   5.772  10.171   4.748  3.3654 -1.1794  0.7410
27031WAT    EPW 9931   5.780  10.215   4.823  0.0293 -0.4015  0.8109
27032WAT      O 9932   0.586   2.373   3.018  0.0832 -0.0034  0.5149
27032WAT     H1 9933   0.660   2.414   2.974 -0.1357 -2.7638 -2.9322
27032WAT     H2 9934   0.620   2.289   3.049 -0.7882  0.2167  2.1650
27032WAT    EPW 9935   0.600   2.367   3.016 -0.0606 -0.3384  0.2780
27033WAT      O 9936   8.167   0.496   6.337  0.3862  0.0899  0.5141
27033WAT     H1 9937   8.082   0.460   6.312  1.1920 -1.5591  0.0365
27033WAT     H2 9938   8.225   0.474   6.264  1.0387  2.0595  0.3744
27033WAT    EPW 9939   8.163   0.489   6.324  0.5779  0.1322  0.4325
27034WAT      O 9940   9.331   1.240   5.557  0.4281  0.2392 -0.2031
27034WAT     H1 9941   9.318   1.257   5.464  0.8354  0.6200 -0.1882
27034WAT     H2 9942   9.422   1.262   5.574  0.3747  0.1143  0.2752
27034WAT    EPW 9943   9.341   1.245   5.547  0.4749  0.2730 -0.1380
27035WAT      O 9944   8.158   1.729   4.436  0.2626  0.3492  0.0955
27035WAT     H1 9945   8.228   1.788   4.407  2.7787 -1.3179  2.3526
27035WAT     H2 9946   8.203   1.656   4.478 -2.8493 -1.3184  0.8824
27035WAT    EPW 9947   8.173   1.727   4.438  0.1841 -0.0907  0.4969
27036WAT      O 9948   9.637   1.773   6.125 -0.4749 -0.1705 -1.1928
27036WAT     H1 9949   9.559   1.812   6.083 -0.3894  0.1379 -1.0685
27036WAT     H2 9950   9.605   1.742   6.210 -0.1720  1.1708 -0.5723
27036WAT    EPW 9951   9.622   1.774   6.130 -0.4234  0.0471 -1.0946
27037WAT      O 9952   6.067   7.207   4.573 -0.0602 -1.0335  0.1898
27037WAT     H1 9953   6.008   7.150   4.525  0.2214 -0.0541 -1.3843
27037WAT     H2 9954   6.014   7.241   4.646 -1.7499  0.4097 -1.5933
27037WAT    EPW 9955   6.052   7.204   4.577 -0.2458 -0.7138 -0.2532
27038WAT      O 9956   2.245   9.601   4.690 -0.8193  0.2514 -0.5883
27038WAT     H1 9957   2.221   9.676   4.744 -1.1159  0.8172 -1.4879
27038WAT     H2 9958   2.163   9.556   4.672 -0.5769 -0.6253  0.4119
27038WAT    EPW 9959   2.231   9.605   4.695 -0.8264  0.2103 -0.5751
27039WAT      O 9960  10.992   2.725   4.580 -0.0742 -0.0967 -0.4504
27039WAT     H1 9961  10.963   2.675   4.504 -0.7124  0.6080 -0.6792
27039WAT     H2 9962  11.083   2.748   4.561  0.2271 -1.1428 -0.3460
27039WAT    EPW 9963  11.000   2.721   4.568 -0.1187 -0.1419 -0.4666
27040WAT      O 9964   5.964   7.503   2.275 -0.1063  0.3062  0.1561
27040WAT     H1 9965   5.950   7.500   2.180 -2.1445  0.0920  0.4249
27040WAT     H2 9966   5.912   7.577   2.304  1.7470  1.3629  0.9692
27040WAT    EPW 9967   5.956   7.512   2.266 -0.1307  0.4172  0.2989
27041WAT      O 9968  10.061   1.000   5.539  0.0125 -0.2780 -0.2464
27041WAT     H1 9969  10.059   1.096   5.538  1.6489 -0.2019  0.0130
27041WAT     H2 9970   9.984   0.974   5.489 -2.0868  1.1011  2.0671
27041WAT    EPW 9971  10.051   1.010   5.532 -0.0482 -0.0861  0.0930
27042WAT      O 9972   8.359   1.969   3.804 -0.5631  0.6135 -0.4813
27042WAT     H1 9973   8.424   2.001   3.866 -0.0040  1.6903 -1.5674
27042WAT     H2 9974   8.275   1.995   3.842 -0.2036  1.7196 -0.4008
27042WAT    EPW 9975   8.357   1.977   3.817 -0.4411  0.9014 -0.6139
27043WAT      O 9976  10.173   9.712   7.614  0.0143 -0.4690  0.1033
27043WAT     H1 9977  10.150   9.651   7.684 -1.2341 -0.6447 -0.4333
27043WAT     H2 9978  10.230   9.662   7.557  0.7026 -0.4573  0.7665
27043WAT    EPW 9979  10.177   9.697   7.616 -0.0601 -0.4907  0.1199
27044WAT      O 9980   6.761  10.336   5.661 -0.2383 -0.1952 -0.2027
27044WAT     H1 9981   6.681  10.388   5.663  0.4789  0.9981 -1.2056
27044WAT     H2 9982   6.731  10.245   5.666 -1.7477  0.1708 -1.7730
27044WAT    EPW 9983   6.747  10.331   5.662 -0.3426  0.0105 -0.5422
27045WAT      O 9984   7.715   9.771   2.893 -0.4681 -0.7058 -0.1428
27045WAT     H1 9985   7.798   9.813   2.917 -0.7442  0.5718 -1.3215
27045WAT     H2 9986   7.665   9.771   2.975 -1.3851  3.5456 -0.4626
27045WAT    EPW 9987   7.719   9.777   2.907 -0.6254  0.0229 -0.3405
27046WAT      O 9988   6.173   0.774   2.723  0.3677  0.1366  0.5922
27046WAT     H1 9989   6.193   0.700   2.781 -2.6215  0.1606  1.8158
27046WAT     H2 9990   6.137   0.734   2.644 -0.3312  0.2411  0.8540
27046WAT    EPW 9991   6.171   0.759   2.721 -0.1187  0.1535  0.7881
27047WAT      O 9992   9.240   0.387   3.639  0.2680  0.2947 -0.0374
27047WAT     H1 9993   9.190   0.463   3.610  1.8758  0.6496 -2.1573
27047WAT     H2 9994   9.185   0.345   3.705 -1.8798  1.7398 -0.8110
27047WAT    EPW 9995   9.226   0.391   3.644  0.1974  0.5321 -0.4190
27048WAT      O 9996  10.037   8.685   1.653 -0.6403  0.4028  0.0143
27048WAT     H1 9997   9.984   8.749   1.701 -0.6030  0.5029 -0.0772
27048WAT     H2 9998  10.120   8.682   1.700 -0.8745 -0.0695  0.4104
27048WAT    EPW 9999  10.041   8.693   1.666 -0.6661  0.3533  0.0544
27049WAT      O10000   9.297   2.485   3.339  0.0174  0.2318  0.1830
27049WAT     H110001   9.360   2.511   3.272  1.0757 -0.9393  0.6842
27049WAT     H210002   9.350   2.452   3.411 -1.1562 -1.4442  0.3552
27049WAT    EPW10003   9.312   2.484   3.340  0.0019 -0.1436  0.2719
27050WAT      O10004   8.669   2.305   4.818 -0.4109 -0.0393  0.2864
27050WAT     H110005   8.728   2.370   4.856 -0.1978  0.2391 -0.5079
27050WAT     H210006   8.673   2.321   4.724 -0.1973 -1.3249  0.0507
27050WAT    EPW10007   8.678   2.316   4.811 -0.3543 -0.1721  0.1502
27051WAT      O10008   5.139   3.635   2.234 -0.4845  0.7555 -0.2009
27051WAT     H110009   5.140   3.541   2.251  1.8111  0.9465  1.1392
27051WAT     H210010   5.160   3.643   2.141 -3.9176 -0.0622 -1.1696
27051WAT    EPW10011   5.142   3.624   2.224 -0.6344  0.6727 -0.1519
27052WAT      O10012   1.103   0.646   3.983 -0.3440 -0.1800 -0.6581
27052WAT     H110013   1.135   0.628   3.895  0.5360 -1.6160 -0.0719
27052WAT     H210014   1.025   0.590   3.992 -0.1214 -0.4426 -0.3415
27052WAT    EPW10015   1.097   0.636   3.973 -0.1986 -0.4040 -0.5392
27053WAT      O10016   4.884  10.187   6.540  0.0363 -0.2661 -0.3476
27053WAT     H110017   4.959  10.247   6.548 -0.2367  0.0592 -0.2098
27053WAT     H210018   4.918  10.103   6.572  1.0288 -0.7101 -2.4211
27053WAT    EPW10019   4.899  10.184   6.545  0.1309 -0.2813 -0.6027
27054WAT      O10020   7.242  10.232   3.794  0.3088  0.6048  0.0887
27054WAT     H110021   7.269  10.320   3.770  0.1685  0.1150 -2.0663
27054WAT     H210022   7.179  10.245   3.865  0.2951  2.2415 -0.1868
27054WAT    EPW10023   7.237  10.245   3.800  0.2885  0.7563 -0.2320
27055WAT      O10024  10.460   8.637   7.783 -0.5625  0.1845 -0.5782
27055WAT     H110025  10.407   8.577   7.836 -1.1276 -0.1079 -1.4529
27055WAT     H210026  10.420   8.633   7.696 -1.0165  2.3164 -0.5264
27055WAT    EPW10027  10.447   8.628   7.778 -0.6971  0.4268 -0.6866
27056WAT      O10028   5.084   9.286   2.611 -0.3982 -1.1930  0.0447
27056WAT     H110029   5.084   9.281   2.515  1.1152 -1.4686  0.0291
27056WAT     H210030   5.032   9.363   2.631 -0.0113 -0.6291 -1.0397
27056WAT    EPW10031   5.077   9.295   2.601 -0.1476 -1.1549 -0.1004
27057WAT      O10032  10.702   4.528   2.991  0.6838 -0.0059 -0.2940
27057WAT     H110033  10.636   4.573   2.939 -2.4119 -0.3982  2.9378
27057WAT     H210034  10.683   4.435   2.981  1.5589 -0.2049 -0.2547
27057WAT    EPW10035  10.691   4.522   2.983  0.3905 -0.0839  0.1374
27058WAT      O10036   7.501   2.424   6.817  0.0972  0.0897  0.1716
27058WAT     H110037   7.481   2.510   6.855  1.8177  2.5845 -3.8701
27058WAT     H210038   7.580   2.396   6.863 -0.7600  0.3316  1.8901
27058WAT    EPW10039   7.509   2.432   6.828  0.2112  0.4505 -0.1347
27059WAT      O10040   6.925   6.674   5.364 -0.4628  0.3469 -0.2239
27059WAT     H110041   6.974   6.681   5.282 -1.0794 -1.4796 -0.8009
27059WAT     H210042   6.886   6.586   5.361 -1.8115  0.8490  1.3012
27059WAT    EPW10043   6.927   6.663   5.353 -0.7219  0.1724 -0.0989
27060WAT      O10044   1.112   0.823   5.104  0.0991  0.2105 -0.1805
27060WAT     H110045   1.133   0.739   5.063  0.7203 -0.5100  1.5263
27060WAT     H210046   1.064   0.799   5.184  0.3869  1.4587  0.3868
27060WAT    EPW10047   1.108   0.809   5.109  0.2190  0.2801  0.1192
27061WAT      O10048   3.134   8.162   6.523  0.0573  0.0315  0.3076
27061WAT     H110049   3.109   8.198   6.608 -0.1642  5.8776 -1.7723
27061WAT     H210050   3.077   8.086   6.512 -2.9366  1.4570  3.6887
27061WAT    EPW10051   3.123   8.157   6.533 -0.3668  0.9904  0.4792
27062WAT      O10052   7.007   2.416   5.401 -0.7452 -0.1014 -0.4849
27062WAT     H110053   6.945   2.475   5.360 -0.7040  0.0210 -0.3689
27062WAT     H210054   7.054   2.376   5.327  0.0650  0.9016 -0.5440
27062WAT    EPW10055   7.005   2.418   5.386 -0.6330  0.0470 -0.4776
27063WAT      O10056   5.051   9.255   7.377 -0.3029 -0.4451  0.1384
27063WAT     H110057   4.989   9.296   7.437  0.3954  1.4066 -0.3286
27063WAT     H210058   5.011   9.265   7.291 -1.2081 -2.9123  0.2118
27063WAT    EPW10059   5.038   9.262   7.374 -0.3300 -0.5260  0.0865
27064WAT      O10060   9.636   0.544   2.771 -0.2124 -0.1062  0.0248
27064WAT     H110061   9.567   0.539   2.837 -2.6100 -1.0012 -2.3730
27064WAT     H210062   9.591   0.530   2.687  2.6321  1.0569 -1.8615
27064WAT    EPW10063   9.621   0.541   2.768 -0.1531 -0.0709 -0.5403
27065WAT      O10064   8.942   9.853   3.993 -0.2510  0.0617  0.4323
27065WAT     H110065   8.878   9.791   3.957  1.3196 -1.1218 -0.4344
27065WAT     H210066   8.919   9.860   4.086 -0.8912 -1.2702  0.3948
27065WAT    EPW10067   8.931   9.846   4.001 -0.1283 -0.2694  0.3130
27066WAT      O10068   9.108   2.868   5.178  0.2719  0.5435  0.3108
27066WAT     H110069   9.113   2.791   5.234  0.1057  0.7799  0.6511
27066WAT     H210070   9.059   2.839   5.101  1.3121 -0.0441 -0.1631
27066WAT    EPW10071   9.102   2.854   5.175  0.3872  0.4971  0.2933
27067WAT      O10072   8.651   0.620   2.747 -0.4752  0.4914 -0.0314
27067WAT     H110073   8.572   0.652   2.703 -1.6168 -0.0852  1.5193
27067WAT     H210074   8.655   0.669   2.829 -0.2661 -0.7896  0.7470
27067WAT    EPW10075   8.641   0.631   2.752 -0.5980  0.2464  0.2759
27068WAT      O10076   1.157   4.037   4.810  0.0098 -0.2782  0.6009
27068WAT     H110077   1.109   3.998   4.738 -0.9823  0.6514  0.7371
27068WAT     H210078   1.106   4.015   4.888  0.1115  0.2330  0.8164
27068WAT    EPW10079   1.144   4.029   4.811 -0.1076 -0.0880  0.6475
27069WAT      O10080   8.132   2.166   5.066  0.9765 -0.5586 -0.4783
27069WAT     H110081   8.113   2.089   5.013 -1.0028 -0.6606  0.2931
27069WAT     H210082   8.095   2.239   5.017  2.3586 -0.1421 -0.9410
27069WAT    EPW10083   8.125   2.165   5.053  0.8974 -0.5171 -0.4377
27070WAT      O10084  10.477   1.791   4.669  0.0605  0.2642 -0.0701
27070WAT     H110085  10.558   1.839   4.648 -0.6223  1.0755 -0.9276
27070WAT     H210086  10.407   1.848   4.639 -0.8343 -0.5680  0.3908
27070WAT    EPW10087  10.479   1.805   4.662 -0.1478  0.2614 -0.1223
27071WAT      O10088   9.300   2.363   5.598 -0.2937 -0.3881  0.0507
27071WAT     H110089   9.310   2.334   5.688 -1.2013 -0.1031  0.2500
27071WAT     H210090   9.285   2.458   5.604 -3.1154 -0.7354 -0.1687
27071WAT    EPW10091   9.299   2.372   5.610 -0.7858 -0.3964  0.0479
27072WAT      O10092   9.606   2.006   3.182 -0.3782 -0.2371 -0.6812
27072WAT     H110093   9.637   1.929   3.134  2.6749  0.0477  0.6323
27072WAT     H210094   9.643   2.081   3.135  2.8640  0.0383  1.9624
27072WAT    EPW10095   9.615   2.006   3.170  0.4520 -0.1632 -0.1593
27073WAT      O10096   6.049   1.738   3.033 -0.1285 -0.1087 -0.1318
27073WAT     H110097   6.039   1.643   3.026  0.0888 -0.0728 -1.0919
27073WAT     H210098   6.136   1.750   3.072 -0.1735 -0.3047  0.0263
27073WAT    EPW10099   6.059   1.727   3.037 -0.1056 -0.1298 -0.2375
27074WAT      O10100   8.559   8.714   6.627 -0.3670  0.5892  0.8300
27074WAT     H110101   8.574   8.757   6.711 -0.2494  1.7059  0.2670
27074WAT     H210102   8.512   8.780   6.575 -0.5987 -0.1462  0.0883
27074WAT    EPW10103   8.555   8.729   6.631 -0.3819  0.6394  0.6580
27075WAT      O10104   5.945   9.180   0.300 -0.3068 -0.1155  0.5256
27075WAT     H110105   5.959   9.109   0.237 -0.6423  1.5287 -1.5468
27075WAT     H210106   5.858   9.163   0.337  0.4554 -1.8480  1.6436
27075WAT    EPW10107   5.935   9.168   0.296 -0.2506 -0.1273  0.3997
27076WAT      O10108   6.104   2.423   5.345  0.7047  0.4691 -1.1948
27076WAT     H110109   6.082   2.336   5.312 -0.7137  0.4648 -0.3346
27076WAT     H210110   6.097   2.415   5.440  0.6559  1.4897 -1.0982
27076WAT    EPW10111   6.100   2.410   5.353  0.5112  0.6033 -1.0684
27077WAT      O10112   1.650   1.289   2.818 -0.7135  0.1328 -0.2803
27077WAT     H110113   1.560   1.292   2.850 -0.8617  2.3693 -0.7357
27077WAT     H210114   1.658   1.204   2.776 -2.6986 -0.0338 -0.4106
27077WAT    EPW10115   1.639   1.279   2.817 -0.9949  0.4058 -0.3575
27078WAT      O10116   8.583   0.115   2.783 -0.6349 -0.3234 -0.0800
27078WAT     H110117   8.661   0.083   2.740 -1.2939  0.2012 -1.7595
27078WAT     H210118   8.614   0.182   2.844  0.1043  1.2409 -2.0972
27078WAT    EPW10119   8.597   0.120   2.786 -0.6247 -0.0479 -0.5674
27079WAT      O10120   0.536   0.297   4.244 -0.9165  0.5197 -0.2849
27079WAT     H110121   0.506   0.249   4.321 -0.5809  1.5645  0.5209
27079WAT     H210122   0.605   0.355   4.277  1.6598 -1.3867 -1.9726
27079WAT    EPW10123   0.541   0.298   4.259 -0.5324  0.4060 -0.4015
27080WAT      O10124   8.639   0.925   5.839  0.4074  0.2766 -0.4372
27080WAT     H110125   8.680   1.012   5.832  0.1025  0.4505 -0.1082
27080WAT     H210126   8.594   0.927   5.923  1.3516 -0.6119  0.1077
27080WAT    EPW10127   8.639   0.937   5.849  0.4916  0.1823 -0.3219
27081WAT      O10128   7.259   8.382   6.257  0.9167 -0.2121  0.4229
27081WAT     H110129   7.320   8.310   6.275  0.6803 -0.6453 -0.4661
27081WAT     H210130   7.234   8.414   6.344  0.7411 -1.4386  0.8495
27081WAT    EPW10131   7.264   8.376   6.271  0.8624 -0.4315  0.3617
27082WAT      O10132   7.544   9.314   3.149  0.4028 -0.3993  0.2511
27082WAT     H110133   7.469   9.270   3.189  1.0269  0.8733  3.1057
27082WAT     H210134   7.618   9.255   3.167  0.5424 -0.2769  0.0801
27082WAT    EPW10135   7.544   9.301   3.157  0.5035 -0.2155  0.6051
27083WAT      O10136   9.702   2.224   5.589 -0.0876 -0.2617  0.3501
27083WAT     H110137   9.659   2.175   5.659  0.3496 -0.7409  0.2839
27083WAT     H210138   9.787   2.182   5.579 -0.4279 -0.6679 -0.9764
27083WAT    EPW10139   9.707   2.212   5.597 -0.0749 -0.3784  0.1667
27084WAT      O10140   7.710   0.225   1.112  0.0294 -0.2247 -0.5295
27084WAT     H110141   7.695   0.131   1.111  1.5757 -0.5184  0.2630
27084WAT     H210142   7.748   0.245   1.027 -2.1403  0.0798 -1.5031
27084WAT    EPW10143   7.713   0.216   1.101 -0.0527 -0.2233 -0.5533
27085WAT      O10144   5.511   8.853   1.162 -0.6972 -0.7702 -0.2665
27085WAT     H110145   5.424   8.871   1.198 -0.9743 -0.7500 -0.9326
27085WAT     H210146   5.542   8.938   1.130  0.0221 -0.5669  0.9164
27085WAT    EPW10147   5.503   8.866   1.163 -0.6387 -0.7405 -0.1982
27086WAT      O10148   7.274   2.514   5.627 -0.5239  0.4326 -0.3169
27086WAT     H110149   7.190   2.557   5.645 -1.5376 -0.6864 -2.1860
27086WAT     H210150   7.269   2.487   5.536  0.6416 -2.3796  0.3515
27086WAT    EPW10151   7.262   2.516   5.618 -0.5040 -0.0859 -0.4754
27087WAT      O10152  10.556   0.615   4.697  0.3255  0.2166  1.1618
27087WAT     H110153  10.600   0.534   4.723  0.9928  0.0732 -0.2886
27087WAT     H210154  10.600   0.640   4.615 -3.5330 -1.0133 -1.5547
27087WAT    EPW10155  10.568   0.607   4.689 -0.0954  0.0355  0.6125
27088WAT      O10156   5.670   9.331   1.948 -0.4792 -0.4468  0.2082
27088WAT     H110157   5.709   9.256   1.993  1.7356 -1.0363 -2.4390
27088WAT     H210158   5.740   9.396   1.945 -1.7343  0.9974  0.6950
27088WAT    EPW10159   5.684   9.330   1.953 -0.3524 -0.3338 -0.0767
27089WAT      O10160   9.795   2.724   1.177  0.5914  0.1541 -0.4315
27089WAT     H110161   9.804   2.731   1.082  5.6500  0.3635 -0.2025
27089WAT     H210162   9.805   2.813   1.209 -1.7972  0.1979  0.4439
27089WAT    EPW10163   9.797   2.737   1.168  0.9427  0.1874 -0.2859
27090WAT      O10164   0.137   0.316   5.706  0.1465 -0.7235  0.6237
27090WAT     H110165   0.173   0.250   5.765  0.3484 -1.4196 -0.2489
27090WAT     H210166   0.199   0.320   5.633  0.8541  1.4226  1.2672
27090WAT    EPW10167   0.150   0.308   5.704  0.2665 -0.5322  0.5937
27091WAT      O10168   5.171   7.838   5.407  0.6420 -0.0209  0.5772
27091WAT     H110169   5.237   7.811   5.471  2.3323 -0.8733 -1.4202
27091WAT     H210170   5.114   7.898   5.456  2.0260 -0.3707  2.7674
27091WAT    EPW10171   5.172   7.842   5.422  1.0474 -0.1793  0.6027
27092WAT      O10172   5.561   2.406   4.057  0.3436 -0.0417 -0.5338
27092WAT     H110173   5.512   2.448   3.986  2.0258 -1.4993 -2.6831
27092WAT     H210174   5.593   2.479   4.110  2.5582  1.4903 -3.6876
27092WAT    EPW10175   5.559   2.421   4.054  0.8576 -0.0318 -1.2333
27093WAT      O10176   4.467  10.039   3.847 -0.5476  0.1860  0.5866
27093WAT     H110177   4.439   9.957   3.807  2.2838 -0.1836 -0.9034
27093WAT     H210178   4.385  10.081   3.875 -2.3260 -1.7793 -1.2506
27093WAT    EPW10179   4.452  10.034   3.845 -0.4089 -0.1216  0.1477
27094WAT      O10180   6.595   9.691   1.276 -0.8148  0.1525  0.0599
27094WAT     H110181   6.571   9.776   1.238 -1.2967 -0.1064 -0.2328
27094WAT     H210182   6.686   9.701   1.304 -0.9377  0.8307  0.2230
27094WAT    EPW10183   6.604   9.704   1.275 -0.8945  0.2074  0.0429
27095WAT      O10184   2.827   0.855   4.423 -0.2275 -0.3453  0.3590
27095WAT     H110185   2.761   0.872   4.356 -0.6536  1.8545  1.2413
27095WAT     H210186   2.910   0.855   4.376 -0.6821 -1.0004 -0.4610
27095WAT    EPW10187   2.830   0.857   4.408 -0.3436 -0.1415  0.3672
27096WAT      O10188   4.165   8.125   8.484 -0.1444 -0.0803 -0.2808
27096WAT     H110189   4.144   8.174   8.564  1.7519  0.0222  0.2184
27096WAT     H210190   4.081   8.092   8.453 -1.4055  2.7108 -0.1628
27096WAT    EPW10191   4.151   8.127   8.491 -0.0606  0.3014 -0.1993
27097WAT      O10192   7.268   3.942   7.029  0.2039 -0.3136 -0.5972
27097WAT     H110193   7.342   3.952   6.969 -0.4878  2.0086 -1.1658
27097WAT     H210194   7.245   4.032   7.053 -1.0018 -1.0978  1.3570
27097WAT    EPW10195   7.275   3.955   7.024 -0.0463 -0.1107 -0.4144
27098WAT      O10196   2.497   0.202   7.808  0.5277  0.2632 -0.1456
27098WAT     H110197   2.572   0.241   7.762  2.0842 -0.5988  1.5531
27098WAT     H210198   2.486   0.256   7.886 -0.8373  0.5526 -0.5230
27098WAT    EPW10199   2.506   0.214   7.812  0.5530  0.1877  0.0284
27099WAT      O10200   0.701   2.378   2.353  0.3376  0.1498 -1.0044
27099WAT     H110201   0.700   2.326   2.273  0.4203 -2.3162  0.4783
27099WAT     H210202   0.609   2.381   2.381  0.4510 -0.0148 -0.6032
27099WAT    EPW10203   0.688   2.371   2.346  0.3634 -0.1971 -0.7560
27100WAT      O10204   4.767   9.368   1.952 -0.4557  0.1430 -0.7608
27100WAT     H110205   4.786   9.314   1.875  0.6142  0.7695 -0.9526
27100WAT     H210206   4.671   9.371   1.955 -0.7027 -3.4960  0.5027
27100WAT    EPW10207   4.756   9.361   1.942 -0.3471 -0.2537 -0.6195
27101WAT      O10208   8.237   0.146   3.548 -0.2722 -0.8081 -0.0236
27101WAT     H110209   8.318   0.121   3.593  0.4787  3.4527  1.4164
27101WAT     H210210   8.170   0.144   3.616 -0.9109 -1.9087 -0.6506
27101WAT    EPW10211   8.239   0.142   3.563 -0.2580 -0.3913  0.0834
27102WAT      O10212   3.305   7.623   3.523 -0.1429  0.2570  0.3173
27102WAT     H110213   3.217   7.655   3.505 -0.3169 -0.0319  0.6351
27102WAT     H210214   3.315   7.548   3.463  0.1903  0.7800 -0.2879
27102WAT    EPW10215   3.294   7.617   3.512 -0.1220  0.2878  0.2792
27103WAT      O10216   9.910   2.975   2.801 -0.5354 -0.0968  0.0026
27103WAT     H110217   9.890   3.058   2.843 -0.5383 -0.8009  1.4408
27103WAT     H210218   9.854   2.911   2.846  1.7485 -1.3975  1.1731
27103WAT    EPW10219   9.900   2.978   2.812 -0.2346 -0.3613  0.3469
27104WAT      O10220  10.098   0.695   1.674  0.5541 -0.3765 -0.5294
27104WAT     H110221  10.108   0.743   1.592  0.8105  0.8610  0.2046
27104WAT     H210222  10.064   0.610   1.647  3.2132 -1.0166 -2.1648
27104WAT    EPW10223  10.095   0.690   1.659  0.9389 -0.2977 -0.6483
27105WAT      O10224   4.815   6.914   5.770 -0.0212  0.5436  0.3387
27105WAT     H110225   4.762   6.915   5.850  0.5915  0.2214  0.7581
27105WAT     H210226   4.773   6.978   5.713  0.6267  2.1902  1.6275
27105WAT    EPW10227   4.802   6.923   5.773  0.1452  0.7184  0.5639
27106WAT      O10228  10.158   0.042   4.448 -0.5042 -0.0660 -0.6209
27106WAT     H110229  10.074   0.002   4.424 -0.4192  0.8620 -2.6282
27106WAT     H210230  10.134   0.119   4.500 -0.8152 -0.5498 -0.0288
27106WAT    EPW10231  10.144   0.047   4.452 -0.5336 -0.0074 -0.8075
27107WAT      O10232   5.808   8.232   2.401  0.1438 -0.5182 -0.9021
27107WAT     H110233   5.847   8.151   2.436 -0.8294 -0.6796 -0.1487
27107WAT     H210234   5.844   8.301   2.457 -1.1416 -0.7402  0.2658
27107WAT    EPW10235   5.818   8.230   2.413 -0.1543 -0.5689 -0.6486
27108WAT      O10236   3.266   8.308   4.156  0.1063 -0.0382 -0.5001
27108WAT     H110237   3.297   8.373   4.219  0.7292  0.2627 -1.1058
27108WAT     H210238   3.192   8.266   4.199  0.4416  0.2599  0.3736
27108WAT    EPW10239   3.260   8.311   4.170  0.2327  0.0410 -0.4649
27109WAT      O10240   5.307   0.668   3.960 -0.0007 -0.3423 -0.2250
27109WAT     H110241   5.365   0.741   3.980  0.1395 -0.3404 -0.6084
27109WAT     H210242   5.367   0.599   3.931 -0.2084 -0.2429 -0.9056
27109WAT    EPW10243   5.323   0.668   3.958 -0.0095 -0.3290 -0.3654
27110WAT      O10244   6.169   9.688   5.404  0.3832  0.5984  0.1616
27110WAT     H110245   6.114   9.683   5.482 -2.8203 -0.0019 -1.9310
27110WAT     H210246   6.188   9.597   5.382 -0.2195  0.6739 -0.7047
27110WAT    EPW10247   6.164   9.675   5.411 -0.1187  0.5293 -0.2286
27111WAT      O10248   5.757   8.262   6.066 -0.2486 -0.0690 -0.6084
27111WAT     H110249   5.715   8.232   5.985  1.2891 -0.3791 -1.3484
27111WAT     H210250   5.764   8.183   6.120 -1.7808  0.2473  0.0921
27111WAT    EPW10251   5.752   8.247   6.062 -0.2480 -0.0677 -0.6137
27112WAT      O10252   6.890   9.943   5.633 -0.4176  1.0554  0.2044
27112WAT     H110253   6.800   9.962   5.661 -0.2798  0.1374  1.3555
27112WAT     H210254   6.921   9.879   5.696  0.0093 -1.0185 -1.9967
27112WAT    EPW10255   6.882   9.937   5.645 -0.3431  0.6604  0.0656
27113WAT      O10256   5.016   7.479   3.273 -0.1471  0.2598 -0.2742
27113WAT     H110257   4.997   7.573   3.276 -0.5320  0.1788 -0.1478
27113WAT     H210258   5.089   7.472   3.212 -0.3398  0.6026 -0.5487
27113WAT    EPW10259   5.023   7.491   3.265 -0.2232  0.2944 -0.2937
27114WAT      O10260   5.703   9.637   6.620 -0.1886  1.1148 -0.7489
27114WAT     H110261   5.757   9.684   6.683  3.5928 -0.6107 -2.3492
27114WAT     H210262   5.691   9.551   6.660  1.8601  0.1605 -1.9694
27114WAT    EPW10263   5.709   9.632   6.634  0.5805  0.7610 -1.1208
27115WAT      O10264   5.857  10.305   2.243  0.3915  0.3169  0.1238
27115WAT     H110265   5.885  10.276   2.330  0.5426 -1.5508 -0.5012
27115WAT     H210266   5.764  10.282   2.238  0.6642 -0.6919 -0.6164
27115WAT    EPW10267   5.849  10.298   2.254  0.4470 -0.0625 -0.0561
27116WAT      O10268   6.975   9.091   5.963 -0.0272 -0.1013 -0.9529
27116WAT     H110269   6.951   9.183   5.961  0.0755 -0.0521 -0.2252
27116WAT     H210270   7.051   9.084   5.905  1.4211  0.7105  0.7655
27116WAT    EPW10271   6.982   9.102   5.955  0.1774  0.0129 -0.6306
27117WAT      O10272   9.419   1.077   6.735  0.5490  0.3003 -0.5670
27117WAT     H110273   9.444   1.020   6.661  1.4695 -0.2798  0.1701
27117WAT     H210274   9.481   1.150   6.730 -0.0934  0.8263 -1.0086
27117WAT    EPW10275   9.430   1.079   6.724  0.5856  0.2931 -0.5279
27118WAT      O10276   9.933   0.110   3.930  0.4437 -0.1093 -0.7261
27118WAT     H110277  10.019   0.095   3.971 -0.3857 -0.2383  1.0502
27118WAT     H210278   9.923   0.038   3.869  0.3440 -1.8622  1.2486
27118WAT    EPW10279   9.943   0.099   3.927  0.3209 -0.3575 -0.2313
27119WAT      O10280   9.186   0.859   1.600 -0.0936 -0.2855  0.4850
27119WAT     H110281   9.278   0.835   1.614  0.4770  1.6573  0.3709
27119WAT     H210282   9.137   0.803   1.660  1.0836 -1.8844  0.0090
27119WAT    EPW10283   9.192   0.849   1.610  0.1373 -0.2402  0.4072
27120WAT      O10284   6.791   7.694   1.847  0.2393  0.4275  0.2515
27120WAT     H110285   6.733   7.767   1.825  0.0382  0.1043 -0.3266
27120WAT     H210286   6.819   7.659   1.762 -0.3913 -0.7306  0.4983
27120WAT    EPW10287   6.787   7.699   1.833  0.1297  0.2322  0.2078
27121WAT      O10288   7.841   0.344   5.570  0.1987  0.2169 -0.2614
27121WAT     H110289   7.771   0.305   5.622  1.5153 -1.0070  0.6854
27121WAT     H210290   7.907   0.369   5.635 -0.0407  2.9321 -0.9591
27121WAT    EPW10291   7.841   0.342   5.586  0.3407  0.4136 -0.2284
27122WAT      O10292   9.741   3.658   1.325  0.3163  0.0216 -0.4806
27122WAT     H110293   9.695   3.728   1.372  0.2496  0.1756 -0.7761
27122WAT     H210294   9.697   3.578   1.353  1.0735 -0.0170  0.6940
27122WAT    EPW10295   9.729   3.657   1.335  0.4067  0.0370 -0.3647
27123WAT      O10296   0.881   1.042   4.364  0.2345 -0.4290 -0.1146
27123WAT     H110297   0.873   0.993   4.446  0.3883  1.1141  0.8631
27123WAT     H210298   0.793   1.076   4.349  0.9429  2.4395  1.5180
27123WAT    EPW10299   0.868   1.040   4.373  0.3482  0.1529  0.2296
27124WAT      O10300   4.974  10.028   6.108  0.7275 -0.1165 -0.6305
27124WAT     H110301   4.966  10.122   6.087  0.9754  0.9516  3.2198
27124WAT     H210302   5.034  10.026   6.183 -0.5374 -3.1934  0.4332
27124WAT    EPW10303   4.981  10.040   6.115  0.5934 -0.3815  0.0174
27125WAT      O10304   1.558   0.232   6.454  0.8407  0.6401 -0.4153
27125WAT     H110305   1.517   0.261   6.536 -1.5961  0.7834 -1.5884
27125WAT     H210306   1.546   0.137   6.454  3.1750  0.2783  0.5147
27125WAT    EPW10307   1.551   0.224   6.465  0.8271  0.6113 -0.4473
27126WAT      O10308  10.636   0.620   2.597  0.0495 -0.0669  0.2954
27126WAT     H110309  10.677   0.665   2.671 -0.0966  0.8913 -0.1905
27126WAT     H210310  10.542   0.620   2.618 -0.1351  1.2954 -0.4363
27126WAT    EPW10311  10.629   0.626   2.610  0.0057  0.2392  0.1348
27127WAT      O10312   4.312   9.976   5.404  0.3027  0.4207  0.7365
27127WAT     H110313   4.258  10.039   5.451 -1.6530  0.9994 -1.9915
27127WAT     H210314   4.257   9.898   5.398  1.0678 -0.1203  0.6053
27127WAT    EPW10315   4.297   9.974   5.409  0.1457  0.4253  0.3593
27128WAT      O10316   7.893   8.835   0.507  0.2540  0.1120 -0.2830
27128WAT     H110317   7.911   8.747   0.475 -0.1759  0.2620 -0.9520
27128WAT     H210318   7.958   8.849   0.576  2.1537  0.3279 -2.0275
27128WAT    EPW10319   7.904   8.825   0.512  0.4478  0.1602 -0.6014
27129WAT      O10320   0.375   2.993   6.043 -0.5271  0.2733  0.5850
27129WAT     H110321   0.428   2.918   6.071  1.3485  1.4538  0.4297
27129WAT     H210322   0.313   2.957   5.981  2.3020 -0.8132 -1.8648
27129WAT    EPW10323   0.374   2.979   6.039  0.0934  0.2857  0.2413
27130WAT      O10324   4.956   7.596   3.994  0.3044 -0.1241 -0.2456
27130WAT     H110325   5.005   7.524   3.956  1.3332  0.3400  0.1602
27130WAT     H210326   4.949   7.660   3.923  2.3953  0.8264  0.3266
27130WAT    EPW10327   4.961   7.595   3.980  0.7162  0.0625 -0.1166
27131WAT      O10328   5.254   0.870   3.242  0.2980 -0.8565 -0.1215
27131WAT     H110329   5.191   0.856   3.312 -0.3693 -1.2666 -0.7875
27131WAT     H210330   5.242   0.795   3.183  2.5892 -1.8722  0.5872
27131WAT    EPW10331   5.244   0.858   3.243  0.5116 -1.0445 -0.1159
27132WAT      O10332   6.003   9.090   2.479 -0.3813 -0.2576  0.3732
27132WAT     H110333   6.011   9.125   2.568 -0.3880  0.0182  0.2677
27132WAT     H210334   5.968   9.002   2.490 -0.8746 -0.0353  0.6145
27132WAT    EPW10335   6.000   9.083   2.492 -0.4473 -0.1926  0.3910
27133WAT      O10336   0.645   4.465   2.263 -0.2106  0.0814 -0.2212
27133WAT     H110337   0.649   4.528   2.335  0.1442  1.8109 -1.7046
27133WAT     H210338   0.630   4.381   2.307  3.1994  0.4950  2.1744
27133WAT    EPW10339   0.644   4.462   2.278  0.2860  0.3643 -0.1009
27134WAT      O10340  10.925   0.634   4.762  0.5860  0.2468 -0.1956
27134WAT     H110341  10.912   0.589   4.846  1.5123 -0.3636 -0.3700
27134WAT     H210342  10.838   0.668   4.740 -0.1370 -1.3561 -0.0052
27134WAT    EPW10343  10.912   0.633   4.770  0.6127 -0.0451 -0.1934
27135WAT      O10344  10.803   0.710   6.808  0.4361 -0.4866 -0.0647
27135WAT     H110345  10.897   0.726   6.801  0.3561 -0.5849 -2.5163
27135WAT     H210346  10.781   0.665   6.726 -1.7387 -0.4855  0.4575
27135WAT    EPW10347  10.813   0.706   6.796  0.1392 -0.4994 -0.3195
27136WAT      O10348   7.258   1.606   0.185  0.1999 -0.0473 -0.7767
27136WAT     H110349   7.210   1.525   0.202  1.4507 -0.3484  1.7742
27136WAT     H210350   7.314   1.586   0.109  1.2416 -1.9640  0.4250
27136WAT    EPW10351   7.259   1.592   0.177  0.5023 -0.3398 -0.2818
27137WAT      O10352   8.620   3.761   3.128  0.1518  0.7590 -0.1239
27137WAT     H110353   8.534   3.720   3.122 -0.8067  2.7550 -0.6410
27137WAT     H210354   8.660   3.720   3.205  0.3182 -2.8961 -1.9462
27137WAT    EPW10355   8.614   3.750   3.138  0.0477  0.5401 -0.4325
27138WAT      O10356  10.744   0.103   7.307 -0.4795  0.1532  0.2434
27138WAT     H110357  10.704   0.060   7.382 -1.1371  1.9858  0.9999
27138WAT     H210358  10.822   0.146   7.342 -1.1115  1.5201  0.0478
27138WAT    EPW10359  10.749   0.103   7.321 -0.6497  0.5755  0.3171
27139WAT      O10360   2.733   2.581   5.125 -0.3747 -0.2590 -0.0733
27139WAT     H110361   2.680   2.645   5.173 -2.0188 -0.6712 -1.2703
27139WAT     H210362   2.769   2.524   5.194 -0.2260  0.9268  0.8713
27139WAT    EPW10363   2.731   2.582   5.141 -0.5721 -0.1569 -0.1066
27140WAT      O10364  10.799   1.805   2.845 -0.0130 -1.0648 -0.1510
27140WAT     H110365  10.758   1.891   2.852  2.7625  0.3298  0.5680
27140WAT     H210366  10.726   1.743   2.845 -2.0809  1.2303  0.0789
27140WAT    EPW10367  10.784   1.808   2.846  0.0801 -0.5781 -0.0259
27141WAT      O10368   1.125   3.873   3.120  0.5509  0.7570 -0.4767
27141WAT     H110369   1.122   3.835   3.032  0.9324  1.5520 -0.8394
27141WAT     H210370   1.209   3.918   3.124  1.3791 -0.7919  0.9652
27141WAT    EPW10371   1.135   3.874   3.109  0.7104  0.6576 -0.3345
27142WAT      O10372   1.283   3.856   7.752 -0.1141 -0.2682  0.2391
27142WAT     H110373   1.377   3.864   7.763 -0.1679  2.3836 -0.6229
27142WAT     H210374   1.270   3.847   7.658 -0.7468  0.2610  0.2681
27142WAT    EPW10375   1.293   3.856   7.741 -0.2047  0.1514  0.1292
27143WAT      O10376   1.330   1.195   6.902 -0.2611  0.3537 -0.7031
27143WAT     H110377   1.391   1.207   6.975  2.2419  1.6350 -2.8271
27143WAT     H210378   1.257   1.146   6.939  0.4641  1.6606  2.8245
27143WAT    EPW10379   1.329   1.190   6.916  0.1646  0.6950 -0.5181
27144WAT      O10380   3.965   2.037   2.537 -0.4991  0.3641  0.0962
27144WAT     H110381   3.924   2.105   2.483 -1.6907  2.0064  2.8504
27144WAT     H210382   3.897   1.969   2.545 -1.0808  1.0453  1.0941
27144WAT    EPW10383   3.951   2.037   2.531 -0.7330  0.6706  0.5912
27145WAT      O10384  10.578   1.847   2.553 -0.1121  0.8425  0.3511
27145WAT     H110385  10.644   1.779   2.541  0.0512  0.6499  2.0162
27145WAT     H210386  10.610   1.898   2.628 -1.1030  1.6879  0.2250
27145WAT    EPW10387  10.591   1.845   2.562 -0.2213  0.9286  0.5541
27146WAT      O10388  10.378   5.909   3.298 -0.4968 -0.2854 -0.0641
27146WAT     H110389  10.424   5.975   3.247  2.0668 -1.6264  0.3298
27146WAT     H210390  10.311   5.875   3.239  0.5417  0.1704 -1.5599
27146WAT    EPW10391  10.376   5.913   3.284 -0.0219 -0.4022 -0.2095
27147WAT      O10392  10.360   9.931   3.121 -0.1127  0.0760  0.4644
27147WAT     H110393  10.448   9.940   3.156 -0.9342  0.7075  2.4951
27147WAT     H210394  10.337   9.839   3.136  0.0474  0.0030  0.2702
27147WAT    EPW10395  10.368   9.920   3.127 -0.1993  0.1497  0.7066
27148WAT      O10396   0.161   2.044   8.270  0.0236 -0.9709  0.0396
27148WAT     H110397   0.066   2.034   8.276 -0.1915  0.3341 -0.7223
27148WAT     H210398   0.187   2.082   8.354 -0.4122  0.3953 -0.4150
27148WAT    EPW10399   0.152   2.048   8.282 -0.0622 -0.6185 -0.1206
27149WAT      O10400  10.886   5.824   0.915 -0.5288  0.1959 -0.1456
27149WAT     H110401  10.863   5.737   0.948 -0.5195 -0.3770 -1.5838
27149WAT     H210402  10.919   5.870   0.992 -0.4656 -1.0935  0.6392
27149WAT    EPW10403  10.887   5.819   0.930 -0.5193 -0.0498 -0.2318
27150WAT      O10404   3.096   0.768   6.008 -0.0755 -0.2227 -0.3811
27150WAT     H110405   3.126   0.816   5.930  0.9931 -1.2169 -0.6014
27150WAT     H210406   3.007   0.740   5.985  0.6128 -1.4723 -1.7462
27150WAT    EPW10407   3.088   0.771   5.995  0.1563 -0.5186 -0.5901
27151WAT      O10408   6.440   9.760   6.208  0.1191  0.0358 -0.5231
27151WAT     H110409   6.449   9.812   6.129  1.2965 -2.9381 -2.5245
27151WAT     H210410   6.360   9.709   6.194  0.3062 -0.4773  0.2016
27151WAT    EPW10411   6.431   9.760   6.196  0.2990 -0.4244 -0.6912
27152WAT      O10412   2.403   5.942   3.121 -0.5244  0.0229 -0.1606
27152WAT     H110413   2.407   6.016   3.181  1.8119  1.5640 -2.0218
27152WAT     H210414   2.352   5.875   3.167  0.0887  1.5496  2.9332
27152WAT    EPW10415   2.397   5.943   3.135 -0.1354  0.4275  0.0020
27153WAT      O10416   1.575   9.057   8.895 -0.4721 -0.6713 -0.5296
27153WAT     H110417   1.490   9.101   8.894 -0.4285 -0.5342  0.5110
27153WAT     H210418   1.595   9.045   8.988  1.7149  1.3652 -0.6589
27153WAT    EPW10419   1.566   9.061   8.907 -0.1779 -0.3843 -0.4096
27154WAT      O10420   7.845  10.312   4.822 -0.0717 -0.8943 -0.3926
27154WAT     H110421   7.919  10.269   4.866  0.5446 -0.6908 -1.2035
27154WAT     H210422   7.836  10.396   4.867  1.5448 -0.0263 -1.6008
27154WAT    EPW10423   7.854  10.318   4.834  0.2229 -0.7534 -0.6588
27155WAT      O10424   1.003   1.787   5.240  0.1770  0.2985  0.1942
27155WAT     H110425   0.943   1.857   5.267 -0.5194 -0.6223  1.1512
27155WAT     H210426   1.078   1.796   5.299 -0.6397 -0.7313  1.4453
27155WAT    EPW10427   1.005   1.797   5.252 -0.0225  0.0412  0.4854
27156WAT      O10428   4.022   3.141   1.882 -0.2468  0.2752  0.2886
27156WAT     H110429   4.067   3.078   1.825  0.2207 -0.2378  1.1937
27156WAT     H210430   4.025   3.223   1.834  1.0166  0.0788 -0.0102
27156WAT    EPW10431   4.029   3.143   1.868 -0.0186  0.1816  0.3685
27157WAT      O10432   9.946   3.476   4.392  0.8294 -0.0721 -0.2849
27157WAT     H110433   9.977   3.519   4.312  0.8248 -0.6306 -0.5937
27157WAT     H210434   9.947   3.383   4.370 -0.7900 -0.1331 -0.2074
27157WAT    EPW10435   9.951   3.469   4.378  0.6151 -0.1539 -0.3152
27158WAT      O10436   2.466   4.184   1.657 -0.5850 -0.3176 -0.4039
27158WAT     H110437   2.379   4.145   1.647 -0.8060  0.5773 -2.5161
27158WAT     H210438   2.492   4.206   1.567  0.4197  2.4146  0.4638
27158WAT    EPW10439   2.458   4.181   1.644 -0.4817  0.1605 -0.5681
27159WAT      O10440   3.614   2.130   2.257  0.5653 -0.0790 -0.8312
27159WAT     H110441   3.528   2.133   2.299  0.1062 -0.8816 -1.6635
27159WAT     H210442   3.640   2.038   2.263  2.7800  0.5742  2.0854
27159WAT    EPW10443   3.606   2.118   2.263  0.7968 -0.0987 -0.5562
27160WAT      O10444   0.882   3.108   3.095  0.2494  0.3015 -0.8339
27160WAT     H110445   0.894   3.032   3.152 -1.6957  0.3723 -0.2769
27160WAT     H210446   0.947   3.171   3.125  0.6317 -0.4393 -0.0696
27160WAT    EPW10447   0.892   3.106   3.106  0.0433  0.2130 -0.6597
27161WAT      O10448   1.382   0.488   3.573  0.5837  0.1946 -0.3341
27161WAT     H110449   1.308   0.536   3.611 -0.4407 -0.8331 -0.9575
27161WAT     H210450   1.393   0.528   3.486 -0.9550 -1.2967 -1.2821
27161WAT    EPW10451   1.373   0.500   3.566  0.2456 -0.1376 -0.5414
27162WAT      O10452   3.068   3.385   3.500  0.1623 -0.2854 -0.1388
27162WAT     H110453   3.005   3.324   3.463 -0.0582 -0.6665  0.8370
27162WAT     H210454   3.149   3.368   3.452 -0.9873  1.8698 -3.1409
27162WAT    EPW10455   3.070   3.375   3.488 -0.0184 -0.0515 -0.4060
27163WAT      O10456   9.644   1.963   4.507 -0.1698  0.1553  0.7435
27163WAT     H110457   9.726   2.010   4.492  0.8021 -1.0809  1.7966
27163WAT     H210458   9.577   2.031   4.513  1.1539  1.4235  2.1926
27163WAT    EPW10459   9.646   1.978   4.506  0.1330  0.1595  1.0734
27164WAT      O10460  10.690   1.143   3.930  0.0525 -0.2687 -0.7324
27164WAT     H110461  10.629   1.111   3.996 -0.3064 -0.1715 -1.0152
27164WAT     H210462  10.717   1.229   3.963 -0.6679  0.0868 -1.0594
27164WAT    EPW10463  10.685   1.150   3.943 -0.0896 -0.2090 -0.8128
27165WAT      O10464   9.136   2.281   4.069  0.2930 -1.1889  0.1889
27165WAT     H110465   9.107   2.290   4.160 -0.0834  3.9201 -0.1302
27165WAT     H210466   9.054   2.272   4.019  0.2390 -0.7062  0.1837
27165WAT    EPW10467   9.121   2.281   4.075  0.2360 -0.4514  0.1462
27166WAT      O10468   2.464   2.988   5.196  0.7887 -0.3421  0.7613
27166WAT     H110469   2.501   3.068   5.159 -0.2994 -0.5115 -0.7937
27166WAT     H210470   2.447   3.010   5.288  2.0060  0.6640  0.7747
27166WAT    EPW10471   2.467   3.002   5.203  0.8056 -0.2317  0.5577
27167WAT      O10472   0.026   2.882   2.847  0.1598  0.2695  0.2978
27167WAT     H110473  -0.056   2.840   2.820  0.2323 -2.2444  3.4369
27167WAT     H210474   0.006   2.918   2.934  1.9069  1.2957  0.3175
27167WAT    EPW10475   0.012   2.881   2.855  0.3998  0.0733  0.7145
27168WAT      O10476  10.849   3.168   1.818  0.3489 -0.2717  0.2339
27168WAT     H110477  10.858   3.097   1.882 -2.2900 -0.6614  0.2572
27168WAT     H210478  10.837   3.247   1.870  0.6157 -0.2063  0.1999
27168WAT    EPW10479  10.849   3.169   1.833  0.0367 -0.3145  0.2325
27169WAT      O10480   1.030   0.504   4.562 -0.3544 -0.0999 -0.3192
27169WAT     H110481   1.112   0.474   4.522 -0.3135 -0.3723 -0.0350
27169WAT     H210482   1.016   0.444   4.635 -1.0099 -0.2905 -0.5986
27169WAT    EPW10483   1.039   0.492   4.566 -0.4355 -0.1610 -0.3185
27170WAT      O10484   0.048   3.918   4.261  0.0923  0.1850  0.5179
27170WAT     H110485   0.042   4.013   4.268  1.1041  0.2233  1.1016
27170WAT     H210486  -0.042   3.887   4.269 -0.3325  1.1362 -0.4627
27170WAT    EPW10487   0.035   3.926   4.263  0.1698  0.3154  0.4656
27171WAT      O10488   9.102   5.448   4.073 -0.4586 -0.2057 -0.2713
27171WAT     H110489   9.059   5.411   3.996 -2.4185  2.0262 -0.3566
27171WAT     H210490   9.177   5.496   4.037 -0.7291 -0.0966 -0.7039
27171WAT    EPW10491   9.106   5.450   4.058 -0.7529  0.1030 -0.3395
27172WAT      O10492   9.275   4.949   3.108  0.0779  0.1676  0.4422
27172WAT     H110493   9.273   4.892   3.032  1.3163 -0.5589  0.9301
27172WAT     H210494   9.298   5.035   3.072  2.2793 -0.4833  0.1162
27172WAT    EPW10495   9.278   4.953   3.093  0.5317 -0.0141  0.4635
27173WAT      O10496   3.132   3.152   3.178 -0.3552  0.0129 -0.1160
27173WAT     H110497   3.198   3.212   3.211  0.6635 -1.2649  0.2381
27173WAT     H210498   3.147   3.148   3.084 -1.4116  1.4345 -0.3905
27173WAT    EPW10499   3.142   3.160   3.170 -0.3601  0.0318 -0.1055
27174WAT      O10500  10.643   3.687   6.289  0.2169  0.0535 -0.7884
27174WAT     H110501  10.687   3.742   6.354 -2.4901  0.9666  0.4199
27174WAT     H210502  10.644   3.599   6.328  1.8762 -0.2051 -1.3223
27174WAT    EPW10503  10.649   3.682   6.303  0.0782  0.1398 -0.6990
27175WAT      O10504  10.027   1.246   2.442 -0.2526  0.1215 -0.5821
27175WAT     H110505  10.040   1.300   2.520 -0.7984 -0.8652  0.2017
27175WAT     H210506   9.958   1.291   2.393  1.6782  2.0452 -1.7310
27175WAT    EPW10507  10.020   1.259   2.446 -0.0696  0.2452 -0.6303
27176WAT      O10508   7.496  10.143   5.814  0.8016 -0.2347  0.8263
27176WAT     H110509   7.520  10.185   5.731 -0.3292  1.2103  1.1933
27176WAT     H210510   7.481  10.051   5.791 -0.4065  0.3146 -0.7893
27176WAT    EPW10511   7.497  10.137   5.800  0.4933  0.0286  0.6618
27177WAT      O10512   0.500   4.129   2.273 -0.0151 -0.4064 -0.2115
27177WAT     H110513   0.576   4.075   2.251  1.0068  1.2419 -0.9269
27177WAT     H210514   0.432   4.100   2.213  0.9692  0.0584 -1.6086
27177WAT    EPW10515   0.501   4.118   2.262  0.2494 -0.1278 -0.4902
27178WAT      O10516  10.995   4.831   0.104  0.1287  0.0211 -0.0410
27178WAT     H110517  11.022   4.870   0.187  0.8052 -0.5992  0.0391
27178WAT     H210518  10.968   4.742   0.127  0.4910 -0.2126 -0.5060
27178WAT    EPW10519  10.995   4.824   0.118  0.2661 -0.0916 -0.0918
27179WAT      O10520   5.064   1.964   5.537  0.1908  0.1456  0.7849
27179WAT     H110521   5.117   2.021   5.592  0.4677  0.0196  0.6545
27179WAT     H210522   5.126   1.897   5.505  0.2334  0.7017 -0.3574
27179WAT    EPW10523   5.079   1.962   5.540  0.2329  0.2022  0.6170
27180WAT      O10524   9.034   3.769   3.103 -0.1975 -0.1333  0.3682
27180WAT     H110525   9.067   3.857   3.124 -0.1706  0.1878 -0.9282
27180WAT     H210526   9.072   3.713   3.170  1.2681  0.5672  0.1620
27180WAT    EPW10527   9.043   3.773   3.115 -0.0005  0.0013  0.1700
27181WAT      O10528   6.505   9.655   4.858 -0.3105  0.0878 -0.5588
27181WAT     H110529   6.450   9.595   4.807 -0.7979 -0.0730  0.1300
27181WAT     H210530   6.485   9.633   4.949  0.5042  0.3997 -0.2991
27181WAT    EPW10531   6.495   9.644   4.863 -0.2673  0.1078 -0.4337
27182WAT      O10532   0.694   5.566   2.519  0.5559  0.1423  0.1808
27182WAT     H110533   0.623   5.542   2.459  0.0634  0.6753  0.5365
27182WAT     H210534   0.765   5.594   2.462  0.3218  0.0401 -0.1690
27182WAT    EPW10535   0.694   5.566   2.504  0.4600  0.1991  0.1816
27183WAT      O10536   2.894   1.921   3.426 -0.1545 -0.3211  0.0138
27183WAT     H110537   2.828   1.920   3.496 -0.5283  0.9503 -0.2835
27183WAT     H210538   2.854   1.973   3.356  1.1038  0.3696 -0.2267
27183WAT    EPW10539   2.880   1.928   3.426 -0.0379 -0.0623 -0.0572
27184WAT      O10540   0.335   5.308   4.340 -0.1976  0.1079  0.5401
27184WAT     H110541   0.312   5.374   4.405  0.9068  0.8699  0.1833
27184WAT     H210542   0.385   5.356   4.274 -0.5225 -0.8284 -0.4183
27184WAT    EPW10543   0.339   5.323   4.340 -0.0948  0.0849  0.3664
27185WAT      O10544   3.244   0.520   0.879  0.6813 -0.0250 -0.3424
27185WAT     H110545   3.245   0.588   0.946  2.5085 -1.5982  1.3326
27185WAT     H210546   3.198   0.447   0.920  2.1554 -1.1496 -0.6286
27185WAT    EPW10547   3.238   0.520   0.893  1.1168 -0.3808 -0.1592
27186WAT      O10548   0.803   1.463   2.833  0.1940 -0.0955 -0.3255
27186WAT     H110549   0.851   1.546   2.843  1.0198 -0.6324  0.3357
27186WAT     H210550   0.712   1.490   2.821  0.4917  0.9195 -0.4424
27186WAT    EPW10551   0.798   1.478   2.833  0.3422 -0.0324 -0.2539
27187WAT      O10552  10.366   1.954   2.937 -0.0087  0.1477 -0.1302
27187WAT     H110553  10.309   1.996   3.002  1.2760  1.2167  0.3696
27187WAT     H210554  10.447   2.005   2.941  1.5767 -2.2482  0.3140
27187WAT    EPW10555  10.369   1.966   2.946  0.3700 -0.0274 -0.0057
27188WAT      O10556  10.895   3.000   5.750  0.0816  0.1452 -0.3317
27188WAT     H110557  10.852   3.023   5.668 -0.7778  1.2293  0.3817
27188WAT     H210558  10.866   2.911   5.769 -1.1166  0.5063 -0.3579
27188WAT    EPW10559  10.885   2.991   5.742 -0.1903  0.3358 -0.2410
27189WAT      O10560   1.063   3.338   7.181 -0.4992 -0.2886 -0.3144
27189WAT     H110561   1.101   3.346   7.094 -0.9668  1.0385 -0.4086
27189WAT     H210562   1.030   3.425   7.202  0.4106 -0.3476  1.5673
27189WAT    EPW10563   1.063   3.350   7.172 -0.4408 -0.1214 -0.0789
27190WAT      O10564   8.225   5.250   0.984  0.1631 -0.1132  0.0663
27190WAT     H110565   8.259   5.166   0.954  0.3187 -0.5325  1.3695
27190WAT     H210566   8.136   5.230   1.014 -0.9490  0.7810 -2.3868
27190WAT    EPW10567   8.218   5.236   0.984  0.0372 -0.0505 -0.0854
27191WAT      O10568   1.654   3.041   1.090 -0.0491  0.0995 -0.5006
27191WAT     H110569   1.747   3.017   1.083  0.4979  1.2688  1.8067
27191WAT     H210570   1.622   2.990   1.164 -0.7834  1.0143 -0.1709
27191WAT    EPW10571   1.662   3.031   1.099 -0.0739  0.3744 -0.1529
27192WAT      O10572   3.280   3.498   2.359  0.1704  0.2274 -1.1298
27192WAT     H110573   3.220   3.487   2.433  1.3284  1.4762  0.0468
27192WAT     H210574   3.324   3.414   2.351 -0.4565 -0.1381 -0.8558
27192WAT    EPW10575   3.278   3.486   2.368  0.2404  0.3440 -0.9383
27193WAT      O10576  10.913   1.805   7.736  0.7658 -0.4375  0.1732
27193WAT     H110577  10.959   1.856   7.671 -1.1490  0.1084 -0.8406
27193WAT     H210578  10.888   1.869   7.804  0.9439 -0.6031  0.3965
27193WAT    EPW10579  10.916   1.820   7.737  0.5364 -0.3873  0.0689
27194WAT      O10580   0.041   2.139   3.933  0.3710 -0.0945 -1.0697
27194WAT     H110581  -0.041   2.132   3.885  0.7342 -1.8892 -1.5114
27194WAT     H210582   0.089   2.210   3.888 -1.3642  1.8309 -0.0343
27194WAT    EPW10583   0.037   2.148   3.921  0.1901 -0.0772 -0.9912
27195WAT      O10584   0.036   6.035   3.211 -0.4730 -0.1276  0.0093
27195WAT     H110585   0.109   5.975   3.227  0.7189  1.5288  1.1660
27195WAT     H210586   0.069   6.095   3.144 -2.1811 -1.5620 -2.2533
27195WAT    EPW10587   0.050   6.035   3.204 -0.5411 -0.0982 -0.1366
27196WAT      O10588  10.932   4.838   1.152  0.5107  0.0101 -0.4750
27196WAT     H110589  10.851   4.789   1.138  0.6998 -0.1073 -1.2207
27196WAT     H210590  10.937   4.849   1.247  0.7629 -1.9395 -0.2082
27196WAT    EPW10591  10.922   4.833   1.162  0.5689 -0.2625 -0.5381
27197WAT      O10592   0.589   3.816   5.579 -0.3407 -0.1517  0.7082
27197WAT     H110593   0.546   3.732   5.563  0.4590 -0.2734 -1.1091
27197WAT     H210594   0.527   3.881   5.546  0.5838 -0.3064 -1.5533
27197WAT    EPW10595   0.575   3.813   5.572 -0.1133 -0.1881  0.1700
27198WAT      O10596   1.586   0.080   3.414 -1.0641  0.3675 -0.0831
27198WAT     H110597   1.549   0.125   3.490  0.6957 -1.1402  1.7914
27198WAT     H210598   1.663   0.133   3.390  1.1488 -1.5118  2.2734
27198WAT    EPW10599   1.592   0.093   3.421 -0.5401 -0.0792  0.4749
27199WAT      O10600   0.717   3.347   3.221  0.4194 -0.2274  0.2463
27199WAT     H110601   0.678   3.293   3.153 -0.1453  0.9539 -0.4030
27199WAT     H210602   0.721   3.435   3.183 -0.9692  0.7217  2.1251
27199WAT    EPW10603   0.713   3.352   3.207  0.1618  0.0536  0.4085
27200WAT      O10604   6.732  10.344   3.335 -0.2910  0.0354  0.0800
27200WAT     H110605   6.807  10.349   3.276  0.2099  3.1157  0.7865
27200WAT     H210606   6.656  10.351   3.277  0.0379 -0.7128 -0.4542
27200WAT    EPW10607   6.732  10.346   3.320 -0.1812  0.3428  0.1026
27201WAT      O10608   0.042   3.707   7.926  0.5772 -0.1735 -0.0878
27201WAT     H110609  -0.037   3.675   7.883 -2.2326  2.2772  2.7562
27201WAT     H210610   0.075   3.632   7.975 -2.6134 -0.3197  2.0849
27201WAT    EPW10611   0.036   3.693   7.927 -0.2142  0.1303  0.5741
27202WAT      O10612   6.247   2.350   1.721  0.2649  0.4873 -0.4080
27202WAT     H110613   6.337   2.383   1.724 -0.1303  1.5589  0.0679
27202WAT     H210614   6.253   2.261   1.756  0.8837  1.1905  1.4034
27202WAT    EPW10615   6.260   2.342   1.726  0.2944  0.7215 -0.1063
27203WAT      O10616   0.549   4.700   5.504 -1.0356 -0.4527 -0.2471
27203WAT     H110617   0.541   4.784   5.549  0.0096  0.3611 -1.5274
27203WAT     H210618   0.545   4.635   5.575 -1.1756  0.6970  0.8371
27203WAT    EPW10619   0.547   4.702   5.520 -0.9162 -0.1936 -0.2730
27204WAT      O10620   7.515   1.899   4.591  0.2479  0.6842 -0.3392
27204WAT     H110621   7.484   1.963   4.527  1.3872  2.7058  1.0285
27204WAT     H210622   7.596   1.864   4.552  0.4579  1.2466 -0.4242
27204WAT    EPW10623   7.522   1.903   4.577  0.4258  1.0250 -0.1700
27205WAT      O10624   0.208   2.436   4.399 -0.6460  0.1594 -0.7007
27205WAT     H110625   0.181   2.374   4.331 -2.6212  0.2193 -0.0255
27205WAT     H210626   0.191   2.389   4.481 -0.6259  1.0033 -0.2105
27205WAT    EPW10627   0.202   2.421   4.401 -0.9039  0.2786 -0.5472
27206WAT      O10628   2.627   0.429   3.408 -0.1447  0.0127 -0.3122
27206WAT     H110629   2.691   0.405   3.342 -0.4526  0.1467 -0.6612
27206WAT     H210630   2.651   0.519   3.433 -0.2433  0.0924 -0.5016
27206WAT    EPW10631   2.638   0.438   3.403 -0.1982  0.0409 -0.3831
27207WAT      O10632   0.215   3.745   5.638 -0.2444 -0.7988 -0.2966
27207WAT     H110633   0.126   3.711   5.630 -0.0532 -1.2188 -0.7181
27207WAT     H210634   0.231   3.747   5.733 -1.4072  1.2024 -0.1008
27207WAT    EPW10635   0.205   3.741   5.650 -0.3726 -0.5901 -0.3264
27208WAT      O10636  10.518   0.458   1.301 -0.4860  0.6509 -0.2336
27208WAT     H110637  10.554   0.420   1.221 -0.2306  0.9157 -0.2411
27208WAT     H210638  10.425   0.472   1.281 -0.9936 -1.5040  0.3075
27208WAT    EPW10639  10.510   0.455   1.288 -0.5188  0.4016 -0.1632
27209WAT      O10640   9.906   3.906   1.710  0.0336 -0.6557 -1.0336
27209WAT     H110641   9.877   3.892   1.800 -2.3277  0.4915 -1.5412
27209WAT     H210642  10.000   3.921   1.717 -0.4094  1.6773  1.5490
27209WAT    EPW10643   9.915   3.906   1.723 -0.3362 -0.1967 -0.7600
27210WAT      O10644   0.494   7.384   1.466 -0.0518  0.4018 -0.3284
27210WAT     H110645   0.561   7.447   1.439  1.0545 -0.6430 -0.1248
27210WAT     H210646   0.413   7.435   1.472  1.0056  2.0207  0.8886
27210WAT    EPW10647   0.492   7.399   1.463  0.2336  0.4776 -0.1410
27211WAT      O10648   1.622   1.504   2.650  0.4993 -0.4419  0.6924
27211WAT     H110649   1.623   1.574   2.716  2.5323 -1.8182  2.2436
27211WAT     H210650   1.648   1.425   2.698  0.0546 -1.9222 -1.3719
27211WAT    EPW10651   1.626   1.503   2.665  0.7088 -0.8187  0.6248
27212WAT      O10652   9.878   7.424   2.520 -0.0742  0.3325 -0.1244
27212WAT     H110653   9.955   7.478   2.534 -1.2819  1.8993  0.7383
27212WAT     H210654   9.891   7.387   2.432  0.5426  2.4704 -1.0056
27212WAT    EPW10655   9.890   7.426   2.510 -0.1526  0.8211 -0.1268
27213WAT      O10656   1.998   4.087   2.940 -0.4066 -0.0113 -0.3535
27213WAT     H110657   1.924   4.082   3.000  0.7039 -1.1343  0.9801
27213WAT     H210658   2.014   3.996   2.914  1.4608  0.0011  0.6065
27213WAT    EPW10659   1.990   4.074   2.944 -0.0138 -0.1576 -0.0510
27214WAT      O10660  10.946   4.099   3.196  0.7974  0.1802 -0.1134
27214WAT     H110661  10.893   4.121   3.119 -0.9532  3.1846  1.7226
27214WAT     H210662  11.037   4.107   3.166  0.1749  0.8790 -1.9623
27214WAT    EPW10663  10.951   4.103   3.182  0.4845  0.6685 -0.1153
27215WAT      O10664  10.647   4.768   7.110 -0.1453 -0.5006 -0.8026
27215WAT     H110665  10.733   4.743   7.145 -0.2343  0.9683  0.5582
27215WAT     H210666  10.653   4.749   7.016  2.1916  0.9268 -1.0091
27215WAT    EPW10667  10.659   4.762   7.102  0.1516 -0.1187 -0.6502
27216WAT      O10668  10.937   4.391   3.334 -0.2907 -0.0775  0.7436
27216WAT     H110669  10.917   4.329   3.264 -0.7057  1.7648 -0.8509
27216WAT     H210670  10.851   4.416   3.369 -0.2132  0.7072  0.3726
27216WAT    EPW10671  10.923   4.386   3.330 -0.3352  0.2689  0.4843
27217WAT      O10672  10.939   6.133   6.534 -0.5185  0.2700 -0.2641
27217WAT     H110673  10.898   6.063   6.483 -1.3444 -0.3487  1.1951
27217WAT     H210674  10.954   6.095   6.620  1.4469  1.0838 -0.1831
27217WAT    EPW10675  10.936   6.119   6.538 -0.3682  0.2956 -0.0608
27218WAT      O10676   8.919   1.664   3.263  0.8007  0.4701 -0.0484
27218WAT     H110677   8.956   1.589   3.216  0.4838  0.7225 -0.7032
27218WAT     H210678   8.995   1.713   3.293  1.2621 -2.1931  3.9894
27218WAT    EPW10679   8.934   1.660   3.261  0.8197  0.1522  0.3978
27219WAT      O10680  10.975   3.400   6.045  0.1166 -0.4767 -0.0878
27219WAT     H110681  10.973   3.311   6.080 -0.3275 -0.4970 -0.1603
27219WAT     H210682  11.066   3.413   6.018 -0.0339 -1.2805 -1.0297
27219WAT    EPW10683  10.987   3.390   6.046  0.0386 -0.5854 -0.2217
27220WAT      O10684  10.332   3.259   1.909 -0.4070  0.8824 -0.0041
27220WAT     H110685  10.314   3.265   2.003  1.0554  1.3270  0.2731
27220WAT     H210686  10.399   3.325   1.894  0.4880 -0.2411 -1.0665
27220WAT    EPW10687  10.338   3.268   1.920 -0.0968  0.7929 -0.1077
27221WAT      O10688   3.649   5.542   3.249  0.9499 -0.2996 -0.2187
27221WAT     H110689   3.555   5.550   3.233  0.7686 -0.0603  0.9285
27221WAT     H210690   3.669   5.611   3.311  1.6911 -1.0081  0.3464
27221WAT    EPW10691   3.639   5.552   3.255  1.0238 -0.3617  0.0072
27222WAT      O10692   2.761   3.967   4.857 -0.0695 -0.2752 -0.0368
27222WAT     H110693   2.808   4.047   4.833 -2.3458  1.5150  1.0361
27222WAT     H210694   2.696   3.996   4.921 -2.5837 -2.5396 -1.3654
27222WAT    EPW10695   2.759   3.981   4.862 -0.7013 -0.3378 -0.0703
27223WAT      O10696  10.801   1.664   4.342  0.8182  0.5923 -0.2537
27223WAT     H110697  10.798   1.709   4.258  2.3469 -0.6286 -1.0144
27223WAT     H210698  10.711   1.666   4.374  0.2882  1.4294 -1.7250
27223WAT    EPW10699  10.789   1.670   4.335  0.9499  0.5417 -0.5481
27224WAT      O10700   4.398   2.248   2.454  0.6493  0.3670  0.1276
27224WAT     H110701   4.416   2.187   2.382 -2.0176  1.3106 -1.4566
27224WAT     H210702   4.353   2.194   2.520  1.5730 -0.1099  0.4030
27224WAT    EPW10703   4.394   2.233   2.454  0.4194  0.4286 -0.0451
27225WAT      O10704   1.962   2.793   4.182  0.4730 -0.4350 -0.0194
27225WAT     H110705   1.893   2.809   4.247  1.0984 -2.1852  1.1563
27225WAT     H210706   2.016   2.725   4.221  2.6915  0.6200 -1.0721
27225WAT    EPW10707   1.960   2.786   4.196  0.8481 -0.5268 -0.0031
27226WAT      O10708   1.926   6.834   1.862  0.3314  0.2667 -0.1355
27226WAT     H110709   1.888   6.917   1.834  1.0411  0.8324  0.5594
27226WAT     H210710   1.905   6.773   1.791  1.6455  1.5279 -1.6830
27226WAT    EPW10711   1.918   6.837   1.849  0.5983  0.5078 -0.2480
27227WAT      O10712   0.172   4.530   2.774  0.6666  0.6218  0.6070
27227WAT     H110713   0.101   4.529   2.837  0.9960 -0.8239  1.0021
27227WAT     H210714   0.246   4.571   2.820  0.9473 -0.5529  1.2325
27227WAT    EPW10715   0.173   4.535   2.788  0.7471  0.2766  0.7416
27228WAT      O10716   0.380   2.920   3.966  0.0048 -0.5155 -0.3735
27228WAT     H110717   0.297   2.967   3.962  1.1104  1.5464 -0.4671
27228WAT     H210718   0.369   2.848   3.904 -2.6305 -2.0182  1.5909
27228WAT    EPW10719   0.368   2.917   3.957 -0.1969 -0.4417 -0.1267
27229WAT      O10720   1.589   4.731   0.718 -0.5764  0.1492 -0.4854
27229WAT     H110721   1.510   4.708   0.668  0.4720  1.1247 -2.6834
27229WAT     H210722   1.634   4.796   0.665  2.5393 -1.4918 -0.1098
27229WAT    EPW10723   1.584   4.736   0.704 -0.0271  0.0615 -0.7258
27230WAT      O10724   4.243   4.607   2.942 -0.3159  0.2323 -0.4588
27230WAT     H110725   4.339   4.608   2.943 -0.1363 -3.1811 -1.7546
27230WAT     H210726   4.220   4.648   2.858  0.0677  0.2034 -0.5827
27230WAT    EPW10727   4.253   4.613   2.931 -0.2418 -0.2222 -0.6460
27231WAT      O10728  10.876   3.841   0.057 -0.2936 -0.0375 -0.2000
27231WAT     H110729  10.809   3.795   0.006 -2.5907  1.9275  0.8425
27231WAT     H210730  10.939   3.870  -0.009 -1.3809 -0.4701 -1.4952
27231WAT    EPW10731  10.875   3.839   0.041 -0.7401  0.1645 -0.2333
27232WAT      O10732   2.523   1.380   1.431 -0.7093  0.0057  0.0513
27232WAT     H110733   2.605   1.349   1.392 -0.0167  0.0321  1.4472
27232WAT     H210734   2.469   1.301   1.437 -0.8046 -0.0153 -0.8523
27232WAT    EPW10735   2.527   1.365   1.426 -0.6305  0.0064  0.1162
27233WAT      O10736  10.748   5.107   0.248 -0.5036 -0.3660  0.2536
27233WAT     H110737  10.709   5.020   0.244  0.6737 -0.9101  0.1816
27233WAT     H210738  10.721   5.150   0.167 -1.8821 -0.3025  0.7301
27233WAT    EPW10739  10.740   5.101   0.237 -0.5298 -0.4294  0.3069
27234WAT      O10740  10.007   2.358   4.311  0.3449 -0.2106  0.2202
27234WAT     H110741   9.997   2.266   4.336  3.9200 -0.9483 -0.5160
27234WAT     H210742   9.990   2.359   4.217  1.5729 -0.3919 -0.0095
27234WAT    EPW10743  10.003   2.346   4.302  0.9785 -0.3318  0.0930
27235WAT      O10744  10.871   2.863   7.837  0.3750 -0.7020 -1.4337
27235WAT     H110745  10.787   2.834   7.800 -1.6850  1.0270  1.4613
27235WAT     H210746  10.851   2.947   7.878  2.9901 -1.2611  1.3269
27235WAT    EPW10747  10.857   2.870   7.837  0.4478 -0.5478 -0.6878
27236WAT      O10748   0.933   2.906   4.242 -0.3388  0.1283  0.1357
27236WAT     H110749   0.930   3.000   4.261  0.5499 -0.1530  1.8265
27236WAT     H210750   0.914   2.864   4.326  3.9368 -1.2153  0.6770
27236WAT    EPW10751   0.930   2.913   4.256  0.3423 -0.0861  0.4301
27237WAT      O10752   9.072   5.846   0.637 -0.4388  0.8032  0.2239
27237WAT     H110753   9.161   5.836   0.670 -0.7474 -0.4061  0.7826
27237WAT     H210754   9.071   5.931   0.592  0.8271  1.0861  0.7024
27237WAT    EPW10755   9.083   5.856   0.636 -0.3128  0.6812  0.3607
27238WAT      O10756   1.426   8.755   1.470  0.7024 -0.2614 -0.1353
27238WAT     H110757   1.506   8.803   1.448 -0.0041  0.6655 -0.7793
27238WAT     H210758   1.447   8.663   1.455  1.7816 -0.0707  0.1619
27238WAT    EPW10759   1.439   8.749   1.465  0.7516 -0.1140 -0.1811
27239WAT      O10760   1.368   4.935   2.743 -0.0747  0.5827  0.0488
27239WAT     H110761   1.321   5.010   2.706 -1.0935  0.2421  0.6051
27239WAT     H210762   1.440   4.974   2.792  0.4449  1.1026 -1.1034
27239WAT    EPW10763   1.371   4.950   2.745 -0.1406  0.6065 -0.0298
27240WAT      O10764   5.026   5.986   4.328 -0.1313 -0.0067  0.0675
27240WAT     H110765   4.998   6.064   4.376  0.7130  0.8396 -0.7706
27240WAT     H210766   4.971   5.916   4.362  0.0712  0.6558  1.8949
27240WAT    EPW10767   5.015   5.987   4.339  0.0069  0.1924  0.1976
27241WAT      O10768   0.510   0.037   6.567  0.1864 -0.3636 -0.5039
27241WAT     H110769   0.596   0.036   6.526  1.0996  1.6662  1.1550
27241WAT     H210770   0.462   0.108   6.523  0.1989  0.0035  0.0541
27241WAT    EPW10771   0.515   0.047   6.556  0.3085 -0.0475 -0.2115
27242WAT      O10772   0.302   3.888   1.794 -0.1934  0.8131 -0.0078
27242WAT     H110773   0.391   3.913   1.821  0.0447  0.3010 -0.2823
27242WAT     H210774   0.246   3.960   1.824  0.5508  2.0430 -1.4195
27242WAT    EPW10775   0.307   3.901   1.802 -0.0638  0.9078 -0.2302
27243WAT      O10776  10.935   5.951   1.525  0.0332  0.0368  0.3667
27243WAT     H110777  10.931   6.018   1.594 -0.1823  0.2195  0.1792
27243WAT     H210778  10.845   5.942   1.495  0.1964  0.3111 -0.2277
27243WAT    EPW10779  10.923   5.959   1.530  0.0267  0.0970  0.2636
27244WAT      O10780   9.688   2.981   4.978  0.5239 -0.2558 -0.3463
27244WAT     H110781   9.683   3.076   4.970 -0.6071 -0.4039 -1.9057
27244WAT     H210782   9.767   2.957   4.930  1.0399 -0.0839  0.4057
27244WAT    EPW10783   9.698   2.990   4.970  0.4430 -0.2527 -0.4528
27245WAT      O10784   0.175   4.237   4.450 -0.2603 -0.7252 -0.0783
27245WAT     H110785   0.127   4.319   4.444  0.6077 -0.1801  0.2072
27245WAT     H210786   0.233   4.237   4.375 -0.1012 -0.9775  0.0420
27245WAT    EPW10787   0.176   4.248   4.440 -0.1248 -0.6864 -0.0248
27246WAT      O10788   8.990   2.283   3.054  0.8375  0.7741 -0.3873
27246WAT     H110789   8.932   2.329   2.994  1.4131  1.6770 -0.2736
27246WAT     H210790   9.001   2.344   3.127  0.9840  0.1216  0.1387
27246WAT    EPW10791   8.984   2.297   3.056  0.9332  0.8072 -0.3029
27247WAT      O10792   2.472   4.420   2.683 -0.1923 -0.0806  0.5478
27247WAT     H110793   2.394   4.437   2.631  0.7205  0.7333 -0.6257
27247WAT     H210794   2.498   4.507   2.715 -0.6201 -0.5446  2.2093
27247WAT    EPW10795   2.465   4.434   2.680 -0.1283 -0.0346  0.6121
27248WAT      O10796   1.407   5.710   0.849  0.4446  0.3699  0.1831
27248WAT     H110797   1.459   5.655   0.790  0.5632  0.8880 -0.1979
27248WAT     H210798   1.390   5.790   0.799 -0.6811  0.2377  0.3145
27248WAT    EPW10799   1.412   5.713   0.834  0.3119  0.4208  0.1502
27249WAT      O10800   1.970   2.206   1.579 -0.1657 -0.0564 -0.4300
27249WAT     H110801   1.938   2.176   1.494 -0.0226 -0.4790 -0.3357
27249WAT     H210802   2.025   2.134   1.611 -3.8983 -2.0634  2.1953
27249WAT    EPW10803   1.973   2.192   1.572 -0.6391 -0.3768 -0.0713
27250WAT      O10804  10.692   3.862   4.727 -0.1531  0.0963 -0.5005
27250WAT     H110805  10.641   3.943   4.728  1.4097  1.1190 -0.9722
27250WAT     H210806  10.761   3.876   4.792  0.5485 -0.5795 -1.0843
27250WAT    EPW10807  10.694   3.874   4.736  0.1459  0.1421 -0.6397
27251WAT      O10808   1.300   2.949   5.618  0.4430 -0.0747  0.4958
27251WAT     H110809   1.223   2.939   5.674  2.7060 -1.4490  3.6279
27251WAT     H210810   1.316   2.862   5.583  1.5097 -0.2125  1.2754
27251WAT    EPW10811   1.292   2.937   5.621  0.8821 -0.2741  1.0116
27252WAT      O10812  10.502   3.187   3.250  0.3154  0.4059  0.0373
27252WAT     H110813  10.538   3.150   3.170  0.0470  1.3976 -0.5577
27252WAT     H210814  10.408   3.193   3.234  0.5461  3.4029 -0.8154
27252WAT    EPW10815  10.494   3.183   3.238  0.3104  0.9320 -0.1538
27253WAT      O10816  10.278   5.348   2.237 -0.4850  0.4554  0.2593
27253WAT     H110817  10.307   5.311   2.154  0.6446  0.7455  0.4995
27253WAT     H210818  10.358   5.351   2.290 -0.9007  1.6084  0.8430
27253WAT    EPW10819  10.293   5.343   2.233 -0.3905  0.6456  0.3680
27254WAT      O10820   8.411   9.970   4.156 -0.0597 -1.2599  0.3735
27254WAT     H110821   8.366   9.989   4.238 -0.1202  1.0477 -0.1288
27254WAT     H210822   8.475  10.041   4.146 -0.3639 -1.2088 -1.7911
27254WAT    EPW10823   8.414   9.982   4.165 -0.1078 -0.9489  0.0215
27255WAT      O10824   1.785   7.007   2.156  0.3148 -0.1606 -0.4453
27255WAT     H110825   1.864   7.011   2.102 -0.3049  0.2267 -1.3482
27255WAT     H210826   1.725   6.953   2.104 -0.1418 -0.1488  0.0716
27255WAT    EPW10827   1.788   7.000   2.142  0.1729 -0.1080 -0.4961
27256WAT      O10828   1.039   3.350   2.326 -1.1403 -0.2127  1.0384
27256WAT     H110829   0.973   3.300   2.279 -0.4527 -0.9858  0.8592
27256WAT     H210830   1.090   3.393   2.257 -1.6341  0.6179  1.1869
27256WAT    EPW10831   1.037   3.349   2.311 -1.1148 -0.2052  1.0343
27257WAT      O10832  10.897   5.559   1.747  0.3527 -0.7875  0.4361
27257WAT     H110833  10.880   5.465   1.740  1.3710 -1.0882  1.6559
27257WAT     H210834  10.813   5.597   1.772 -0.3978 -1.1711 -1.3755
27257WAT    EPW10835  10.884   5.552   1.749  0.3881 -0.8776  0.3580
27258WAT      O10836   1.678   5.456   4.883 -0.5890 -0.2684  0.4816
27258WAT     H110837   1.591   5.492   4.864 -1.4074 -1.9544  0.7420
27258WAT     H210838   1.738   5.509   4.832 -1.9085  0.2190 -0.6284
27258WAT    EPW10839   1.674   5.467   4.874 -0.8710 -0.4263  0.3695
27259WAT      O10840   1.975   1.655   3.798 -0.2039 -0.4123  0.0969
27259WAT     H110841   1.888   1.678   3.765  0.0544 -1.1805 -1.2234
27259WAT     H210842   1.998   1.726   3.857 -2.7200 -1.3365  2.4051
27259WAT    EPW10843   1.966   1.667   3.801 -0.5017 -0.6355  0.2273
27260WAT      O10844   2.713   5.523   2.966  0.1842  0.3905  0.4602
27260WAT     H110845   2.727   5.432   2.991  2.2927  0.5210 -0.0535
27260WAT     H210846   2.777   5.573   3.017  1.4225  1.1640 -1.6892
27260WAT    EPW10847   2.723   5.518   2.976  0.6255  0.5100  0.1091
27261WAT      O10848   0.883   5.723   7.620 -0.3151 -0.2585  0.2568
27261WAT     H110849   0.891   5.641   7.571  1.7008 -0.1916  0.3748
27261WAT     H210850   0.969   5.764   7.612 -1.3274  1.9497  0.0626
27261WAT    EPW10851   0.896   5.718   7.613 -0.1827  0.0415  0.2468
27262WAT      O10852   4.696   6.452   4.830  0.2645  0.4749 -0.1674
27262WAT     H110853   4.729   6.367   4.858  2.0347  1.2154  0.1447
27262WAT     H210854   4.607   6.456   4.866  0.8414 -0.4578  1.4742
27262WAT    EPW10855   4.689   6.441   4.839  0.5739  0.4494  0.0904
27263WAT      O10856   0.636   3.009   3.639  0.6811  0.1060 -0.0556
27263WAT     H110857   0.674   3.075   3.581 -0.7522  0.8588 -0.1904
27263WAT     H210858   0.552   3.046   3.665 -0.4931 -1.9778 -0.6865
27263WAT    EPW10859   0.630   3.023   3.635  0.3372 -0.0696 -0.1568
27264WAT      O10860   0.439   3.591   5.539  0.6100 -0.0276 -0.6271
27264WAT     H110861   0.408   3.564   5.453  1.5136 -0.9440 -0.6840
27264WAT     H210862   0.362   3.628   5.582 -0.8557 -3.0654 -0.4001
27264WAT    EPW10863   0.425   3.592   5.533  0.5359 -0.5490 -0.6049
27265WAT      O10864   0.889   5.374   4.112  0.0726 -0.0492 -0.7008
27265WAT     H110865   0.834   5.384   4.190  1.2929 -2.0196  0.4957
27265WAT     H210866   0.934   5.291   4.125  0.0906 -0.6126 -3.7007
27265WAT    EPW10867   0.887   5.364   4.124  0.2359 -0.3834 -0.9384
27266WAT      O10868   2.186   3.155   5.641  0.1188  0.0317  0.6848
27266WAT     H110869   2.138   3.187   5.565  0.0831  3.1010  1.8858
27266WAT     H210870   2.151   3.067   5.655  0.7175 -1.0441 -3.2506
27266WAT    EPW10871   2.175   3.147   5.633  0.1931  0.2946  0.3242
27267WAT      O10872   0.658   2.799   3.458 -0.6139  0.0663  0.3324
27267WAT     H110873   0.676   2.870   3.520  1.4169 -0.4745  0.4266
27267WAT     H210874   0.655   2.842   3.372 -0.7049  0.4319  0.5159
27267WAT    EPW10875   0.660   2.814   3.455 -0.3581  0.0432  0.3691
27268WAT      O10876   2.925   4.667   3.926  0.5017  0.0048  0.0625
27268WAT     H110877   2.837   4.694   3.955  0.5173  0.7341 -0.5478
27268WAT     H210878   2.980   4.743   3.945  0.6620  0.1972 -1.1206
27268WAT    EPW10879   2.920   4.681   3.933  0.5249  0.1266 -0.1740
27269WAT      O10880   2.694   2.944   3.383 -0.4903  0.0379  0.4939
27269WAT     H110881   2.713   2.855   3.354 -1.3508 -0.0503  0.1684
27269WAT     H210882   2.604   2.940   3.417 -0.4980  0.7552  0.5841
27269WAT    EPW10883   2.685   2.932   3.384 -0.6049  0.1209  0.4628
27270WAT      O10884   0.451   2.470   3.761 -0.0747  0.2129  0.2343
27270WAT     H110885   0.515   2.399   3.758  0.7964  0.8919  1.7769
27270WAT     H210886   0.369   2.428   3.788 -0.4869 -0.7485 -2.2393
27270WAT    EPW10887   0.448   2.456   3.764 -0.0142  0.1757  0.1115
27271WAT      O10888   3.880   3.232   2.075 -0.0209 -0.3129 -0.0515
27271WAT     H110889   3.910   3.177   2.003  1.4521 -2.3300  1.9544
27271WAT     H210890   3.931   3.202   2.150 -1.9938  1.1805  2.0003
27271WAT    EPW10891   3.891   3.220   2.075 -0.0868 -0.3819  0.4838
27272WAT      O10892   9.873   5.141   0.681 -0.2667 -0.3252  0.2538
27272WAT     H110893   9.931   5.082   0.633  0.9514  1.7027 -0.9241
27272WAT     H210894   9.872   5.106   0.770  2.4403 -0.7317  0.2223
27272WAT    EPW10895   9.881   5.129   0.687  0.2513 -0.1111  0.0943
27273WAT      O10896   3.520   2.057   5.194 -0.0141  0.0903 -0.5691
27273WAT     H110897   3.531   2.151   5.190 -1.3324  0.2415 -1.1281
27273WAT     H210898   3.536   2.035   5.285 -2.1638  1.2314  0.1585
27273WAT    EPW10899   3.524   2.066   5.205 -0.4717  0.2608 -0.5472
27274WAT      O10900   2.835   4.250   1.791 -0.0698  0.0314 -0.4260
27274WAT     H110901   2.924   4.216   1.799  0.2532  1.0473  0.5003
27274WAT     H210902   2.835   4.330   1.843 -2.6343 -2.0182  3.1195
27274WAT    EPW10903   2.847   4.256   1.799 -0.3654 -0.1049  0.1638
27275WAT      O10904   6.977   2.269   6.151  0.4707  0.2358  0.9026
27275WAT     H110905   7.044   2.217   6.106  1.0364  1.5497  0.1793
27275WAT     H210906   7.018   2.353   6.167 -0.5004  0.5517  1.8641
27275WAT    EPW10907   6.991   2.273   6.147  0.4172  0.4506  0.9339
27276WAT      O10908   0.449   1.977   5.742  0.3473 -0.7360  0.3907
27276WAT     H110909   0.420   1.971   5.651  2.2578  0.8752 -0.4183
27276WAT     H210910   0.401   2.052   5.778  0.6261 -0.4892  0.2545
27276WAT    EPW10911   0.439   1.986   5.735  0.6361 -0.4910  0.2663
27277WAT      O10912   0.251   1.950   4.620 -0.1476  0.3645  0.1455
27277WAT     H110913   0.256   1.924   4.528 -1.3647  0.8470 -0.0669
27277WAT     H210914   0.330   1.911   4.660  0.2553 -0.0668 -1.0326
27277WAT    EPW10915   0.262   1.941   4.613 -0.2550  0.3713 -0.0381
27278WAT      O10916   5.621   1.906   3.787  1.2555 -0.4266 -0.7415
27278WAT     H110917   5.566   1.906   3.865  0.7598 -0.0056 -1.0901
27278WAT     H210918   5.711   1.903   3.821  1.0570  0.1809 -0.1522
27278WAT    EPW10919   5.626   1.905   3.802  1.1640 -0.2910 -0.7099
27279WAT      O10920   3.314   2.347   7.955 -0.1310 -0.1833 -0.3262
27279WAT     H110921   3.274   2.434   7.963 -1.0014 -0.5778 -0.2599
27279WAT     H210922   3.408   2.363   7.964 -0.3254  0.6736  0.3311
27279WAT    EPW10923   3.321   2.361   7.957 -0.2716 -0.1223 -0.2308
27280WAT      O10924   0.388   3.011   1.930  0.3632 -0.3866 -0.9270
27280WAT     H110925   0.474   3.044   1.954 -0.6373  0.9160  1.1180
27280WAT     H210926   0.391   2.918   1.952  0.5569  0.1110  1.4400
27280WAT    EPW10927   0.400   3.003   1.936  0.2568 -0.1491 -0.3451
27281WAT      O10928  10.155   3.147   5.299 -0.1694  0.1277 -0.0238
27281WAT     H110929  10.169   3.148   5.394 -1.1911 -0.4164  0.1533
27281WAT     H210930  10.116   3.232   5.279 -0.8044 -0.1069  0.1964
27281WAT    EPW10931  10.152   3.158   5.309 -0.3872  0.0249  0.0284
27282WAT      O10932   8.912   4.482   1.336 -0.1312  0.0299 -1.0789
27282WAT     H110933   8.955   4.413   1.285 -4.2158 -3.4938 -0.2754
27282WAT     H210934   8.821   4.481   1.306 -1.7459  0.7987  3.1593
27282WAT    EPW10935   8.906   4.473   1.325 -0.8826 -0.3335 -0.4139
27283WAT      O10936   0.428   5.919   3.895  0.6240 -0.2855  0.2909
27283WAT     H110937   0.396   5.987   3.954  1.3282 -0.9076  1.4464
27283WAT     H210938   0.521   5.909   3.918 -0.0582 -3.6893  2.3692
27283WAT    EPW10939   0.436   5.926   3.906  0.6269 -0.8163  0.7175
27284WAT      O10940   0.653   4.059   1.071  0.3803 -0.2350 -0.3307
27284WAT     H110941   0.695   3.990   1.020  3.8512  1.9350 -0.7493
27284WAT     H210942   0.645   4.023   1.159  0.8058 -1.6335 -0.8458
27284WAT    EPW10943   0.657   4.045   1.076  0.8942 -0.1335 -0.4538
27285WAT      O10944   8.406   4.457   3.849  0.6415 -0.5775 -0.7564
27285WAT     H110945   8.392   4.492   3.761  1.5793  1.0896 -0.2935
27285WAT     H210946   8.490   4.493   3.876 -0.1173 -0.1377  1.2271
27285WAT    EPW10947   8.415   4.467   3.841  0.6647 -0.2992 -0.4336
27286WAT      O10948   0.373   3.484   1.878 -0.3028 -0.3276  0.1745
27286WAT     H110949   0.318   3.411   1.904  1.3586 -1.2881  1.2133
27286WAT     H210950   0.445   3.483   1.941 -0.4167  2.4741  0.4828
27286WAT    EPW10951   0.376   3.474   1.890 -0.0987 -0.0848  0.3523
27287WAT      O10952   8.998   4.723   0.909  0.2540 -0.8408  0.2649
27287WAT     H110953   9.022   4.645   0.859 -0.9857 -1.7568  1.0479
27287WAT     H210954   8.902   4.727   0.903  0.2594  0.3861  0.5953
27287WAT    EPW10955   8.988   4.713   0.901  0.0916 -0.7997  0.4118
27288WAT      O10956   3.349   6.715   5.545 -0.8821 -0.7071  0.0275
27288WAT     H110957   3.309   6.658   5.610  0.5934 -1.6142  0.1798
27288WAT     H210958   3.277   6.768   5.512 -2.4351 -2.9775 -0.4642
27288WAT    EPW10959   3.334   6.714   5.549 -0.8924 -1.1263 -0.0174
27289WAT      O10960   2.811   5.393   3.673 -0.2233  0.4377 -0.3028
27289WAT     H110961   2.787   5.382   3.581  1.1918 -1.7539 -0.4942
27289WAT     H210962   2.903   5.420   3.672 -0.3781  1.0308  0.4670
27289WAT    EPW10963   2.820   5.395   3.661 -0.0571  0.2270 -0.2264
27290WAT      O10964   3.948   2.028   4.237  0.0843  0.0813 -0.1326
27290WAT     H110965   3.985   1.940   4.239 -0.0889  0.0107 -0.0540
27290WAT     H210966   3.861   2.016   4.200  0.7070  0.4424 -1.8153
27290WAT    EPW10967   3.942   2.015   4.232  0.1438  0.1196 -0.3445
27291WAT      O10968   1.536   4.349   5.557  0.1300 -0.4114 -0.0782
27291WAT     H110969   1.548   4.325   5.649 -1.4433 -1.0499 -0.0172
27291WAT     H210970   1.550   4.268   5.509  2.1634  0.1678 -0.5499
27291WAT    EPW10971   1.539   4.335   5.563  0.1907 -0.4191 -0.1326
27292WAT      O10972   4.454   3.808   3.114 -0.5604  0.2204 -0.0406
27292WAT     H110973   4.459   3.720   3.152 -0.9944 -0.0400 -0.5727
27292WAT     H210974   4.545   3.828   3.090 -0.2523  0.4584  1.2569
27292WAT    EPW10975   4.467   3.799   3.115 -0.5772  0.2176  0.0603
27293WAT      O10976   1.570   4.644   2.911 -0.1582 -0.4110  0.5184
27293WAT     H110977   1.604   4.557   2.890 -0.4742 -0.1999 -1.0166
27293WAT     H210978   1.475   4.634   2.906 -0.2037 -0.0673  0.7102
27293WAT    EPW10979   1.562   4.631   2.907 -0.2059 -0.3378  0.3412
27294WAT      O10980   1.145   3.413   1.564  0.0005  0.2503  0.4633
27294WAT     H110981   1.056   3.446   1.549 -0.5791 -0.2279  2.5995
27294WAT     H210982   1.149   3.333   1.511 -0.5641  0.6647 -0.2340
27294WAT    EPW10983   1.134   3.406   1.555 -0.1504  0.2420  0.6531
27295WAT      O10984  10.087   6.156   1.961 -0.9953 -0.2094 -0.8734
27295WAT     H110985  10.172   6.194   1.981 -0.4112 -0.8720 -1.9796
27295WAT     H210986  10.073   6.091   2.030 -0.7154  0.0625 -0.5551
27295WAT    EPW10987  10.096   6.152   1.973 -0.8817 -0.2606 -0.9773
27296WAT      O10988   2.258   4.153   4.024 -0.2562  0.4958 -0.6751
27296WAT     H110989   2.340   4.125   3.984  1.0258 -0.0101  2.0477
27296WAT     H210990   2.203   4.074   4.024  0.0417  0.2876 -0.7196
27296WAT    EPW10991   2.261   4.139   4.019 -0.0478  0.4015 -0.3219
27297WAT      O10992   2.990   6.183   4.088 -0.7064  0.0381  0.0233
27297WAT     H110993   2.909   6.208   4.043 -0.7056 -0.1583 -0.0863
27297WAT     H210994   3.020   6.104   4.043 -1.5502 -1.0939  1.3658
27297WAT    EPW10995   2.983   6.176   4.076 -0.8177 -0.1371  0.1862
27298WAT      O10996   2.036   5.168   2.122 -0.6955 -0.4353  0.3704
27298WAT     H110997   2.001   5.193   2.207 -0.5432 -0.2915  0.3913
27298WAT     H210998   2.126   5.141   2.140 -0.2238  0.8736  0.0649
27298WAT    EPW10999   2.044   5.168   2.136 -0.6132 -0.2434  0.3328
27299WAT      O11000   9.958   3.101   1.360 -0.0506  0.3767  0.0808
27299WAT     H111001   9.984   3.081   1.270 -1.5270 -0.3984 -0.2044
27299WAT     H211002   9.944   3.196   1.360  3.2821  0.9971  0.4465
27299WAT    EPW11003   9.959   3.111   1.348  0.1941  0.3562  0.0915
27300WAT      O11004  10.608   3.264   4.167  0.0741  0.0098 -0.2832
27300WAT     H111005  10.594   3.358   4.180  0.1564 -0.1908  1.3764
27300WAT     H211006  10.702   3.252   4.177  0.7142  0.2595 -4.3057
27300WAT    EPW11007  10.619   3.275   4.170  0.1693  0.0163 -0.5949
27301WAT      O11008   0.225   0.130   4.815  0.3217 -0.4333 -0.3829
27301WAT     H111009   0.199   0.042   4.840  1.2097 -0.2771  1.1993
27301WAT     H211010   0.205   0.184   4.891  2.9511  0.1062  0.0249
27301WAT    EPW11011   0.219   0.126   4.828  0.7856 -0.3416 -0.1204
27302WAT      O11012   3.180   2.543   5.663  0.2656  0.7547 -0.1557
27302WAT     H111013   3.095   2.561   5.624  0.3550  0.0739 -0.6790
27302WAT     H211014   3.167   2.464   5.715  0.4785  0.8849  0.0963
27302WAT    EPW11015   3.167   2.535   5.665  0.3054  0.6820 -0.1917
27303WAT      O11016  10.841   5.308   1.723 -0.3963 -0.1446 -0.7481
27303WAT     H111017  10.892   5.261   1.790 -0.5487 -1.0931 -1.2835
27303WAT     H211018  10.760   5.259   1.716 -1.8702  1.8975  0.7825
27303WAT    EPW11019  10.837   5.295   1.731 -0.6108 -0.0002 -0.6168
27304WAT      O11020   9.877   4.826   2.479  0.1867 -0.0286 -0.4255
27304WAT     H111021   9.783   4.814   2.496 -0.0223 -0.8797 -1.9264
27304WAT     H211022   9.905   4.742   2.442  2.3933 -1.0936  3.1779
27304WAT    EPW11023   9.868   4.813   2.476  0.4497 -0.2813 -0.1481
27305WAT      O11024   1.097   4.808   1.988  0.6551 -0.2071  0.0382
27305WAT     H111025   1.054   4.835   2.069  0.8901  0.5563 -0.0924
27305WAT     H211026   1.049   4.729   1.962 -0.2342  0.2429  0.2563
27305WAT    EPW11027   1.085   4.801   1.995  0.5687 -0.0470  0.0497
27306WAT      O11028   3.846   3.729   0.682 -0.6948 -0.8272  0.0058
27306WAT     H111029   3.859   3.680   0.763  0.7995 -0.1983  0.1855
27306WAT     H211030   3.798   3.807   0.709  1.6108  0.4302  0.7284
27306WAT    EPW11031   3.842   3.732   0.696 -0.1937 -0.5783  0.1248
27307WAT      O11032   1.366  10.312   2.378 -0.2045 -0.7952  0.3957
27307WAT     H111033   1.345  10.397   2.416  0.9934 -2.3550  5.4560
27307WAT     H211034   1.460  10.317   2.358 -0.2651 -0.7465  0.1209
27307WAT    EPW11035   1.376  10.324   2.381 -0.0544 -0.9945  1.0270
27308WAT      O11036   9.108   2.300   4.792 -0.3058 -0.2210 -0.3785
27308WAT     H111037   9.063   2.234   4.845 -0.6968  0.5289  0.2485
27308WAT     H211038   9.104   2.266   4.703 -0.3401 -1.1294 -0.0391
27308WAT    EPW11039   9.101   2.287   4.788 -0.3619 -0.2420 -0.2511
27309WAT      O11040  10.925   5.926   1.180  0.0687 -0.7869 -0.3117
27309WAT     H111041  10.963   5.927   1.268 -0.7263  2.5707  0.1505
27309WAT     H211042  10.852   5.864   1.186 -1.3688  0.9584  2.1939
27309WAT    EPW11043  10.920   5.918   1.192 -0.2255 -0.1142  0.0798
27310WAT      O11044   0.138   2.766   1.468  0.0341 -0.4827  0.4615
27310WAT     H111045   0.221   2.767   1.421  1.1845 -0.1630  2.3736
27310WAT     H211046   0.071   2.771   1.400  1.6064  0.8484 -1.0700
27310WAT    EPW11047   0.140   2.767   1.453  0.3932 -0.2651  0.5117
27311WAT      O11048   1.565   7.573   8.015  0.7273 -0.4726 -0.2635
27311WAT     H111049   1.572   7.604   7.925  1.3517  2.3533  0.6361
27311WAT     H211050   1.615   7.492   8.017  1.5646 -0.0611 -2.2420
27311WAT    EPW11051   1.572   7.567   8.004  0.9201 -0.0458 -0.4053
27312WAT      O11052   3.045   4.201   4.461  0.2932  0.4395  0.1007
27312WAT     H111053   3.140   4.204   4.466  0.4271  0.6092 -1.7931
27312WAT     H211054   3.025   4.216   4.368 -1.5430 -0.4191  0.3030
27312WAT    EPW11055   3.055   4.203   4.449  0.0687  0.3488 -0.1221
27313WAT      O11056   9.488   1.500   3.782  0.5044  0.3825  0.6458
27313WAT     H111057   9.567   1.512   3.730  0.6332 -0.5661  0.6021
27313WAT     H211058   9.429   1.570   3.753  0.0380 -0.9095 -1.7913
27313WAT    EPW11059   9.491   1.511   3.771  0.4601  0.0870  0.3188
27314WAT      O11060   3.461   1.157   2.535  0.6798 -0.2459  0.8416
27314WAT     H111061   3.429   1.126   2.450 -1.4268  2.2073  0.6344
27314WAT     H211062   3.392   1.132   2.597 -0.4235  2.5009  0.8789
27314WAT    EPW11063   3.447   1.150   2.532  0.2564  0.4400  0.8191
27315WAT      O11064   0.633   6.106   2.629 -0.4455 -0.2563 -0.3133
27315WAT     H111065   0.687   6.126   2.706 -0.2509  0.0693 -0.5315
27315WAT     H211066   0.663   6.020   2.600 -0.4002 -0.3038 -0.1251
27315WAT    EPW11067   0.644   6.097   2.635 -0.4139 -0.2196 -0.3172
27316WAT      O11068   1.269   2.594   3.455  0.1590  0.3179  0.4213
27316WAT     H111069   1.255   2.526   3.521 -1.3367  2.6122  2.6712
27316WAT     H211070   1.181   2.627   3.436  0.8725  2.1096  0.0195
27316WAT    EPW11071   1.256   2.590   3.461  0.0558  0.8569  0.6651
27317WAT      O11072   9.855   4.854   3.788  0.4018  0.3096 -0.3306
27317WAT     H111073   9.913   4.926   3.815  2.6712 -2.0792  1.7109
27317WAT     H211074   9.909   4.800   3.730 -1.1105 -0.0382 -1.4926
27317WAT    EPW11075   9.870   4.857   3.783  0.5012 -0.0513 -0.2146
27318WAT      O11076   1.721   2.868   4.273  0.3675 -0.1995 -0.6814
27318WAT     H111077   1.700   2.933   4.340  1.7837 -0.4687  0.0746
27318WAT     H211078   1.645   2.866   4.215 -1.1678 -0.4007  1.2692
27318WAT    EPW11079   1.708   2.876   4.274  0.3518 -0.2617 -0.3245
27319WAT      O11080   9.669   3.372   3.016  0.5364  0.2918  0.7766
27319WAT     H111081   9.722   3.445   3.046 -1.4332  1.0747  2.6554
27319WAT     H211082   9.631   3.336   3.097 -1.1389 -0.6904 -0.3786
27319WAT    EPW11083   9.671   3.377   3.031  0.0558  0.2656  0.8721
27320WAT      O11084   9.506   8.201   2.197 -0.0409 -0.2801 -0.6598
27320WAT     H111085   9.530   8.111   2.175 -0.7283 -0.3634 -1.0778
27320WAT     H211086   9.489   8.243   2.113  2.2469  0.8401 -0.6461
27320WAT    EPW11087   9.507   8.195   2.183  0.1702 -0.1431 -0.7132
27321WAT      O11088   0.858   2.242   4.794 -0.2335  0.3803 -0.0884
27321WAT     H111089   0.828   2.284   4.874  0.0080  0.5812 -0.0989
27321WAT     H211090   0.896   2.314   4.743 -1.1569  0.4145 -0.7561
27321WAT    EPW11091   0.859   2.257   4.798 -0.3234  0.4114 -0.1776
27322WAT      O11092   4.218   1.705   8.388 -0.0085 -0.2667  0.7584
27322WAT     H111093   4.194   1.689   8.479 -1.3584 -2.0562  0.1618
27322WAT     H211094   4.133   1.713   8.343  0.6222  1.8718 -0.1818
27322WAT    EPW11095   4.203   1.704   8.394 -0.1032 -0.2207  0.5560
27323WAT      O11096  10.362   2.160   4.067 -0.5222  0.3770  0.3083
27323WAT     H111097  10.404   2.235   4.025 -1.8650 -0.4740 -2.8228
27323WAT     H211098  10.269   2.170   4.047 -0.8181 -1.8000  0.3354
27323WAT    EPW11099  10.355   2.171   4.059 -0.7386 -0.0223 -0.1009
27324WAT      O11100  10.031   5.615   0.836  0.4293 -0.1013 -0.4973
27324WAT     H111101  10.085   5.540   0.861 -1.0984 -1.6896 -1.6915
27324WAT     H211102   9.958   5.613   0.897 -0.2165 -0.3146 -1.2605
27324WAT    EPW11103  10.029   5.605   0.847  0.1426 -0.3388 -0.7554
27325WAT      O11104   1.961   5.920   3.599  0.2979  0.4207  0.5075
27325WAT     H111105   1.988   5.963   3.518  0.3137 -1.5149 -0.5619
27325WAT     H211106   1.867   5.904   3.587 -0.0094  1.3747  1.4942
27325WAT    EPW11107   1.952   5.923   3.587  0.2594  0.2911  0.4965
27326WAT      O11108   8.665   0.679   7.777 -0.5209  0.1508  0.8950
27326WAT     H111109   8.657   0.584   7.765 -0.4891  0.0551  1.5987
27326WAT     H211110   8.701   0.689   7.865  4.3951  0.6504 -0.8398
27326WAT    EPW11111   8.669   0.668   7.787  0.1316  0.2041  0.7591
27327WAT      O11112  10.413   9.936   7.069  0.5686 -0.0133 -0.0906
27327WAT     H111113  10.472   9.977   7.133 -1.6721  0.2886  1.9510
27327WAT     H211114  10.407   9.999   6.998  2.6255 -0.0387 -0.3243
27327WAT    EPW11115  10.420   9.950   7.068  0.5441  0.0234  0.1476
27328WAT      O11116   1.703   4.779   1.723  0.2716  0.6330  0.3936
27328WAT     H111117   1.650   4.749   1.797 -0.7033  0.1996 -0.4480
27328WAT     H211118   1.734   4.698   1.682 -0.2399  0.8313 -0.3997
27328WAT    EPW11119   1.700   4.764   1.727  0.0755  0.6020  0.1780
27329WAT      O11120  10.162   1.184   4.095  1.0900  0.1318 -0.2107
27329WAT     H111121  10.182   1.137   4.176  1.2310  1.0462  0.2896
27329WAT     H211122  10.235   1.244   4.083  1.7619 -0.9210 -1.7458
27329WAT    EPW11123  10.174   1.186   4.104  1.1973  0.1135 -0.3476
27330WAT      O11124   1.507   4.678   3.778 -0.1195  0.2499 -0.0849
27330WAT     H111125   1.457   4.759   3.774  0.9176  1.0183  1.4581
27330WAT     H211126   1.471   4.624   3.707 -1.8617  1.4421 -0.1711
27330WAT    EPW11127   1.496   4.681   3.768 -0.2125  0.5088  0.1072
27331WAT      O11128   7.244   0.291   0.335 -0.6118 -0.5632 -0.4562
27331WAT     H111129   7.161   0.305   0.289 -2.3049 -2.9452  1.5398
27331WAT     H211130   7.307   0.345   0.289 -3.1757  1.0206 -2.3780
27331WAT    EPW11131   7.241   0.300   0.323 -1.1735 -0.6685 -0.4464
27332WAT      O11132  10.256   2.031   4.303  0.3876  0.1151  0.5477
27332WAT     H111133  10.332   2.090   4.308  1.1705 -0.9182  1.3020
27332WAT     H211134  10.260   1.994   4.214  0.7131  0.1440  0.5476
27332WAT    EPW11135  10.266   2.034   4.292  0.5336 -0.0174  0.6471
27333WAT      O11136   2.281   8.984   6.123  0.6701 -0.5919 -0.4130
27333WAT     H111137   2.220   9.003   6.194  1.5865  0.5533  0.1116
27333WAT     H211138   2.241   9.025   6.046 -0.0718 -1.3842 -0.4615
27333WAT    EPW11139   2.268   8.992   6.123  0.6930 -0.5450 -0.3502
27334WAT      O11140  10.934   2.518   4.422  0.5377  0.0607 -0.7013
27334WAT     H111141  10.911   2.551   4.335  0.3018  0.1171 -0.6179
27334WAT     H211142  11.013   2.466   4.408 -0.1568 -0.9183 -1.1492
27334WAT    EPW11143  10.941   2.515   4.409  0.4148 -0.0609 -0.7493
27335WAT      O11144   2.148   3.791   3.581  1.2055 -0.2658  0.3509
27335WAT     H111145   2.109   3.875   3.603  1.1216 -0.5240  1.2504
27335WAT     H211146   2.243   3.807   3.585  1.2074  0.1509 -0.9930
27335WAT    EPW11147   2.156   3.804   3.585  1.1948 -0.2447  0.2923
27336WAT      O11148  10.791   3.438   4.380  0.0423 -0.6372 -0.2808
27336WAT     H111149  10.864   3.490   4.346 -0.6565  0.1324 -0.6586
27336WAT     H211150  10.716   3.499   4.379  0.2256  0.0059  4.1324
27336WAT    EPW11151  10.790   3.453   4.375 -0.0253 -0.4507  0.2513
27337WAT      O11152   0.047   9.804   8.773  0.2022 -0.7885 -0.2900
27337WAT     H111153   0.131   9.772   8.804  0.6227 -0.7639 -1.3617
27337WAT     H211154   0.000   9.725   8.745 -1.4922 -1.2545  3.2663
27337WAT    EPW11155   0.052   9.789   8.774  0.0342 -0.8473  0.0381
27338WAT      O11156  10.778   5.867   3.321  0.2680 -0.0890  0.3501
27338WAT     H111157  10.797   5.960   3.334  0.3120  0.0591 -0.6517
27338WAT     H211158  10.798   5.852   3.228  1.5835 -1.4222  0.8076
27338WAT    EPW11159  10.783   5.878   3.310  0.4468 -0.2451  0.2781
27339WAT      O11160  10.501   4.642   4.174 -0.4065  0.4816  0.0097
27339WAT     H111161  10.480   4.567   4.230 -0.4070  0.6747  0.2764
27339WAT     H211162  10.550   4.606   4.101 -1.1556  0.1004 -0.3155
27339WAT    EPW11163  10.504   4.627   4.172 -0.5059  0.4570  0.0021
27340WAT      O11164   5.207   7.834   7.989  0.0293  0.4497 -0.2740
27340WAT     H111165   5.181   7.918   8.026 -1.7381 -0.0395 -0.2990
27340WAT     H211166   5.198   7.772   8.062 -0.5403 -0.0168 -0.7263
27340WAT    EPW11167   5.202   7.837   8.003 -0.2789  0.3238 -0.3366
27341WAT      O11168   1.460   2.622   1.661 -0.4796  0.5741  1.0313
27341WAT     H111169   1.510   2.701   1.682 -0.0915  0.4154  0.7082
27341WAT     H211170   1.418   2.598   1.744 -2.4009  2.3596  0.6534
27341WAT    EPW11171   1.461   2.629   1.675 -0.6818  0.7888  0.9389
27342WAT      O11172   1.629   7.461   2.683 -0.1474  0.2874  0.0715
27342WAT     H111173   1.563   7.408   2.728  0.3524  0.4086  0.9910
27342WAT     H211174   1.595   7.473   2.595 -1.1690  0.0296  0.4170
27342WAT    EPW11175   1.616   7.456   2.678 -0.2162  0.2692  0.2384
27343WAT      O11176  10.775   2.179   0.175  0.0050  0.3483 -0.4198
27343WAT     H111177  10.760   2.119   0.247  0.0594  0.4336 -0.3366
27343WAT     H211178  10.701   2.165   0.116 -2.2568  3.0652  1.5203
27343WAT    EPW11179  10.763   2.169   0.176 -0.2861  0.7178 -0.1530
27344WAT      O11180   3.974   9.564   8.606  0.1553  0.4599  0.0890
27344WAT     H111181   3.891   9.611   8.605 -0.0736  0.0786  0.5304
27344WAT     H211182   3.990   9.546   8.699 -0.3386 -1.3233 -0.1432
27344WAT    EPW11183   3.965   9.568   8.618  0.0600  0.1740  0.1163
27345WAT      O11184  10.310   3.739   0.972  0.3196  0.2303 -0.0724
27345WAT     H111185  10.380   3.805   0.981  0.0173  0.5825 -0.2759
27345WAT     H211186  10.356   3.655   0.979  0.3479  0.3952  3.1695
27345WAT    EPW11187  10.326   3.737   0.974  0.2837  0.2986  0.3284
27346WAT      O11188   4.426   3.462   0.636 -0.3400 -0.3935  0.0660
27346WAT     H111189   4.490   3.405   0.594 -1.6311  0.1753 -2.9001
27346WAT     H211190   4.479   3.528   0.682  1.1684 -1.1688 -0.4956
27346WAT    EPW11191   4.441   3.463   0.637 -0.3114 -0.4207 -0.3993
27347WAT      O11192   9.724   5.797   1.021  0.2107 -0.3338 -0.3902
27347WAT     H111193   9.707   5.747   0.941  0.2407 -0.2732 -0.4340
27347WAT     H211194   9.793   5.858   0.997  0.9851 -1.0448 -0.0331
27347WAT    EPW11195   9.731   5.798   1.007  0.3166 -0.4196 -0.3488
27348WAT      O11196   3.480   4.634   0.321 -0.3696  0.0696  0.6969
27348WAT     H111197   3.511   4.625   0.231 -1.0801 -1.3517  0.5579
27348WAT     H211198   3.474   4.728   0.336  2.0978  0.3868  0.0914
27348WAT    EPW11199   3.483   4.645   0.311 -0.1378 -0.0758  0.5987
27349WAT      O11200   9.897   4.297   5.279 -0.3191  0.1690  0.8321
27349WAT     H111201   9.950   4.370   5.246  1.0019 -1.3994 -0.6946
27349WAT     H211202   9.913   4.226   5.217 -0.9983 -1.6695  2.6585
27349WAT    EPW11203   9.906   4.297   5.266 -0.2346 -0.2804  0.8714
27350WAT      O11204   9.472   4.117   3.850 -0.4842 -0.5998 -0.4107
27350WAT     H111205   9.376   4.121   3.842 -0.5405  0.3340  0.4726
27350WAT     H211206   9.487   4.074   3.934 -0.1661  0.4465  0.0859
27350WAT    EPW11207   9.461   4.112   3.860 -0.4501 -0.3386 -0.2286
27351WAT      O11208  10.924   6.173   1.040  0.1506 -0.3119  0.4200
27351WAT     H111209  10.837   6.184   1.001  1.1767 -0.7445 -2.1910
27351WAT     H211210  10.921   6.086   1.081 -1.2066  0.4706  2.1038
27351WAT    EPW11211  10.912   6.163   1.041  0.1068 -0.2656  0.2977
27352WAT      O11212  10.108   5.056   0.531 -0.6978 -0.4780  0.4586
27352WAT     H111213  10.091   5.089   0.443 -1.4988 -0.7865  0.4881
27352WAT     H211214  10.158   5.126   0.573 -2.2009  0.6655  0.4637
27352WAT    EPW11215  10.112   5.070   0.525 -1.0009 -0.3681  0.4632
27353WAT      O11216   1.752   3.202   7.242 -0.7663  0.9655  0.0940
27353WAT     H111217   1.764   3.292   7.211  0.5704  0.4681 -0.9270
27353WAT     H211218   1.699   3.160   7.174  0.3553  0.4429 -0.4745
27353WAT    EPW11219   1.747   3.208   7.229 -0.4420  0.8310 -0.1156
27354WAT      O11220   5.862   9.794   6.772  0.4345 -0.4329  0.6919
27354WAT     H111221   5.940   9.744   6.796  0.8666 -0.4941 -0.7423
27354WAT     H211222   5.897   9.876   6.737 -0.1665 -0.2488  0.5190
27354WAT    EPW11223   5.877   9.798   6.770  0.4122 -0.4168  0.4802
27355WAT      O11224   9.266   2.778   2.868 -0.2577 -0.7375 -0.4379
27355WAT     H111225   9.291   2.806   2.780 -0.4791  0.3243 -0.1786
27355WAT     H211226   9.197   2.839   2.894  2.3653  1.4520  1.9346
27355WAT    EPW11227   9.260   2.790   2.860  0.0596 -0.3086 -0.0908
27356WAT      O11228   1.833   4.505   2.198  0.2038  0.0474  0.7948
27356WAT     H111229   1.748   4.473   2.167  0.7002 -0.4571 -0.0659
27356WAT     H211230   1.894   4.485   2.127  1.1888 -0.2645  1.7018
27356WAT    EPW11231   1.829   4.498   2.185  0.3992 -0.0606  0.8008
27357WAT      O11232   2.554   0.231   4.177 -0.1418  0.3415 -0.7528
27357WAT     H111233   2.505   0.264   4.102 -0.1806 -0.1994 -0.9674
27357WAT     H211234   2.528   0.288   4.250  0.7721  1.6113 -1.3838
27357WAT    EPW11235   2.544   0.243   4.177 -0.0263  0.4376 -0.8643
27358WAT      O11236  10.347   5.223   2.607  0.1649  0.0340 -0.2562
27358WAT     H111237  10.409   5.253   2.673 -1.3698  1.4678  0.5930
27358WAT     H211238  10.299   5.302   2.580 -2.5474 -1.2363  0.4642
27358WAT    EPW11239  10.349   5.238   2.612 -0.3958  0.0553 -0.0491
27359WAT      O11240   0.577   4.977   1.119 -0.2103 -0.8400 -0.0452
27359WAT     H111241   0.668   5.004   1.129 -0.3987 -0.6573  1.4450
27359WAT     H211242   0.582   4.884   1.097  0.3758 -0.2945 -2.4104
27359WAT    EPW11243   0.590   4.968   1.118 -0.1578 -0.7441 -0.1606
27360WAT      O11244   4.533   9.245   8.956  0.3945 -0.1686 -0.8679
27360WAT     H111245   4.599   9.313   8.969  0.2728 -0.0265 -0.9941
27360WAT     H211246   4.497   9.263   8.870  1.0962 -1.0230 -1.3607
27360WAT    EPW11247   4.537   9.257   8.947  0.4711 -0.2625 -0.9495
27361WAT      O11248  10.985   6.069   0.754 -1.0345  0.5758 -0.0126
27361WAT     H111249  11.047   6.040   0.686  2.7731  1.5594  2.6733
27361WAT     H211250  10.961   5.989   0.800 -0.5796  0.3318 -0.1880
27361WAT    EPW11251  10.990   6.055   0.751 -0.4723  0.6733  0.3185
27362WAT      O11252   0.057   2.921   3.978  0.0196 -0.0213  0.2666
27362WAT     H111253   0.047   2.886   3.890  1.9534 -0.3408  0.1395
27362WAT     H211254   0.018   3.009   3.973  0.3440  0.0678 -0.9735
27362WAT    EPW11255   0.050   2.928   3.966  0.3175 -0.0516  0.0863
27363WAT      O11256   0.486   5.062   4.421  0.1376 -0.1907 -0.1615
27363WAT     H111257   0.418   5.129   4.411  1.2109  0.7775 -1.4225
27363WAT     H211258   0.440   4.986   4.455 -0.9101  1.5970  2.7902
27363WAT    EPW11259   0.471   5.061   4.424  0.1410  0.1726  0.0615
27364WAT      O11260   0.941   4.619   5.073 -0.1273  0.6330  0.1257
27364WAT     H111261   0.887   4.680   5.024 -1.6246 -1.4644 -1.0134
27364WAT     H211262   0.901   4.616   5.160  1.4720  3.0385  1.0409
27364WAT    EPW11263   0.928   4.627   5.078 -0.1138  0.6735  0.0963
27365WAT      O11264   9.847   3.958   6.500 -0.5979 -0.4377 -1.0424
27365WAT     H111265   9.792   4.016   6.446  0.8886  0.4726 -1.6416
27365WAT     H211266   9.831   3.986   6.590  0.3928  1.2426 -1.3441
27365WAT    EPW11267   9.838   3.969   6.505 -0.2713 -0.0960 -1.1611
27366WAT      O11268   4.306   9.996   8.585  0.5272  0.1564  0.0851
27366WAT     H111269   4.257   9.919   8.615  2.6404 -0.7443  1.4119
27366WAT     H211270   4.397   9.970   8.589  1.2470  2.2730 -0.8929
27366WAT    EPW11271   4.311   9.982   8.590  0.9010  0.3166  0.1311
27367WAT      O11272   8.411  10.114   3.276 -0.0474 -0.0165 -1.1292
27367WAT     H111273   8.375  10.200   3.256  2.6181  1.0372 -1.8624
27367WAT     H211274   8.379  10.094   3.364 -0.0071  2.1637 -0.5736
27367WAT    EPW11275   8.402  10.122   3.285  0.3095  0.4101 -1.1526
27368WAT      O11276   2.830   3.132   3.027 -0.1325  0.0954  0.6654
27368WAT     H111277   2.749   3.087   3.004 -0.5393  1.6291 -1.1544
27368WAT     H211278   2.804   3.197   3.092 -0.5757  1.0912 -0.4556
27368WAT    EPW11279   2.816   3.135   3.032 -0.2447  0.4290  0.2775
27369WAT      O11280   0.850   1.262   7.242  0.6505  0.2197  0.4161
27369WAT     H111281   0.827   1.208   7.318 -0.2241  0.8278  0.5979
27369WAT     H211282   0.932   1.304   7.266  0.5312  0.1727  0.9132
27369WAT    EPW11283   0.858   1.260   7.255  0.5194  0.2937  0.5057
27370WAT      O11284   3.925   4.876   3.391  1.1603  0.2605 -0.1531
27370WAT     H111285   3.903   4.967   3.373 -1.6254 -0.1143  0.7551
27370WAT     H211286   4.020   4.875   3.402  1.3088  2.9507 -0.6296
27370WAT    EPW11287   3.934   4.888   3.390  0.8125  0.5658 -0.0961
27371WAT      O11288   2.928   5.061   3.615 -0.0458 -0.1095  0.4877
27371WAT     H111289   2.940   4.969   3.638 -1.1310 -0.8939 -1.7230
27371WAT     H211290   2.844   5.085   3.656  0.1128 -0.1796  0.8551
27371WAT    EPW11291   2.918   5.052   3.623 -0.1680 -0.2224  0.2446
27372WAT      O11292   1.499   5.298   2.699 -0.0219 -0.7282 -0.1016
27372WAT     H111293   1.537   5.222   2.654 -2.8313 -2.7535  0.6669
27372WAT     H211294   1.563   5.368   2.686  1.2584 -2.3020 -3.6043
27372WAT    EPW11295   1.513   5.297   2.691 -0.2236 -1.2028 -0.4623
27373WAT      O11296   2.125   2.610   6.153  0.0703  0.3872 -0.2163
27373WAT     H111297   2.102   2.702   6.163 -0.4611  0.2238  0.0976
27373WAT     H211298   2.086   2.567   6.230  0.7872 -0.0116 -0.0703
27373WAT    EPW11299   2.117   2.617   6.165  0.0948  0.3129 -0.1554
27374WAT      O11300   8.742   4.494   3.772 -0.4821  0.3526 -0.1669
27374WAT     H111301   8.715   4.437   3.700 -1.2658  0.6098 -0.0891
27374WAT     H211302   8.716   4.582   3.744  2.9855  1.1399 -1.4364
27374WAT    EPW11303   8.735   4.498   3.758 -0.1278  0.4902 -0.3240
27375WAT      O11304  10.779   1.006   4.689 -0.2404  0.4514  0.5019
27375WAT     H111305  10.865   0.993   4.730 -0.0739 -0.5819 -0.1139
27375WAT     H211306  10.719   1.020   4.762  0.3561  0.5691  0.9762
27375WAT    EPW11307  10.782   1.006   4.704 -0.1397  0.3306  0.4830
27376WAT      O11308   2.906   4.400   2.699  0.0481  0.3135 -0.3381
27376WAT     H111309   2.831   4.416   2.641 -1.2529  0.9472  1.4229
27376WAT     H211310   2.916   4.481   2.748  3.3118  1.0627 -1.9197
27376WAT    EPW11311   2.897   4.413   2.697  0.3068  0.4959 -0.3145
27377WAT      O11312   9.577   1.320   6.735 -0.2412 -0.1797 -0.4406
27377WAT     H111313   9.536   1.395   6.692 -0.0598 -0.4915 -1.1806
27377WAT     H211314   9.617   1.356   6.814 -0.8645  0.3488 -0.3558
27377WAT    EPW11315   9.577   1.335   6.740 -0.2995 -0.1512 -0.5269
27378WAT      O11316   9.087   0.503   3.924 -0.4470  0.0763 -0.0302
27378WAT     H111317   9.127   0.455   3.997  2.2426  4.0217  1.3847
27378WAT     H211318   9.007   0.540   3.960  0.1481  0.8453  0.5260
27378WAT    EPW11319   9.082   0.501   3.938 -0.0138  0.6981  0.2300
27379WAT      O11320   0.670   2.257   4.400 -0.2551 -0.3393  0.6814
27379WAT     H111321   0.702   2.182   4.451 -1.3332 -1.3138 -0.0041
27379WAT     H211322   0.733   2.265   4.328  0.6220  0.2969  1.5051
27379WAT    EPW11323   0.683   2.248   4.397 -0.2817 -0.3839  0.6995
27380WAT      O11324  10.940   2.211   1.653 -0.1555  0.7267  0.8523
27380WAT     H111325  10.905   2.176   1.571  1.8524  2.7522 -1.0419
27380WAT     H211326  10.934   2.139   1.715 -2.1870 -0.7580 -0.9357
27380WAT    EPW11327  10.935   2.197   1.650 -0.1588  0.7981  0.3666
27381WAT      O11328   2.516   1.668   2.949 -0.0596 -0.0378 -0.0039
27381WAT     H111329   2.454   1.733   2.915 -0.8289 -0.7920 -0.0767
27381WAT     H211330   2.531   1.608   2.876  0.1249 -0.3187  0.2610
27381WAT    EPW11331   2.510   1.669   2.935 -0.1369 -0.1744  0.0216
27382WAT      O11332   8.831   0.330   7.951  0.0397  0.0158 -0.5584
27382WAT     H111333   8.898   0.287   7.898 -0.2789  1.5763 -2.3223
27382WAT     H211334   8.767   0.363   7.888 -0.5584  1.6433  0.8061
27382WAT    EPW11335   8.831   0.329   7.936 -0.0811  0.4363 -0.6113
27383WAT      O11336   2.702   3.743   2.284  0.3126 -0.0634  0.4082
27383WAT     H111337   2.618   3.701   2.266  0.6354 -0.6878  0.3304
27383WAT     H211338   2.685   3.837   2.272 -0.5053 -0.1404  0.9308
27383WAT    EPW11339   2.689   3.750   2.280  0.2472 -0.1559  0.4667
27384WAT      O11340   3.668   4.029   6.663 -0.3144  0.3435 -0.7878
27384WAT     H111341   3.705   4.096   6.721 -1.5745 -0.7687  1.4602
27384WAT     H211342   3.594   4.073   6.621 -2.0449  0.1099  1.7673
27384WAT    EPW11343   3.663   4.044   6.665 -0.7088  0.1659 -0.1543
27385WAT      O11344  10.811   3.863   4.460  0.1336 -0.2718 -0.9930
27385WAT     H111345  10.814   3.956   4.483 -1.6942  0.1603 -2.2433
27385WAT     H211346  10.749   3.825   4.522  0.7197 -0.6264 -0.6171
27385WAT    EPW11347  10.803   3.870   4.471 -0.0305 -0.2615 -1.1084
27386WAT      O11348   0.568   3.418   5.746  0.5189 -0.1924  0.1253
27386WAT     H111349   0.561   3.476   5.822  1.0510  0.2005 -0.1168
27386WAT     H211350   0.548   3.475   5.672 -3.2131 -1.2219  0.1269
27386WAT    EPW11351   0.564   3.433   5.746  0.0969 -0.2763  0.0937
27387WAT      O11352   3.666   4.374   5.794 -0.5116  0.5212 -0.7263
27387WAT     H111353   3.694   4.456   5.833 -1.6477  0.2390  0.7970
27387WAT     H211354   3.580   4.393   5.756 -0.5510  0.1641 -0.8256
27387WAT    EPW11355   3.658   4.387   5.794 -0.6665  0.4368 -0.5383
27388WAT      O11356   1.887   6.157   5.369 -0.5465 -0.5821 -0.3841
27388WAT     H111357   1.794   6.134   5.358 -0.5295 -0.6109 -0.4692
27388WAT     H211358   1.889   6.252   5.357 -0.5393 -0.6034 -0.5649
27388WAT    EPW11359   1.875   6.167   5.366 -0.5432 -0.5889 -0.4194
27389WAT      O11360   0.817   2.856   4.538  0.4744  0.4756 -0.1284
27389WAT     H111361   0.723   2.860   4.521  0.4169 -0.7512 -0.1885
27389WAT     H211362   0.830   2.914   4.613 -0.5388 -0.3083  0.6902
27389WAT    EPW11363   0.806   2.864   4.546  0.3332  0.2104 -0.0286
27390WAT      O11364   0.057   3.462   3.625 -0.2878  0.0612  0.0156
27390WAT     H111365   0.012   3.544   3.644 -3.1243 -1.4941  0.6275
27390WAT     H211366   0.093   3.434   3.709 -1.3491 -0.4337  0.3109
27390WAT    EPW11367   0.056   3.469   3.638 -0.8019 -0.2092  0.1352
27391WAT      O11368   0.138   3.667   1.068 -0.1071 -0.0763  0.6369
27391WAT     H111369   0.097   3.629   0.990  0.2152  0.5011  0.1751
27391WAT     H211370   0.085   3.634   1.141  0.2531 -1.5323  0.2838
27391WAT    EPW11371   0.126   3.657   1.067 -0.0171 -0.1922  0.5295
27392WAT      O11372   6.896   0.185   6.879 -0.0484 -0.0104  0.0869
27392WAT     H111373   6.885   0.262   6.824 -0.9352 -0.1095  0.1064
27392WAT     H211374   6.976   0.143   6.846 -1.7256 -1.3498 -2.7721
27392WAT    EPW11375   6.905   0.189   6.867 -0.3865 -0.2001 -0.2875
27393WAT      O11376   9.168   2.066   3.300  0.6330 -0.3766 -0.0459
27393WAT     H111377   9.146   2.072   3.207  3.8233 -2.3926 -1.0764
27393WAT     H211378   9.254   2.108   3.307  0.4718 -0.3005  2.0339
27393WAT    EPW11379   9.177   2.073   3.289  1.0328 -0.6325  0.0925
27394WAT      O11380   9.878   3.913   1.214 -0.4750 -0.2310  0.0414
27394WAT     H111381   9.866   3.847   1.145  1.6091 -1.6969  0.9662
27394WAT     H211382   9.909   3.990   1.168  0.4229 -1.0352 -0.7606
27394WAT    EPW11383   9.881   3.914   1.199 -0.0820 -0.5304  0.0576
27395WAT      O11384   0.980   5.502   1.324 -1.0326  0.4863 -0.3485
27395WAT     H111385   1.022   5.448   1.258 -2.7059  0.3408 -1.3477
27395WAT     H211386   0.973   5.445   1.401 -0.0564  0.3052 -0.3838
27395WAT    EPW11387   0.984   5.488   1.326 -1.1246  0.4432 -0.4849
27396WAT      O11388   4.321   6.873   3.727  0.0137  0.1278  1.0667
27396WAT     H111389   4.244   6.884   3.672 -0.0198  1.7210  1.3932
27396WAT     H211390   4.353   6.962   3.742  1.4189 -0.4424  1.6455
27396WAT    EPW11391   4.315   6.886   3.722  0.1945  0.2627  1.1861
27397WAT      O11392   0.026   4.647   0.984  0.1369  0.4692  0.8851
27397WAT     H111393   0.102   4.617   1.034  1.2266  2.1872  0.3747
27397WAT     H211394  -0.005   4.723   1.032 -0.3990  0.5961  0.3418
27397WAT    EPW11395   0.032   4.653   0.997  0.2099  0.7122  0.7462
27398WAT      O11396   9.429   5.616   5.210 -0.5553  0.1616  0.1684
27398WAT     H111397   9.398   5.694   5.255 -2.9762 -2.0945  2.6985
27398WAT     H211398   9.351   5.564   5.193  1.0586 -2.3725 -0.1479
27398WAT    EPW11399   9.415   5.620   5.213 -0.6614 -0.4704  0.4604
27399WAT      O11400   4.253   8.653   2.500 -0.3515 -0.4907 -0.3217
27399WAT     H111401   4.292   8.732   2.463 -1.0215  0.1726  0.3523
27399WAT     H211402   4.273   8.657   2.593  0.7248 -1.7971 -0.4696
27399WAT    EPW11403   4.260   8.663   2.507 -0.2980 -0.5751 -0.2522
27400WAT      O11404  10.443   5.837   2.181  0.5662 -0.3834  0.8237
27400WAT     H111405  10.392   5.814   2.104 -0.1292 -1.0736  1.4631
27400WAT     H211406  10.440   5.933   2.184  0.0620 -0.3787  0.3514
27400WAT    EPW11407  10.436   5.847   2.172  0.4082 -0.4737  0.8458
27401WAT      O11408   0.779   0.139   4.832  0.5061  0.1115  0.1016
27401WAT     H111409   0.688   0.108   4.827  0.6247  0.0179 -2.2209
27401WAT     H211410   0.825   0.069   4.878 -0.0917 -1.1486 -1.1530
27401WAT    EPW11411   0.773   0.125   4.838  0.4429 -0.0670 -0.3703
27402WAT      O11412   2.587   3.031   2.945 -0.1649 -0.6113 -0.1406
27402WAT     H111413   2.539   2.949   2.960 -0.2297 -0.7594 -1.1236
27402WAT     H211414   2.574   3.050   2.852 -0.4280  0.6944  0.1343
27402WAT    EPW11415   2.579   3.023   2.935 -0.2081 -0.4586 -0.2339
27403WAT      O11416   8.412   4.207   0.129 -0.4841  0.5468 -0.7382
27403WAT     H111417   8.338   4.150   0.151 -1.6871  3.0305  2.5574
27403WAT     H211418   8.469   4.202   0.205  2.0301 -0.0378 -2.5355
27403WAT    EPW11419   8.409   4.199   0.142 -0.3109  0.7973 -0.5406
27404WAT      O11420   8.697   8.079   3.552  0.3482 -0.6356  0.2019
27404WAT     H111421   8.665   8.042   3.634  0.0857  1.0207  0.8842
27404WAT     H211422   8.712   8.003   3.495 -3.4321 -1.6597  0.3185
27404WAT    EPW11423   8.695   8.064   3.555 -0.1855 -0.5522  0.3073
27405WAT      O11424   2.438   4.955   7.744 -0.3959  0.2566  0.0344
27405WAT     H111425   2.381   4.981   7.672  1.1187  4.4832  0.0676
27405WAT     H211426   2.527   4.968   7.711  0.4200 -0.6780  1.7129
27405WAT    EPW11427   2.442   4.960   7.730 -0.0886  0.6909  0.2601
27406WAT      O11428   2.784   3.330   3.858 -0.4720 -0.2946  0.1068
27406WAT     H111429   2.814   3.240   3.848  1.0393  0.1454  0.4423
27406WAT     H211430   2.747   3.353   3.773 -2.5627 -1.7891  0.5444
27406WAT    EPW11431   2.783   3.321   3.845 -0.5485 -0.4336  0.2087
27407WAT      O11432   1.108   3.143   0.495 -0.2494 -0.9012  0.6942
27407WAT     H111433   1.016   3.133   0.469  0.1885 -1.8865 -0.6476
27407WAT     H211434   1.152   3.170   0.414  0.8477 -1.8646  0.9359
27407WAT    EPW11435   1.102   3.145   0.481 -0.0470 -1.1581  0.5491
27408WAT      O11436   1.125   3.110   1.549  0.1568 -0.6283 -0.2659
27408WAT     H111437   1.097   3.124   1.639  0.3699 -2.2053  0.0694
27408WAT     H211438   1.213   3.073   1.556  0.3159 -0.4447 -1.1337
27408WAT    EPW11439   1.133   3.107   1.562  0.2059 -0.8122 -0.3361
27409WAT      O11440   0.763   6.353   4.513  0.4457 -0.1414  0.6788
27409WAT     H111441   0.704   6.341   4.587  2.8745 -3.5964  2.3225
27409WAT     H211442   0.830   6.286   4.524  3.1702  1.7079 -2.5716
27409WAT    EPW11443   0.764   6.343   4.524  1.1254 -0.3533  0.4668
27410WAT      O11444   0.412   3.189   3.692 -0.5387  0.4185 -0.1909
27410WAT     H111445   0.326   3.169   3.730 -1.0624  1.4378 -0.7905
27410WAT     H211446   0.392   3.219   3.603  0.3492  1.6622  0.0144
27410WAT    EPW11447   0.398   3.190   3.685 -0.4907  0.7169 -0.2429
27411WAT      O11448   2.235   0.422   3.626 -0.3798  0.0523 -0.0492
27411WAT     H111449   2.143   0.404   3.606 -0.9262  2.5213 -0.0392
27411WAT     H211450   2.283   0.368   3.563 -1.5668 -4.4025  2.4455
27411WAT    EPW11451   2.229   0.413   3.615 -0.6084 -0.2096  0.2811
27412WAT      O11452  10.110   2.232   2.174  0.5140  0.9441 -0.1880
27412WAT     H111453  10.107   2.263   2.083 -3.7404  0.7618 -0.3245
27412WAT     H211454  10.143   2.142   2.168  0.5335  1.0227 -1.5052
27412WAT    EPW11455  10.114   2.224   2.161 -0.0448  0.9305 -0.3798
27413WAT      O11456   0.561   2.923   3.218 -0.3165 -0.5609  0.0729
27413WAT     H111457   0.621   2.990   3.184  1.0063 -2.0920 -0.7709
27413WAT     H211458   0.536   2.873   3.140 -1.1215 -1.1662  0.7125
27413WAT    EPW11459   0.566   2.926   3.203 -0.2481 -0.8427  0.0460
27414WAT      O11460   0.978   5.479   3.825 -0.4660 -0.1156  0.1293
27414WAT     H111461   0.950   5.447   3.911  1.9726 -0.6551  0.7989
27414WAT     H211462   1.007   5.400   3.779  1.3106  0.5350  0.0719
27414WAT    EPW11463   0.978   5.464   3.830  0.0900 -0.1009  0.2099
27415WAT      O11464  10.669   5.797   5.657  0.3027  0.1476  0.4428
27415WAT     H111465  10.587   5.841   5.633  1.1832  1.8478  0.4121
27415WAT     H211466  10.666   5.795   5.753 -0.1696 -0.5998  0.4180
27415WAT    EPW11467  10.658   5.803   5.667  0.3567  0.2732  0.4356
27416WAT      O11468   1.148   2.783   3.687 -0.2119  0.1182 -0.0337
27416WAT     H111469   1.128   2.876   3.699 -0.7260  0.1631 -1.0952
27416WAT     H211470   1.221   2.766   3.746 -1.3245  0.7324  1.5820
27416WAT    EPW11471   1.155   2.793   3.696 -0.4264  0.2052  0.0393
27417WAT      O11472   3.358   5.298   1.351  0.5838  0.2534  0.3553
27417WAT     H111473   3.380   5.391   1.345  2.8610 -0.3068 -1.1659
27417WAT     H211474   3.405   5.267   1.428 -0.6797  0.4439  1.2328
27417WAT    EPW11475   3.367   5.306   1.360  0.7176  0.2046  0.2704
27418WAT      O11476   2.037   7.571   1.336 -1.1350 -0.2268 -0.4043
27418WAT     H111477   1.961   7.630   1.340 -1.0523 -0.1675  1.6709
27418WAT     H211478   2.078   7.591   1.252 -2.1244  1.4020 -0.5595
27418WAT    EPW11479   2.032   7.582   1.326 -1.2546 -0.0041 -0.1510
27419WAT      O11480  10.816   2.973   4.253  0.5046  0.0608  0.5520
27419WAT     H111481  10.823   3.026   4.332 -0.1852  0.0613  0.6249
27419WAT     H211482  10.855   3.026   4.184 -2.2465  1.7465  0.1327
27419WAT    EPW11483  10.822   2.987   4.255  0.0505  0.2832  0.5064
27420WAT      O11484   3.249   4.992   2.701  0.8439 -0.4619  0.5163
27420WAT     H111485   3.287   5.016   2.617  3.0696  0.4514  1.7006
27420WAT     H211486   3.294   4.911   2.726  1.5566  0.2313  1.6002
27420WAT    EPW11487   3.260   4.984   2.693  1.2314 -0.2501  0.8154
27421WAT      O11488   3.753   4.409   3.327 -0.1167 -0.1751 -0.2364
27421WAT     H111489   3.735   4.503   3.322 -0.2557 -0.1094  1.0335
27421WAT     H211490   3.792   4.387   3.243 -0.1173  1.0168 -0.5655
27421WAT    EPW11491   3.756   4.419   3.315 -0.1351 -0.0093 -0.1123
27422WAT      O11492   1.427   7.350   0.985  0.7903  0.3962  0.2809
27422WAT     H111493   1.387   7.435   0.997  1.5772  1.4114 -3.2179
27422WAT     H211494   1.509   7.368   0.939  1.7291 -2.1789  0.7429
27422WAT    EPW11495   1.433   7.363   0.981  1.0179  0.1900 -0.1197
27423WAT      O11496   1.148   3.023   3.429 -0.4209  0.0802  0.2461
27423WAT     H111497   1.188   3.109   3.412 -0.1663  0.0974  0.9044
27423WAT     H211498   1.222   2.963   3.437 -0.5504 -0.0042  0.8442
27423WAT    EPW11499   1.163   3.027   3.428 -0.4044  0.0714  0.4119
27424WAT      O11500   4.879   5.797   1.157 -0.0734 -0.6435 -0.2607
27424WAT     H111501   4.856   5.889   1.167 -0.9996 -0.3131 -3.9783
27424WAT     H211502   4.839   5.771   1.074  0.7427 -4.2461  0.2964
27424WAT    EPW11503   4.871   5.805   1.148 -0.0880 -1.0750 -0.6776
27425WAT      O11504   4.614   5.470   5.130 -0.0004 -0.1458 -0.2817
27425WAT     H111505   4.694   5.431   5.165 -2.3348 -3.3141  2.2529
27425WAT     H211506   4.598   5.547   5.185  1.2407  0.5172 -0.8204
27425WAT    EPW11507   4.622   5.475   5.142 -0.1445 -0.4761 -0.0186
27426WAT      O11508   3.641   3.875   2.955  0.1474  0.1411  0.2466
27426WAT     H111509   3.606   3.790   2.982  1.0270 -0.3783 -0.2014
27426WAT     H211510   3.563   3.929   2.942 -0.4816 -0.8214 -0.1827
27426WAT    EPW11511   3.626   3.871   2.957  0.1804 -0.0544  0.1308
27427WAT      O11512   1.556   4.277   3.671 -0.3111 -0.3340  0.4573
27427WAT     H111513   1.603   4.196   3.694  0.5461  0.8965  3.5817
27427WAT     H211514   1.624   4.344   3.671 -1.1785  0.5753 -1.0790
27427WAT    EPW11515   1.571   4.275   3.674 -0.3124 -0.0515  0.6669
27428WAT      O11516   2.569   4.634   5.294 -0.1484 -0.3174 -0.1952
27428WAT     H111517   2.562   4.691   5.371  2.1087  0.1353 -0.2566
27428WAT     H211518   2.650   4.585   5.308 -0.0595 -0.7471 -1.9619
27428WAT    EPW11519   2.579   4.635   5.306  0.1611 -0.3147 -0.4363
27429WAT      O11520   1.514   9.680   0.159 -0.7945 -0.5143 -0.1196
27429WAT     H111521   1.528   9.772   0.135 -0.7886  0.7481  3.9560
27429WAT     H211522   1.421   9.665   0.142 -1.0376  0.6202  0.1309
27429WAT    EPW11523   1.504   9.690   0.154 -0.8258 -0.1979  0.4510
27430WAT      O11524   3.640   5.159   4.179  0.5115  0.5018  0.1052
27430WAT     H111525   3.716   5.125   4.133  0.2090  2.1037 -1.6860
27430WAT     H211526   3.565   5.112   4.141  0.3742  0.8718 -0.0864
27430WAT    EPW11527   3.640   5.148   4.168  0.4535  0.7615 -0.1562
27431WAT      O11528   2.582   6.598   2.471  0.1227  0.1610  0.0851
27431WAT     H111529   2.656   6.624   2.526 -0.6117 -0.6885  1.5288
27431WAT     H211530   2.621   6.544   2.403  1.3799  3.1079 -1.7008
27431WAT    EPW11531   2.597   6.594   2.470  0.1917  0.4375  0.0399
27432WAT      O11532   3.264   1.607   1.741 -0.4462  0.0542  0.0735
27432WAT     H111533   3.264   1.647   1.654 -2.0763  0.9176  0.4195
27432WAT     H211534   3.177   1.628   1.777  0.4622  0.4029  2.2214
27432WAT    EPW11535   3.252   1.615   1.734 -0.5413  0.2141  0.4024
27433WAT      O11536   7.053   5.242   2.485 -0.4882  0.2736  0.3157
27433WAT     H111537   7.096   5.192   2.554 -1.5923 -1.0724  0.0717
27433WAT     H211538   7.052   5.183   2.409 -0.1037  1.3872 -0.5933
27433WAT    EPW11539   7.058   5.227   2.484 -0.5832  0.2429  0.1637
27434WAT      O11540   1.790   5.379   6.240 -0.5336 -0.4458  0.7059
27434WAT     H111541   1.785   5.470   6.270 -0.3605  1.2140 -3.5066
27434WAT     H211542   1.700   5.358   6.214 -0.3369 -0.9503  0.4118
27434WAT    EPW11543   1.777   5.388   6.240 -0.4848 -0.2935  0.1116
27435WAT      O11544   2.690   7.371   1.262 -0.2048  0.2528 -0.2312
27435WAT     H111545   2.708   7.287   1.219  1.0429  0.7167 -0.6645
27435WAT     H211546   2.618   7.409   1.211  0.4567  0.2496 -1.2017
27435WAT    EPW11547   2.683   7.365   1.249  0.0468  0.3135 -0.4163
27436WAT      O11548   2.581   9.190   3.026  0.6675  0.8612  0.4637
27436WAT     H111549   2.652   9.199   3.088  0.4503 -1.4981  1.1320
27436WAT     H211550   2.616   9.134   2.957 -1.2799 -3.0555  2.3223
27436WAT    EPW11551   2.595   9.184   3.025  0.3821  0.0334  0.7970
27437WAT      O11552   1.149   6.255   0.563  0.0585  0.0510 -0.1801
27437WAT     H111553   1.235   6.294   0.548  0.5923 -0.5653  1.0823
27437WAT     H211554   1.148   6.234   0.657 -1.4940  0.1048 -0.1524
27437WAT    EPW11555   1.160   6.257   0.574 -0.0759 -0.0234 -0.0100
27438WAT      O11556   3.096   6.625   2.104 -0.2098  0.1267  0.0115
27438WAT     H111557   3.022   6.598   2.049 -0.3940 -1.6309  1.0422
27438WAT     H211558   3.108   6.552   2.164  1.8453  0.7439  0.4127
27438WAT    EPW11559   3.088   6.612   2.104  0.0371 -0.0238  0.2004
27439WAT      O11560   1.386   3.471   4.868  0.3626 -0.1492 -0.0624
27439WAT     H111561   1.431   3.436   4.792 -0.6233 -0.9542 -0.3020
27439WAT     H211562   1.342   3.550   4.835  0.3343 -0.2282 -0.2157
27439WAT    EPW11563   1.386   3.477   4.854  0.2288 -0.2658 -0.1144
27440WAT      O11564   0.449   9.615   5.058 -0.2151  0.3012  0.4453
27440WAT     H111565   0.403   9.585   4.980 -0.8431  0.7991  0.6168
27440WAT     H211566   0.536   9.574   5.052 -0.3349  0.1534 -0.3908
27440WAT    EPW11567   0.455   9.606   5.047 -0.3137  0.3471  0.3574
27441WAT      O11568   4.729   7.016   3.996 -0.0792  0.0466  0.4735
27441WAT     H111569   4.749   6.981   3.909  0.2352  2.2523 -0.4198
27441WAT     H211570   4.643   7.058   3.985 -1.6677 -2.4689  2.1779
27441WAT    EPW11571   4.720   7.017   3.983 -0.2472  0.0057  0.5804
27442WAT      O11572   1.813   7.612   3.419 -0.7527 -0.5722 -0.0420
27442WAT     H111573   1.854   7.566   3.346 -2.0178 -1.6388 -0.1144
27442WAT     H211574   1.741   7.661   3.378 -0.6857 -0.1713  0.3202
27442WAT    EPW11575   1.809   7.613   3.404 -0.9107 -0.6602 -0.0039
27443WAT      O11576   3.765   9.739   3.435 -0.1591  0.0462  0.3312
27443WAT     H111577   3.760   9.768   3.526  1.0866  0.3106  0.3358
27443WAT     H211578   3.851   9.697   3.428  0.3491  1.2439 -1.0486
27443WAT    EPW11579   3.776   9.737   3.446  0.0724  0.2389  0.1498
27444WAT      O11580   1.839   3.316   0.508 -0.0714 -0.2774  0.1784
27444WAT     H111581   1.866   3.273   0.426  0.2722  1.7414 -0.8297
27444WAT     H211582   1.881   3.264   0.576  0.5997 -1.3409 -0.9912
27444WAT    EPW11583   1.848   3.303   0.506  0.0625 -0.1515 -0.1088
27445WAT      O11584   4.296   4.968   4.103  0.4747  0.4116 -0.4763
27445WAT     H111585   4.303   4.882   4.145  0.4406  0.9577  0.6787
27445WAT     H211586   4.386   4.997   4.094  0.4698  0.4026 -0.5570
27445WAT    EPW11587   4.308   4.960   4.107  0.4694  0.4826 -0.3345
27446WAT      O11588   0.518   5.564   2.310 -0.0227  0.2114  0.4174
27446WAT     H111589   0.533   5.482   2.263 -0.6841 -0.6035  1.5815
27446WAT     H211590   0.437   5.549   2.359 -0.1881  1.5843  0.6064
27446WAT    EPW11591   0.509   5.551   2.310 -0.1318  0.2851  0.5959
27447WAT      O11592   1.641   9.765   1.297 -0.9846  0.0508  0.5446
27447WAT     H111593   1.714   9.787   1.240 -0.2759 -1.9748  0.5897
27447WAT     H211594   1.661   9.808   1.380 -1.6617  2.4169 -0.4346
27447WAT    EPW11595   1.653   9.774   1.301 -0.9804  0.0958  0.4214
27448WAT      O11596   0.979   8.694   6.266 -0.0286  0.1592  0.3440
27448WAT     H111597   1.034   8.617   6.277 -0.4669 -0.2048  0.0387
27448WAT     H211598   1.012   8.735   6.185 -0.4074 -0.2315 -0.0105
27448WAT    EPW11599   0.991   8.689   6.256 -0.1363  0.0601  0.2568
27449WAT      O11600   3.529   6.042   3.687 -0.6664 -0.8199 -0.0220
27449WAT     H111601   3.457   5.980   3.676 -1.4271 -0.3442  1.7871
27449WAT     H211602   3.508   6.088   3.768 -0.1185  1.7842 -1.2562
27449WAT    EPW11603   3.517   6.040   3.696 -0.6945 -0.4137  0.0538
27450WAT      O11604   1.736   4.798   3.939 -0.2405 -0.7052 -0.1071
27450WAT     H111605   1.702   4.789   4.028  0.1225 -2.7122 -0.1445
27450WAT     H211606   1.660   4.786   3.883 -0.0812 -1.7597 -0.1087
27450WAT    EPW11607   1.722   4.795   3.944 -0.1716 -1.1089 -0.1121
27451WAT      O11608   0.376   5.983   5.855  0.6357 -0.0219  0.2920
27451WAT     H111609   0.333   6.001   5.938  2.2514  2.2736  0.7426
27451WAT     H211610   0.361   6.063   5.803  1.0478 -0.7525 -0.9965
27451WAT    EPW11611   0.368   5.996   5.859  0.9031  0.1845  0.1814
27452WAT      O11612   0.596   6.011   4.447  0.4327  0.7891 -1.0708
27452WAT     H111613   0.624   6.083   4.391  3.0167  0.1598 -0.6971
27452WAT     H211614   0.646   5.935   4.416  0.4577 -0.0278  0.8290
27452WAT    EPW11615   0.606   6.010   4.435  0.7768  0.5982 -0.7708
27453WAT      O11616   3.236   3.609   3.389  0.2563 -0.0461 -0.2411
27453WAT     H111617   3.226   3.659   3.470  1.0408 -1.0504  0.4975
27453WAT     H211618   3.233   3.676   3.320  1.7273  1.1039  0.7287
27453WAT    EPW11619   3.234   3.625   3.391  0.5536 -0.0269 -0.0159
27454WAT      O11620  10.682   4.519   4.857 -0.3137 -0.8048 -0.3251
27454WAT     H111621  10.700   4.585   4.790  1.2705 -0.0150  0.7953
27454WAT     H211622  10.587   4.511   4.858 -0.4563  0.2721 -1.5963
27454WAT    EPW11623  10.672   4.526   4.848 -0.1235 -0.5584 -0.3452
27455WAT      O11624   2.357   5.433   4.545 -0.0275  0.6682 -0.2573
27455WAT     H111625   2.436   5.465   4.502  0.7179  2.6472  2.3379
27455WAT     H211626   2.290   5.499   4.527 -0.1483  0.6929  0.2431
27455WAT    EPW11627   2.358   5.446   4.537  0.0548  0.9322  0.1509
27456WAT      O11628   5.321   0.424   7.898  0.9491  0.1491 -0.3436
27456WAT     H111629   5.380   0.487   7.937  1.2313  0.3507 -1.0704
27456WAT     H211630   5.237   0.470   7.891  1.3124  0.6866 -1.4497
27456WAT    EPW11631   5.317   0.438   7.902  1.0343  0.2466 -0.5856
27457WAT      O11632   1.538   3.655   3.198 -0.5875 -0.8577 -0.5287
27457WAT     H111633   1.447   3.653   3.228 -1.1164  0.4851 -1.9057
27457WAT     H211634   1.583   3.589   3.252 -2.2696 -1.2438  0.4658
27457WAT    EPW11635   1.532   3.646   3.209 -0.8790 -0.7315 -0.5790
27458WAT      O11636  10.752   7.326   0.773  0.0917 -0.0228 -0.2557
27458WAT     H111637  10.822   7.313   0.837  0.2748  0.9810 -0.2430
27458WAT     H211638  10.790   7.296   0.690  1.0793  1.8876 -0.5345
27458WAT    EPW11639  10.766   7.320   0.771  0.2460  0.3614 -0.2908
27459WAT      O11640   3.380   5.268   1.989  0.2777 -0.1983  1.1583
27459WAT     H111641   3.304   5.327   1.982 -2.4817 -3.5262  0.2101
27459WAT     H211642   3.370   5.209   1.914  2.3934 -2.3486  2.4653
27459WAT    EPW11643   3.368   5.268   1.978  0.1928 -0.9210  1.2056
27460WAT      O11644   4.141   4.895   4.709 -0.2503  0.1753 -0.5474
27460WAT     H111645   4.156   4.980   4.751 -1.2114 -0.7898  1.9520
27460WAT     H211646   4.223   4.848   4.722 -1.6632 -1.5949  4.3391
27460WAT    EPW11647   4.154   4.900   4.717 -0.5636 -0.1857  0.4268
27461WAT      O11648   2.379   6.279   1.465 -0.4874 -0.0675 -0.1624
27461WAT     H111649   2.406   6.362   1.504 -0.8047 -0.2218  0.4010
27461WAT     H211650   2.297   6.300   1.419  1.1953  0.7097 -3.0340
27461WAT    EPW11651   2.371   6.293   1.464 -0.3072  0.0148 -0.4667
27462WAT      O11652   1.067   6.138   3.305  0.2776 -0.6110 -0.0658
27462WAT     H111653   1.062   6.212   3.365 -0.9899  0.7920 -1.7995
27462WAT     H211654   1.161   6.123   3.294  0.6019  1.4302 -0.4604
27462WAT    EPW11655   1.079   6.146   3.312  0.1532 -0.1566 -0.3464
27463WAT      O11656  10.817   6.951   0.853 -0.3428 -0.1074  0.0361
27463WAT     H111657  10.757   7.025   0.841 -1.2378 -0.7084  0.6587
27463WAT     H211658  10.897   6.991   0.888 -0.8008  0.5842  0.3350
27463WAT    EPW11659  10.820   6.966   0.856 -0.5212 -0.0956  0.1577
27464WAT      O11660   1.264   4.012   0.982  0.2118 -0.0958 -0.2349
27464WAT     H111661   1.331   4.062   0.936  0.0265 -0.5612 -1.0335
27464WAT     H211662   1.190   4.071   0.989  1.1170  0.8667  1.7926
27464WAT    EPW11663   1.263   4.026   0.977  0.3068 -0.0303 -0.0728
27465WAT      O11664   1.348   2.087   3.533 -0.6050  0.2884 -0.0770
27465WAT     H111665   1.336   2.164   3.589  0.7714  0.0387  0.5941
27465WAT     H211666   1.423   2.041   3.571 -0.3702 -0.5121 -1.4483
27465WAT    EPW11667   1.356   2.091   3.546 -0.3925  0.1498 -0.1695
27466WAT      O11668   2.349   7.367   1.545  0.2791  0.8030 -0.1470
27466WAT     H111669   2.339   7.334   1.634 -1.0888  1.5881  0.0334
27466WAT     H211670   2.291   7.444   1.542  0.8945  1.2424 -1.4814
27466WAT    EPW11671   2.340   7.373   1.556  0.1798  0.9649 -0.2992
27467WAT      O11672   1.298   5.401   2.525 -0.1656 -0.0111 -0.1776
27467WAT     H111673   1.355   5.376   2.597 -1.4502 -0.2051  0.8188
27467WAT     H211674   1.234   5.460   2.565  0.5922  1.9543 -1.7003
27467WAT    EPW11675   1.297   5.406   2.540 -0.2351  0.2224 -0.2470
27468WAT      O11676   1.244   4.318   2.897  0.2099 -0.0018 -0.4622
27468WAT     H111677   1.314   4.271   2.851  0.2979 -1.0947  0.7386
27468WAT     H211678   1.167   4.261   2.888  0.4030 -0.5911  1.2963
27468WAT    EPW11679   1.243   4.304   2.889  0.2470 -0.2236 -0.0719
27469WAT      O11680   5.868   7.686   4.582  1.2339  0.3043  0.4048
27469WAT     H111681   5.830   7.725   4.503  1.7137 -1.8184 -0.9641
27469WAT     H211682   5.936   7.627   4.549 -0.1852 -2.5399  2.1780
27469WAT    EPW11683   5.872   7.683   4.567  1.1098 -0.3510  0.4580
27470WAT      O11684   0.078   5.195   4.360  0.2613  0.1084  0.0197
27470WAT     H111685   0.012   5.264   4.374  2.7154  2.0265  3.4594
27470WAT     H211686   0.161   5.242   4.352  1.9238 -2.3653  1.3879
27470WAT    EPW11687   0.080   5.210   4.361  0.8043  0.0350  0.6540
27471WAT      O11688   0.608   6.884   2.258 -0.5084 -0.1324 -0.0475
27471WAT     H111689   0.693   6.911   2.224 -1.1499 -0.0299 -1.6190
27471WAT     H211690   0.629   6.826   2.332  0.8898  1.3346  0.7668
27471WAT    EPW11691   0.622   6.880   2.263 -0.4086  0.0744 -0.1475
27472WAT      O11692   3.222   1.933   6.099 -0.3913  0.0835  0.3998
27472WAT     H111693   3.250   1.947   6.008 -3.9138 -0.7646 -0.9698
27472WAT     H211694   3.272   1.857   6.128 -0.3246 -0.5980 -1.3809
27472WAT    EPW11695   3.233   1.925   6.091 -0.8471 -0.1183 -0.0160
27473WAT      O11696   4.048   5.703   2.678  0.2302 -0.6040 -0.5279
27473WAT     H111697   4.026   5.666   2.764  1.4651 -1.4003 -0.5339
27473WAT     H211698   3.974   5.679   2.622 -0.2552 -0.6849  0.1331
27473WAT    EPW11699   4.035   5.695   2.682  0.3293 -0.7198 -0.4417
27474WAT      O11700   4.557   7.016   4.522 -0.0247  0.0101 -0.1982
27474WAT     H111701   4.537   7.072   4.447  0.6190 -0.4843 -0.7514
27474WAT     H211702   4.512   7.058   4.596 -2.2565 -0.5242 -1.1900
27474WAT    EPW11703   4.548   7.029   4.522 -0.2341 -0.1256 -0.4020
27475WAT      O11704   3.315   5.078   4.185 -0.1713  0.1646  0.3182
27475WAT     H111705   3.315   5.082   4.089  1.2009  2.1648  0.3408
27475WAT     H211706   3.256   5.149   4.212 -1.1003 -0.8286  0.9925
27475WAT    EPW11707   3.307   5.088   4.176 -0.1128  0.2971  0.4101
27476WAT      O11708   7.009   6.533   3.478 -0.2319  0.7776 -0.3579
27476WAT     H111709   6.982   6.558   3.389 -3.1729  0.6857  0.3909
27476WAT     H211710   6.949   6.463   3.502  0.7420  0.5518  1.5937
27476WAT    EPW11711   6.998   6.527   3.469 -0.4911  0.7355 -0.0018
27477WAT      O11712   3.520   8.959   4.579 -0.1212  0.8402  0.0829
27477WAT     H111713   3.586   8.926   4.518  1.3851  1.3897  1.3482
27477WAT     H211714   3.486   9.037   4.536 -1.9402 -0.8783 -1.7978
27477WAT    EPW11715   3.524   8.965   4.565 -0.1624  0.6862  0.0019
27478WAT      O11716   4.373   5.793   5.498  0.2574 -0.3849  0.2417
27478WAT     H111717   4.467   5.803   5.487 -0.1895  1.2514 -6.8508
27478WAT     H211718   4.341   5.883   5.508 -0.6674 -0.5989 -0.6495
27478WAT    EPW11719   4.381   5.806   5.498  0.0765 -0.1972 -0.8116
27479WAT      O11720   3.692   9.681   3.722 -0.2167  0.0100  0.4924
27479WAT     H111721   3.774   9.631   3.722 -0.0329  0.2693  1.9529
27479WAT     H211722   3.624   9.615   3.710  0.1700 -0.2328 -0.5047
27479WAT    EPW11723   3.694   9.665   3.720 -0.1414  0.0124  0.5534
27480WAT      O11724   2.208   4.284   3.446  0.3405 -0.1278 -0.2936
27480WAT     H111725   2.253   4.261   3.527 -0.6348  1.0368  0.6252
27480WAT     H211726   2.115   4.278   3.468  0.0593  0.6682 -1.1766
27480WAT    EPW11727   2.202   4.280   3.460  0.1749  0.1309 -0.2890
27481WAT      O11728   3.072   3.847   1.820  0.0984  0.1695  0.2195
27481WAT     H111729   2.996   3.898   1.791 -1.2773 -2.0013 -0.2675
27481WAT     H211730   3.136   3.858   1.751  1.1791  3.7065  1.5744
27481WAT    EPW11731   3.070   3.856   1.807  0.0595  0.3496  0.3340
27482WAT      O11732  10.193   4.393   1.543  0.4286  0.1504  0.7085
27482WAT     H111733  10.285   4.413   1.530  0.1775  0.3476 -1.1347
27482WAT     H211734  10.166   4.447   1.617  1.3152  1.6645 -0.0278
27482WAT    EPW11735  10.201   4.402   1.551  0.5126  0.3762  0.3683
27483WAT      O11736   1.937   4.952   4.747  0.0010 -0.1479  0.6352
27483WAT     H111737   1.898   4.904   4.819 -0.9138 -0.4339 -0.0393
27483WAT     H211738   1.988   5.021   4.790 -2.9623  1.6450  1.5886
27483WAT    EPW11739   1.939   4.955   4.762 -0.5105  0.0510  0.6719
27484WAT      O11740   3.198   6.756   2.552 -0.7251 -0.5997 -0.9107
27484WAT     H111741   3.146   6.680   2.525 -2.0595 -0.3482  0.7588
27484WAT     H211742   3.167   6.827   2.495 -0.5992 -0.9546 -1.4270
27484WAT    EPW11743   3.187   6.755   2.541 -0.8847 -0.6132 -0.7586
27485WAT      O11744   5.830   6.527   2.236 -0.0032  0.0374 -0.2116
27485WAT     H111745   5.896   6.522   2.167 -0.1676 -0.4775 -0.3373
27485WAT     H211746   5.811   6.435   2.257 -0.7221  0.1771 -0.2245
27485WAT    EPW11747   5.836   6.514   2.229 -0.1197 -0.0119 -0.2301
27486WAT      O11748   6.054   1.865   8.296 -0.2075 -0.0014  0.0763
27486WAT     H111749   6.027   1.783   8.339  0.7523  0.2755  1.2605
27486WAT     H211750   6.113   1.906   8.359  1.4873  0.2962 -1.6250
27486WAT    EPW11751   6.058   1.859   8.310  0.1428  0.0744  0.0081
27487WAT      O11752   4.579   6.499   2.303 -0.2903 -0.1960  0.6727
27487WAT     H111753   4.601   6.496   2.396  1.9650  2.1453  0.3287
27487WAT     H211754   4.607   6.586   2.275 -1.4075 -0.6356 -2.1094
27487WAT    EPW11755   4.586   6.510   2.312 -0.1402  0.0548  0.2604
27488WAT      O11756   8.100   0.734   2.813 -0.2072 -0.2231 -0.3244
27488WAT     H111757   8.182   0.706   2.771 -0.5939 -0.1778 -1.1461
27488WAT     H211758   8.128   0.790   2.885  0.5668  3.9577 -3.4235
27488WAT    EPW11759   8.114   0.738   2.817 -0.1564  0.3343 -0.8415
27489WAT      O11760   1.112   5.326   1.992  0.0624 -0.8060 -0.5259
27489WAT     H111761   1.069   5.406   2.022  2.0889  0.5536 -1.0283
27489WAT     H211762   1.097   5.262   2.062  0.5640  0.7922  1.1110
27489WAT    EPW11763   1.104   5.328   2.005  0.3958 -0.4158 -0.3762
27490WAT      O11764   5.873   1.278   8.427 -0.4806 -0.1031 -0.1457
27490WAT     H111765   5.966   1.292   8.408 -0.8087  1.4548 -0.7791
27490WAT     H211766   5.847   1.205   8.371  0.7842 -1.8859  1.4749
27490WAT    EPW11767   5.882   1.270   8.417 -0.3569 -0.1327 -0.0148
27491WAT      O11768  10.229   6.739   4.821  0.1654 -0.3374  0.0418
27491WAT     H111769  10.167   6.667   4.812  0.4951 -0.3842 -2.6027
27491WAT     H211770  10.307   6.698   4.859 -0.1488 -1.0914 -0.1043
27491WAT    EPW11771  10.231   6.724   4.825  0.1674 -0.4430 -0.3264
27492WAT      O11772   3.312   3.829   3.572  0.4813 -0.1480  0.2710
27492WAT     H111773   3.342   3.915   3.543 -0.6262 -0.5582 -2.3546
27492WAT     H211774   3.380   3.799   3.633  1.5822  1.9675  0.1778
27492WAT    EPW11775   3.325   3.836   3.576  0.4804  0.0768 -0.0876
27493WAT      O11776   2.268   4.285   1.997 -0.0565  0.6355 -0.7457
27493WAT     H111777   2.237   4.219   1.935 -2.8404  0.1834  0.9514
27493WAT     H211778   2.350   4.317   1.960  1.0093 -3.1558 -2.0730
27493WAT    EPW11779   2.275   4.281   1.984 -0.2830  0.0761 -0.6970
27494WAT      O11780   3.941   7.610   6.147  0.5291  0.4351 -0.2671
27494WAT     H111781   3.869   7.597   6.085 -0.6508  1.6321  0.7889
27494WAT     H211782   4.015   7.565   6.107 -0.7162 -0.6049 -1.5355
27494WAT    EPW11783   3.941   7.602   6.134  0.2092  0.4559 -0.2952
27495WAT      O11784   3.312   4.272   4.499  0.1873 -0.0030  0.1408
27495WAT     H111785   3.374   4.317   4.442  0.9865 -1.9134 -0.6071
27495WAT     H211786   3.361   4.197   4.532 -0.2671  0.9948  3.4013
27495WAT    EPW11787   3.327   4.268   4.496  0.2327 -0.1233  0.4721
27496WAT      O11788   1.609   2.886   5.442 -0.6782  0.5587  0.3838
27496WAT     H111789   1.609   2.825   5.516  1.0787  0.2540  0.1936
27496WAT     H211790   1.564   2.839   5.372  2.1134 -1.3934 -0.3288
27496WAT    EPW11791   1.603   2.871   5.443 -0.0781  0.2609  0.2649
27497WAT      O11792  10.776   4.582   2.637  1.0408  0.1369  0.6196
27497WAT     H111793  10.738   4.494   2.645 -0.0514  0.5567  0.2759
27497WAT     H211794  10.869   4.567   2.624  0.6248 -1.0741 -1.4795
27497WAT    EPW11795  10.783   4.568   2.637  0.8421  0.0327  0.2974
27498WAT      O11796   9.677   6.747   0.451  0.2787 -0.1646  0.0592
27498WAT     H111797   9.706   6.656   0.453  1.2495  0.1591  1.2366
27498WAT     H211798   9.754   6.796   0.423  0.9056  0.6722  2.9976
27498WAT    EPW11799   9.691   6.741   0.447  0.4888 -0.0114  0.6020
27499WAT      O11800   2.663   4.306   3.696 -0.5401  0.0481  0.3897
27499WAT     H111801   2.749   4.321   3.657 -0.2705 -0.7659  0.6412
27499WAT     H211802   2.614   4.259   3.629 -0.1831 -1.0683  0.8921
27499WAT    EPW11803   2.668   4.302   3.682 -0.4575 -0.2067  0.4892
27500WAT      O11804   1.980   8.486   1.512 -0.1477  0.4361 -0.4505
27500WAT     H111805   2.035   8.486   1.434  1.8050 -2.1290  0.7441
27500WAT     H211806   2.040   8.505   1.584 -1.3205  0.0405  0.6818
27500WAT    EPW11807   1.995   8.488   1.512 -0.0448  0.0458 -0.1436
27501WAT      O11808   2.943   7.171   0.374 -0.1811 -0.5428 -0.3352
27501WAT     H111809   2.866   7.192   0.321  0.8188  0.2593 -1.5573
27501WAT     H211810   2.984   7.097   0.328  2.2164  1.8783 -2.4828
27501WAT    EPW11811   2.939   7.164   0.361  0.2669 -0.1175 -0.7797
27502WAT      O11812   0.375   0.512   8.630  0.5646  0.6799  0.9647
27502WAT     H111813   0.380   0.466   8.713  1.8277  0.1432  0.6147
27502WAT     H211814   0.417   0.597   8.646  0.1018  0.8945  1.0675
27502WAT    EPW11815   0.381   0.517   8.643  0.6701  0.6374  0.9322
27503WAT      O11816   3.963   8.111   5.298 -0.8428 -0.1997 -0.8753
27503WAT     H111817   4.043   8.125   5.248 -0.9681  0.9365 -0.7899
27503WAT     H211818   3.909   8.055   5.243  0.0974 -1.1910 -0.8225
27503WAT    EPW11819   3.966   8.105   5.284 -0.7353 -0.1807 -0.8571
27504WAT      O11820   2.195   5.511   3.150 -0.3775 -0.5494  0.2779
27504WAT     H111821   2.192   5.602   3.180  0.1518 -0.6487  0.6416
27504WAT     H211822   2.278   5.505   3.103 -0.5255 -0.7819  0.0496
27504WAT    EPW11823   2.206   5.523   3.148 -0.3272 -0.5929  0.2960
27505WAT      O11824   0.121   0.547   8.515 -0.3539  0.6700 -0.3378
27505WAT     H111825   0.084   0.465   8.481 -1.1136  0.2521  1.3549
27505WAT     H211826   0.211   0.525   8.538 -0.5696  0.2636  0.1579
27505WAT    EPW11827   0.128   0.533   8.514 -0.4826  0.5613 -0.0491
27506WAT      O11828   3.631   8.160   1.802 -0.1551  0.3249 -0.0452
27506WAT     H111829   3.580   8.177   1.723  0.7262  0.5412 -0.5912
27506WAT     H211830   3.685   8.084   1.779 -0.8284 -0.4333  0.8186
27506WAT    EPW11831   3.632   8.152   1.788 -0.1278  0.2537 -0.0033
27507WAT      O11832   0.469   5.427   2.685 -0.4594 -1.0018  0.0950
27507WAT     H111833   0.445   5.519   2.672  1.0395 -0.4413  0.9094
27507WAT     H211834   0.563   5.431   2.706 -0.2391 -2.7815 -0.4488
27507WAT    EPW11835   0.478   5.440   2.686 -0.2327 -1.1628  0.1307
27508WAT      O11836   1.393   5.331   0.570 -0.1182 -0.3265  0.5468
27508WAT     H111837   1.472   5.297   0.528 -0.3881 -2.2682  1.4958
27508WAT     H211838   1.421   5.412   0.612  0.7498  0.3181 -1.1488
27508WAT    EPW11839   1.407   5.337   0.570 -0.0393 -0.4976  0.4483
27509WAT      O11840   2.711   8.239   0.992  0.1690  0.5517 -0.3674
27509WAT     H111841   2.692   8.191   1.073  1.3264 -0.1673 -0.5006
27509WAT     H211842   2.806   8.253   0.995  0.2229  0.4927 -1.6169
27509WAT    EPW11843   2.721   8.235   1.003  0.3288  0.4497 -0.5497
27510WAT      O11844  10.752   7.290   0.487  0.2066 -0.7236  0.2975
27510WAT     H111845  10.711   7.235   0.420  1.1853 -0.3330 -0.6482
27510WAT     H211846  10.840   7.253   0.497  0.6898  0.3178  0.0458
27510WAT    EPW11847  10.758   7.278   0.479  0.3986 -0.5348  0.1396
27511WAT      O11848   4.782   5.869   4.465 -0.7998  0.3666  0.6190
27511WAT     H111849   4.775   5.798   4.528  0.0207  0.7719  1.1866
27511WAT     H211850   4.765   5.828   4.380  0.0634 -0.5916  0.8910
27511WAT    EPW11851   4.778   5.854   4.462 -0.5777  0.2935  0.7298
27512WAT      O11852   4.224   7.930   4.007 -0.6067 -0.8114 -0.1885
27512WAT     H111853   4.178   7.852   4.037  0.5526 -0.6326  2.3453
27512WAT     H211854   4.222   7.989   4.082  1.5770  0.1538 -0.8067
27512WAT    EPW11855   4.218   7.927   4.021 -0.1657 -0.6607  0.0644
27513WAT      O11856   2.736   3.809   2.559  0.4864  0.3582  0.1844
27513WAT     H111857   2.677   3.767   2.622 -0.3080  1.3238  0.1137
27513WAT     H211858   2.735   3.751   2.483  4.0242 -2.6344  2.0788
27513WAT    EPW11859   2.728   3.796   2.557  0.8483  0.0908  0.4250
27514WAT      O11860   1.237   5.719   4.262  0.5877  0.4934  0.5107
27514WAT     H111861   1.260   5.666   4.338  1.1511  2.0643  1.4886
27514WAT     H211862   1.317   5.721   4.209 -0.2640 -1.9480 -1.0527
27514WAT    EPW11863   1.250   5.712   4.265  0.5496  0.3784  0.4332
27515WAT      O11864   2.540   8.780   1.537  0.2998  0.0277 -0.4862
27515WAT     H111865   2.501   8.775   1.450 -3.3979  4.7249  0.4448
27515WAT     H211866   2.492   8.715   1.588  4.4933 -4.9401 -2.0794
27515WAT    EPW11867   2.528   8.771   1.532  0.3650 -0.0076 -0.5735
27516WAT      O11868   4.702   5.496   3.083  0.0911  0.5486 -0.0021
27516WAT     H111869   4.746   5.426   3.035 -1.5703 -1.1005  0.7594
27516WAT     H211870   4.729   5.484   3.174  0.1374  1.1900  0.0734
27516WAT    EPW11871   4.711   5.485   3.088 -0.1218  0.4156  0.1084
27517WAT      O11872   2.480   4.063   3.873  0.3302  0.0066 -0.2075
27517WAT     H111873   2.543   4.006   3.830  1.2652  2.3493 -2.1936
27517WAT     H211874   2.532   4.124   3.924 -0.3527  1.1084 -0.7652
27517WAT    EPW11875   2.495   4.063   3.874  0.3635  0.4609 -0.5431
27518WAT      O11876   0.908   6.344   0.476 -0.0052 -0.2159 -0.0785
27518WAT     H111877   0.981   6.292   0.510  0.2554 -0.1181 -0.4695
27518WAT     H211878   0.834   6.322   0.532 -0.3823 -2.4332 -1.3457
27518WAT    EPW11879   0.908   6.334   0.488 -0.0206 -0.4954 -0.2972
27519WAT      O11880   6.102   5.721   3.582  0.2436 -0.4968 -0.5901
27519WAT     H111881   6.106   5.777   3.504  0.4633 -0.7652 -0.7745
27519WAT     H211882   6.125   5.633   3.549  1.6613 -0.3834  0.0059
27519WAT    EPW11883   6.106   5.717   3.567  0.4597 -0.5171 -0.5360
27520WAT      O11884   2.202   5.485   1.891  0.4425 -0.4481 -0.5940
27520WAT     H111885   2.253   5.531   1.825 -0.1594  1.7622  0.3969
27520WAT     H211886   2.111   5.501   1.867  0.1134  2.6038  1.9976
27520WAT    EPW11887   2.197   5.493   1.879  0.3198  0.2460 -0.1215
27521WAT      O11888   1.846   3.792   5.754  0.6272 -0.2960  0.1200
27521WAT     H111889   1.776   3.789   5.688 -0.2583 -2.1086  1.0510
27521WAT     H211890   1.841   3.707   5.798  0.1677  1.3041  3.5268
27521WAT    EPW11891   1.836   3.780   5.752  0.4498 -0.3240  0.6921
27522WAT      O11892   2.007   6.190   1.353 -0.2918  0.3874  0.9633
27522WAT     H111893   2.020   6.275   1.395 -0.5192 -0.2197  2.2958
27522WAT     H211894   1.923   6.159   1.385  0.2192 -0.7639  1.2428
27522WAT    EPW11895   1.998   6.197   1.362 -0.2544  0.1554  1.1759
27523WAT      O11896   1.097   5.310   3.634 -0.2315  0.3072  0.4123
27523WAT     H111897   1.163   5.357   3.584  1.8675 -3.7979 -1.0835
27523WAT     H211898   1.046   5.262   3.569  0.5436 -2.7338  1.8610
27523WAT    EPW11899   1.099   5.310   3.619  0.1476 -0.6354  0.4060
27524WAT      O11900   0.667   4.841   3.340  0.1002  0.4112  0.7153
27524WAT     H111901   0.598   4.783   3.308  0.4219  0.2793  0.2466
27524WAT     H211902   0.720   4.785   3.397  0.5755  0.1550  0.0401
27524WAT    EPW11903   0.665   4.826   3.343  0.2053  0.3598  0.5645
27525WAT      O11904   1.532   2.757   2.122  0.5874 -0.1577 -0.1115
27525WAT     H111905   1.585   2.700   2.178  1.1131  0.1199 -0.3250
27525WAT     H211906   1.564   2.846   2.141 -0.7011  0.1618  0.7562
27525WAT    EPW11907   1.543   2.761   2.132  0.4869 -0.0789 -0.0252
27526WAT      O11908   0.949   6.255   2.097 -0.3243 -0.1922  0.1195
27526WAT     H111909   0.959   6.350   2.098  0.6174 -0.2926  0.7415
27526WAT     H211910   0.916   6.236   2.009  1.3493  0.5262 -0.7016
27526WAT    EPW11911   0.946   6.265   2.085  0.0207 -0.1106  0.0933
27527WAT      O11912   2.720   7.280   3.917 -0.2578  0.0040 -0.1632
27527WAT     H111913   2.807   7.319   3.910  0.4972 -1.5548  0.0241
27527WAT     H211914   2.719   7.240   4.004 -0.4134 -1.6362 -0.8813
27527WAT    EPW11915   2.732   7.280   3.927 -0.1787 -0.4179 -0.2333
27528WAT      O11916   2.406   4.566   3.330 -0.9001  0.2538  0.0500
27528WAT     H111917   2.331   4.543   3.276 -1.9596  0.5285  1.3565
27528WAT     H211918   2.370   4.575   3.419  0.5348  1.1320  0.5769
27528WAT    EPW11919   2.392   4.564   3.335 -0.8506  0.4060  0.2917
27529WAT      O11920   3.607   3.953   2.065  0.5089 -0.3373  0.1828
27529WAT     H111921   3.550   3.899   2.010 -0.6350  0.9980  0.0134
27529WAT     H211922   3.552   4.025   2.094  1.8619  0.4834  0.8147
27529WAT    EPW11923   3.592   3.955   2.061  0.5366 -0.0529  0.2438
27530WAT      O11924   1.589   2.639   1.319 -0.3241 -0.5275  0.7263
27530WAT     H111925   1.605   2.597   1.234  0.4755  2.4952 -0.7793
27530WAT     H211926   1.662   2.610   1.373  1.7997  0.9061 -1.1465
27530WAT    EPW11927   1.601   2.630   1.315  0.0615  0.0601  0.2807
27531WAT      O11928   1.357   4.710   1.255 -0.7106  0.0266  0.7388
27531WAT     H111929   1.403   4.657   1.189 -0.9168  1.5095 -0.6638
27531WAT     H211930   1.265   4.688   1.243 -0.8341  0.9744 -0.1235
27531WAT    EPW11931   1.351   4.700   1.245 -0.7541  0.3471  0.4400
27532WAT      O11932  10.534   1.822   0.061  0.4422  0.0347 -0.2310
27532WAT     H111933  10.492   1.740   0.087 -0.7910  0.3821 -1.0128
27532WAT     H211934  10.529   1.822  -0.035  0.1894  1.1148 -0.2334
27532WAT    EPW11935  10.528   1.811   0.052  0.2460  0.2230 -0.3344
27533WAT      O11936   2.986   3.451   4.303  0.3679  0.2372 -0.2535
27533WAT     H111937   2.956   3.364   4.329 -1.2917  0.2533 -1.9549
27533WAT     H211938   2.915   3.487   4.249  1.6277  2.0638 -0.8111
27533WAT    EPW11939   2.973   3.445   4.299  0.3152  0.4802 -0.5512
27534WAT      O11940   1.943   4.378   2.923 -0.2195  0.4925 -0.3063
27534WAT     H111941   2.024   4.429   2.933 -1.1983  1.8941  0.9862
27534WAT     H211942   1.963   4.295   2.966  0.4485  0.9440  0.3021
27534WAT    EPW11943   1.957   4.374   2.930 -0.2605  0.7370 -0.0556
27535WAT      O11944   3.372   5.127   0.566 -0.2395 -0.0118 -0.5682
27535WAT     H111945   3.447   5.185   0.577  0.0329  0.0345 -2.4343
27535WAT     H211946   3.302   5.184   0.533 -0.6962 -0.3110 -0.1357
27535WAT    EPW11947   3.373   5.143   0.563 -0.2639 -0.0451 -0.7572
27536WAT      O11948   0.597   6.699   1.408  0.5930  0.3913  0.2473
27536WAT     H111949   0.616   6.721   1.316  3.7810 -0.1104  0.6878
27536WAT     H211950   0.512   6.655   1.404  1.1854 -0.7483 -2.6484
27536WAT    EPW11951   0.588   6.696   1.395  1.0915  0.1748 -0.0765
27537WAT      O11952   0.841   4.402   2.083  0.1782 -0.3808  0.4928
27537WAT     H111953   0.796   4.438   2.007  0.4358  2.4157  1.5369
27537WAT     H211954   0.790   4.435   2.158  1.6820 -0.4484  1.5944
27537WAT    EPW11955   0.828   4.411   2.083  0.4105 -0.0207  0.7758
27538WAT      O11956   7.882   9.551   8.650  0.0887  0.6254  0.0919
27538WAT     H111957   7.842   9.464   8.644  0.8642 -0.0101  2.6937
27538WAT     H211958   7.967   9.541   8.607 -1.0212  1.0145 -2.3379
27538WAT    EPW11959   7.888   9.538   8.643  0.0446  0.5927  0.1144
27539WAT      O11960   1.952   2.774   5.168  0.4881 -0.5118  0.2536
27539WAT     H111961   1.944   2.786   5.263  0.8426 -0.0323  0.2259
27539WAT     H211962   1.884   2.831   5.131  1.2273  0.3550  0.1782
27539WAT    EPW11963   1.942   2.783   5.176  0.6324 -0.3341  0.2398
27540WAT      O11964   1.983   4.131   3.369  0.5664  0.0316  0.1684
27540WAT     H111965   1.904   4.184   3.358  0.5818 -0.2734 -1.6284
27540WAT     H211966   1.955   4.041   3.355  1.1323 -0.1399  0.0893
27540WAT    EPW11967   1.969   4.126   3.366  0.6430 -0.0312 -0.0789
27541WAT      O11968   1.794   8.295   6.611  0.4255 -1.1255 -0.1008
27541WAT     H111969   1.802   8.289   6.706 -0.2603  1.2540  0.1909
27541WAT     H211970   1.883   8.286   6.578  1.4458  2.3915  1.2077
27541WAT    EPW11971   1.807   8.293   6.619  0.4696 -0.3481  0.1101
27542WAT      O11972   1.930   3.525   3.213  0.2292 -0.4202 -0.3396
27542WAT     H111973   1.945   3.459   3.145  0.3082  0.4707 -1.2046
27542WAT     H211974   2.016   3.535   3.256 -0.0606 -1.7424  0.6269
27542WAT    EPW11975   1.943   3.517   3.210  0.2013 -0.4772 -0.3262
27543WAT      O11976   3.817   8.711   8.760 -0.1314  0.3230 -0.3910
27543WAT     H111977   3.872   8.638   8.731  2.8687  0.7766  3.4182
27543WAT     H211978   3.851   8.787   8.714 -0.3957 -0.0248 -1.1717
27543WAT    EPW11979   3.828   8.711   8.750  0.2294  0.3371  0.0091
27544WAT      O11980   1.956   7.742   2.085  0.0839  0.3475 -0.3481
27544WAT     H111981   1.984   7.744   1.994 -0.4939 -1.7228 -0.6379
27544WAT     H211982   1.892   7.671   2.089  0.4531  0.0527  1.7589
27544WAT    EPW11983   1.952   7.733   2.073  0.0563  0.0355 -0.1085
27545WAT      O11984   2.508   3.023   5.817 -0.3942  0.6161 -0.0380
27545WAT     H111985   2.590   2.998   5.858 -0.9892 -1.9775 -0.2107
27545WAT     H211986   2.459   3.068   5.886 -0.5548 -1.8060  1.5469
27545WAT    EPW11987   2.512   3.026   5.832 -0.4939 -0.0455  0.1485
27546WAT      O11988   0.953   6.616   3.441  0.2600 -0.3011 -0.1001
27546WAT     H111989   0.860   6.618   3.463 -0.0018 -2.3702 -0.8794
27546WAT     H211990   0.997   6.597   3.524  0.1830  2.0784  0.5736
27546WAT    EPW11991   0.947   6.614   3.455  0.2153 -0.2601 -0.1141
27547WAT      O11992   3.918   5.460   3.350  0.1192  0.4351  0.2091
27547WAT     H111993   3.942   5.552   3.339 -0.4962  0.5438 -0.2843
27547WAT     H211994   3.826   5.456   3.324  0.1779 -0.3446  0.1061
27547WAT    EPW11995   3.909   5.472   3.345  0.0458  0.3462  0.1304
27548WAT      O11996   1.390   4.908   2.053  0.0642  0.6213  0.8040
27548WAT     H111997   1.436   4.860   1.984  1.5595  1.0876  1.4152
27548WAT     H211998   1.298   4.903   2.029  0.5482  0.9813 -1.3527
27548WAT    EPW11999   1.384   4.901   2.041  0.3253  0.7305  0.6001
27549WAT      O12000   0.132   3.566   2.172  0.2335  0.0154 -0.4629
27549WAT     H112001   0.045   3.590   2.139  0.0892  2.0376  1.1924
27549WAT     H212002   0.147   3.626   2.244  2.8760 -0.5629 -0.4535
27549WAT    EPW12003   0.122   3.577   2.177  0.5630  0.2059 -0.2433
27550WAT      O12004   3.579   2.799   3.645 -0.1891  0.5313 -0.3221
27550WAT     H112005   3.531   2.807   3.727 -1.6087 -0.4203 -1.0079
27550WAT     H212006   3.522   2.745   3.589  1.8762 -1.0461 -1.0358
27550WAT    EPW12007   3.565   2.793   3.648 -0.1038  0.1978 -0.5068
27551WAT      O12008   1.658   6.710   3.938 -0.3545  0.0248 -0.0743
27551WAT     H112009   1.749   6.728   3.964 -0.8411  2.3508  0.2362
27551WAT     H212010   1.653   6.742   3.848 -0.8649 -0.1328 -0.1029
27551WAT    EPW12011   1.670   6.717   3.929 -0.4861  0.3107 -0.0372
27552WAT      O12012   0.572   2.631   4.256 -0.5996 -0.7837  0.0675
27552WAT     H112013   0.662   2.617   4.228 -0.4143 -0.7498  0.6319
27552WAT     H212014   0.532   2.544   4.253  0.2179 -1.3349  2.4261
27552WAT    EPW12015   0.579   2.618   4.252 -0.4673 -0.8521  0.4532
27553WAT      O12016  10.411   5.801   0.547  0.1329 -0.3533  0.1796
27553WAT     H112017  10.402   5.740   0.621 -2.0103  0.3837  0.5985
27553WAT     H212018  10.354   5.874   0.570 -1.9255 -0.7911 -2.8789
27553WAT    EPW12019  10.402   5.802   0.560 -0.4215 -0.3138 -0.1685
27554WAT      O12020   5.843   6.296   0.965 -0.1966 -0.1796  0.3797
27554WAT     H112021   5.915   6.261   1.018 -1.2197 -1.9208  0.6695
27554WAT     H212022   5.802   6.220   0.926 -0.3468  0.9718 -1.8510
27554WAT    EPW12023   5.847   6.282   0.967 -0.3512 -0.2575  0.1237
27555WAT      O12024   3.229   3.190   0.283  0.6664 -0.1105  0.2932
27555WAT     H112025   3.223   3.278   0.321  1.1626 -0.7254  1.8780
27555WAT     H212026   3.228   3.205   0.188 -3.5314  1.3182  0.3824
27555WAT    EPW12027   3.228   3.203   0.275  0.1782 -0.0030  0.5140
27556WAT      O12028  10.768   6.058   2.617 -0.6139 -0.6952 -0.5695
27556WAT     H112029  10.851   6.106   2.617 -0.5771 -0.7378 -1.8453
27556WAT     H212030  10.763   6.020   2.705 -0.1512  0.7847  0.1371
27556WAT    EPW12031  10.778   6.059   2.629 -0.5484 -0.5054 -0.6444
27557WAT      O12032  10.411   0.201   8.487 -0.6384 -0.3117 -0.0863
27557WAT     H112033  10.403   0.177   8.394 -1.4921  1.4274 -0.5229
27557WAT     H212034  10.332   0.165   8.527 -2.5365  2.4503 -0.9713
27557WAT    EPW12035  10.399   0.193   8.480 -1.0014  0.2820 -0.2608
27558WAT      O12036   1.213   5.095   4.064  0.7073  0.3722 -0.2041
27558WAT     H112037   1.180   5.080   3.976 -1.6255  2.5429  0.1731
27558WAT     H212038   1.254   5.181   4.060  2.4382 -0.3929  0.3962
27558WAT    EPW12039   1.214   5.104   4.052  0.6279  0.5577 -0.0749
27559WAT      O12040   3.449   3.158   5.847  0.7686 -0.9999 -0.0307
27559WAT     H112041   3.485   3.106   5.776  1.5578  0.8576 -1.0750
27559WAT     H212042   3.514   3.153   5.917  0.7058 -1.6186 -0.0163
27559WAT    EPW12043   3.462   3.151   5.847  0.8643 -0.8365 -0.1669
27560WAT      O12044   1.612   7.276   1.648  0.4746 -0.0571 -0.1809
27560WAT     H112045   1.594   7.247   1.558 -1.1380  1.7501 -0.5001
27560WAT     H212046   1.572   7.209   1.703  0.0115 -0.3285 -0.8271
27560WAT    EPW12047   1.605   7.263   1.643  0.2007  0.1457 -0.3083
27561WAT      O12048   0.413   6.562   1.931  0.1490 -0.0659 -0.6443
27561WAT     H112049   0.427   6.650   1.897  3.1228 -0.9368 -1.9500
27561WAT     H212050   0.480   6.551   1.999 -1.3563 -0.7610  0.8192
27561WAT    EPW12051   0.423   6.572   1.936  0.3427 -0.2725 -0.6236
27562WAT      O12052  10.343   6.440   0.142 -0.1989 -0.3011  0.0452
27562WAT     H112053  10.383   6.449   0.229 -0.5755 -1.9673  0.4250
27562WAT     H212054  10.417   6.437   0.082  0.0849  0.3338  0.3472
27562WAT    EPW12055  10.358   6.441   0.146 -0.2112 -0.4370  0.1352
27563WAT      O12056   1.465   5.198   0.959  0.3644 -0.2929  0.0615
27563WAT     H112057   1.545   5.249   0.974  0.1586 -0.6907  3.2140
27563WAT     H212058   1.482   5.114   1.001 -1.2489 -0.8387 -0.3197
27563WAT    EPW12059   1.478   5.194   0.966  0.1244 -0.4175  0.4270
27564WAT      O12060   0.173   7.229   3.294 -0.2534  0.6333 -0.6630
27564WAT     H112061   0.179   7.323   3.311 -0.5984  0.8724 -1.7559
27564WAT     H212062   0.093   7.220   3.242 -0.3867 -0.3100 -0.3110
27564WAT    EPW12063   0.163   7.240   3.289 -0.3165  0.5403 -0.7607
27565WAT      O12064   0.015   5.067   2.200  0.2709 -0.4767 -0.3399
27565WAT     H112065   0.069   5.141   2.173  0.9081 -0.6856  0.3392
27565WAT     H212066   0.041   4.995   2.143 -0.7792 -0.0423 -1.4172
27565WAT    EPW12067   0.025   5.068   2.189  0.2160 -0.4470 -0.3926
27566WAT      O12068   3.732   7.349   3.389  0.5824 -0.0334 -0.2391
27566WAT     H112069   3.706   7.364   3.480  2.0888  0.8199  0.0828
27566WAT     H212070   3.720   7.434   3.346 -0.0469 -0.4138 -0.8395
27566WAT    EPW12071   3.727   7.362   3.395  0.6981  0.0288 -0.2760
27567WAT      O12072   0.701   4.935   3.733  0.1262  0.3413 -0.5096
27567WAT     H112073   0.670   4.960   3.646 -1.2321 -0.5407 -0.3114
27567WAT     H212074   0.709   4.839   3.729 -2.0596  0.0187  0.9202
27567WAT    EPW12075   0.698   4.925   3.721 -0.3413  0.1824 -0.2948
27568WAT      O12076   6.829   9.656   6.802  0.1371  0.0809 -0.4968
27568WAT     H112077   6.896   9.726   6.800 -0.3735  0.5676 -2.3084
27568WAT     H212078   6.761   9.690   6.859  0.5804  0.4090 -0.1548
27568WAT    EPW12079   6.829   9.670   6.809  0.1283  0.1888 -0.6907
27569WAT      O12080   3.622   6.438   0.979 -0.1067  0.5802 -0.2050
27569WAT     H112081   3.622   6.533   0.996 -0.4454  0.4720  0.4594
27569WAT     H212082   3.615   6.399   1.066  1.3338 -0.0904 -0.3584
27569WAT    EPW12083   3.621   6.445   0.993  0.0385  0.4776 -0.1376
27570WAT      O12084   9.068   1.287   7.352 -0.2336  0.2799 -0.1565
27570WAT     H112085   9.024   1.206   7.379 -0.1533  1.1008  2.7588
27570WAT     H212086   9.015   1.357   7.391  0.9946  1.5260 -0.6507
27570WAT    EPW12087   9.055   1.286   7.361 -0.0606  0.5525  0.1631
27571WAT      O12088   0.778   5.123   4.463  0.6118 -0.0335  0.3260
27571WAT     H112089   0.689   5.136   4.496  1.9652  2.4896  3.6082
27571WAT     H212090   0.780   5.173   4.381 -0.8924  0.2289  0.4087
27571WAT    EPW12091   0.766   5.132   4.457  0.5919  0.3340  0.7696
27572WAT      O12092  10.572   6.919   4.840  0.3689  0.0086  0.1700
27572WAT     H112093  10.510   6.847   4.853  1.1168 -0.5747  0.5621
27572WAT     H212094  10.519   6.988   4.800 -0.2759 -0.9098 -0.6473
27572WAT    EPW12095  10.556   6.918   4.836  0.3824 -0.1895  0.1137
27573WAT      O12096   9.508   3.881   3.336 -0.0875  0.1545 -0.5276
27573WAT     H112097   9.448   3.807   3.323 -3.0281  2.5242 -1.6900
27573WAT     H212098   9.595   3.842   3.333 -1.4520 -3.5775  1.3482
27573WAT    EPW12099   9.511   3.866   3.334 -0.6557 -0.0252 -0.4336
27574WAT      O12100   2.024   0.727   5.669  0.5063 -0.5089 -0.2195
27574WAT     H112101   2.081   0.683   5.606  0.4744  0.0089 -0.6255
27574WAT     H212102   1.994   0.805   5.622  1.6217  0.6652  0.9186
27574WAT    EPW12103   2.028   0.732   5.654  0.6491 -0.2857 -0.1225
27575WAT      O12104   3.471   7.491   2.603  0.0169 -0.7738  0.0815
27575WAT     H112105   3.446   7.488   2.695  0.9060  1.4804  0.4703
27575WAT     H212106   3.546   7.432   2.596  1.6545  1.0021  1.4816
27575WAT    EPW12107   3.478   7.483   2.614  0.3501 -0.2422  0.3173
27576WAT      O12108   1.298   5.133   0.267 -0.1076  0.1589  0.4958
27576WAT     H112109   1.247   5.094   0.338 -2.1708 -0.2432 -1.1244
27576WAT     H212110   1.374   5.075   0.257 -1.0343 -1.1453  0.8211
27576WAT    EPW12111   1.301   5.120   0.275 -0.5020 -0.0665  0.3250
27577WAT      O12112  10.574   8.763   2.605  0.4466  0.7309  0.6939
27577WAT     H112113  10.664   8.740   2.630  0.6881  2.7578  1.8812
27577WAT     H212114  10.583   8.805   2.519  0.4163 -0.4367  0.1024
27577WAT    EPW12115  10.587   8.766   2.597  0.4749  0.8445  0.7725
27578WAT      O12116  10.356   7.303   2.553  0.0821 -0.2623  0.0367
27578WAT     H112117  10.450   7.283   2.553  0.5116  1.5770  0.5242
27578WAT     H212118  10.326   7.273   2.467  0.8204 -1.9924  0.3263
27578WAT    EPW12119  10.365   7.296   2.542  0.2356 -0.2477  0.1391
27579WAT      O12120   2.981   5.103   2.881 -0.0265 -0.4260  0.1111
27579WAT     H112121   2.995   5.043   2.809  1.4847 -0.1922  0.1899
27579WAT     H212122   2.931   5.052   2.945 -2.6974 -0.2049 -1.6277
27579WAT    EPW12123   2.976   5.089   2.880 -0.1794 -0.3660 -0.1079
27580WAT      O12124  10.956   5.839   0.374 -0.0325  0.2205 -0.0040
27580WAT     H112125  10.869   5.874   0.392  0.7148  1.6779  0.9844
27580WAT     H212126  10.974   5.780   0.447 -0.9046 -1.5753 -1.1757
27580WAT    EPW12127  10.947   5.836   0.386 -0.0491  0.1757 -0.0282
27581WAT      O12128   2.586   3.247   5.687 -0.5596  0.5593 -0.2496
27581WAT     H112129   2.642   3.286   5.753 -0.9982  1.0642 -0.1696
27581WAT     H212130   2.551   3.168   5.728  1.2828 -0.6145 -0.8313
27581WAT    EPW12131   2.589   3.242   5.701 -0.3744  0.4710 -0.3159
27582WAT      O12132   4.498   7.097   4.785  0.1367 -0.4460 -0.2389
27582WAT     H112133   4.588   7.115   4.810 -0.6073  0.7369  1.8692
27582WAT     H212134   4.476   7.015   4.830 -0.1453 -0.1641  0.1501
27582WAT    EPW12135   4.507   7.089   4.794  0.0014 -0.2532  0.0904
27583WAT      O12136   5.747   5.681   1.109 -0.5062 -0.1871  0.0127
27583WAT     H112137   5.706   5.717   1.030 -1.3511  0.0654  0.5482
27583WAT     H212138   5.684   5.699   1.179 -0.4414 -1.6814  0.5028
27583WAT    EPW12139   5.733   5.688   1.108 -0.6089 -0.3505  0.1480
27584WAT      O12140   3.107   7.026   2.833 -0.0999 -0.1196  0.0679
27584WAT     H112141   3.023   7.070   2.842  0.2482  0.5890 -0.0234
27584WAT     H212142   3.094   6.940   2.873 -1.3967 -0.7414 -1.5847
27584WAT    EPW12143   3.094   7.020   2.840 -0.2252 -0.1082 -0.1621
27585WAT      O12144   1.669   3.100   4.457 -0.4232  0.5802  1.0908
27585WAT     H112145   1.732   3.056   4.514 -1.0410 -0.4079  1.0472
27585WAT     H212146   1.721   3.132   4.383 -0.1077 -1.1675  0.5130
27585WAT    EPW12147   1.684   3.098   4.455 -0.4631  0.2195  1.0087
27586WAT      O12148   8.273   8.254   3.057 -0.0373  0.5332 -0.3821
27586WAT     H112149   8.249   8.178   3.111 -0.1292  0.6597 -0.2449
27586WAT     H212150   8.329   8.218   2.989 -0.3643  0.2810 -0.5234
27586WAT    EPW12151   8.277   8.239   3.055 -0.0925  0.5169 -0.3825
27587WAT      O12152   2.940   6.867   2.184 -0.2625  0.1500  0.6829
27587WAT     H112153   3.008   6.806   2.158  0.5885  0.7082  1.5257
27587WAT     H212154   2.930   6.853   2.279 -1.4154 -0.0191  0.5483
27587WAT    EPW12155   2.947   6.857   2.193 -0.3023  0.2012  0.7763
27588WAT      O12156   2.183   9.597   2.609  0.3693  0.2450 -0.1467
27588WAT     H112157   2.100   9.565   2.574  0.1623 -0.7776  1.1812
27588WAT     H212158   2.158   9.644   2.689  1.1112 -0.8226  0.7525
27588WAT    EPW12159   2.169   9.599   2.615  0.4398 -0.0305  0.1470
27589WAT      O12160   2.311   9.596   7.396 -0.4619 -0.3840 -0.4968
27589WAT     H112161   2.325   9.502   7.406 -1.6152 -0.6518 -1.1685
27589WAT     H212162   2.288   9.626   7.484  0.5063 -0.6045 -0.1564
27589WAT    EPW12163   2.309   9.588   7.409 -0.4863 -0.4487 -0.5405
27590WAT      O12164   0.779   2.755   6.480  0.5076 -1.1707  0.2158
27590WAT     H112165   0.720   2.707   6.538  1.1524 -1.5159  0.5949
27590WAT     H212166   0.867   2.737   6.514  0.7179  1.1489  1.0527
27590WAT    EPW12167   0.783   2.746   6.492  0.6203 -0.9104  0.3765
27591WAT      O12168   1.684   3.469   3.342  0.2873 -0.1578  0.4489
27591WAT     H112169   1.778   3.481   3.327  0.5792  0.5474  2.5966
27591WAT     H212170   1.657   3.406   3.275  2.3158 -0.5005 -0.0939
27591WAT    EPW12171   1.693   3.462   3.331  0.5934 -0.1099  0.6605
27592WAT      O12172   3.106   6.363   2.898 -0.0490 -0.1112 -0.8187
27592WAT     H112173   3.195   6.330   2.908  0.1288  0.5462 -0.1823
27592WAT     H212174   3.084   6.400   2.983 -0.2259  1.4461 -1.4979
27592WAT    EPW12175   3.115   6.364   2.910 -0.0490  0.1807 -0.8243
27593WAT      O12176   2.693   6.723   5.350  0.9287  0.0510 -0.6124
27593WAT     H112177   2.630   6.689   5.413  0.4882  3.0947  0.7769
27593WAT     H212178   2.645   6.723   5.267  0.7544 -1.9470 -0.5616
27593WAT    EPW12179   2.678   6.719   5.347  0.8476  0.1888 -0.4227
27594WAT      O12180   0.284   5.253   3.912 -0.1263 -0.2577 -0.3980
27594WAT     H112181   0.202   5.204   3.905 -1.0372  0.6385  2.5235
27594WAT     H212182   0.346   5.191   3.951  0.5775 -0.8435 -2.3328
27594WAT    EPW12183   0.281   5.239   3.916 -0.1536 -0.2167 -0.2679
27595WAT      O12184   0.811   8.612   2.585  1.2050  0.1620 -0.3493
27595WAT     H112185   0.830   8.523   2.613 -0.4176  0.1826  0.9905
27595WAT     H212186   0.802   8.606   2.490  3.6533 -0.5497 -0.6004
27595WAT    EPW12187   0.812   8.599   2.576  1.3139  0.0710 -0.2055
27596WAT      O12188   3.197   5.518   0.742 -0.2274 -0.1808 -0.0130
27596WAT     H112189   3.149   5.593   0.777  1.9372  1.1338  0.3295
27596WAT     H212190   3.237   5.551   0.662 -1.5136 -1.8681 -1.4426
27596WAT    EPW12191   3.196   5.532   0.736 -0.1116 -0.2298 -0.1564
27597WAT      O12192   4.497   4.784   4.298 -0.0131  0.2943 -0.0993
27597WAT     H112193   4.557   4.836   4.243  0.8079 -0.6807 -0.1457
27597WAT     H212194   4.536   4.697   4.301 -0.7934 -0.0387  0.8964
27597WAT    EPW12195   4.510   4.780   4.291 -0.0079  0.1216  0.0260
27598WAT      O12196   2.668   6.033   3.828  0.0354  0.1649  0.2900
27598WAT     H112197   2.722   6.107   3.854 -0.9135  0.9908 -0.0149
27598WAT     H212198   2.597   6.072   3.777  0.1330 -1.0755 -0.8472
27598WAT    EPW12199   2.666   6.048   3.824 -0.0768  0.1104  0.0998
27599WAT      O12200   3.348   8.467   4.414 -0.3246 -0.5757  0.4731
27599WAT     H112201   3.349   8.380   4.453  0.5928  0.7007  3.5786
27599WAT     H212202   3.282   8.515   4.464  0.1403  0.8852 -0.2446
27599WAT    EPW12203   3.339   8.462   4.426 -0.1423 -0.2151  0.7880
27600WAT      O12204   5.371   6.422   3.778 -0.0117 -0.4448  0.0355
27600WAT     H112205   5.388   6.441   3.686  0.6686  1.7730  0.5588
27600WAT     H212206   5.457   6.415   3.818 -0.2822  0.5112  0.8282
27600WAT    EPW12207   5.385   6.424   3.771  0.0427 -0.0265  0.2090
27601WAT      O12208   9.508   8.928   0.053 -0.2620 -0.2736 -0.8511
27601WAT     H112209   9.504   9.000   0.117  0.9146  0.0361 -1.0903
27601WAT     H212210   9.444   8.952  -0.014  1.6444  1.7659 -2.0807
27601WAT    EPW12211   9.499   8.941   0.052  0.1445  0.0358 -1.0448
27602WAT      O12212   2.059   5.787   0.693 -0.1287  0.3441 -0.8788
27602WAT     H112213   2.038   5.828   0.777 -2.7750  3.1509 -2.6783
27602WAT     H212214   2.155   5.783   0.692  0.3030  4.5269  0.5498
27602WAT    EPW12215   2.069   5.792   0.704 -0.4208  1.2660 -0.9278
27603WAT      O12216   3.041   6.616   0.676 -0.9084  0.7616  0.6215
27603WAT     H112217   3.119   6.563   0.658 -2.4880 -1.7905  0.7455
27603WAT     H212218   3.030   6.670   0.597  1.8227  2.4433  1.2575
27603WAT    EPW12219   3.050   6.616   0.663 -0.7566  0.6468  0.7218
27604WAT      O12220   1.068   3.870   4.513  0.0022 -0.3182  0.2804
27604WAT     H112221   1.100   3.782   4.531 -1.0739 -0.8036 -0.0775
27604WAT     H212222   1.112   3.896   4.432 -0.3135 -0.8730 -0.0734
27604WAT    EPW12223   1.078   3.862   4.504 -0.1814 -0.4554  0.1867
27605WAT      O12224   2.215   5.337   6.458  0.2987  0.3377  0.4320
27605WAT     H112225   2.191   5.412   6.512  0.8240 -0.1649  1.3740
27605WAT     H212226   2.242   5.270   6.520 -1.1375 -1.0071 -0.3263
27605WAT    EPW12227   2.215   5.338   6.473  0.1786  0.0939  0.4563
27606WAT      O12228  10.568   7.892   3.062  0.1381 -0.1651  0.0768
27606WAT     H112229  10.647   7.881   3.009 -0.2657 -0.5820 -0.4573
27606WAT     H212230  10.583   7.836   3.138  0.7476  0.4806  0.4386
27606WAT    EPW12231  10.581   7.883   3.065  0.1659 -0.1345  0.0542
27607WAT      O12232   0.003   6.194   2.646  0.5167  0.0231 -0.2032
27607WAT     H112233   0.036   6.271   2.692  0.1776 -0.3107  0.6189
27607WAT     H212234   0.075   6.167   2.589  0.8247  0.6418 -0.1104
27607WAT    EPW12235   0.017   6.201   2.645  0.5126  0.0606 -0.0824
27608WAT      O12236   1.796   5.677   2.368 -0.3209 -0.3941  0.0634
27608WAT     H112237   1.747   5.740   2.315  1.3680  0.8500 -0.1367
27608WAT     H212238   1.799   5.598   2.315 -2.8629 -0.8738  0.4997
27608WAT    EPW12239   1.790   5.675   2.354 -0.4334 -0.2933  0.0944
27609WAT      O12240   8.239   1.793   0.680  0.2920 -0.2744  0.4972
27609WAT     H112241   8.185   1.806   0.757 -1.0805 -1.3489 -0.2349
27609WAT     H212242   8.256   1.881   0.647 -0.3168  0.1225  1.2179
27609WAT    EPW12243   8.234   1.806   0.686  0.0310 -0.3637  0.4957
27610WAT      O12244   5.877   5.371   1.530 -0.1977  0.4467 -0.6692
27610WAT     H112245   5.961   5.391   1.489  0.3241 -0.6482 -0.1873
27610WAT     H212246   5.845   5.294   1.483 -0.2399 -0.0022  0.0830
27610WAT    EPW12247   5.884   5.364   1.518 -0.1347  0.2434 -0.5065
27611WAT      O12248   3.955   4.427   3.516 -0.9390 -0.2920 -0.2345
27611WAT     H112249   3.919   4.405   3.430 -1.7175 -0.2783  0.0797
27611WAT     H212250   3.909   4.507   3.541 -0.6179 -0.2228  0.1334
27611WAT    EPW12251   3.944   4.435   3.508 -0.9995 -0.2811 -0.1445
27612WAT      O12252   4.759   7.815   2.251  0.0890  0.3287  0.0263
27612WAT     H112253   4.744   7.877   2.180 -1.9916  2.2903  2.0387
27612WAT     H212254   4.796   7.867   2.322  1.1342 -1.3699  0.8199
27612WAT    EPW12255   4.762   7.830   2.251 -0.0477  0.3633  0.3965
27613WAT      O12256   4.215   5.008   2.700 -0.2756  0.6789  0.6536
27613WAT     H112257   4.298   5.050   2.680 -0.6354  1.4917  0.8293
27613WAT     H212258   4.210   5.009   2.796  0.8440 -2.0284  0.8454
27613WAT    EPW12259   4.225   5.014   2.710 -0.1752  0.4289  0.7020
27614WAT      O12260  10.639   3.856   1.847  0.1382  0.8535 -0.6579
27614WAT     H112261  10.595   3.785   1.893  1.6764  1.3610  1.8151
27614WAT     H212262  10.682   3.814   1.773 -1.9688 -0.1088 -1.4136
27614WAT    EPW12263  10.639   3.841   1.844  0.0634  0.7935 -0.4314
27615WAT      O12264   0.873   5.484   3.393  0.1305  0.6930 -0.4249
27615WAT     H112265   0.813   5.548   3.431  0.9158  1.5328 -0.5846
27615WAT     H212266   0.827   5.452   3.315  0.4617  2.4004 -1.3740
27615WAT    EPW12267   0.859   5.488   3.388  0.2778  1.0288 -0.5710
27616WAT      O12268   1.240   5.533   3.413 -0.0616 -0.6185  0.2419
27616WAT     H112269   1.334   5.525   3.430 -0.0079 -1.6678 -0.4685
27616WAT     H212270   1.225   5.627   3.402  1.1944 -0.5564 -1.1947
27616WAT    EPW12271   1.250   5.545   3.414  0.1111 -0.7489 -0.0415
27617WAT      O12272   3.623   8.245   8.356 -0.4994  0.0079 -0.3364
27617WAT     H112273   3.647   8.198   8.277  1.4978  0.7832 -0.2411
27617WAT     H212274   3.582   8.179   8.412 -2.3629 -0.4628 -2.1208
27617WAT    EPW12275   3.621   8.230   8.353 -0.4817  0.0482 -0.5589
27618WAT      O12276   2.387   7.765   2.109 -0.1784 -0.2544  0.0695
27618WAT     H112277   2.437   7.698   2.156 -1.8738 -1.4665  0.2249
27618WAT     H212278   2.449   7.838   2.098  0.8001 -0.5900  2.6804
27618WAT    EPW12279   2.402   7.766   2.114 -0.2729 -0.4587  0.4343
27619WAT      O12280   6.338   9.136   6.235 -0.6143 -0.4452  0.2431
27619WAT     H112281   6.369   9.155   6.147 -1.0389 -4.0892 -0.8548
27619WAT     H212282   6.380   9.202   6.290 -0.1561  1.8184 -2.5898
27619WAT    EPW12283   6.347   9.147   6.231 -0.6099 -0.6270 -0.2754
27620WAT      O12284   2.638   5.450   5.446 -0.4588  0.1582 -0.3777
27620WAT     H112285   2.653   5.466   5.539 -1.0185 -0.3637 -0.1950
27620WAT     H212286   2.545   5.465   5.434 -0.0214  2.6430 -1.3558
27620WAT    EPW12287   2.628   5.454   5.457 -0.4749  0.4170 -0.4828
27621WAT      O12288   6.478   5.803   2.087 -0.4422 -0.4279 -0.2905
27621WAT     H112289   6.426   5.814   2.167 -1.9229 -0.5952 -1.1842
27621WAT     H212290   6.568   5.815   2.115 -1.0780  3.8631  0.7080
27621WAT    EPW12291   6.483   5.806   2.101 -0.7215  0.1159 -0.2768
27622WAT      O12292   1.158   5.709   2.152 -0.4175 -0.0638 -0.5232
27622WAT     H112293   1.214   5.731   2.226  0.1689 -0.0347 -0.9668
27622WAT     H212294   1.189   5.765   2.081 -1.5998  0.5932 -0.5425
27622WAT    EPW12295   1.169   5.719   2.153 -0.4961  0.0267 -0.5844
27623WAT      O12296   9.449   3.648   8.838 -0.4283  0.2768  0.4449
27623WAT     H112297   9.381   3.597   8.796 -1.5555  1.9385  0.1429
27623WAT     H212298   9.510   3.669   8.767  0.0113 -0.5727  0.5608
27623WAT    EPW12299   9.448   3.644   8.823 -0.5193  0.3841  0.4206
27624WAT      O12300   0.324   5.175   3.621  0.1787  0.7045  0.5637
27624WAT     H112301   0.296   5.213   3.704 -1.1626 -0.9971  0.9601
27624WAT     H212302   0.316   5.246   3.557  0.4314  1.8018  1.7150
27624WAT    EPW12303   0.320   5.189   3.623  0.0351  0.6247  0.7678
27625WAT      O12304   0.934   6.383   1.109 -0.3133  0.0273  0.2778
27625WAT     H112305   0.930   6.293   1.075 -1.1131 -0.1933  0.9326
27625WAT     H212306   0.857   6.391   1.166 -1.2879  1.6976 -1.1517
27625WAT    EPW12307   0.923   6.372   1.112 -0.5474  0.2184  0.1756
27626WAT      O12308   3.848   3.828   4.299 -0.0158  0.0597 -0.2724
27626WAT     H112309   3.840   3.744   4.255 -0.8250 -0.0016 -0.0232
27626WAT     H212310   3.779   3.828   4.365  1.3398  0.0375  1.2135
27626WAT    EPW12311   3.838   3.817   4.302  0.0561  0.0485 -0.0434
27627WAT      O12312   0.768   5.610   3.630 -0.4764 -0.0894 -0.3725
27627WAT     H112313   0.830   5.681   3.645 -1.0663  0.1717  0.9539
27627WAT     H212314   0.793   5.542   3.692 -1.0279 -0.2980 -0.3728
27627WAT    EPW12315   0.779   5.611   3.640 -0.6269 -0.0827 -0.1975
27628WAT      O12316   8.740   8.504   0.144 -0.5938 -0.1270  0.5461
27628WAT     H112317   8.668   8.501   0.082 -0.3336 -1.0971  0.2679
27628WAT     H212318   8.705   8.550   0.220 -1.0201  0.7809 -0.1815
27628WAT    EPW12319   8.726   8.510   0.146 -0.6156 -0.1349  0.4134
27629WAT      O12320   3.669   8.876   3.632  0.1719 -0.0996 -0.1509
27629WAT     H112321   3.588   8.920   3.606  0.9281  1.3507 -0.1811
27629WAT     H212322   3.640   8.795   3.675 -1.3747  1.2401  1.4798
27629WAT    EPW12323   3.654   8.871   3.634  0.0676  0.2685  0.0602
27630WAT      O12324   5.154   5.042   3.233 -0.3014  0.5028  0.0425
27630WAT     H112325   5.161   5.033   3.328 -2.1322  0.8547  0.2588
27630WAT     H212326   5.187   5.130   3.215 -0.7347  0.7561  0.4691
27630WAT    EPW12327   5.159   5.052   3.243 -0.6001  0.5822  0.1273
27631WAT      O12328   2.776   3.684   0.559 -0.4409 -0.2287 -0.3778
27631WAT     H112329   2.686   3.652   0.551  0.2009 -1.7917 -1.5465
27631WAT     H212330   2.819   3.621   0.617  0.2400 -0.2308 -0.8741
27631WAT    EPW12331   2.769   3.672   0.566 -0.2666 -0.4351 -0.5974
27632WAT      O12332   0.305   8.059   2.434  0.4106 -0.2794  0.3011
27632WAT     H112333   0.387   8.082   2.477  0.3854 -1.2806  0.9236
27632WAT     H212334   0.315   7.967   2.410 -0.2657 -0.2240 -0.2299
27632WAT    EPW12335   0.317   8.050   2.437  0.3181 -0.4044  0.3133
27633WAT      O12336   5.484   5.552   1.791  0.3849  0.3923 -0.7180
27633WAT     H112337   5.556   5.614   1.803 -0.2076  0.9057  0.3708
27633WAT     H212338   5.496   5.518   1.703  0.7610  2.0499 -1.3552
27633WAT    EPW12339   5.495   5.556   1.781  0.3564  0.6788 -0.6585
27634WAT      O12340   4.212   4.357   3.609 -0.8329  0.3559 -0.0230
27634WAT     H112341   4.132   4.391   3.569 -1.4344 -0.5452  0.3904
27634WAT     H212342   4.210   4.263   3.590  0.9798  0.5423 -1.4768
27634WAT    EPW12343   4.201   4.349   3.601 -0.6733  0.2615 -0.1603
27635WAT      O12344   3.682   6.153   2.460 -0.3185 -0.1306 -0.0430
27635WAT     H112345   3.671   6.167   2.554  1.3562  0.6859  0.0619
27635WAT     H212346   3.643   6.230   2.420 -1.3828 -0.6616 -0.0562
27635WAT    EPW12347   3.676   6.165   2.467 -0.2381 -0.0932 -0.0309
27636WAT      O12348   4.076   6.642   0.361 -0.5325  0.2613  0.8747
27636WAT     H112349   4.121   6.580   0.419 -2.0218 -1.2445  0.4979
27636WAT     H212350   4.039   6.708   0.420 -0.1118  0.0259  1.4087
27636WAT    EPW12351   4.077   6.643   0.376 -0.6733  0.0315  0.8955
27637WAT      O12352   2.977   5.288   2.011 -0.1244 -0.2553  1.2211
27637WAT     H112353   3.017   5.344   2.078 -1.6970  0.9465  1.2088
27637WAT     H212354   2.884   5.288   2.032 -0.6471  0.0676 -0.9087
27637WAT    EPW12355   2.970   5.295   2.023 -0.4008 -0.0544  0.9385
27638WAT      O12356   4.221   5.491   4.007  0.9094  1.0257 -1.0994
27638WAT     H112357   4.170   5.542   4.069 -1.0869 -1.6831 -0.3409
27638WAT     H212358   4.308   5.486   4.046 -0.1877 -0.2421  1.3626
27638WAT    EPW12359   4.226   5.497   4.020  0.5012  0.5012 -0.6745
27639WAT      O12360   4.234   5.994   0.520 -0.3284 -0.1108  0.6141
27639WAT     H112361   4.246   6.036   0.434  1.3051 -3.0070 -0.7270
27639WAT     H212362   4.308   5.935   0.528  0.0821  0.6807  4.5340
27639WAT    EPW12363   4.245   5.992   0.510 -0.0587 -0.3886  0.9542
27640WAT      O12364   5.211   7.835   3.967  0.0887 -0.0057 -0.0883
27640WAT     H112365   5.126   7.858   4.005  0.5515  1.6825  0.0235
27640WAT     H212366   5.190   7.807   3.878 -0.9941 -3.8388  1.1745
27640WAT    EPW12367   5.197   7.835   3.961  0.0069 -0.2887  0.0929
27641WAT      O12368   3.722   5.056   2.934 -0.1285 -0.0219  0.1572
27641WAT     H112369   3.680   4.975   2.905 -0.2619 -0.3577  1.2316
27641WAT     H212370   3.694   5.065   3.025 -0.4710  1.4727 -0.0756
27641WAT    EPW12371   3.713   5.046   2.942 -0.1913  0.1311  0.2683
27642WAT      O12372   4.204   7.891   3.444 -0.7201  0.8663 -0.2982
27642WAT     H112373   4.166   7.860   3.527  1.0238  2.9142  1.3956
27642WAT     H212374   4.172   7.829   3.379 -2.4729 -0.6542  1.8290
27642WAT    EPW12375   4.195   7.878   3.447 -0.7215  0.9358  0.2059
27643WAT      O12376  10.257   2.860   8.782  0.1811  0.4557 -0.6834
27643WAT     H112377  10.233   2.814   8.701  0.1818  2.6033 -1.9830
27643WAT     H212378  10.240   2.796   8.851  0.3926 -1.5513 -2.3691
27643WAT    EPW12379  10.251   2.846   8.780  0.2093  0.4743 -1.0772
27644WAT      O12380   2.410   7.047   6.725  0.1907  0.0939 -0.2525
27644WAT     H112381   2.489   7.101   6.732  0.6408 -0.7499  1.8841
27644WAT     H212382   2.426   6.973   6.783 -2.5411  0.3598  0.9837
27644WAT    EPW12383   2.423   7.044   6.733 -0.1103  0.0176  0.1924
27645WAT      O12384   5.114   7.096   5.673 -0.1246  0.5947 -0.5574
27645WAT     H112385   5.203   7.122   5.697 -0.6653  0.3836  1.9725
27645WAT     H212386   5.097   7.018   5.726 -1.5604  0.1827 -1.5765
27645WAT    EPW12387   5.124   7.089   5.683 -0.3853  0.5126 -0.3581
27646WAT      O12388   1.697   7.354   3.946  0.0926 -0.0994 -0.0665
27646WAT     H112389   1.663   7.426   3.999  0.9082 -0.7020  1.3399
27646WAT     H212390   1.643   7.279   3.971 -0.0677 -0.2120 -0.7408
27646WAT    EPW12391   1.685   7.354   3.956  0.1790 -0.1938  0.0302
27647WAT      O12392   7.890   7.426   3.234 -0.1640  0.4805 -0.4847
27647WAT     H112393   7.852   7.463   3.154  0.0278  3.5103  0.6827
27647WAT     H212394   7.984   7.441   3.224 -0.2715  2.4979  0.9386
27647WAT    EPW12395   7.897   7.433   3.222 -0.1531  1.1463 -0.1431
27648WAT      O12396   2.116   7.206   3.674 -0.7630  0.2823 -1.1904
27648WAT     H112397   2.137   7.253   3.755  1.7692 -0.2396 -1.4463
27648WAT     H212398   2.129   7.271   3.605  0.1651 -0.0429 -1.3499
27648WAT    EPW12399   2.121   7.221   3.676 -0.3066  0.1707 -1.2453
27649WAT      O12400   2.616   7.869   3.132 -0.5544  0.4647  0.5556
27649WAT     H112401   2.558   7.855   3.057  0.6806  1.0014 -0.5514
27649WAT     H212402   2.635   7.963   3.130 -1.4116  0.7235  2.2737
27649WAT    EPW12403   2.611   7.880   3.122 -0.5045  0.5696  0.6362
27650WAT      O12404   3.772   9.181   2.090 -0.7271  0.1190  0.0084
27650WAT     H112405   3.692   9.130   2.077 -0.3429 -0.1839 -1.3595
27650WAT     H212406   3.777   9.238   2.013  1.2847 -1.1565 -0.8807
27650WAT    EPW12407   3.762   9.182   2.078 -0.4110 -0.0887 -0.2894
27651WAT      O12408   4.120   9.276   6.805  0.8787 -0.3430  0.2466
27651WAT     H112409   4.201   9.232   6.829 -0.4382 -2.2301  1.5093
27651WAT     H212410   4.052   9.209   6.815 -0.6050  0.4478 -3.0518
27651WAT    EPW12411   4.122   9.262   6.810  0.5090 -0.4873 -0.0219
27652WAT      O12412   3.717   8.037   4.719 -0.0240  0.3521 -0.2473
27652WAT     H112413   3.773   7.993   4.655 -1.5827 -2.5666  0.2165
27652WAT     H212414   3.670   8.103   4.668 -3.2965 -3.6815 -3.0830
27652WAT    EPW12415   3.718   8.040   4.704 -0.6613 -0.5651 -0.5600
27653WAT      O12416   2.889   3.554   5.027 -0.2349 -0.1365  0.2737
27653WAT     H112417   2.842   3.618   5.080 -1.4070 -1.3864  0.7953
27653WAT     H212418   2.841   3.551   4.945  1.1284  1.2364 -0.6164
27653WAT    EPW12419   2.876   3.562   5.023 -0.2096 -0.1203  0.2251
27654WAT      O12420   7.047   7.776   4.941  0.3950  0.2772 -0.3968
27654WAT     H112421   7.119   7.829   4.908  0.5838  0.6580  0.5898
27654WAT     H212422   6.995   7.755   4.864 -1.2053  4.1175 -0.5631
27654WAT    EPW12423   7.049   7.780   4.927  0.2091  0.8337 -0.2887
27655WAT      O12424   6.309   8.697   3.777 -0.2512  0.0706  0.3401
27655WAT     H112425   6.295   8.689   3.871  1.6290  1.0973  0.7458
27655WAT     H212426   6.283   8.611   3.742 -0.2473 -0.5905  1.8779
27655WAT    EPW12427   6.303   8.685   3.785 -0.0029  0.1192  0.5965
27656WAT      O12428   1.983   8.980   3.265 -0.3008 -0.5035  0.2683
27656WAT     H112429   1.900   9.006   3.304 -0.8507 -0.6628 -0.7597
27656WAT     H212430   1.996   8.890   3.294  1.1033  0.4713  3.0015
27656WAT    EPW12431   1.974   8.972   3.274 -0.1882 -0.3958  0.4933
27657WAT      O12432   9.814   2.685   7.632  0.8316  0.1060 -0.1338
27657WAT     H112433   9.808   2.777   7.656  1.2049 -0.1981  1.2290
27657WAT     H212434   9.805   2.638   7.715  0.1539 -1.1144 -0.8561
27657WAT    EPW12435   9.812   2.691   7.646  0.7915 -0.0950 -0.0494
27658WAT      O12436   4.275   4.942   2.001 -0.3519  1.2453 -0.1677
27658WAT     H112437   4.314   4.911   1.919 -1.5110 -1.0597  0.0725
27658WAT     H212438   4.229   4.866   2.036  1.0174  1.8110  3.2391
27658WAT    EPW12439   4.274   4.928   1.995 -0.3240  1.0159  0.3134
27659WAT      O12440   1.402  10.090   3.668  0.2695  0.8445  0.1890
27659WAT     H112441   1.462  10.152   3.627 -0.6788  0.7746 -1.4050
27659WAT     H212442   1.448  10.006   3.667  1.1996  1.3108  1.5252
27659WAT    EPW12443   1.416  10.087   3.662  0.2671  0.8969  0.1550
27660WAT      O12444   2.681   5.785   2.901  0.1019 -0.6731 -0.0267
27660WAT     H112445   2.664   5.691   2.895 -3.3760 -0.1013 -3.8169
27660WAT     H212446   2.749   5.802   2.836  0.3270 -0.4797  0.2538
27660WAT    EPW12447   2.688   5.775   2.892 -0.3271 -0.5720 -0.4895
27661WAT      O12448   3.762   8.864   2.853  0.2896 -0.7229  0.1757
27661WAT     H112449   3.671   8.888   2.836  0.7899  0.7713 -0.6994
27661WAT     H212450   3.786   8.915   2.930  1.3404  1.7813 -1.6492
27661WAT    EPW12451   3.753   8.874   2.861  0.4942 -0.1955 -0.1805
27662WAT      O12452   1.559   7.961   1.703  0.3012  0.0173 -0.0492
27662WAT     H112453   1.567   7.949   1.609  0.2232 -0.1681 -0.0319
27662WAT     H212454   1.465   7.952   1.720  0.6064 -3.0110  0.4677
27662WAT    EPW12455   1.548   7.958   1.693  0.3311 -0.4067  0.0213
27663WAT      O12456   3.966   6.567   5.267  0.0210 -0.2787  0.1550
27663WAT     H112457   3.961   6.624   5.190  0.7753  0.0534  0.3354
27663WAT     H212458   4.055   6.532   5.264 -0.1225 -0.6773  0.5844
27663WAT    EPW12459   3.977   6.570   5.257  0.1016 -0.2875  0.2353
27664WAT      O12460   3.019   4.219   2.135  0.1414 -1.0948  0.1501
27664WAT     H112461   2.997   4.251   2.222 -2.4840  0.7176 -1.0368
27664WAT     H212462   2.943   4.168   2.108  0.3631 -0.5992 -1.5203
27664WAT    EPW12463   3.006   4.217   2.143 -0.1757 -0.7904 -0.2267
27665WAT      O12464   4.115   9.034   3.966  0.0224 -0.1481 -0.5036
27665WAT     H112465   4.089   9.101   3.903 -0.0465  0.4136  0.1017
27665WAT     H212466   4.172   9.080   4.027  0.6390 -0.8457 -0.5432
27665WAT    EPW12467   4.119   9.049   3.966  0.0949 -0.1659 -0.4292
27666WAT      O12468   6.797   9.177   3.301  0.7178  0.3546  0.7398
27666WAT     H112469   6.789   9.168   3.206 -0.5538 -1.4649  0.9659
27666WAT     H212470   6.752   9.259   3.320 -1.0945 -0.3950 -0.0412
27666WAT    EPW12471   6.790   9.187   3.291  0.3109  0.0162  0.6667
27667WAT      O12472   3.298   7.118   1.647 -0.5198 -0.0635  0.1625
27667WAT     H112473   3.325   7.158   1.730 -0.7134 -0.2960  0.3386
27667WAT     H212474   3.211   7.084   1.665 -0.8388  0.4786 -0.3376
27667WAT    EPW12475   3.290   7.119   1.661 -0.5873 -0.0226  0.1198
27668WAT      O12476   1.792   8.337   1.986 -0.0659 -0.5792  0.9706
27668WAT     H112477   1.708   8.303   2.018 -2.1005  1.0157 -2.1377
27668WAT     H212478   1.810   8.287   1.907  1.0327  0.2420  0.6691
27668WAT    EPW12479   1.783   8.326   1.980 -0.1893 -0.2608  0.5208
27669WAT      O12480   0.085   5.062   3.929 -0.2184  0.3784  0.4709
27669WAT     H112481  -0.009   5.078   3.935  0.0057  2.6210 -0.9387
27669WAT     H212482   0.093   4.967   3.936 -2.6648  0.0449 -0.1863
27669WAT    EPW12483   0.074   5.052   3.931 -0.5115  0.6301  0.1984
27670WAT      O12484   4.703   6.941   1.160  0.2708 -0.0920 -0.7915
27670WAT     H112485   4.686   6.979   1.073  1.4161  1.0842 -0.5284
27670WAT     H212486   4.704   7.016   1.219 -0.3356 -0.8642  0.2320
27670WAT    EPW12487   4.701   6.956   1.156  0.3414 -0.0386 -0.6218
27671WAT      O12488   2.810   1.489   8.189  0.0720 -0.1703 -0.3239
27671WAT     H112489   2.730   1.444   8.162  1.0299 -1.4855 -1.0689
27671WAT     H212490   2.847   1.524   8.107  0.5211 -0.0048 -0.0548
27671WAT    EPW12491   2.804   1.488   8.174  0.2575 -0.3219 -0.3862
27672WAT      O12492   0.621   8.523   2.852 -0.0884 -0.1063  0.5812
27672WAT     H112493   0.659   8.522   2.940 -1.1932  0.8875  1.1139
27672WAT     H212494   0.695   8.534   2.794  0.5324  0.9255  1.5220
27672WAT    EPW12495   0.636   8.525   2.856 -0.1523  0.1602  0.7753
27673WAT      O12496   0.826   4.843   2.555 -0.5986 -0.5265 -0.6594
27673WAT     H112497   0.820   4.906   2.627 -2.9569 -2.3030  0.8217
27673WAT     H212498   0.921   4.833   2.541 -0.1159  1.4961  0.6712
27673WAT    EPW12499   0.838   4.850   2.563 -0.8460 -0.4940 -0.2886
27674WAT      O12500   4.698   5.643   4.635  0.3539 -0.0965 -0.3961
27674WAT     H112501   4.635   5.663   4.705 -1.8432  1.0519 -2.5634
27674WAT     H212502   4.765   5.590   4.678 -2.0812 -1.4271  2.0710
27674WAT    EPW12503   4.698   5.639   4.650 -0.2573 -0.1202 -0.3567
27675WAT      O12504   2.267   8.249   1.611  0.2212  0.7608  0.6345
27675WAT     H112505   2.267   8.162   1.571  1.1466  1.3311 -0.6928
27675WAT     H212506   2.218   8.239   1.693  1.0879 -1.2131  0.9515
27675WAT    EPW12507   2.261   8.236   1.617  0.4576  0.5760  0.5013
27676WAT      O12508   8.377   6.343   1.812  0.3967  0.0230 -0.0889
27676WAT     H112509   8.365   6.269   1.871  0.7323  1.5612  2.0217
27676WAT     H212510   8.311   6.330   1.744  1.2492 -2.8174 -0.5080
27676WAT    EPW12511   8.367   6.331   1.810  0.5536 -0.1490  0.1342
27677WAT      O12512   3.701   7.823   0.939  0.0574  0.3929 -0.6970
27677WAT     H112513   3.645   7.834   0.862 -1.7524 -1.3906  0.2799
27677WAT     H212514   3.649   7.858   1.011  0.9600  0.3474 -0.0078
27677WAT    EPW12515   3.687   7.829   0.938 -0.0623  0.1519 -0.4772
27678WAT      O12516   2.785   6.417   2.428 -0.1187  0.1013  0.0434
27678WAT     H112517   2.796   6.323   2.447  1.3101  0.0867 -0.7255
27678WAT     H212518   2.750   6.453   2.510 -1.3768 -1.1958  0.1279
27678WAT    EPW12519   2.782   6.409   2.441 -0.0962 -0.0715 -0.0470
27679WAT      O12520   1.439   5.491   3.623 -0.4588 -0.2639  0.2436
27679WAT     H112521   1.436   5.398   3.644 -2.5511 -0.7786 -1.7912
27679WAT     H212522   1.361   5.527   3.665  0.5984  0.7170  1.4277
27679WAT    EPW12523   1.428   5.483   3.631 -0.5954 -0.2019  0.1315
27680WAT      O12524   6.240  10.352   2.374  0.1844  0.1838  0.0448
27680WAT     H112525   6.221  10.445   2.357 -0.2596  0.2077  0.6024
27680WAT     H212526   6.335  10.347   2.374  0.2146  0.6413 -0.0010
27680WAT    EPW12527   6.250  10.364   2.372  0.1297  0.2475  0.1124
27681WAT      O12528   8.555   1.946   8.151  0.7903  1.3631  0.2390
27681WAT     H112529   8.493   2.018   8.164 -1.0601 -0.1863  0.3184
27681WAT     H212530   8.553   1.897   8.233  0.0467 -0.2333 -0.6833
27681WAT    EPW12531   8.547   1.949   8.163  0.4482  0.9482  0.1278
27682WAT      O12532   3.688   6.510   2.621  0.5717  0.1422  0.2997
27682WAT     H112533   3.668   6.489   2.530  1.8676 -0.3058  0.0947
27682WAT     H212534   3.776   6.475   2.635  0.2236 -0.1799  1.8597
27682WAT    EPW12535   3.697   6.503   2.611  0.6967  0.0408  0.4784
27683WAT      O12536   5.847   7.228   2.357 -1.2118  0.1305 -0.4149
27683WAT     H112537   5.893   7.300   2.315 -0.0287 -0.7784 -0.7309
27683WAT     H212538   5.758   7.261   2.370 -1.1770  1.0410 -2.1179
27683WAT    EPW12539   5.841   7.241   2.353 -1.0512  0.1309 -0.6813
27684WAT      O12540   3.473   3.427   2.578  0.4589  0.3446  0.3098
27684WAT     H112541   3.438   3.491   2.516  1.1644 -1.0469 -1.6202
27684WAT     H212542   3.448   3.342   2.541  2.9940 -0.5966  0.5916
27684WAT    EPW12543   3.465   3.424   2.565  0.8864  0.0371  0.0924
27685WAT      O12544   5.441   8.494   2.796 -0.4122  0.4621 -0.3615
27685WAT     H112545   5.366   8.501   2.856 -0.3155 -0.1085 -0.1654
27685WAT     H212546   5.420   8.418   2.740  1.0727 -1.2278  1.2332
27685WAT    EPW12547   5.428   8.485   2.796 -0.2038  0.1640 -0.1254
27686WAT      O12548   0.145   0.169   1.647 -0.2627  0.1999 -0.6420
27686WAT     H112549   0.226   0.189   1.692 -1.3527  1.3850  0.8935
27686WAT     H212550   0.081   0.157   1.717 -1.3957 -0.8802 -1.7996
27686WAT    EPW12551   0.147   0.170   1.662 -0.5559  0.2138 -0.5922
27687WAT      O12552   5.134   8.665   5.351  0.1865  0.2845  0.0390
27687WAT     H112553   5.226   8.658   5.377 -0.0172  0.9593  0.9545
27687WAT     H212554   5.101   8.741   5.398 -0.9378 -0.1606 -0.0109
27687WAT    EPW12555   5.142   8.674   5.360  0.0112  0.3147  0.1531
27688WAT      O12556   1.164   7.345   5.425  0.1889 -0.2278 -0.0978
27688WAT     H112557   1.220   7.421   5.434  1.4813 -1.3338  1.6958
27688WAT     H212558   1.181   7.292   5.503  0.4487 -3.0523 -1.9024
27688WAT    EPW12559   1.173   7.348   5.436  0.3936 -0.7463 -0.0994
27689WAT      O12560   9.495   6.476   3.807  0.2801  0.4794 -0.4149
27689WAT     H112561   9.402   6.480   3.782  0.3562  0.7090 -0.6533
27689WAT     H212562   9.505   6.547   3.871  0.8628  2.1159 -2.2285
27689WAT    EPW12563   9.484   6.486   3.812  0.3672  0.7255 -0.6856
27690WAT      O12564   7.402   5.763   2.961 -0.5306 -0.1283 -0.0827
27690WAT     H112565   7.379   5.856   2.955 -0.4008 -0.1949 -2.9251
27690WAT     H212566   7.344   5.729   3.029 -0.5609  2.0004  1.0578
27690WAT    EPW12567   7.391   5.771   2.969 -0.5174  0.1438 -0.3072
27691WAT      O12568   6.967   8.364   2.557 -0.0623 -0.6490 -0.1253
27691WAT     H112569   6.958   8.272   2.530  2.1771 -0.6507 -1.0772
27691WAT     H212570   7.061   8.379   2.560 -0.3708  1.5188  0.4639
27691WAT    EPW12571   6.978   8.353   2.554  0.1924 -0.3633 -0.1731
27692WAT      O12572   5.294   6.816   3.237 -0.3327  0.2648  0.6601
27692WAT     H112573   5.229   6.847   3.300 -2.1234 -0.6835 -0.6422
27692WAT     H212574   5.314   6.893   3.183 -2.0903  0.0861 -0.3229
27692WAT    EPW12575   5.289   6.830   3.238 -0.8008  0.1161  0.3587
27693WAT      O12576   5.464   7.478   0.796  0.0622  0.9693 -0.0286
27693WAT     H112577   5.484   7.422   0.720 -0.4553 -0.4029  0.8062
27693WAT     H212578   5.550   7.498   0.833  0.2323  0.0747  0.0969
27693WAT    EPW12579   5.478   7.473   0.791  0.0165  0.6704  0.0980
27694WAT      O12580   5.041   6.221   2.960  0.3492 -0.2639  0.0546
27694WAT     H112581   4.954   6.198   2.926  1.0135 -2.2155 -0.4948
27694WAT     H212582   5.081   6.273   2.890 -0.9596  2.2287  1.0412
27694WAT    EPW12583   5.035   6.225   2.946  0.2642 -0.1926  0.1122
27695WAT      O12584   5.747   8.923   3.082  0.0197 -0.5515 -0.4420
27695WAT     H112585   5.750   8.869   3.004 -1.1791  1.0553 -1.6751
27695WAT     H212586   5.760   9.013   3.051 -0.6765  0.1599  1.1573
27695WAT    EPW12587   5.749   8.928   3.068 -0.2303 -0.2456 -0.3937
27696WAT      O12588   4.008   4.387   4.190 -0.0673 -0.3540  0.7290
27696WAT     H112589   4.048   4.469   4.161 -1.0539 -0.2067 -0.2631
27696WAT     H212590   4.028   4.324   4.121 -0.3706 -0.6321  0.8933
27696WAT    EPW12591   4.016   4.390   4.177 -0.2375 -0.3715  0.6199
27697WAT      O12592   4.568   7.527   1.275 -0.5049  0.5832  0.5294
27697WAT     H112593   4.620   7.451   1.301  0.4638  1.4551  1.2261
27697WAT     H212594   4.623   7.603   1.297 -0.7637  1.4612 -1.5996
27697WAT    EPW12595   4.582   7.527   1.281 -0.4113  0.8142  0.3405
27698WAT      O12596   1.974   8.872   0.181 -0.0999 -0.0008 -0.0515
27698WAT     H112597   1.997   8.883   0.273 -1.0725 -0.0852  0.2060
27698WAT     H212598   1.987   8.959   0.142  0.7057 -0.0635  0.0704
27698WAT    EPW12599   1.979   8.885   0.188 -0.1220 -0.0196 -0.0014
27699WAT      O12600   3.010   3.239   1.606  0.1269 -0.0569 -0.8729
27699WAT     H112601   2.975   3.150   1.609  0.2388 -0.0990 -0.8364
27699WAT     H212602   3.066   3.246   1.683 -1.8416  0.8713  0.5465
27699WAT    EPW12603   3.013   3.228   1.616 -0.1180  0.0600 -0.6809
27700WAT      O12604   8.130   6.487   6.058 -0.2497 -0.4691  0.1346
27700WAT     H112605   8.130   6.413   5.998 -0.0957 -1.3171  1.1436
27700WAT     H212606   8.100   6.561   6.005 -2.9670 -1.7493 -0.3372
27700WAT    EPW12607   8.126   6.487   6.043 -0.5879 -0.7496  0.2055
27701WAT      O12608   3.095   5.956   2.503 -0.6027 -0.5482  0.4468
27701WAT     H112609   3.017   5.910   2.472  0.1252 -2.1902  0.9493
27701WAT     H212610   3.101   5.933   2.596 -1.1347  1.9513  1.1650
27701WAT    EPW12611   3.085   5.947   2.511 -0.5769 -0.4349  0.6078
27702WAT      O12612   3.749   6.774   1.752 -0.2387 -0.6268 -0.1370
27702WAT     H112613   3.739   6.852   1.699 -0.4952 -0.1400  0.6138
27702WAT     H212614   3.839   6.777   1.784 -1.0935  1.0291  2.4061
27702WAT    EPW12615   3.759   6.785   1.750 -0.3853 -0.3443  0.2975
27703WAT      O12616   2.847   5.541   1.943  0.1951 -0.3672 -0.0616
27703WAT     H112617   2.874   5.587   1.863 -1.4493 -1.8775 -1.5824
27703WAT     H212618   2.906   5.465   1.948 -1.5972 -1.9735 -1.6643
27703WAT    EPW12619   2.859   5.537   1.933 -0.2582 -0.7784 -0.4736
27704WAT      O12620   2.120   6.407   1.638  0.2017 -0.7855  0.3898
27704WAT     H112621   2.177   6.484   1.632  1.8956 -2.0691 -1.6619
27704WAT     H212622   2.032   6.443   1.649  0.8557  1.4928 -1.1024
27704WAT    EPW12623   2.116   6.422   1.638  0.5114 -0.6542 -0.0777
27705WAT      O12624   4.224   7.156   4.278 -0.2216  0.6284 -0.2702
27705WAT     H112625   4.318   7.149   4.295 -0.6367  0.3391  2.2392
27705WAT     H212626   4.219   7.203   4.195  2.1251  1.2716 -0.1325
27705WAT    EPW12627   4.236   7.161   4.269  0.0329  0.6750  0.0792
27706WAT      O12628   5.248   6.356   5.171  0.2310 -0.2388  0.3356
27706WAT     H112629   5.336   6.318   5.174 -0.3031 -1.4396  2.6350
27706WAT     H212630   5.190   6.286   5.199 -0.9689  1.7477  3.2620
27706WAT    EPW12631   5.252   6.342   5.175  0.0024 -0.1354  1.0250
27707WAT      O12632   5.561   8.850   7.978 -0.0143  0.4778 -0.6366
27707WAT     H112633   5.528   8.769   7.940 -1.0256 -0.1043  1.3180
27707WAT     H212634   5.634   8.875   7.923  0.6836 -2.0882 -0.9859
27707WAT    EPW12635   5.566   8.842   7.966 -0.0558  0.0625 -0.4251
27708WAT      O12636   3.536   7.107   1.289  0.3675 -0.9666 -0.1500
27708WAT     H112637   3.544   7.027   1.340  0.6512  1.3964  4.0163
27708WAT     H212638   3.484   7.165   1.345  1.2598  2.2040 -2.3374
27708WAT    EPW12639   3.530   7.104   1.303  0.5227 -0.2367  0.1110
27709WAT      O12640   1.246   5.544   5.144 -0.6059  0.2514  1.0679
27709WAT     H112641   1.296   5.619   5.176 -1.1564  1.0975 -0.0139
27709WAT     H212642   1.247   5.481   5.217  0.1592  1.1591  1.8515
27709WAT    EPW12643   1.253   5.545   5.158 -0.5776  0.4828  1.0285
27710WAT      O12644   3.124   4.451   1.776  0.4999 -0.0470  0.6845
27710WAT     H112645   3.203   4.434   1.726  2.1600  1.0874  2.7451
27710WAT     H212646   3.063   4.491   1.713  0.7285 -2.7810 -1.4158
27710WAT    EPW12647   3.126   4.454   1.761  0.7489 -0.2580  0.6792
27711WAT      O12648   6.488   8.440   3.068  0.3904 -0.0682  0.0508
27711WAT     H112649   6.546   8.472   3.137  0.5070 -1.7356  0.7738
27711WAT     H212650   6.486   8.345   3.080 -1.9188 -0.1407 -0.4031
27711WAT    EPW12651   6.495   8.432   3.078  0.1013 -0.2975  0.0863
27712WAT      O12652   1.292  10.128   2.139 -0.3507  0.0422 -0.2899
27712WAT     H112653   1.364  10.190   2.125  0.1268 -0.2915  0.5604
27712WAT     H212654   1.216  10.182   2.158  0.0008  0.3833  0.1797
27712WAT    EPW12655   1.292  10.143   2.140 -0.2413  0.0429 -0.1158
27713WAT      O12656   5.529   7.327   0.589  0.2621 -0.4868 -0.5346
27713WAT     H112657   5.453   7.295   0.541 -0.5147  1.0360 -0.3607
27713WAT     H212658   5.575   7.247   0.616 -0.2979 -1.4108 -2.1443
27713WAT    EPW12659   5.525   7.312   0.586  0.0858 -0.4075 -0.7240
27714WAT      O12660   5.744   7.969   1.309  0.5248  0.2969 -0.1822
27714WAT     H112661   5.739   7.911   1.385  3.1726 -1.9297 -1.5152
27714WAT     H212662   5.838   7.975   1.290 -0.0242  1.0975 -3.0432
27714WAT    EPW12663   5.756   7.962   1.317  0.8016  0.1087 -0.7353
27715WAT      O12664   6.437   8.205   3.220 -0.3655  1.1948 -0.2713
27715WAT     H112665   6.417   8.274   3.284  0.0844  0.5828  0.5546
27715WAT     H212666   6.353   8.189   3.176 -1.2968  0.0564  1.7479
27715WAT    EPW12667   6.423   8.212   3.223 -0.4289  0.9642  0.1040
27716WAT      O12668  10.863   2.637   8.300  0.2268  1.1078 -0.1350
27716WAT     H112669  10.872   2.542   8.295  0.0823  1.0306  0.9489
27716WAT     H212670  10.824   2.661   8.216 -0.2846  0.1445 -0.1875
27716WAT    EPW12671  10.859   2.627   8.288  0.1402  0.9708  0.0010
27717WAT      O12672   1.310   8.665   0.343 -0.4388  0.0394 -0.3109
27717WAT     H112673   1.260   8.653   0.424 -0.6279 -1.7071 -0.6260
27717WAT     H212674   1.397   8.630   0.362  0.0150  1.0761 -0.4093
27717WAT    EPW12675   1.315   8.659   0.356 -0.4039 -0.0544 -0.3655
27718WAT      O12676   1.135   8.732   2.671 -0.5258  0.0043 -0.6123
27718WAT     H112677   1.179   8.706   2.752 -1.9756  0.3571  0.3323
27718WAT     H212678   1.124   8.650   2.622  0.0544 -0.2617 -0.3096
27718WAT    EPW12679   1.139   8.718   2.675 -0.6405  0.0153 -0.4479
27719WAT      O12680   4.529   7.251   4.005 -0.2359  0.0227  0.3144
27719WAT     H112681   4.535   7.344   3.986 -0.8933  0.3932  1.8301
27719WAT     H212682   4.488   7.246   4.091  3.3708 -1.5013  2.1381
27719WAT    EPW12683   4.524   7.262   4.014  0.1531 -0.1295  0.7548
27720WAT      O12684   0.627   8.760   0.260 -0.1703  0.0096 -0.6658
27720WAT     H112685   0.670   8.748   0.345 -0.1516 -0.5331 -0.7487
27720WAT     H212686   0.568   8.685   0.252 -0.1164  0.0143 -1.1618
27720WAT    EPW12687   0.625   8.748   0.270 -0.1607 -0.0615 -0.7422
27721WAT      O12688   4.646   6.952   3.489  0.8292  0.4623 -0.3034
27721WAT     H112689   4.594   6.952   3.408  1.6372  0.6962 -0.8323
27721WAT     H212690   4.660   7.044   3.508 -0.6758  0.4618  0.9918
27721WAT    EPW12691   4.641   6.964   3.480  0.7372  0.4928 -0.2024
27722WAT      O12692   3.185   5.301   5.068  0.6342 -0.2670 -0.0006
27722WAT     H112693   3.247   5.237   5.035  0.2641 -1.1313  0.9320
27722WAT     H212694   3.148   5.341   4.990  3.9574  1.9415 -0.6760
27722WAT    EPW12695   3.188   5.298   5.054  1.0235 -0.0896  0.0336
27723WAT      O12696   6.990   8.390   2.978  0.4771  0.2777 -0.1376
27723WAT     H112697   6.916   8.447   2.999  0.4174  0.4218 -0.7293
27723WAT     H212698   7.066   8.448   2.975  1.0147 -0.1391  2.4696
27723WAT    EPW12699   6.990   8.405   2.981  0.5400  0.2413  0.1283
27724WAT      O12700   4.244   7.799   1.611  0.7643 -0.3230 -0.2088
27724WAT     H112701   4.224   7.890   1.588  0.2544 -0.3332  0.1841
27724WAT     H212702   4.335   7.787   1.584  0.4304 -0.0995 -1.5014
27724WAT    EPW12703   4.253   7.810   1.604  0.6530 -0.2952 -0.3274
27725WAT      O12704   3.938   8.250   1.700  0.2499 -0.1680 -0.2511
27725WAT     H112705   3.985   8.181   1.748 -2.2501 -1.0752  1.1163
27725WAT     H212706   3.872   8.281   1.763 -1.2783  0.6476 -2.1611
27725WAT    EPW12707   3.935   8.245   1.715 -0.2815 -0.1802 -0.3226
27726WAT      O12708   1.025   4.514   1.933 -0.3482 -0.0881 -0.8747
27726WAT     H112709   0.967   4.476   1.999 -1.8861  1.5679 -1.1912
27726WAT     H212710   0.989   4.484   1.850  1.4710 -2.0081 -1.0466
27726WAT    EPW12711   1.013   4.505   1.931 -0.3111 -0.1230 -0.9391
27727WAT      O12712   8.419   6.405   2.424 -0.3446  0.2548  0.2704
27727WAT     H112713   8.433   6.458   2.502 -0.9616  0.6589  0.1166
27727WAT     H212714   8.369   6.329   2.454 -1.4323  0.8845  0.1277
27727WAT    EPW12715   8.414   6.402   2.438 -0.5689  0.3912  0.2314
27728WAT      O12716   3.623   7.548   5.323 -0.1047 -0.7755  0.0441
27728WAT     H112717   3.594   7.607   5.253  0.2598 -1.2456 -0.5151
27728WAT     H212718   3.714   7.528   5.301  0.0156 -0.9254  0.6642
27728WAT    EPW12719   3.631   7.553   5.311 -0.0407 -0.8574  0.0520
27729WAT      O12720   3.136   8.400   2.960  0.0171  0.5387  1.1407
27729WAT     H112721   3.103   8.384   3.048  0.9944  0.4885  1.5087
27729WAT     H212722   3.112   8.491   2.942  0.7636  0.8970  1.8989
27729WAT    EPW12723   3.129   8.410   2.969  0.2445  0.5798  1.2891
27730WAT      O12724   2.886   1.675   4.708  0.6326  0.3498  0.2164
27730WAT     H112725   2.937   1.597   4.731 -0.5315 -0.8670 -1.1368
27730WAT     H212726   2.929   1.710   4.630  0.7368  0.6694  0.4136
27730WAT    EPW12727   2.898   1.669   4.701  0.4929  0.2315  0.0639
27731WAT      O12728   0.640   4.201   4.533 -0.2488 -0.8219 -0.4801
27731WAT     H112729   0.686   4.285   4.541 -2.0674  0.4378 -2.1129
27731WAT     H212730   0.548   4.223   4.552 -0.4945 -2.9006  1.0621
27731WAT    EPW12731   0.634   4.215   4.537 -0.5211 -0.9298 -0.4919
27732WAT      O12732   5.278   4.805   3.053  0.6994  0.1030 -0.5991
27732WAT     H112733   5.214   4.814   2.983 -1.7583 -2.4962  1.0710
27732WAT     H212734   5.257   4.877   3.114 -0.3590 -0.4570 -0.2886
27732WAT    EPW12735   5.267   4.816   3.052  0.2356 -0.3138 -0.3378
27733WAT      O12736   1.495  10.317   2.023 -0.4209  0.3220 -0.5012
27733WAT     H112737   1.548  10.397   2.029 -0.7886  0.4684  1.8410
27733WAT     H212738   1.555  10.251   1.990  0.6702  0.9471  0.1823
27733WAT    EPW12739   1.510  10.319   2.019 -0.3254  0.4239 -0.1022
27734WAT      O12740   1.435   4.926   3.763  0.4760 -0.0891  0.0764
27734WAT     H112741   1.515   4.969   3.732  0.6816 -1.0508 -0.7618
27734WAT     H212742   1.433   4.946   3.857 -1.0118  4.2683 -0.6639
27734WAT    EPW12743   1.446   4.934   3.771  0.3069  0.3588 -0.1318
27735WAT      O12744   2.534   7.085   4.658 -0.3668 -0.5654 -0.2822
27735WAT     H112745   2.462   7.093   4.720 -0.0009 -4.2411  0.8955
27735WAT     H212746   2.585   7.165   4.668 -2.6364  0.8022  1.0185
27735WAT    EPW12747   2.531   7.096   4.667 -0.6179 -0.8698  0.0446
27736WAT      O12748   2.812   6.345   0.547  0.4716 -0.1362 -0.3946
27736WAT     H112749   2.761   6.370   0.470  2.5032 -0.1067 -1.8271
27736WAT     H212750   2.785   6.255   0.566  0.4641 -0.3987 -1.6098
27736WAT    EPW12751   2.802   6.336   0.539  0.7385 -0.1669 -0.7438
27737WAT      O12752  10.291   1.184   6.016  0.1801 -0.6930 -0.4614
27737WAT     H112753  10.244   1.101   6.015  0.9197 -1.1300  0.2703
27737WAT     H212754  10.365   1.170   5.958 -0.5350 -0.0123 -1.5901
27737WAT    EPW12755  10.294   1.172   6.008  0.1836 -0.6608 -0.5138
27738WAT      O12756   1.329   7.869   4.820  0.1257 -0.1357 -0.0680
27738WAT     H112757   1.261   7.933   4.797 -0.8529 -1.3878 -0.8295
27738WAT     H212758   1.381   7.912   4.887 -1.6547  0.7434  0.8203
27738WAT    EPW12759   1.327   7.883   4.826 -0.2382 -0.1848 -0.0513
27739WAT      O12760   6.532   8.483   4.692  0.9230 -0.0248 -0.2015
27739WAT     H112761   6.468   8.478   4.763  1.9773  2.5795  1.0671
27739WAT     H212762   6.617   8.477   4.736  1.6195  2.3380 -1.0695
27739WAT    EPW12763   6.535   8.482   4.707  1.1539  0.6304 -0.1485
27740WAT      O12764   5.611   4.034   0.809  0.9622  0.0485  0.4702
27740WAT     H112765   5.703   4.055   0.788  0.8533 -1.0621 -1.2679
27740WAT     H212766   5.564   4.115   0.789  1.5175  0.5623  1.1703
27740WAT    EPW12767   5.617   4.048   0.804  1.0211 -0.0300  0.3333
27741WAT      O12768   4.259   4.516   1.534  0.7732 -0.2771 -0.0298
27741WAT     H112769   4.191   4.583   1.536  0.7822 -0.2745  0.2956
27741WAT     H212770   4.222   4.446   1.479  0.4749 -0.3062  0.2042
27741WAT    EPW12771   4.245   4.515   1.527  0.7350 -0.2804  0.0440
27742WAT      O12772   2.559   8.162   5.061  0.0673  0.0221 -0.8957
27742WAT     H112773   2.478   8.199   5.027 -0.7143 -0.9202 -0.1315
27742WAT     H212774   2.539   8.069   5.074  1.3294 -0.2646 -0.8628
27742WAT    EPW12775   2.545   8.155   5.059  0.1308 -0.1402 -0.7906
27743WAT      O12776   2.163   7.781   2.293 -0.2170 -0.2997  0.9796
27743WAT     H112777   2.079   7.761   2.251 -0.8143 -0.7790  2.3281
27743WAT     H212778   2.222   7.802   2.221 -1.5437  0.2162  0.0076
27743WAT    EPW12779   2.159   7.781   2.278 -0.4709 -0.2944  1.0294
27744WAT      O12780   3.490   6.637   2.754  0.4991 -0.7116  0.2913
27744WAT     H112781   3.566   6.580   2.739  0.0211 -0.9370 -1.5059
27744WAT     H212782   3.461   6.662   2.666 -0.0770  1.3002  0.9973
27744WAT    EPW12783   3.496   6.633   2.741  0.3603 -0.4759  0.1473
27745WAT      O12784   7.018   0.284   6.231 -0.0608  0.3769 -0.0135
27745WAT     H112785   6.982   0.196   6.229  0.6691  0.0356 -3.2017
27745WAT     H212786   6.951   0.339   6.191  1.0339  0.5055 -1.7925
27745WAT    EPW12787   7.005   0.280   6.226  0.1800  0.3488 -0.6685
27746WAT      O12788   5.582   6.989   1.775 -0.5628 -0.0527  0.0218
27746WAT     H112789   5.507   7.047   1.786  1.4770  2.6804  0.6526
27746WAT     H212790   5.590   6.944   1.859 -0.6314  0.7954  0.4956
27746WAT    EPW12791   5.574   6.991   1.788 -0.3030  0.4196  0.1675
27747WAT      O12792   2.108   6.063   5.986  0.8888  0.4814  0.6428
27747WAT     H112793   2.113   6.032   6.077  2.3283 -1.3316  0.0002
27747WAT     H212794   2.042   6.007   5.946  1.4127  0.2029  0.1708
27747WAT    EPW12795   2.100   6.052   5.993  1.1479  0.2053  0.4957
27748WAT      O12796   1.950   2.198   8.559  0.9466  0.0995 -0.3920
27748WAT     H112797   1.952   2.146   8.639 -0.4916 -2.1702 -1.6981
27748WAT     H212798   1.916   2.283   8.586 -2.0493 -1.4198  1.0996
27748WAT    EPW12799   1.946   2.202   8.573  0.3617 -0.4002 -0.3681
27749WAT      O12800   8.585   2.632   8.015 -0.2638 -0.2051  0.6494
27749WAT     H112801   8.675   2.644   8.044 -0.3646 -1.1434  1.3836
27749WAT     H212802   8.592   2.584   7.933 -0.0021  2.0447 -0.7371
27749WAT    EPW12803   8.598   2.627   8.008 -0.2427 -0.0323  0.5636
27750WAT      O12804   5.245   7.853   5.052 -0.2903 -0.0146 -0.4460
27750WAT     H112805   5.184   7.811   5.113  2.1796 -2.3830  0.6734
27750WAT     H212806   5.225   7.815   4.967 -0.1618 -1.0945 -0.0115
27750WAT    EPW12807   5.235   7.842   5.049  0.0525 -0.4692 -0.2413
27751WAT      O12808   0.953   8.697   2.000 -0.5470 -0.3889  0.5671
27751WAT     H112809   0.964   8.792   2.009  1.2463 -0.5179  0.1680
27751WAT     H212810   1.028   8.670   1.946 -0.2932 -2.2056  1.7581
27751WAT    EPW12811   0.965   8.706   1.994 -0.2770 -0.6456  0.6716
27752WAT      O12812   6.654   7.322   3.779 -0.6111  0.2103 -0.1095
27752WAT     H112813   6.608   7.357   3.702 -0.3642 -0.9224 -0.7882
27752WAT     H212814   6.735   7.286   3.744 -0.6021 -0.5174  0.6474
27752WAT    EPW12815   6.658   7.322   3.764 -0.5774 -0.0348 -0.0993
27753WAT      O12816   5.212   1.692   1.612 -0.3458  0.6769  0.2601
27753WAT     H112817   5.304   1.715   1.604 -0.1412 -0.4319 -0.8526
27753WAT     H212818   5.204   1.607   1.569 -1.8441  0.6228  0.5644
27753WAT    EPW12819   5.223   1.684   1.605 -0.5164  0.5234  0.1535
27754WAT      O12820   6.191   5.956   0.484 -0.9196 -0.1453  0.4993
27754WAT     H112821   6.237   5.966   0.401 -0.7289  2.3907  0.8432
27754WAT     H212822   6.099   5.948   0.460 -0.9994  1.7689  0.0405
27754WAT    EPW12823   6.185   5.956   0.470 -0.9048  0.4418  0.4842
27755WAT      O12824   4.966   8.536   4.874 -1.0872 -0.7370 -0.2492
27755WAT     H112825   4.926   8.566   4.956  1.4855  0.0044  0.8404
27755WAT     H212826   4.916   8.581   4.805 -3.4700 -1.5773  0.8377
27755WAT    EPW12827   4.954   8.546   4.875 -1.0619 -0.7501  0.0379
27756WAT      O12828   3.989   9.130   2.554 -0.2361  0.3663  0.8104
27756WAT     H112829   3.897   9.103   2.548  0.1872 -0.9805  0.1606
27756WAT     H212830   4.034   9.056   2.593  0.5900  1.0152  1.1196
27756WAT    EPW12831   3.983   9.117   2.558 -0.0713  0.2747  0.7654
27757WAT      O12832   4.246   7.607   2.857 -0.1095 -0.3326  0.5562
27757WAT     H112833   4.208   7.613   2.769  0.8153  2.1296  0.2595
27757WAT     H212834   4.170   7.607   2.915 -0.6902  0.8762 -0.1592
27757WAT    EPW12835   4.231   7.608   2.853 -0.0639  0.1514  0.4227
27758WAT      O12836   6.252   0.133   0.234 -0.2386 -0.4547  0.1825
27758WAT     H112837   6.181   0.166   0.289 -0.0679  0.4083 -0.1004
27758WAT     H212838   6.328   0.131   0.292  0.0066  0.7141 -0.0587
27758WAT    EPW12839   6.253   0.137   0.249 -0.1836 -0.1867  0.1134
27759WAT      O12840   2.870   8.759   1.749 -0.2340  0.0920 -0.0320
27759WAT     H112841   2.852   8.676   1.704 -0.1336 -0.0005  0.0943
27759WAT     H212842   2.823   8.752   1.833  0.7944 -0.3721  0.5260
27759WAT    EPW12843   2.862   8.747   1.754 -0.0851  0.0191  0.0582
27760WAT      O12844   3.183   9.738   4.660  0.1389  0.3619 -0.1909
27760WAT     H112845   3.145   9.712   4.744  2.9801 -1.9986  0.5315
27760WAT     H212846   3.108   9.739   4.599 -1.4538 -1.7482  1.5567
27760WAT    EPW12847   3.168   9.735   4.663  0.3035 -0.2275  0.1347
27761WAT      O12848   2.302   9.966   3.702  0.0957  0.4559  0.0722
27761WAT     H112849   2.276  10.057   3.688 -0.7238  0.7108  2.7205
27761WAT     H212850   2.249   9.916   3.640  0.6222  1.7564 -1.4811
27761WAT    EPW12851   2.291   9.972   3.692  0.0570  0.6614  0.2165
27762WAT      O12852   6.240   6.175   1.451 -0.0947  0.7761 -0.9856
27762WAT     H112853   6.274   6.234   1.384  0.9285 -0.7074 -1.8072
27762WAT     H212854   6.312   6.166   1.513  0.9730 -1.9768 -2.4702
27762WAT    EPW12855   6.254   6.182   1.450  0.1810  0.2174 -1.2898
27763WAT      O12856   2.772   6.143   6.474  0.4310 -0.6218 -0.4024
27763WAT     H112857   2.855   6.185   6.498  1.0613 -1.9350 -0.1626
27763WAT     H212858   2.798   6.068   6.421 -0.7062 -0.3229 -1.4278
27763WAT    EPW12859   2.786   6.139   6.470  0.3642 -0.7558 -0.5062
27764WAT      O12860   2.609   5.576   2.494 -0.1918  0.7695  0.4505
27764WAT     H112861   2.622   5.671   2.497 -0.7739  1.0464 -2.6622
27764WAT     H212862   2.630   5.552   2.404 -2.5534 -1.6334  0.4182
27764WAT    EPW12863   2.613   5.585   2.483 -0.5800  0.4890  0.0358
27765WAT      O12864   6.948   7.185   3.878 -0.6524 -0.4084  0.3987
27765WAT     H112865   6.958   7.238   3.957  0.5919 -2.3855  1.6578
27765WAT     H212866   7.029   7.135   3.872 -0.9374 -0.7127 -1.8642
27765WAT    EPW12867   6.960   7.185   3.888 -0.5260 -0.7095  0.2664
27766WAT      O12868   3.764   7.075   2.619 -0.2095  0.1367 -0.7948
27766WAT     H112869   3.773   6.993   2.571 -1.1898  0.4750 -1.5947
27766WAT     H212870   3.712   7.053   2.696 -2.8649  0.4620 -2.3879
27766WAT    EPW12871   3.759   7.062   2.623 -0.6889  0.2241 -1.1103
27767WAT      O12872   5.329   8.397   1.931 -0.0898 -0.3119  0.3705
27767WAT     H112873   5.274   8.337   1.880  0.0674 -0.0047 -0.1584
27767WAT     H212874   5.275   8.476   1.940  0.4518  0.1890 -0.5994
27767WAT    EPW12875   5.314   8.400   1.925  0.0024 -0.2046  0.1729
27768WAT      O12876   5.951   1.464   2.964  0.3334  0.4633  1.1749
27768WAT     H112877   5.912   1.502   2.886  1.7992  1.7912  1.0300
27768WAT     H212878   6.041   1.445   2.938  0.6615  0.3457  2.3487
27768WAT    EPW12879   5.958   1.467   2.951  0.5703  0.6229  1.3105
27769WAT      O12880   6.258   0.377   1.017 -0.1671  0.3493  0.2230
27769WAT     H112881   6.236   0.371   1.109  1.5504  0.1974  0.6647
27769WAT     H212882   6.302   0.462   1.008  0.2065  0.1103 -0.3144
27769WAT    EPW12883   6.261   0.387   1.028  0.1087  0.2977  0.2103
27770WAT      O12884   7.131   0.448   0.820 -0.7192 -0.0247  0.0550
27770WAT     H112885   7.146   0.453   0.726  0.9451  0.5135  0.3119
27770WAT     H212886   7.108   0.537   0.846 -0.6772 -0.0643  0.2314
27770WAT    EPW12887   7.130   0.460   0.811 -0.4945  0.0411  0.1122
27771WAT      O12888   5.269   7.109   1.170  0.4360 -0.2337 -0.1116
27771WAT     H112889   5.241   7.018   1.183 -0.1369 -0.3692 -2.0038
27771WAT     H212890   5.340   7.121   1.232 -0.1371 -1.6578  0.8870
27771WAT    EPW12891   5.274   7.099   1.180  0.2847 -0.4394 -0.2294
27772WAT      O12892   1.362   6.698   4.935  0.5711 -0.2511 -0.0128
27772WAT     H112893   1.432   6.645   4.896  1.5622 -1.0235  2.5903
27772WAT     H212894   1.395   6.787   4.933 -0.0642  0.0010 -2.2067
27772WAT    EPW12895   1.376   6.703   4.930  0.6180 -0.3197  0.0410
27773WAT      O12896   4.349   3.267   4.395 -0.1500 -0.1118  0.5595
27773WAT     H112897   4.414   3.197   4.390 -0.8240 -0.6654 -0.7838
27773WAT     H212898   4.335   3.294   4.304 -0.8007  0.9340  0.9494
27773WAT    EPW12899   4.356   3.261   4.382 -0.3250 -0.0468  0.4337
27774WAT      O12900  10.671   4.211   8.341  0.1961  0.6939  0.1123
27774WAT     H112901  10.758   4.200   8.303  0.0853 -0.3721  0.1520
27774WAT     H212902  10.664   4.142   8.407  0.5805  2.7952  2.5157
27774WAT    EPW12903  10.681   4.201   8.345  0.2317  0.8302  0.4344
27775WAT      O12904   3.067   5.469   3.605  1.0665  0.5095  0.4863
27775WAT     H112905   3.124   5.415   3.659  0.0914  0.0653  1.0831
27775WAT     H212906   3.128   5.515   3.546  2.0977  0.5825  1.5657
27775WAT    EPW12907   3.083   5.468   3.604  1.0738  0.4606  0.7074
27776WAT      O12908   9.455   4.681   8.316 -0.1093 -0.0971  0.0932
27776WAT     H112909   9.381   4.732   8.282 -0.0778  1.3532  2.0375
27776WAT     H212910   9.470   4.614   8.249 -2.1369  0.5516 -1.1149
27776WAT    EPW12911   9.447   4.679   8.303 -0.3729  0.1795  0.1898
27777WAT      O12912   3.828   5.144   0.403 -0.4834 -0.0698  0.2468
27777WAT     H112913   3.787   5.066   0.366  0.7480 -0.3256 -0.6408
27777WAT     H212914   3.755   5.201   0.427 -1.3644 -0.1778 -1.9668
27777WAT    EPW12915   3.813   5.141   0.401 -0.4370 -0.1178 -0.1622
27778WAT      O12916   2.029   5.999   3.847 -0.7075 -1.1817 -0.7289
27778WAT     H112917   1.990   5.972   3.764 -0.3216 -2.5177 -0.4871
27778WAT     H212918   2.075   6.080   3.825 -2.8797  0.0203 -1.1927
27778WAT    EPW12919   2.030   6.006   3.833 -0.9432 -1.1992 -0.7582
27779WAT      O12920   2.946   2.073   6.149 -0.0667  0.0807  0.0044
27779WAT     H112921   3.029   2.036   6.119 -0.1831 -0.2809  0.1164
27779WAT     H212922   2.899   1.998   6.186  0.7965  0.8016  2.7995
27779WAT    EPW12923   2.950   2.058   6.150  0.0318  0.1281  0.3877
27780WAT      O12924   4.754   7.349   2.003 -0.1715  0.5122 -0.1402
27780WAT     H112925   4.687   7.403   2.046  0.8283  2.9758 -1.4976
27780WAT     H212926   4.821   7.336   2.070 -2.3487 -3.0795  1.6805
27780WAT    EPW12927   4.754   7.354   2.017 -0.3269  0.3633 -0.0789
27781WAT      O12928   2.297   6.514   2.967 -0.3952 -0.0275  0.4547
27781WAT     H112929   2.357   6.505   2.893 -0.3295 -1.3078  0.6300
27781WAT     H212930   2.274   6.607   2.968  1.8753  0.5955  0.6132
27781WAT    EPW12931   2.302   6.525   2.957 -0.0870 -0.1140  0.4989
27782WAT      O12932   4.491   2.861   0.709 -0.1779 -0.2232  0.7724
27782WAT     H112933   4.451   2.921   0.771 -1.7634  1.6096 -1.8626
27782WAT     H212934   4.568   2.907   0.676  0.1687 -0.8235  0.7099
27782WAT    EPW12935   4.496   2.875   0.712 -0.3412 -0.0606  0.4166
27783WAT      O12936   6.503   6.960   2.953 -0.6431 -0.2557 -0.0378
27783WAT     H112937   6.439   6.917   3.009  0.1019 -0.7367  0.4607
27783WAT     H212938   6.495   7.053   2.973  0.8204 -0.5301  2.2280
27783WAT    EPW12939   6.494   6.966   2.963 -0.3519 -0.3555  0.3270
27784WAT      O12940   7.042   0.470   5.113  0.1762 -0.4689 -0.0922
27784WAT     H112941   7.112   0.536   5.117 -0.1820  0.3369 -3.6236
27784WAT     H212942   6.961   0.521   5.122 -0.0485 -0.5496 -1.3625
27784WAT    EPW12943   7.041   0.486   5.114  0.0994 -0.3732 -0.7255
27785WAT      O12944   5.715   8.074   0.719 -0.0947  0.5966 -0.7315
27785WAT     H112945   5.631   8.049   0.758 -0.6742  3.6677  0.2799
27785WAT     H212946   5.774   8.083   0.793  0.7129  0.0053 -1.2876
27785WAT    EPW12947   5.712   8.072   0.734 -0.0646  0.9236 -0.6715
27786WAT      O12948   0.395   6.489   2.247 -0.0077 -0.0387  0.1928
27786WAT     H112949   0.412   6.415   2.305  1.4051 -1.4995 -1.9290
27786WAT     H212950   0.301   6.486   2.231  0.1896 -2.2942 -0.8886
27786WAT    EPW12951   0.385   6.479   2.252  0.2047 -0.5288 -0.2297
27787WAT      O12952   4.731   5.799   3.417 -0.5989 -0.1061  0.0252
27787WAT     H112953   4.770   5.878   3.380 -2.6494  1.7359  1.4954
27787WAT     H212954   4.676   5.764   3.347  2.0791 -1.7064 -1.4400
27787WAT    EPW12955   4.729   5.805   3.403 -0.5162 -0.0744  0.0259
27788WAT      O12956   0.966   9.271   2.163  0.5943 -0.4499 -0.1957
27788WAT     H112957   1.036   9.276   2.228 -0.7502 -0.2771  1.3201
27788WAT     H212958   0.969   9.181   2.130  0.5368 -0.9267  1.0519
27788WAT    EPW12959   0.975   9.260   2.167  0.4094 -0.4897  0.1689
27789WAT      O12960   2.423   3.979   4.861  1.1328 -0.2236 -0.0305
27789WAT     H112961   2.444   3.905   4.805 -0.0716 -1.5476  1.1674
27789WAT     H212962   2.375   3.941   4.935  0.3590  1.7614  0.5827
27789WAT    EPW12963   2.419   3.964   4.864  0.8717 -0.1364  0.2084
27790WAT      O12964   6.233   8.475   2.805  0.1803 -0.1797 -0.3722
27790WAT     H112965   6.320   8.511   2.792 -0.8158  1.7940 -2.3406
27790WAT     H212966   6.191   8.483   2.719 -1.9514 -1.0077  0.5276
27790WAT    EPW12967   6.239   8.481   2.792 -0.2322 -0.0286 -0.5130
27791WAT      O12968   3.703   9.365   3.942 -0.7914 -0.1915  0.3549
27791WAT     H112969   3.621   9.382   3.897 -1.9103 -3.1501  1.0690
27791WAT     H212970   3.690   9.281   3.986  1.8325  0.3091  2.3921
27791WAT    EPW12971   3.690   9.356   3.942 -0.5928 -0.5150  0.7178
27792WAT      O12972   2.140   9.742   2.832  0.9834  0.4984 -0.2224
27792WAT     H112973   2.115   9.670   2.890  3.0141 -0.6228 -0.6305
27792WAT     H212974   2.061   9.794   2.823 -1.0911 -2.5246 -1.1773
27792WAT    EPW12975   2.127   9.739   2.838  0.9776 -0.0486 -0.4023
27793WAT      O12976   2.613  10.251   3.867 -0.6707  0.2848  0.0684
27793WAT     H112977   2.604  10.330   3.920 -0.6016 -0.7211  1.6448
27793WAT     H212978   2.706  10.229   3.874 -0.8556 -0.4208  0.3938
27793WAT    EPW12979   2.624  10.259   3.875 -0.6859  0.0587  0.3191
27794WAT      O12980   4.106   7.472   1.115  0.6296  0.6641 -0.8428
27794WAT     H112981   4.163   7.512   1.181 -1.4933 -0.1347  1.6532
27794WAT     H212982   4.036   7.536   1.102 -0.4752 -0.3526 -0.1002
27794WAT    EPW12983   4.104   7.486   1.122  0.2038  0.4249 -0.4157
27795WAT      O12984   5.318   0.283   2.393  0.0421 -0.5928  0.0166
27795WAT     H112985   5.262   0.334   2.335 -0.9682  1.1777  2.4058
27795WAT     H212986   5.407   0.309   2.370 -0.3847  0.8574 -0.0684
27795WAT    EPW12987   5.323   0.293   2.382 -0.1473 -0.1680  0.3206
27796WAT      O12988   6.492   6.480   0.973  0.4001  0.1637 -0.2083
27796WAT     H112989   6.458   6.410   0.918  1.6667  0.2645 -1.1567
27796WAT     H212990   6.549   6.436   1.036  0.8875  0.2953 -0.5542
27796WAT    EPW12991   6.495   6.465   0.974  0.6316  0.1945 -0.3791
27797WAT      O12992   1.079   2.745   2.872 -0.0854 -0.2146  0.2504
27797WAT     H112993   1.070   2.824   2.819  3.9401  0.5207  0.3853
27797WAT     H212994   0.991   2.707   2.873 -1.7675  3.1978 -1.4120
27797WAT    EPW12995   1.066   2.750   2.865  0.2236  0.3324  0.0489
27798WAT      O12996   5.253   7.177   2.691  0.0147  0.0051  0.9835
27798WAT     H112997   5.158   7.174   2.700 -0.1711 -3.7419 -0.2816
27798WAT     H212998   5.269   7.146   2.602  2.4216 -1.6767  1.8939
27798WAT    EPW12999   5.243   7.173   2.680  0.3078 -0.7112  0.9367
27799WAT      O13000   2.174   2.365   4.551  0.6188 -0.7124  0.3558
27799WAT     H113001   2.229   2.406   4.484 -0.1594 -0.9093 -0.4223
27799WAT     H213002   2.147   2.282   4.512 -0.8122 -0.3003  0.4256
27799WAT    EPW13003   2.178   2.360   4.537  0.3275 -0.6841  0.2627
27800WAT      O13004   5.928   4.855   3.082 -0.6936  0.8023 -0.2891
27800WAT     H113005   5.903   4.936   3.126  1.0331  0.6343  1.1106
27800WAT     H213006   6.018   4.871   3.052 -0.8696 -0.0809 -1.3587
27800WAT    EPW13007   5.937   4.868   3.084 -0.4890  0.6635 -0.2456
27801WAT      O13008   5.041   5.737   1.731 -0.1289 -0.3147  0.4478
27801WAT     H113009   4.983   5.806   1.763  1.1727  0.0184  2.2698
27801WAT     H213010   5.101   5.782   1.671 -1.1228 -0.4706 -0.6796
27801WAT    EPW13011   5.042   5.752   1.728 -0.0882 -0.2913  0.5394
27802WAT      O13012   7.063   6.738   2.720  0.6211  0.0969 -1.1260
27802WAT     H113013   7.054   6.755   2.814  1.4582  1.4309 -1.2645
27802WAT     H213014   7.135   6.675   2.713 -1.4712 -2.5297 -0.7133
27802WAT    EPW13015   7.071   6.732   2.732  0.4556 -0.0734 -1.0897
27803WAT      O13016   3.886   3.552   4.021 -0.3502  0.4518  0.2909
27803WAT     H113017   3.948   3.607   3.973 -1.0822 -0.7330 -2.1565
27803WAT     H213018   3.803   3.601   4.017 -0.2796  0.6304  0.9150
27803WAT    EPW13019   3.883   3.566   4.014 -0.4373  0.3189  0.0505
27804WAT      O13020   2.344   8.534   4.272 -0.0011 -0.2156 -0.2233
27804WAT     H113021   2.287   8.608   4.292 -1.3547 -1.5849  1.2713
27804WAT     H213022   2.374   8.550   4.183 -3.0836  0.4046 -1.2540
27804WAT    EPW13023   2.340   8.546   4.263 -0.5860 -0.3142 -0.1621
27805WAT      O13024   1.185   8.479   2.588 -0.0625 -0.1327  0.3208
27805WAT     H113025   1.164   8.392   2.554  2.0958 -0.8944  0.7275
27805WAT     H213026   1.152   8.478   2.678 -2.1301  0.3714 -0.3934
27805WAT    EPW13027   1.178   8.467   2.595 -0.0505 -0.1664  0.2803
27806WAT      O13028   3.402   7.568   1.477 -0.0138 -0.1115 -0.7256
27806WAT     H113029   3.437   7.482   1.499 -0.0430 -0.7288 -2.8862
27806WAT     H213030   3.416   7.577   1.383  0.7470  2.6191 -0.4670
27806WAT    EPW13031   3.409   7.558   1.468  0.0826  0.1671 -0.9765
27807WAT      O13032   2.761   5.724   3.419  0.2867  0.0080 -0.2546
27807WAT     H113033   2.805   5.725   3.504 -0.2272  1.3886  0.0225
27807WAT     H213034   2.825   5.688   3.359  1.1386  0.2559  0.4897
27807WAT    EPW13035   2.775   5.720   3.423  0.3314  0.2227 -0.1200
27808WAT      O13036   3.998   9.626   1.468 -0.9255 -0.5061 -0.4032
27808WAT     H113037   4.031   9.583   1.389  1.0263  1.3122 -0.6553
27808WAT     H213038   4.064   9.606   1.535 -1.3858 -0.1273  0.1737
27808WAT    EPW13039   4.011   9.617   1.467 -0.7288 -0.2160 -0.3604
27809WAT      O13040   1.598   6.834   5.831 -0.0518 -0.7724 -0.1753
27809WAT     H113041   1.683   6.868   5.857 -0.2386 -0.6004  0.2229
27809WAT     H213042   1.618   6.759   5.775  0.3604 -0.4444 -0.4756
27809WAT    EPW13043   1.612   6.829   5.827 -0.0221 -0.7062 -0.1624
27810WAT      O13044   2.583   7.554   0.419  0.2450 -0.3894 -0.0786
27810WAT     H113045   2.612   7.489   0.483  1.5076 -0.0443 -0.2708
27810WAT     H213046   2.519   7.509   0.366 -1.4294 -0.4622  1.9000
27810WAT    EPW13047   2.579   7.540   0.421  0.1907 -0.3536  0.1570
27811WAT      O13048   4.138   7.846   2.017 -0.7270  0.2536 -0.4700
27811WAT     H113049   4.207   7.823   1.954 -1.3496 -1.2236 -0.6411
27811WAT     H213050   4.063   7.793   1.991 -0.5683 -1.5933  2.3867
27811WAT    EPW13051   4.137   7.836   2.005 -0.7880 -0.1848 -0.1158
27812WAT      O13052   5.147   7.728   0.552 -0.1026 -0.2882 -0.3746
27812WAT     H113053   5.170   7.636   0.538  1.5850  0.1484 -0.6489
27812WAT     H213054   5.128   7.761   0.464  2.0945  0.3053 -0.6765
27812WAT    EPW13055   5.147   7.720   0.539  0.4098 -0.1523 -0.4506
27813WAT      O13056   0.166   6.245   3.069 -0.3237 -0.0824 -0.4150
27813WAT     H113057   0.132   6.272   3.154 -1.2379 -0.2882 -0.7012
27813WAT     H213058   0.115   6.296   3.006 -0.5739 -0.9072 -0.8810
27813WAT    EPW13059   0.155   6.256   3.072 -0.4773 -0.2184 -0.5141
27814WAT      O13060   4.659   8.863   4.573  0.8809 -0.7293  0.2036
27814WAT     H113061   4.749   8.872   4.603  0.8961  0.1757 -0.0787
27814WAT     H213062   4.667   8.841   4.480  0.8107  0.0165  0.0171
27814WAT    EPW13063   4.672   8.861   4.565  0.8736 -0.5116  0.1416
27815WAT      O13064   1.700   7.865   1.931 -0.3076 -0.4533  0.0812
27815WAT     H113065   1.785   7.822   1.924 -0.6873 -1.0785 -0.8489
27815WAT     H213066   1.697   7.925   1.856 -0.7491 -0.5473  0.0212
27815WAT    EPW13067   1.711   7.867   1.920 -0.4159 -0.5481 -0.0494
27816WAT      O13068  10.676   1.593   6.851 -0.3283  0.1331 -0.1139
27816WAT     H113069  10.736   1.601   6.777 -0.0713  2.3548  0.2785
27816WAT     H213070  10.731   1.562   6.923  0.5444  2.5885  0.3649
27816WAT    EPW13071  10.691   1.590   6.851 -0.1788  0.7500  0.0012
27817WAT      O13072   3.915   3.379   1.019  0.2908 -0.2443  0.8144
27817WAT     H113073   3.833   3.425   1.002 -0.7367 -0.2663  4.6760
27817WAT     H213074   3.973   3.404   0.947 -2.6049  0.9574 -1.2618
27817WAT    EPW13075   3.912   3.388   1.007 -0.2265 -0.0887  1.0499
27818WAT      O13076   6.322   5.871   2.981  0.1064  0.5412 -0.1617
27818WAT     H113077   6.342   5.885   2.889 -1.5496 -1.3295 -0.8934
27818WAT     H213078   6.303   5.959   3.015 -0.2476  1.1661 -1.8657
27818WAT    EPW13079   6.322   5.885   2.973 -0.1585  0.3769 -0.4832
27819WAT      O13080   5.122   6.961   3.778  0.5847  0.1543 -0.6037
27819WAT     H113081   5.126   6.942   3.872 -0.1177 -1.1890 -0.8200
27819WAT     H213082   5.028   6.967   3.759  0.7228  0.4303 -1.2120
27819WAT    EPW13083   5.110   6.959   3.788  0.5102  0.0136 -0.7124
27820WAT      O13084   4.225   1.765   2.131  0.3112 -0.3442  0.0840
27820WAT     H113085   4.198   1.834   2.070  0.0406 -0.4035  0.1327
27820WAT     H213086   4.191   1.794   2.216  2.3261  0.6992  0.5969
27820WAT    EPW13087   4.217   1.778   2.134  0.5414 -0.2144  0.1581
27821WAT      O13088   3.578   6.888   2.750  0.4533  0.2838  0.0532
27821WAT     H113089   3.538   6.801   2.758 -1.6613  1.0932 -0.8591
27821WAT     H213090   3.605   6.910   2.840 -0.2714 -0.7583  0.5493
27821WAT    EPW13091   3.576   6.880   2.763  0.0788  0.2530 -0.0018
27822WAT      O13092   8.933   0.193   3.708  0.6063  0.6150 -0.3374
27822WAT     H113093   8.926   0.288   3.713  0.4186  0.6422 -1.0008
27822WAT     H213094   9.021   0.173   3.739  0.5505  0.9861  0.0560
27822WAT    EPW13095   8.944   0.203   3.712  0.5741  0.6675 -0.3730
27823WAT      O13096   2.562   9.536   2.127  0.1414 -0.2032 -0.6428
27823WAT     H113097   2.477   9.575   2.146 -0.1099 -0.9701 -0.1589
27823WAT     H213098   2.543   9.443   2.110  1.1118 -0.8601  1.5600
27823WAT    EPW13099   2.548   9.529   2.127  0.2364 -0.3910 -0.2884
27824WAT      O13100   0.602   1.700   7.783 -0.5770  0.0989 -0.5544
27824WAT     H113101   0.584   1.724   7.874 -1.7443  1.8010 -1.1595
27824WAT     H213102   0.654   1.620   7.788 -1.7727 -0.6142  1.5703
27824WAT    EPW13103   0.606   1.693   7.796 -0.8887  0.2294 -0.3541
27825WAT      O13104   5.579   7.577   3.523 -1.1764  0.4920 -0.4033
27825WAT     H113105   5.572   7.535   3.609  0.0581 -0.9261 -0.9571
27825WAT     H213106   5.504   7.637   3.519 -2.8490 -1.4508  0.5556
27825WAT    EPW13107   5.568   7.580   3.534 -1.2338  0.0486 -0.3498
27826WAT      O13108   9.740   3.040   8.609  0.5280 -0.1639  0.3242
27826WAT     H113109   9.791   2.963   8.634 -0.3908 -1.1000 -0.6074
27826WAT     H213110   9.700   3.016   8.526 -1.2253  0.6461  0.8929
27826WAT    EPW13111   9.742   3.027   8.601  0.1755 -0.1805  0.2761
27827WAT      O13112   4.115   0.058   1.275  0.5434 -0.0319 -0.4883
27827WAT     H113113   4.165   0.068   1.195  0.8546  0.9027 -0.1912
27827WAT     H213114   4.120  -0.035   1.296  0.0492 -0.3693 -1.8022
27827WAT    EPW13115   4.122   0.047   1.267  0.5193  0.0469 -0.6224
27828WAT      O13116   2.757   8.512   1.096  0.4862 -0.4951 -0.1113
27828WAT     H113117   2.765   8.417   1.107  0.5398 -0.6532 -1.3759
27828WAT     H213118   2.817   8.533   1.024 -0.8561  0.2125 -1.0737
27828WAT    EPW13119   2.766   8.502   1.088  0.3161 -0.4225 -0.4050
27829WAT      O13120   2.683   7.011   6.524 -0.1820  0.3225 -0.1646
27829WAT     H113121   2.748   6.950   6.557  2.1523  1.3028 -2.5389
27829WAT     H213122   2.625   6.958   6.469  0.7676 -0.0719 -0.8064
27829WAT    EPW13123   2.684   6.996   6.521  0.2512  0.3996 -0.5624
27830WAT      O13124   5.628   6.520   3.504  0.4434  0.6158  0.2269
27830WAT     H113125   5.712   6.549   3.469  1.3974 -0.2919  1.6355
27830WAT     H213126   5.564   6.577   3.463  1.7368  1.3134 -0.9240
27830WAT    EPW13127   5.631   6.531   3.494  0.7398  0.5882  0.2609
27831WAT      O13128   1.970   9.965   5.497 -0.5176 -0.4221  0.2975
27831WAT     H113129   2.033   9.989   5.429 -1.3701 -0.4859 -0.5338
27831WAT     H213130   2.008  10.001   5.578  0.9615 -1.1493 -0.0426
27831WAT    EPW13131   1.983   9.973   5.499 -0.4350 -0.5260  0.1431
27832WAT      O13132   7.563   0.218   3.850 -0.8670 -0.6314  0.2248
27832WAT     H113133   7.542   0.172   3.931 -1.4357  0.9346  1.0068
27832WAT     H213134   7.495   0.286   3.843  0.8860  1.1927  0.0448
27832WAT    EPW13135   7.551   0.221   3.860 -0.7107 -0.1842  0.3041
27833WAT      O13136   6.286   7.637   2.105  0.7189 -0.4578 -0.1258
27833WAT     H113137   6.326   7.550   2.102  1.2647 -0.2763  1.1907
27833WAT     H213138   6.246   7.641   2.192  0.2415  0.4131 -0.3813
27833WAT    EPW13139   6.286   7.626   2.116  0.7279 -0.3190  0.0142
27834WAT      O13140   4.043   8.306   4.768 -0.2762  0.8324 -0.1465
27834WAT     H113141   4.127   8.306   4.723 -0.7004 -0.4335 -0.9719
27834WAT     H213142   3.978   8.316   4.699 -0.8712  0.3696  0.3320
27834WAT    EPW13143   4.045   8.307   4.753 -0.4103  0.6046 -0.1924
27835WAT      O13144   0.863   6.465   3.886  0.1998  0.4123  0.6014
27835WAT     H113145   0.873   6.520   3.808  1.5536  0.2764  0.6565
27835WAT     H213146   0.934   6.401   3.879 -1.0183 -1.0061  0.8171
27835WAT    EPW13147   0.874   6.464   3.875  0.2177  0.2072  0.6372
27836WAT      O13148   3.980   8.870   2.197  0.0677 -0.2830  0.1525
27836WAT     H113149   3.956   8.869   2.290  0.1897 -1.2892  0.1813
27836WAT     H213150   4.059   8.816   2.192  0.9407  0.9699 -0.3260
27836WAT    EPW13151   3.988   8.863   2.208  0.1990 -0.2503  0.0932
27837WAT      O13152   2.653   4.764   4.022  0.2380 -0.4838  0.0919
27837WAT     H113153   2.576   4.795   3.973  1.3765  0.8948 -0.9212
27837WAT     H213154   2.627   4.679   4.057 -1.6235 -0.2029 -0.5131
27837WAT    EPW13155   2.639   4.757   4.020  0.1427 -0.2649 -0.1214
27838WAT      O13156   4.911   9.816   1.414 -0.2826 -0.3358 -0.0228
27838WAT     H113157   4.927   9.901   1.373  0.8941 -0.2089  0.6512
27838WAT     H213158   4.925   9.753   1.343  0.7655 -0.0586 -0.0848
27838WAT    EPW13159   4.915   9.819   1.399  0.0110 -0.2823  0.0579
27839WAT      O13160   6.076   8.283   6.991 -0.4819  0.2481 -0.0394
27839WAT     H113161   6.047   8.310   7.078 -3.1909 -0.3991 -0.6445
27839WAT     H213162   6.016   8.213   6.966  0.5788  0.0225 -2.1954
27839WAT    EPW13163   6.064   8.277   6.999 -0.6993  0.1330 -0.4034
27840WAT      O13164   2.265   7.625   1.503 -0.4260 -0.1430  0.2933
27840WAT     H113165   2.316   7.705   1.491 -0.3588 -0.3778 -1.2610
27840WAT     H213166   2.183   7.641   1.456 -0.0945 -1.2339 -0.7197
27840WAT    EPW13167   2.261   7.638   1.495 -0.3732 -0.3178 -0.0453
27841WAT      O13168   6.432   4.778   2.185 -0.0683 -0.1215 -1.0248
27841WAT     H113169   6.343   4.794   2.216  1.2173  1.0843  2.5709
27841WAT     H213170   6.423   4.709   2.120 -3.4756 -1.3149  0.4792
27841WAT    EPW13171   6.419   4.771   2.181 -0.3483 -0.1199 -0.3521
27842WAT      O13172   0.317   4.765   3.870 -0.3654 -0.0041 -0.0543
27842WAT     H113173   0.322   4.817   3.951 -5.6905 -1.2524  1.4592
27842WAT     H213174   0.278   4.825   3.806 -1.9525 -0.6355  0.2673
27842WAT    EPW13175   0.313   4.780   3.873 -1.2771 -0.2518  0.1878
27843WAT      O13176   5.218   4.524   3.527 -0.8381  0.0939 -0.9554
27843WAT     H113177   5.297   4.552   3.481 -0.0598 -1.9145 -0.9374
27843WAT     H213178   5.224   4.564   3.613 -0.8573  1.5274 -1.5770
27843WAT    EPW13179   5.229   4.533   3.532 -0.7379  0.0181 -1.0350
27844WAT      O13180   3.174   6.276   3.764  0.1111 -0.3728 -0.0736
27844WAT     H113181   3.217   6.289   3.679 -1.7269  1.0806 -0.8652
27844WAT     H213182   3.207   6.348   3.818  1.3568 -1.3558  0.5169
27844WAT    EPW13183   3.184   6.287   3.760  0.0330 -0.3107 -0.1001
27845WAT      O13184   6.437   6.151   2.810  0.2066 -0.3412 -0.6049
27845WAT     H113185   6.407   6.218   2.871  1.2447  0.8295 -1.3489
27845WAT     H213186   6.474   6.199   2.737 -1.9280 -1.6898 -2.7003
27845WAT    EPW13187   6.438   6.166   2.809  0.0618 -0.3645 -0.9793
27846WAT      O13188  10.899   8.097   1.761 -0.4964 -0.0809  0.0511
27846WAT     H113189  10.852   8.180   1.772 -2.0846 -1.0946  1.4860
27846WAT     H213190  10.852   8.035   1.818  1.1547 -1.7649 -0.3118
27846WAT    EPW13191  10.886   8.100   1.770 -0.4878 -0.4368  0.1925
27847WAT      O13192   3.511   7.825   6.216  0.0297 -0.3091  0.4693
27847WAT     H113193   3.450   7.868   6.276 -0.5147 -0.0687 -0.2419
27847WAT     H213194   3.550   7.897   6.167 -0.8573 -0.6065 -0.7004
27847WAT    EPW13195   3.508   7.840   6.218 -0.1590 -0.3169  0.2210
27848WAT      O13196   8.347   1.041   4.399 -0.3580 -1.3195 -0.5118
27848WAT     H113197   8.292   1.114   4.428 -0.7573 -1.3270 -1.2180
27848WAT     H213198   8.328   1.033   4.306  0.9547 -1.2364 -0.8013
27848WAT    EPW13199   8.337   1.049   4.391 -0.2379 -1.3096 -0.6430
27849WAT      O13200   2.958   6.114   3.703 -0.2473  0.6634  0.6257
27849WAT     H113201   3.038   6.163   3.720 -0.9686  1.3131  2.4271
27849WAT     H213202   2.957   6.045   3.770  0.4112 -1.5044 -1.4438
27849WAT    EPW13203   2.968   6.111   3.715 -0.2556  0.4630  0.5902
27850WAT      O13204   6.541   8.342   4.350  0.4943  0.9468  0.1064
27850WAT     H113205   6.485   8.280   4.303  2.5208 -0.4850 -0.5530
27850WAT     H213206   6.614   8.358   4.291  0.9155  2.6022  1.0148
27850WAT    EPW13207   6.543   8.336   4.336  0.8171  0.9761  0.1390
27851WAT      O13208   4.109   8.101   1.029  0.0238 -0.9156 -0.8376
27851WAT     H113209   4.168   8.175   1.024 -0.1510 -0.6400  0.7584
27851WAT     H213210   4.022   8.138   1.015 -0.4611 -0.1495  3.0809
27851WAT    EPW13211   4.105   8.115   1.027 -0.0634 -0.7782 -0.1103
27852WAT      O13212   6.348   7.018   0.447  0.8579  0.6026  0.3508
27852WAT     H113213   6.415   7.023   0.379  4.3124  0.1928  3.4513
27852WAT     H213214   6.296   6.941   0.424  1.9802  0.3906 -1.6688
27852WAT    EPW13215   6.350   7.009   0.435  1.4615  0.5205  0.4934
27853WAT      O13216   2.682   8.556   4.541  0.4855  0.6302 -0.4059
27853WAT     H113217   2.679   8.593   4.630  1.5184  2.3411 -1.0379
27853WAT     H213218   2.621   8.611   4.491  0.8138  0.4426 -1.0177
27853WAT    EPW13219   2.673   8.568   4.546  0.6652  0.8307 -0.5701
27854WAT      O13220   5.909   9.731   2.176 -0.1180 -0.4833 -0.9315
27854WAT     H113221   5.872   9.649   2.210 -0.4058  1.0235  2.9648
27854WAT     H213222   5.998   9.733   2.211  0.0743  0.6048 -1.4307
27854WAT    EPW13223   5.916   9.721   2.185 -0.1307 -0.1411 -0.4835
27855WAT      O13224   7.104   1.544   2.335  0.0235 -0.9186  0.6781
27855WAT     H113225   7.198   1.544   2.318 -0.2549  1.1349 -1.5312
27855WAT     H213226   7.096   1.564   2.428  1.8094  0.3146  0.6141
27855WAT    EPW13227   7.115   1.547   2.345  0.2222 -0.4851  0.3783
27856WAT      O13228   8.873   2.048   4.481  0.7789  0.5478 -0.4871
27856WAT     H113229   8.854   2.059   4.387 -2.2383  1.9932  0.1632
27856WAT     H213230   8.865   1.954   4.497  3.6097 -0.0715 -1.9872
27856WAT    EPW13231   8.869   2.037   4.471  0.7539  0.6568 -0.5991
27857WAT      O13232   2.453   2.638   6.321  0.1441  0.1056 -0.5447
27857WAT     H113233   2.396   2.672   6.252  0.3375 -0.4458 -0.9931
27857WAT     H213234   2.395   2.584   6.375 -0.5103  2.2856  1.0850
27857WAT    EPW13235   2.438   2.635   6.319  0.0833  0.3203 -0.3891
27858WAT      O13236  10.756   0.611   3.797  0.2221 -0.5737  0.0823
27858WAT     H113237  10.674   0.602   3.846  1.1172 -2.5643  1.3218
27858WAT     H213238  10.806   0.675   3.847 -0.0787 -0.2658 -0.0012
27858WAT    EPW13239  10.751   0.619   3.810  0.2999 -0.7957  0.2347
27859WAT      O13240   3.303  10.252   2.785  0.6851  0.3044  0.4478
27859WAT     H113241   3.339  10.176   2.740  0.9399  1.0801 -0.7087
27859WAT     H213242   3.353  10.260   2.866 -0.2291 -1.5223  1.2463
27859WAT    EPW13243   3.314  10.243   2.790  0.5982  0.1659  0.4005
27860WAT      O13244   8.574   7.435   2.833  0.1238  0.0427 -0.0478
27860WAT     H113245   8.535   7.500   2.892  0.0118 -0.4658  0.4436
27860WAT     H213246   8.665   7.464   2.823  0.3504 -0.2494  0.9583
27860WAT    EPW13247   8.581   7.447   2.840  0.1388 -0.0627  0.1497
27861WAT      O13248   9.455   1.145   1.251  0.1164 -0.2579  0.6013
27861WAT     H113249   9.398   1.110   1.183  1.9351 -0.1488 -1.0587
27861WAT     H213250   9.397   1.162   1.325 -1.7601 -1.3168 -0.5613
27861WAT    EPW13251   9.440   1.142   1.252  0.1087 -0.3831  0.2291
27862WAT      O13252   8.257   7.466   2.597  0.3030  0.0630 -0.1013
27862WAT     H113253   8.280   7.373   2.593  0.7078 -0.0080  2.3816
27862WAT     H213254   8.333   7.511   2.559  0.6469 -0.5638 -0.1679
27862WAT    EPW13255   8.270   7.460   2.592  0.4020 -0.0288  0.2173
27863WAT      O13256   5.508   9.415   5.550 -0.7933 -0.5238 -0.1043
27863WAT     H113257   5.487   9.328   5.516  0.4126 -1.2393  0.8899
27863WAT     H213258   5.573   9.450   5.489  0.1805 -1.1551  0.5323
27863WAT    EPW13259   5.514   9.408   5.538 -0.5059 -0.7014  0.1109
27864WAT      O13260   8.596   2.057   2.363 -0.1478  0.4889 -0.4789
27864WAT     H113261   8.592   1.965   2.390  0.6191  0.8911  1.1350
27864WAT     H213262   8.632   2.054   2.275  2.9139 -0.6594  0.6668
27864WAT    EPW13263   8.600   2.044   2.355  0.3572  0.3904 -0.1149
27865WAT      O13264   9.580   8.929   3.248 -0.4623  0.6209 -0.3038
27865WAT     H113265   9.516   8.861   3.269 -0.3786  1.0433  1.4613
27865WAT     H213266   9.660   8.901   3.293  0.4965  0.3401 -2.0960
27865WAT    EPW13267   9.582   8.916   3.257 -0.3252  0.6394 -0.3073
27866WAT      O13268   6.798   7.378   0.146 -0.0731  0.1028 -0.3443
27866WAT     H113269   6.721   7.422   0.110  0.9716  1.4895 -0.9860
27866WAT     H213270   6.863   7.447   0.154  1.1842 -1.0778 -0.0135
27866WAT    EPW13271   6.796   7.393   0.143  0.2303  0.1299 -0.3853
27867WAT      O13272   0.360   1.100   2.953 -0.7963 -0.5617  0.2729
27867WAT     H113273   0.416   1.022   2.956 -0.5508 -0.3765  0.5886
27867WAT     H213274   0.341   1.119   3.045 -0.9029 -0.2825  0.1928
27867WAT    EPW13275   0.365   1.092   2.966 -0.7780 -0.5004  0.3040
27868WAT      O13276   9.792   0.452   2.404 -0.3101  0.0040  0.1616
27868WAT     H113277   9.777   0.381   2.343  1.0556  3.2554 -4.4990
27868WAT     H213278   9.706   0.492   2.416 -0.6208 -0.7740  0.5824
27868WAT    EPW13279   9.779   0.448   2.398 -0.1707  0.3303 -0.3974
27869WAT      O13280  10.305   0.218   1.386  0.1197 -0.5924 -0.1553
27869WAT     H113281  10.268   0.301   1.417  2.1459  0.4559 -0.3913
27869WAT     H213282  10.277   0.154   1.451 -1.6624  0.2063 -0.0757
27869WAT    EPW13283  10.296   0.220   1.399  0.1516 -0.3488 -0.1760
27870WAT      O13284   2.639   6.973   0.772 -0.0063  0.2316  0.5839
27870WAT     H113285   2.642   6.883   0.739 -1.2560  1.6411 -4.2214
27870WAT     H213286   2.727   7.007   0.759  0.3875 -0.1340  2.1178
27870WAT    EPW13287   2.651   6.965   0.766 -0.1192  0.3693  0.1524
27871WAT      O13288   7.360   0.053   2.017  1.0595 -0.5757 -0.3802
27871WAT     H113289   7.273   0.034   2.051  0.9244  1.5416  0.6388
27871WAT     H213290   7.385  -0.025   1.968 -2.0666 -0.6419 -2.0794
27871WAT    EPW13291   7.352   0.040   2.015  0.6294 -0.3052 -0.4700
27872WAT      O13292   2.166   1.035   8.710  0.2159  0.8913 -0.4891
27872WAT     H113293   2.162   1.088   8.790 -1.2176  1.1059 -0.6927
27872WAT     H213294   2.099   1.072   8.653 -0.2532 -0.6137 -0.9529
27872WAT    EPW13295   2.157   1.047   8.713 -0.0349  0.7210 -0.5770
27873WAT      O13296   9.937   3.625   8.840 -0.3427  0.3457 -0.2502
27873WAT     H113297   9.971   3.599   8.755  0.6820  0.1147  0.2118
27873WAT     H213298   9.976   3.711   8.856 -0.4002  0.3177  0.0534
27873WAT    EPW13299   9.947   3.633   8.831 -0.2151  0.3115 -0.1493
27874WAT      O13300   3.042   7.286   1.309  0.3372  0.0042  0.0879
27874WAT     H113301   3.082   7.217   1.362  0.1216 -1.3060 -1.3423
27874WAT     H213302   3.019   7.355   1.371  0.9091 -1.0599  1.5360
27874WAT    EPW13303   3.044   7.286   1.324  0.3843 -0.3088  0.0903
27875WAT      O13304   5.114   7.996   3.098 -0.0605 -0.5240 -0.1823
27875WAT     H113305   5.148   8.017   3.012 -1.5900 -0.2935 -0.7513
27875WAT     H213306   5.107   7.900   3.098  1.5738 -0.6911  0.3644
27875WAT    EPW13307   5.118   7.986   3.087 -0.0467 -0.5159 -0.1851
27876WAT      O13308   8.256   6.722   3.294  0.0782  0.6049 -0.4404
27876WAT     H113309   8.244   6.817   3.301 -1.8146  0.4742 -1.4014
27876WAT     H213310   8.171   6.685   3.317  0.6984 -0.8549 -0.4231
27876WAT    EPW13311   8.243   6.730   3.298 -0.0896  0.3953 -0.5649
27877WAT      O13312   6.014   7.129   3.439  0.0924  0.0954 -0.1023
27877WAT     H113313   5.998   7.077   3.517  0.5253 -0.0615 -0.1153
27877WAT     H213314   5.937   7.115   3.384  0.8864 -1.7806 -0.7944
27877WAT    EPW13315   6.002   7.120   3.442  0.2546 -0.1729 -0.1953
27878WAT      O13316   6.924   7.651   3.347  0.0838 -0.1061  0.4479
27878WAT     H113317   6.869   7.725   3.374  0.8138  0.6029  0.0461
27878WAT     H213318   6.955   7.675   3.260 -2.5714 -2.5445 -1.3500
27878WAT    EPW13319   6.921   7.664   3.339 -0.1700 -0.3340  0.1577
27879WAT      O13320   5.619   6.093   0.945 -0.0114  0.0777  0.3977
27879WAT     H113321   5.613   5.999   0.962 -1.1951  0.0458 -0.1265
27879WAT     H213322   5.577   6.134   1.020  1.9468  0.3043  1.4587
27879WAT    EPW13323   5.613   6.086   0.957  0.0906  0.1032  0.4685
27880WAT      O13324   3.417   7.921   2.798  0.7820 -0.4917 -0.5789
27880WAT     H113325   3.405   7.849   2.861 -2.4596  0.5318  0.1184
27880WAT     H213326   3.421   7.878   2.713 -0.9048 -1.5777 -0.1583
27880WAT    EPW13327   3.416   7.906   2.795  0.1320 -0.5000 -0.4313
27881WAT      O13328   9.702   9.998   2.071 -0.9449 -0.0023  0.3084
27881WAT     H113329   9.676   9.907   2.057 -1.3434  0.1017  0.3842
27881WAT     H213330   9.681  10.016   2.163 -0.1396 -0.0755  0.5175
27881WAT    EPW13331   9.696   9.989   2.081 -0.8912  0.0024  0.3461
27882WAT      O13332   5.752   2.879   3.221  0.6387  0.5417 -0.3831
27882WAT     H113333   5.740   2.970   3.194  0.8365  0.9257  0.7411
27882WAT     H213334   5.668   2.853   3.258  0.6681  0.3663 -0.4376
27882WAT    EPW13335   5.739   2.888   3.223  0.6688  0.5692 -0.2420
27883WAT      O13336   2.430   3.644   8.302  0.8249  0.6866  0.0147
27883WAT     H113337   2.430   3.725   8.252  1.7371  1.9631  1.9273
27883WAT     H213338   2.523   3.620   8.309  0.6416  0.0314  0.2691
27883WAT    EPW13339   2.443   3.652   8.297  0.9210  0.7687  0.3004
27884WAT      O13340   4.669   6.605   2.817 -0.0199  0.0452  0.0476
27884WAT     H113341   4.650   6.598   2.910  0.4438  0.1883  0.1593
27884WAT     H213342   4.764   6.596   2.812  0.0371  0.7523 -0.3306
27884WAT    EPW13343   4.679   6.603   2.829  0.0486  0.1574  0.0125
27885WAT      O13344   0.215   3.920   8.531  0.5635 -1.3541 -0.6363
27885WAT     H113345   0.261   3.837   8.520 -0.4165 -2.3966  2.2197
27885WAT     H213346   0.161   3.907   8.610  0.7739  2.1522  0.2432
27885WAT    EPW13347   0.213   3.907   8.540  0.4620 -1.0290 -0.1435
27886WAT      O13348   5.445  10.203   2.361  0.1059  0.0696 -0.9847
27886WAT     H113349   5.478  10.129   2.412  1.7196  0.2570 -1.7128
27886WAT     H213350   5.500  10.205   2.283 -0.6178  1.3899 -1.4982
27886WAT    EPW13351   5.456  10.193   2.357  0.2229  0.2685 -1.1485
27887WAT      O13352   2.811   7.716   3.605 -0.1000 -0.0988 -0.3110
27887WAT     H113353   2.762   7.673   3.534 -0.5400  1.1212 -0.7656
27887WAT     H213354   2.846   7.643   3.657 -1.8672 -1.0183 -0.3393
27887WAT    EPW13355   2.809   7.700   3.603 -0.3911 -0.0591 -0.3748
27888WAT      O13356   8.195   9.075   4.953 -0.3050  0.7201  0.1056
27888WAT     H113357   8.184   8.994   4.903  0.7577  2.5175 -3.3995
27888WAT     H213358   8.151   9.058   5.036 -2.9198 -2.3296 -1.6569
27888WAT    EPW13359   8.188   9.062   4.958 -0.5102  0.5546 -0.5894
27889WAT      O13360   1.555   7.301   0.400  0.6598 -0.0822  0.0744
27889WAT     H113361   1.632   7.300   0.344 -0.3495  0.5335 -1.3823
27889WAT     H213362   1.498   7.232   0.365  0.1585  0.0718  0.5648
27889WAT    EPW13363   1.558   7.292   0.388  0.4606  0.0193 -0.0531
27890WAT      O13364   7.768   7.358   4.234 -0.3425 -0.2746 -0.0050
27890WAT     H113365   7.766   7.438   4.182  0.4923  0.2341  0.7208
27890WAT     H213366   7.678   7.325   4.232 -0.5884  0.4296 -0.6881
27890WAT    EPW13367   7.756   7.364   4.227 -0.2649 -0.1144  0.0007
27891WAT      O13368   8.252   8.403   0.235 -0.2586 -0.5343 -0.0990
27891WAT     H113369   8.162   8.385   0.261  0.3186 -1.3102  1.5126
27891WAT     H213370   8.277   8.326   0.182 -0.2663 -0.7377  0.1908
27891WAT    EPW13371   8.244   8.390   0.231 -0.1836 -0.6638  0.1518
27892WAT      O13372   6.304  10.096   6.572  0.4483 -0.1042 -0.4082
27892WAT     H113373   6.235  10.162   6.562  0.1121 -0.6343 -1.7170
27892WAT     H213374   6.385  10.145   6.559  0.2144  0.1155 -1.0847
27892WAT    EPW13375   6.305  10.111   6.569  0.3731 -0.1450 -0.6700
27893WAT      O13376   4.217   7.529   3.315 -0.0797  0.1078 -0.2123
27893WAT     H113377   4.201   7.616   3.277 -0.0169  0.0358 -0.4064
27893WAT     H213378   4.142   7.515   3.373  0.3398  0.6497  0.4757
27893WAT    EPW13379   4.205   7.539   3.317 -0.0162  0.1700 -0.1471
27894WAT      O13380   8.370   0.900   0.376 -0.1611 -0.2703  0.6040
27894WAT     H113381   8.367   0.847   0.456 -2.0020 -0.6000  0.3634
27894WAT     H213382   8.410   0.983   0.403 -1.8228  0.0744  2.1633
27894WAT    EPW13383   8.375   0.904   0.390 -0.6232 -0.2683  0.7779
27895WAT      O13384   4.884   5.317   4.225  0.7145 -0.3269  0.6351
27895WAT     H113385   4.859   5.312   4.132  0.7853  1.9512  0.4371
27895WAT     H213386   4.811   5.275   4.272 -0.7953  1.1279 -0.2898
27895WAT    EPW13387   4.871   5.310   4.219  0.5245  0.1655  0.4871
27896WAT      O13388   5.104   1.127   1.496  0.5178 -0.0069  0.0343
27896WAT     H113389   5.063   1.202   1.539 -0.2262  1.3698 -2.7868
27896WAT     H213390   5.117   1.157   1.405  1.3900 -2.8687 -0.8763
27896WAT    EPW13391   5.100   1.141   1.489  0.5348 -0.2027 -0.4579
27897WAT      O13392   8.530   0.092   1.681 -0.4395  0.1612  0.5153
27897WAT     H113393   8.590   0.022   1.706 -0.6479 -0.0063  0.5575
27897WAT     H213394   8.501   0.068   1.593  0.2129  0.6944  0.1444
27897WAT    EPW13395   8.534   0.079   1.672 -0.3810  0.2095  0.4719
27898WAT      O13396  10.781   0.736   3.056  0.2298  0.8438  0.1337
27898WAT     H113397  10.814   0.798   2.991  1.7287  0.3880  0.4353
27898WAT     H213398  10.728   0.790   3.115  1.6945  1.9132  0.5235
27898WAT    EPW13399  10.778   0.751   3.055  0.6208  0.9248  0.2249
27899WAT      O13400   7.669   7.906   3.861  0.8131  0.3174 -0.6342
27899WAT     H113401   7.635   7.963   3.929 -1.0893  0.9161 -1.9907
27899WAT     H213402   7.713   7.965   3.800 -0.5787  0.3153 -1.6964
27899WAT    EPW13403   7.670   7.921   3.862  0.3786  0.3960 -0.9532
27900WAT      O13404   6.700   8.591   6.004  0.6070 -0.6061  0.0687
27900WAT     H113405   6.791   8.605   5.979  0.4933 -0.8221 -0.4798
27900WAT     H213406   6.685   8.498   5.988 -0.3080 -0.1810 -1.8704
27900WAT    EPW13407   6.710   8.581   5.999  0.4714 -0.5789 -0.2596
27901WAT      O13408   6.344   8.165   3.497 -0.8140  0.3602  0.0445
27901WAT     H113409   6.266   8.163   3.442 -0.5911 -0.1928 -0.2587
27901WAT     H213410   6.316   8.128   3.581 -1.8591  3.5667  1.2947
27901WAT    EPW13411   6.330   8.160   3.501 -0.9224  0.7100  0.1694
27902WAT      O13412   2.998   8.664   2.331  0.0552 -0.3520 -0.0498
27902WAT     H113413   2.979   8.571   2.324 -0.2120 -0.3188  0.1775
27902WAT     H213414   3.089   8.673   2.304 -0.2197 -0.5358 -1.1017
27902WAT    EPW13415   3.007   8.653   2.326 -0.0162 -0.3719 -0.1585
27903WAT      O13416   3.584   6.978   3.003 -0.1749  0.4118 -0.1104
27903WAT     H113417   3.523   6.914   3.039 -0.9988  1.0746 -0.3014
27903WAT     H213418   3.639   7.002   3.077 -0.8441  0.6038  0.3319
27903WAT    EPW13419   3.584   6.973   3.018 -0.3719  0.5245 -0.0772
27904WAT      O13420   4.767   7.765   5.184  0.2614  0.7907 -0.1373
27904WAT     H113421   4.748   7.755   5.278  3.0051 -1.8408  0.2636
27904WAT     H213422   4.862   7.758   5.178  0.2442  1.9823 -3.0674
27904WAT    EPW13423   4.777   7.763   5.196  0.6208  0.6011 -0.4709
27905WAT      O13424   0.933   0.061   1.751  0.3823 -0.3372 -0.2108
27905WAT     H113425   0.940   0.036   1.843 -0.3087 -0.5021 -0.1992
27905WAT     H213426   0.945  -0.021   1.703 -1.4871 -0.6672 -0.1856
27905WAT    EPW13427   0.935   0.047   1.757  0.0446 -0.4024 -0.2059
27906WAT      O13428   4.880   3.421   1.678 -0.2008  0.2276 -0.4251
27906WAT     H113429   4.975   3.410   1.689 -0.3137 -1.9715 -1.1384
27906WAT     H213430   4.849   3.334   1.653 -2.4318  0.8946 -0.1782
27906WAT    EPW13431   4.889   3.408   1.676 -0.5100  0.0255 -0.4867
27907WAT      O13432   5.909   9.525   1.175  0.0543 -0.3242 -0.1179
27907WAT     H113433   5.852   9.452   1.198 -0.5246  0.7454  2.1493
27907WAT     H213434   5.853   9.602   1.181  1.2181  0.5411  0.0573
27907WAT    EPW13435   5.894   9.525   1.179  0.1314 -0.0691  0.2041
27908WAT      O13436   8.974   0.462   3.232 -0.6662  0.5955 -0.0047
27908WAT     H113437   9.054   0.431   3.190 -0.7929  1.2423 -0.7570
27908WAT     H213438   8.945   0.389   3.286  1.2866  0.9122  1.5651
27908WAT    EPW13439   8.981   0.448   3.233 -0.4253  0.7226  0.1031
27909WAT      O13440   3.876   5.711   2.201 -0.1555  0.0929  0.0790
27909WAT     H113441   3.796   5.694   2.151 -0.7201  0.0856  0.9482
27909WAT     H213442   3.924   5.775   2.149 -1.1507  0.7644 -0.0571
27909WAT    EPW13443   3.872   5.717   2.187 -0.3612  0.1805  0.1756
27910WAT      O13444   5.604  10.281   2.143  0.4655  0.2266 -0.2214
27910WAT     H113445   5.561  10.363   2.122 -1.3146  0.1309  2.4772
27910WAT     H213446   5.661  10.263   2.068 -0.5960  2.8533 -1.7851
27910WAT    EPW13447   5.606  10.289   2.130  0.0906  0.5612 -0.0716
27911WAT      O13448   5.180   5.537   0.505 -0.4149  0.0020  0.2315
27911WAT     H113449   5.267   5.532   0.545 -0.7259  0.5100  0.9829
27911WAT     H213450   5.181   5.617   0.453  0.3624 -1.2145 -1.7250
27911WAT    EPW13451   5.192   5.547   0.504 -0.3536 -0.0911  0.0726
27912WAT      O13452   8.184   8.168   0.566 -0.0695  0.1134  0.2161
27912WAT     H113453   8.108   8.205   0.521 -2.1887 -4.4130 -0.4820
27912WAT     H213454   8.159   8.166   0.658 -1.1081 -1.7315 -0.0585
27912WAT    EPW13455   8.170   8.173   0.572 -0.4859 -0.7272  0.0878
27913WAT      O13456   4.074   7.837   3.666  0.2793  0.0083 -0.3685
27913WAT     H113457   3.992   7.810   3.625 -1.2188 -0.6906  2.8069
27913WAT     H213458   4.058   7.926   3.695 -1.3335 -1.5447  4.3692
27913WAT    EPW13459   4.061   7.845   3.664 -0.1311 -0.2887  0.6753
27914WAT      O13460   3.174   6.943   1.253  0.3826  0.0136  0.6867
27914WAT     H113461   3.131   6.967   1.335 -2.0042  1.5037 -0.8635
27914WAT     H213462   3.267   6.958   1.269  0.2479 -1.6417  3.6717
27914WAT    EPW13463   3.180   6.948   1.266  0.0499 -0.0083  0.8760
27915WAT      O13464   4.042   7.543   4.575  0.1032  0.2090 -0.2232
27915WAT     H113465   3.984   7.531   4.650 -0.5192  2.0827 -0.3412
27915WAT     H213466   4.101   7.614   4.602  1.7855 -1.0179 -0.4592
27915WAT    EPW13467   4.042   7.551   4.589  0.2427  0.2944 -0.2699
27916WAT      O13468   4.623   8.398   6.019 -0.3882 -0.5930 -0.4115
27916WAT     H113469   4.645   8.318   5.972 -3.6718 -1.5218 -0.6006
27916WAT     H213470   4.573   8.369   6.095  0.5262  1.1840  0.9658
27916WAT    EPW13471   4.620   8.384   6.023 -0.7005 -0.4811 -0.2546
27917WAT      O13472   1.882   4.667   0.125  1.0673 -0.0805  0.5475
27917WAT     H113473   1.938   4.691   0.052  1.4876 -1.2637  0.4700
27917WAT     H213474   1.826   4.744   0.138  1.7757  0.5902 -0.2482
27917WAT    EPW13475   1.882   4.680   0.117  1.2161 -0.1481  0.4323
27918WAT      O13476   6.148   8.693   4.752  0.2593 -0.9608  0.6940
27918WAT     H113477   6.065   8.683   4.705  0.0446  1.8020  0.3116
27918WAT     H213478   6.127   8.672   4.843 -1.2385  0.9251  0.8462
27918WAT    EPW13479   6.134   8.688   4.758  0.0334 -0.3471  0.6635
27919WAT      O13480   5.052   7.069   4.453  0.5880  0.5167 -0.0226
27919WAT     H113481   5.128   7.093   4.505  0.7323 -2.0005  1.0724
27919WAT     H213482   5.063   7.115   4.370  3.4558  0.0468  0.0224
27919WAT    EPW13483   5.063   7.078   4.449  0.9851  0.1225  0.1278
27920WAT      O13484   5.070   9.881   1.813  0.6055 -0.4971  0.5097
27920WAT     H113485   5.095   9.841   1.730  1.3153  1.4948 -0.2933
27920WAT     H213486   5.045   9.970   1.791 -2.2022 -0.7920  2.0564
27920WAT    EPW13487   5.070   9.888   1.799  0.3288 -0.2732  0.6077
27921WAT      O13488   1.205   0.367   0.575  0.3248  0.5883  0.2104
27921WAT     H113489   1.149   0.291   0.590  1.0651  0.5008  3.0162
27921WAT     H213490   1.172   0.434   0.634  0.2574  2.2134 -1.5624
27921WAT    EPW13491   1.193   0.365   0.585  0.4135  0.7911  0.3467
27922WAT      O13492   6.651   5.084   1.134 -0.0037 -0.6446  0.0459
27922WAT     H113493   6.586   5.024   1.169 -0.1607  0.0867  1.0500
27922WAT     H213494   6.601   5.147   1.083 -0.2278  0.4200  1.5099
27922WAT    EPW13495   6.636   5.084   1.132 -0.0539 -0.4077  0.3715
27923WAT      O13496   4.537   7.488   1.607  0.6402  0.4223  0.1680
27923WAT     H113497   4.553   7.581   1.590 -0.0869  1.0022  2.2682
27923WAT     H213498   4.445   7.483   1.632  0.0593 -1.2576 -2.0097
27923WAT    EPW13499   4.527   7.500   1.608  0.4678  0.2770  0.1578
27924WAT      O13500   9.520   0.056   1.716  0.1290 -0.2723 -0.5939
27924WAT     H113501   9.547   0.095   1.633 -0.5081  2.5743  0.4249
27924WAT     H213502   9.490   0.130   1.769 -0.2554 -2.0778  1.9029
27924WAT    EPW13503   9.520   0.071   1.712 -0.0057 -0.1350 -0.1302
27925WAT      O13504   4.992   6.388   2.233 -0.6131 -0.2447 -0.2140
27925WAT     H113505   4.943   6.315   2.270  0.1284 -0.3862  0.5008
27925WAT     H213506   5.065   6.347   2.187 -1.0776 -0.0269 -1.1786
27925WAT    EPW13507   4.995   6.373   2.232 -0.5767 -0.2346 -0.2469
27926WAT      O13508   6.014   6.350   2.506  0.5414  0.6619 -0.1644
27926WAT     H113509   6.000   6.258   2.531 -0.9675  0.8564 -0.2128
27926WAT     H213510   6.042   6.392   2.587 -1.1503  0.6256  0.4916
27926WAT    EPW13511   6.016   6.343   2.520  0.1192  0.6826 -0.0842
27927WAT      O13512   0.950   6.898   3.452  0.1769 -0.9718 -0.0617
27927WAT     H113513   0.949   6.921   3.359 -1.7798 -0.9926 -0.0788
27927WAT     H213514   0.977   6.806   3.454 -1.3103 -1.4463 -0.7620
27927WAT    EPW13515   0.953   6.889   3.440 -0.2773 -1.0369 -0.1563
27928WAT      O13516   1.140   4.833   2.854  0.5440  0.7786 -0.0920
27928WAT     H113517   1.212   4.876   2.809 -0.8426  0.5389 -2.7296
27928WAT     H213518   1.078   4.904   2.873  0.3259  0.6144 -0.1849
27928WAT    EPW13519   1.141   4.848   2.851  0.3323  0.7253 -0.4522
27929WAT      O13520   9.114   0.763   5.486 -0.0623  0.9174 -1.0110
27929WAT     H113521   9.201   0.731   5.510 -1.0362  0.4625  2.4214
27929WAT     H213522   9.128   0.854   5.461  1.1533  1.9607  2.8025
27929WAT    EPW13523   9.127   0.771   5.486 -0.0305  0.9950 -0.0553
27930WAT      O13524   5.362   7.211   5.529 -0.3231  0.0865  0.4087
27930WAT     H113525   5.317   7.286   5.489  0.0288  0.6538  1.0565
27930WAT     H213526   5.320   7.134   5.490 -0.0354  0.6219 -0.9997
27930WAT    EPW13527   5.350   7.211   5.519 -0.2389  0.2320  0.3083
27931WAT      O13528   6.270   7.097   2.514 -0.4769 -0.6681 -0.5352
27931WAT     H113529   6.357   7.058   2.515 -0.6179 -1.0198  1.5373
27931WAT     H213530   6.239   7.084   2.424  2.2323  0.9823 -1.8451
27931WAT    EPW13531   6.277   7.090   2.502 -0.1383 -0.4969 -0.4345
27932WAT      O13532   4.306   8.799   0.111 -0.3799 -0.3927 -0.8946
27932WAT     H113533   4.375   8.858   0.143 -1.1442  0.3267 -0.5282
27932WAT     H213534   4.346   8.712   0.112  1.8464  0.3749 -4.3082
27932WAT    EPW13535   4.321   8.795   0.115 -0.1867 -0.1965 -1.2965
27933WAT      O13536   5.411   7.911   2.067  0.0837  0.2857 -0.0378
27933WAT     H113537   5.355   7.982   2.098  2.3071  1.6572  1.1326
27933WAT     H213538   5.367   7.831   2.093 -1.0977  1.3182  1.2124
27933WAT    EPW13539   5.398   7.910   2.074  0.2210  0.6027  0.2813
27934WAT      O13540   6.265   3.849   1.003  0.0238 -0.5883  0.0741
27934WAT     H113541   6.239   3.878   0.916 -1.0933  1.9111  1.1405
27934WAT     H213542   6.184   3.816   1.042  0.1211 -0.0489  0.7461
27934WAT    EPW13543   6.251   3.849   0.997 -0.1109 -0.1874  0.3034
27935WAT      O13544   1.356   6.396   8.709  0.3201 -0.0614 -0.3173
27935WAT     H113545   1.352   6.371   8.616 -0.3037 -2.5781  0.3109
27935WAT     H213546   1.439   6.361   8.740  1.0213  1.6815 -0.1122
27935WAT    EPW13547   1.366   6.388   8.701  0.3303 -0.1636 -0.2084
27936WAT      O13548   4.715   8.834   3.075 -0.5089  0.1635  1.0334
27936WAT     H113549   4.806   8.860   3.059 -0.1419 -1.0332  1.0646
27936WAT     H213550   4.681   8.900   3.134 -0.4592  2.0955 -0.9683
27936WAT    EPW13551   4.723   8.846   3.080 -0.4539  0.2604  0.7737
27937WAT      O13552   5.630   7.331   2.928  0.3060  0.1264 -0.0525
27937WAT     H113553   5.545   7.301   2.896  1.0649 -1.3119 -0.8428
27937WAT     H213554   5.693   7.294   2.866  1.5291  0.8946  0.6942
27937WAT    EPW13555   5.627   7.322   2.916  0.5674  0.0381 -0.0583
27938WAT      O13556  10.189   0.227   2.203 -0.0184 -0.1627 -0.6252
27938WAT     H113557  10.211   0.227   2.296 -1.8615  0.5834 -0.1353
27938WAT     H213558  10.255   0.172   2.162  0.8119 -0.5308  1.1291
27938WAT    EPW13559  10.200   0.220   2.210 -0.1516 -0.1128 -0.3293
27939WAT      O13560   9.235   6.668   2.867  0.5827  0.5976 -0.1277
27939WAT     H113561   9.265   6.601   2.928 -1.7876 -0.1214  0.3184
27939WAT     H213562   9.287   6.653   2.788 -0.0312 -1.9311 -0.1277
27939WAT    EPW13563   9.246   6.657   2.864  0.1888  0.1693 -0.0689
27940WAT      O13564   3.925   7.981   2.281 -1.0911  0.2584  0.0561
27940WAT     H113565   3.879   7.906   2.244  0.6304 -1.3582  0.9878
27940WAT     H213566   4.011   7.980   2.238 -0.5783  0.8789  1.0153
27940WAT    EPW13567   3.930   7.971   2.271 -0.7963  0.1268  0.3054
27941WAT      O13568   4.392   6.668   2.758  0.0220  0.4659 -0.1618
27941WAT     H113569   4.354   6.583   2.776 -0.7742  0.8834  0.1375
27941WAT     H213570   4.408   6.707   2.844  2.5563 -0.2938 -0.1995
27941WAT    EPW13571   4.389   6.662   2.771  0.2513  0.4208 -0.1273
27942WAT      O13572   4.283   2.633   1.932 -0.4345 -0.3244 -0.2561
27942WAT     H113573   4.189   2.651   1.942  0.1379  2.9343  0.3682
27942WAT     H213574   4.317   2.637   2.022  0.5911  0.6062 -0.6762
27942WAT    EPW13575   4.275   2.636   1.945 -0.2236  0.2282 -0.2291
27943WAT      O13576   9.400   7.133   2.623 -0.5915 -0.2342  1.2099
27943WAT     H113577   9.480   7.155   2.574 -2.0152  0.2498 -1.0417
27943WAT     H213578   9.432   7.096   2.705  1.9534 -0.0919  0.3779
27943WAT    EPW13579   9.415   7.131   2.627 -0.4435 -0.1516  0.8034
27944WAT      O13580   2.871   8.240   3.660 -0.0896 -0.3629 -0.4158
27944WAT     H113581   2.934   8.194   3.605 -1.3819 -0.9613 -1.4311
27944WAT     H213582   2.787   8.198   3.642 -0.8513  0.6188  0.6709
27944WAT    EPW13583   2.868   8.229   3.651 -0.3606 -0.3123 -0.4064
27945WAT      O13584   4.644   8.669   2.206  0.3923 -0.0998  0.8032
27945WAT     H113585   4.555   8.692   2.178  0.6854 -0.8598 -0.8571
27945WAT     H213586   4.682   8.752   2.233 -0.8333  0.2282  1.5965
27945WAT    EPW13587   4.637   8.683   2.206  0.2692 -0.1564  0.6888
27946WAT      O13588   4.655   8.364   2.328  0.0561 -0.3994 -0.2142
27946WAT     H113589   4.723   8.319   2.378  1.8393  1.8994 -0.3779
27946WAT     H213590   4.646   8.449   2.371 -0.4621  0.5230 -2.0355
27946WAT    EPW13591   4.663   8.369   2.340  0.2229  0.0253 -0.4760
27947WAT      O13592   4.301   7.081   0.151 -0.6923 -0.1074 -0.6744
27947WAT     H113593   4.334   7.090   0.240 -2.4151  0.8900 -0.0961
27947WAT     H213594   4.213   7.044   0.161 -1.2718  0.8645 -1.8709
27947WAT    EPW13595   4.294   7.077   0.164 -0.9959  0.1526 -0.7559
27948WAT      O13596   3.477   7.780   0.120 -0.6415  0.2885 -0.3373
27948WAT     H113597   3.550   7.755   0.063 -2.0476 -1.5554 -1.4643
27948WAT     H213598   3.465   7.874   0.105 -0.4906  0.0018 -2.5831
27948WAT    EPW13599   3.485   7.789   0.110 -0.8070  0.0074 -0.7821
27949WAT      O13600   6.398   1.808   1.130  0.0969  0.0914 -0.1852
27949WAT     H113601   6.321   1.861   1.153 -0.6582 -0.3559 -1.5678
27949WAT     H213602   6.473   1.861   1.159 -0.6894  1.2312 -0.1664
27949WAT    EPW13603   6.398   1.822   1.137 -0.1063  0.1827 -0.3651
27950WAT      O13604   6.536   9.839   3.814 -0.0916  0.4327 -0.7284
27950WAT     H113605   6.523   9.813   3.905  1.7677  1.2083 -0.1915
27950WAT     H213606   6.513   9.932   3.813 -0.8973  0.2341 -1.2511
27950WAT    EPW13607   6.532   9.848   3.826  0.0474  0.5088 -0.7267
27951WAT      O13608   1.691   4.632   8.155  0.1207 -0.6998 -0.0608
27951WAT     H113609   1.684   4.579   8.076  1.7658 -1.4542  0.2375
27951WAT     H213610   1.765   4.594   8.202 -1.2855 -0.7600  2.2288
27951WAT    EPW13611   1.700   4.620   8.151  0.1523 -0.8070  0.2809
27952WAT      O13612   7.437   2.058   5.032 -0.0503  1.0482 -0.6529
27952WAT     H113613   7.442   2.147   4.999  0.1331  0.6881 -1.6175
27952WAT     H213614   7.344   2.036   5.027 -0.3096  1.6614  0.9173
27952WAT    EPW13615   7.425   2.067   5.027 -0.0603  1.0816 -0.5732
27953WAT      O13616   4.037   6.960   2.986 -0.5761  0.2279  0.3957
27953WAT     H113617   3.976   6.979   3.057 -2.0209 -4.7308  0.8355
27953WAT     H213618   3.981   6.926   2.915  1.3096 -0.3417 -0.9011
27953WAT    EPW13619   4.022   6.958   2.986 -0.5178 -0.5014  0.2828
27954WAT      O13620   5.456   7.362   3.356  0.5174  0.5042  0.2616
27954WAT     H113621   5.413   7.293   3.407 -0.0722 -2.1073 -3.3723
27954WAT     H213622   5.534   7.384   3.407 -0.8719 -0.5600  3.0663
27954WAT    EPW13623   5.460   7.355   3.369  0.2565  0.0193  0.1523
27955WAT      O13624   7.743   6.466   1.653 -0.2713  0.3291 -0.0357
27955WAT     H113625   7.659   6.441   1.614  0.1728  0.8217 -1.3798
27955WAT     H213626   7.728   6.554   1.688 -1.0254 -0.5963  2.1154
27955WAT    EPW13627   7.730   6.475   1.652 -0.3121  0.2716  0.0708
27956WAT      O13628   4.278   9.479   0.993  0.3164 -0.1189 -0.3073
27956WAT     H113629   4.355   9.438   1.033  0.2138 -0.5187 -0.5125
27956WAT     H213630   4.220   9.498   1.067 -0.1946 -1.5400 -0.3167
27956WAT    EPW13631   4.280   9.476   1.008  0.2356 -0.3595 -0.3356
27957WAT      O13632   4.906   6.676   4.598 -0.0503  0.0732 -0.0353
27957WAT     H113633   4.991   6.646   4.630 -0.3982  0.0968  0.9601
27957WAT     H213634   4.856   6.694   4.677 -0.7885  0.6234 -0.6123
27957WAT    EPW13635   4.911   6.674   4.613 -0.1936  0.1488  0.0196
27958WAT      O13636   5.927   8.719   2.909  0.2362 -0.5084  0.1458
27958WAT     H113637   5.912   8.644   2.967 -0.3520 -1.2058 -0.8636
27958WAT     H213638   6.022   8.724   2.899  0.3297 -0.4985  1.0076
27958WAT    EPW13639   5.937   8.710   2.915  0.1709 -0.5989  0.1264
27959WAT      O13640   4.878   8.350   1.692 -0.7412  0.3328  0.2530
27959WAT     H113641   4.948   8.286   1.679  1.9741  2.8264  1.4402
27959WAT     H213642   4.805   8.298   1.725  1.2634 -2.1807  1.1582
27959WAT    EPW13643   4.878   8.335   1.694 -0.1187  0.3304  0.5289
27960WAT      O13644   6.833   8.744   4.547 -0.1750 -0.3439  0.0991
27960WAT     H113645   6.928   8.733   4.548 -0.1664 -0.3236  1.1549
27960WAT     H213646   6.812   8.776   4.635 -0.9925  1.1486 -0.6034
27960WAT    EPW13647   6.843   8.746   4.559 -0.2816 -0.1445  0.1457
27961WAT      O13648   3.859   6.136   2.852 -0.0666 -0.1710 -0.8254
27961WAT     H113649   3.774   6.156   2.813 -0.1258 -0.0066 -0.6086
27961WAT     H213650   3.905   6.220   2.853  0.4055 -0.4041 -1.6912
27961WAT    EPW13651   3.854   6.150   2.847 -0.0122 -0.1800 -0.9109
27962WAT      O13652   4.794  10.020   4.936 -0.2849 -0.1513  0.0442
27962WAT     H113653   4.805   9.936   4.980 -4.2217 -0.5144  0.7677
27962WAT     H213654   4.807  10.085   5.005  0.4634 -0.2941  0.0425
27962WAT    EPW13655   4.797  10.017   4.951 -0.7055 -0.2179  0.1395
27963WAT      O13656   4.138   8.102   1.901  0.1779 -0.3307  0.1214
27963WAT     H113657   4.116   8.026   1.956  1.1537 -1.4903 -1.0180
27963WAT     H213658   4.218   8.076   1.856  0.6088  1.4522 -0.2141
27963WAT    EPW13659   4.146   8.088   1.902  0.3633 -0.2484 -0.0731
27964WAT      O13660   3.714   6.178   3.918 -0.3623  0.5281 -0.2117
27964WAT     H113661   3.708   6.101   3.976  0.1618  0.8202  0.2359
27964WAT     H213662   3.643   6.236   3.947 -2.0221 -0.5693 -1.7771
27964WAT    EPW13663   3.704   6.175   3.929 -0.5120  0.4218 -0.3589
27965WAT      O13664   1.599   9.047   2.593  0.3588 -0.1296 -0.3298
27965WAT     H113665   1.506   9.052   2.569  0.3133  0.1605 -0.1054
27965WAT     H213666   1.604   9.090   2.679  0.4004 -1.7857  0.5343
27965WAT    EPW13667   1.587   9.054   2.601  0.3583 -0.3099 -0.1861
27966WAT      O13668   5.728   5.689   3.346 -0.1460  0.3315 -0.4494
27966WAT     H113669   5.781   5.626   3.297  1.7410  0.3487  1.3898
27966WAT     H213670   5.756   5.774   3.314 -0.4675  0.3024 -0.8099
27966WAT    EPW13671   5.739   5.692   3.335  0.0603  0.3297 -0.2543
27967WAT      O13672   4.317   9.647   2.439  0.6679  0.0799 -0.1933
27967WAT     H113673   4.230   9.608   2.445  1.1663 -1.2031 -0.8799
27967WAT     H213674   4.351   9.645   2.528  1.3909 -2.8810 -0.4231
27967WAT    EPW13675   4.310   9.641   2.451  0.8290 -0.4802 -0.3142
27968WAT      O13676   5.763   7.639   1.314 -0.1395  0.5507  0.5401
27968WAT     H113677   5.756   7.620   1.407  0.6368 -2.4894  0.1042
27968WAT     H213678   5.673   7.641   1.282 -0.4186 -2.9276  0.7149
27968WAT    EPW13679   5.750   7.636   1.322 -0.0739 -0.3090  0.5057
27969WAT      O13680   4.161   4.790   0.480  0.1332  0.4667 -0.3258
27969WAT     H113681   4.237   4.788   0.422 -0.6617  0.2510 -1.3720
27969WAT     H213682   4.126   4.701   0.476  2.2812 -0.8075  3.5403
27969WAT    EPW13683   4.167   4.778   0.472  0.3114  0.2699  0.0461
27970WAT      O13684   5.457   0.576   1.250  0.3811 -0.1411 -0.0870
27970WAT     H113685   5.453   0.654   1.306  0.7663  0.6634 -1.1456
27970WAT     H213686   5.367   0.561   1.222  0.1822 -0.5666  0.7620
27970WAT    EPW13687   5.445   0.584   1.254  0.4055 -0.0910 -0.1146
27971WAT      O13688   8.019   9.729   3.198  0.1270  0.0150  0.1732
27971WAT     H113689   8.048   9.662   3.137 -0.1446  1.3605 -1.5048
27971WAT     H213690   8.100   9.764   3.235  0.3674  0.0367 -0.3628
27971WAT    EPW13691   8.034   9.725   3.195  0.1230  0.1950 -0.1187
27972WAT      O13692   5.580   8.918   7.051  0.2850 -0.1191 -0.5914
27972WAT     H113693   5.659   8.965   7.079 -0.5846  0.9524  0.1819
27972WAT     H213694   5.509   8.959   7.102 -0.8988 -0.3875 -1.9668
27972WAT    EPW13695   5.581   8.930   7.061  0.0141 -0.0134 -0.6707
27973WAT      O13696   4.984   9.240   1.583  0.2624 -0.5673 -0.4284
27973WAT     H113697   4.913   9.226   1.646  0.7669 -1.7580 -0.1090
27973WAT     H213698   5.064   9.236   1.635  0.6604 -1.0474 -1.0677
27973WAT    EPW13699   4.985   9.238   1.599  0.3815 -0.7882 -0.4706
27974WAT      O13700   5.536   5.834   4.056  0.6772  0.6082  0.4171
27974WAT     H113701   5.507   5.885   3.980 -0.4448  1.3616  1.3037
27974WAT     H213702   5.573   5.898   4.116  0.3700  0.2148  1.0433
27974WAT    EPW13703   5.537   5.849   4.054  0.4888  0.6559  0.6166
27975WAT      O13704   9.538   6.740   0.142  0.1700 -0.3053  0.3579
27975WAT     H113705   9.633   6.754   0.141  0.2522 -0.8501  0.4392
27975WAT     H213706   9.503   6.818   0.187  0.6167 -0.3259  0.7530
27975WAT    EPW13707   9.546   6.752   0.148  0.2398 -0.3798  0.4208
27976WAT      O13708   5.000   9.485   3.305 -0.3392  0.1532  0.2107
27976WAT     H113709   4.963   9.419   3.247 -1.0225 -0.1497  0.9695
27976WAT     H213710   5.058   9.435   3.364  0.1092  0.4117 -0.0038
27976WAT    EPW13711   5.003   9.469   3.305 -0.3703  0.1469  0.2824
27977WAT      O13712   3.588   6.797   2.248 -0.1986 -0.5124 -0.4751
27977WAT     H113713   3.647   6.856   2.200  1.0997 -0.6826  0.8401
27977WAT     H213714   3.555   6.851   2.320  1.1694 -1.4196  0.8695
27977WAT    EPW13715   3.591   6.812   2.251  0.1529 -0.6545 -0.1243
27978WAT      O13716   6.283   1.815   0.820 -0.0599 -0.2383 -0.5941
27978WAT     H113717   6.218   1.884   0.803 -2.7951 -2.2002  1.0142
27978WAT     H213718   6.297   1.819   0.914  2.7139  0.4398 -0.9438
27978WAT    EPW13719   6.276   1.825   0.830 -0.0548 -0.4076 -0.4281
27979WAT      O13720   2.131  10.015   2.564 -0.2290 -0.3930  0.0301
27979WAT     H113721   2.164  10.056   2.484  0.8101  0.4175  0.8402
27979WAT     H213722   2.180   9.934   2.572  0.4414  0.0401  0.3931
27979WAT    EPW13723   2.142  10.010   2.554 -0.0036 -0.2294  0.1850
27980WAT      O13724   1.045   3.503   8.759 -0.3132 -0.8165  0.2540
27980WAT     H113725   0.962   3.519   8.715  0.3012  0.6755 -0.4164
27980WAT     H213726   1.020   3.468   8.845 -1.7822  1.8791  1.0556
27980WAT    EPW13727   1.030   3.501   8.765 -0.4259 -0.2642  0.2713
27981WAT      O13728   4.481   7.029   1.541  0.4105  0.7189 -0.1841
27981WAT     H113729   4.488   6.940   1.576 -0.5318  0.3796 -0.8213
27981WAT     H213730   4.567   7.047   1.504  1.2231  0.8207  1.6315
27981WAT    EPW13731   4.493   7.020   1.541  0.3932  0.6876 -0.0287
27982WAT      O13732   2.014   6.902   1.264 -0.8405 -0.5483 -0.3431
27982WAT     H113733   1.932   6.906   1.314  0.1865  1.5525  1.3729
27982WAT     H213734   2.013   6.983   1.212  0.6255  0.1406  0.6274
27982WAT    EPW13735   2.003   6.913   1.263 -0.5118 -0.1802  0.0113
27983WAT      O13736   5.646   5.793   0.874 -0.2316  0.1409 -0.3230
27983WAT     H113737   5.633   5.769   0.782  1.1065 -0.9870 -0.2516
27983WAT     H213738   5.563   5.770   0.916 -2.1778  3.8160 -1.7515
27983WAT    EPW13739   5.634   5.787   0.867 -0.3119  0.4768 -0.5020
27984WAT      O13740   5.544   7.896   3.167 -0.4240 -0.8110 -0.1924
27984WAT     H113741   5.533   7.924   3.076 -1.0118  1.1239  0.4105
27984WAT     H213742   5.464   7.847   3.186 -2.1000  1.8738  0.2669
27984WAT    EPW13743   5.532   7.893   3.157 -0.7229 -0.2015 -0.0523
27985WAT      O13744   8.347   0.791   0.120 -0.1693 -0.3376 -0.5298
27985WAT     H113745   8.301   0.829   0.195 -0.2757 -0.6216 -0.4500
27985WAT     H213746   8.282   0.791   0.049 -0.2220 -0.5264 -0.4818
27985WAT    EPW13747   8.332   0.796   0.120 -0.1907 -0.3999 -0.5130
27986WAT      O13748   0.347   6.089   8.590 -0.3454  0.3182 -0.0212
27986WAT     H113749   0.336   6.121   8.501  0.3818  2.4293  0.5971
27986WAT     H213750   0.431   6.042   8.588 -0.0453  0.8649 -0.3158
27986WAT    EPW13751   0.357   6.087   8.578 -0.2099  0.6688  0.0215
27987WAT      O13752   5.431  10.165   5.338  0.3297 -0.2679  0.0017
27987WAT     H113753   5.403  10.160   5.247  2.2575 -0.1262 -0.6381
27987WAT     H213754   5.526  10.156   5.335  0.4825  0.1569  1.9655
27987WAT    EPW13755   5.440  10.163   5.326  0.6042 -0.1936  0.1767
27988WAT      O13756   3.122   3.799   6.865  0.0487  0.0525  0.4991
27988WAT     H113757   3.103   3.892   6.849 -0.5990  0.3971  2.8522
27988WAT     H213758   3.134   3.762   6.778 -2.0274  1.8623 -0.6702
27988WAT    EPW13759   3.121   3.806   6.852 -0.3105  0.3365  0.6554
27989WAT      O13760   2.941   9.166   1.566  0.2802 -0.5304  0.2784
27989WAT     H113761   2.891   9.236   1.525  1.1599  0.7020  1.2605
27989WAT     H213762   2.882   9.128   1.631  0.5850  0.9514  1.4669
27989WAT    EPW13763   2.927   9.170   1.569  0.4364 -0.1721  0.5648
27990WAT      O13764   3.541   7.879   1.144 -0.3552  0.4650  0.9251
27990WAT     H113765   3.541   7.786   1.167  1.1929  0.4392  0.8792
27990WAT     H213766   3.621   7.913   1.182  1.3765  0.8527 -2.6616
27990WAT    EPW13767   3.551   7.871   1.152  0.0774  0.5126  0.4460
27991WAT      O13768   6.673   6.418   3.204  0.6119  0.2614 -0.0425
27991WAT     H113769   6.595   6.473   3.190 -0.4262 -1.4166 -1.2143
27991WAT     H213770   6.682   6.369   3.123  1.9052 -0.8264  0.7227
27991WAT    EPW13771   6.664   6.419   3.191  0.6454 -0.1032 -0.0961
27992WAT      O13772   7.817   1.370   3.413  0.7592 -0.0986 -0.3447
27992WAT     H113773   7.910   1.350   3.402  0.7011  0.3128 -1.6800
27992WAT     H213774   7.804   1.451   3.365  0.1842  1.1830  1.8453
27992WAT    EPW13775   7.828   1.378   3.406  0.6754  0.1247 -0.2321
27993WAT      O13776   5.248   8.611   2.971 -0.1436 -0.7046  0.4291
27993WAT     H113777   5.321   8.669   2.993 -2.1164  1.3590  2.0071
27993WAT     H213778   5.233   8.559   3.049  0.7820 -2.5203 -0.5438
27993WAT    EPW13779   5.255   8.612   2.984 -0.2818 -0.6714  0.5089
27994WAT      O13780  10.389   0.854   2.597  0.3127 -0.1732 -0.1305
27994WAT     H113781  10.373   0.939   2.637  1.4954  0.3080 -0.6290
27994WAT     H213782  10.386   0.871   2.503 -0.2818 -0.8664 -0.2513
27994WAT    EPW13783  10.386   0.868   2.590  0.3901 -0.2011 -0.2122
27995WAT      O13784   4.826  10.184   0.332 -0.0180 -0.2144 -0.1839
27995WAT     H113785   4.909  10.161   0.291 -0.0744 -1.2041  0.2223
27995WAT     H213786   4.766  10.201   0.259  0.7001  1.1117 -0.4701
27995WAT    EPW13787   4.829  10.183   0.317  0.0694 -0.1698 -0.1681
27996WAT      O13788   2.973   7.424   2.830  0.7547  0.5652  0.3525
27996WAT     H113789   2.883   7.395   2.814  0.9940 -0.2304  0.3903
27996WAT     H213790   3.027   7.357   2.788  1.3571 -0.1002  2.0628
27996WAT    EPW13791   2.968   7.411   2.823  0.8657  0.3726  0.5831
27997WAT      O13792   4.484   4.327   3.421 -0.1495  1.1400  0.4621
27997WAT     H113793   4.550   4.325   3.491 -0.7546 -1.6731  1.0405
27997WAT     H213794   4.423   4.257   3.443  0.6290 -1.2133 -3.8109
27997WAT    EPW13795   4.485   4.318   3.433 -0.1266  0.4587 -0.0250
27998WAT      O13796   3.293   6.076   5.935  0.5811 -0.0316  0.8098
27998WAT     H113797   3.330   6.103   5.851  0.9259  0.7293  1.1939
27998WAT     H213798   3.254   6.156   5.970 -0.7065 -0.6271  0.7958
27998WAT    EPW13799   3.293   6.090   5.928  0.4568 -0.0098  0.8585
27999WAT      O13800   5.502   9.715   2.764  0.1563 -0.5047 -0.6796
27999WAT     H113801   5.447   9.792   2.747  2.3502  1.2592 -0.2853
27999WAT     H213802   5.551   9.703   2.683  0.5776 -0.8432 -0.3766
27999WAT    EPW13803   5.501   9.724   2.751  0.5014 -0.3166 -0.5877
28000WAT      O13804   4.109   5.624   2.979  0.5409  0.1232 -0.6574
28000WAT     H113805   4.118   5.529   2.990  0.5513  0.1879 -0.0855
28000WAT     H213806   4.015   5.639   2.972  0.4880  0.1532  0.0604
28000WAT    EPW13807   4.098   5.613   2.979  0.5352  0.1354 -0.4873
28001WAT      O13808   9.063   0.093   0.773  0.2052 -0.0289 -0.5111
28001WAT     H113809   9.118   0.054   0.705  0.9286 -0.0090  0.0522
28001WAT     H213810   9.027   0.172   0.731 -0.3704 -0.6822 -1.2816
28001WAT    EPW13811   9.065   0.098   0.758  0.2246 -0.1124 -0.5385
28002WAT      O13812   4.938   6.980   2.078  0.1491 -0.2969  0.7692
28002WAT     H113813   5.023   6.991   2.036 -0.7586 -0.2828 -1.1515
28002WAT     H213814   4.919   6.887   2.071 -0.1423 -0.2518  0.9137
28002WAT    EPW13815   4.947   6.969   2.072 -0.0095 -0.2892  0.5348
28003WAT      O13816   7.049   7.276   1.903  0.3880  0.1684  0.3791
28003WAT     H113817   6.992   7.352   1.918  1.0319  1.3732 -2.5672
28003WAT     H213818   6.990   7.201   1.907 -1.2442  1.2732 -1.3863
28003WAT    EPW13819   7.034   7.276   1.906  0.2575  0.4730 -0.2424
28004WAT      O13820   2.460   5.710   1.410 -0.0050 -0.6403 -0.7032
28004WAT     H113821   2.462   5.615   1.421  0.2677 -0.5501  0.0541
28004WAT     H213822   2.523   5.727   1.339 -1.0504 -1.1326 -1.7902
28004WAT    EPW13823   2.469   5.699   1.402 -0.1070 -0.6931 -0.7467
28005WAT      O13824   7.914   0.423   3.135  0.4363  0.3268 -0.2246
28005WAT     H113825   7.968   0.375   3.197  1.2407  2.0277  0.4545
28005WAT     H213826   7.934   0.382   3.050 -1.0432 -2.3417  0.5963
28005WAT    EPW13827   7.924   0.411   3.132  0.3474  0.1992 -0.0268
28006WAT      O13828   5.769   0.084   2.823  0.7512 -0.2019 -0.3172
28006WAT     H113829   5.674   0.070   2.814  0.7657 -1.0436  0.6976
28006WAT     H213830   5.794   0.030   2.898  1.7874  1.1786  0.3535
28006WAT    EPW13831   5.760   0.075   2.832  0.8900 -0.1309 -0.0949
28007WAT      O13832   7.485   9.621   5.520  0.0326  0.5609 -0.3347
28007WAT     H113833   7.501   9.612   5.426  0.8244 -1.4616 -0.0561
28007WAT     H213834   7.566   9.658   5.554  1.6209 -2.8926  0.0770
28007WAT    EPW13835   7.497   9.624   5.512  0.3464 -0.1612 -0.2437
28008WAT      O13836   1.827   7.240   0.975  0.1884  0.2099  0.2367
28008WAT     H113837   1.901   7.241   1.035  0.5572 -0.0634 -0.2113
28008WAT     H213838   1.799   7.331   0.970 -0.1317  0.1741  1.1704
28008WAT    EPW13839   1.833   7.252   0.982  0.1947  0.1693  0.3007
28009WAT      O13840   9.029   1.381   1.515 -0.3127  0.0844  0.4485
28009WAT     H113841   8.973   1.371   1.592 -0.9628  0.7489  0.0766
28009WAT     H213842   8.979   1.438   1.456 -0.8178 -2.1019 -1.3984
28009WAT    EPW13843   9.015   1.387   1.517 -0.4649 -0.1163  0.1559
28010WAT      O13844   4.978   9.766   0.855  0.0252  0.4657 -0.1754
28010WAT     H113845   4.937   9.691   0.899  0.6004 -3.3051 -5.1117
28010WAT     H213846   5.070   9.743   0.851  0.1882  1.3083 -2.0057
28010WAT    EPW13847   4.984   9.753   0.860  0.1225  0.0796 -1.0679
28011WAT      O13848   7.055   7.495   4.923  0.3707  0.4957 -0.4516
28011WAT     H113849   7.020   7.583   4.936 -0.6602  0.1091 -0.5465
28011WAT     H213850   7.126   7.506   4.860  1.5737  1.5382  1.0164
28011WAT    EPW13851   7.060   7.508   4.916  0.3939  0.5820 -0.2706
28012WAT      O13852   3.556   7.376   2.135  0.1935  0.3771  0.0449
28012WAT     H113853   3.626   7.336   2.083 -0.1066  0.7418 -0.6518
28012WAT     H213854   3.581   7.358   2.226  2.4760  2.5140 -0.0419
28012WAT    EPW13855   3.569   7.368   2.140  0.4548  0.7074 -0.0584
28013WAT      O13856   1.220   8.038   4.402 -0.3417  0.5016 -0.2904
28013WAT     H113857   1.290   7.973   4.408  0.1011  0.8840 -1.1362
28013WAT     H213858   1.218   8.062   4.310 -1.6817  0.4146 -0.2959
28013WAT    EPW13859   1.229   8.033   4.391 -0.4600  0.5403 -0.4027
28014WAT      O13860   2.570   1.550   8.673  0.6779 -0.7535 -0.2066
28014WAT     H113861   2.610   1.637   8.664  2.8006 -1.8135 -2.0006
28014WAT     H213862   2.481   1.568   8.702  1.1660  2.0017 -0.1179
28014WAT    EPW13863   2.564   1.564   8.675  1.0222 -0.5299 -0.4315
28015WAT      O13864   6.767   7.382   4.315  0.6920 -0.2700  0.3359
28015WAT     H113865   6.686   7.337   4.294  0.2115 -0.0814  1.6726
28015WAT     H213866   6.748   7.475   4.301  0.6676 -0.2235  0.6719
28015WAT    EPW13867   6.754   7.388   4.311  0.6254 -0.2389  0.5565
28016WAT      O13868   4.563   7.927   4.271 -0.1454 -0.5645 -0.0919
28016WAT     H113869   4.523   8.012   4.258 -1.3436 -0.9107  1.0568
28016WAT     H213870   4.508   7.885   4.338  1.1033 -1.7672  0.2238
28016WAT    EPW13871   4.550   7.932   4.278 -0.1388 -0.7687  0.1013
28017WAT      O13872   3.531   8.376   1.944  0.1199  0.1332  0.2981
28017WAT     H113873   3.566   8.400   2.030 -1.6182  0.2816  1.0008
28017WAT     H213874   3.582   8.300   1.918  1.9511  1.2130  0.5736
28017WAT    EPW13875   3.542   8.369   1.952  0.1321  0.2952  0.4272
28018WAT      O13876   7.045  10.228   4.980 -0.2963 -0.0875 -0.1899
28018WAT     H113877   7.118  10.286   4.997 -0.0608 -0.6140  0.6637
28018WAT     H213878   7.034  10.229   4.884 -0.8121  1.9521 -0.1450
28018WAT    EPW13879   7.053  10.236   4.969 -0.3333  0.1121 -0.0713
28019WAT      O13880   3.168   6.705   0.026  0.0450  0.0689 -0.5106
28019WAT     H113881   3.167   6.617  -0.013 -1.2604 -0.1188 -0.1098
28019WAT     H213882   3.106   6.699   0.099  1.7752  0.6473  1.0812
28019WAT    EPW13883   3.159   6.692   0.030  0.1010  0.1202 -0.2478
28020WAT      O13884   6.596   5.405   2.529 -0.4802  0.9175  0.4955
28020WAT     H113885   6.638   5.445   2.605 -0.5717  3.7391 -0.8124
28020WAT     H213886   6.668   5.385   2.469 -0.5522  0.3513  0.5935
28020WAT    EPW13887   6.611   5.407   2.531 -0.5016  1.2150  0.3359
28021WAT      O13888   7.205   8.677   1.103 -0.0741 -0.2423 -0.3826
28021WAT     H113889   7.139   8.745   1.115 -1.5596 -1.9768  2.2953
28021WAT     H213890   7.278   8.704   1.159 -1.2733 -1.4351  1.9027
28021WAT    EPW13891   7.206   8.690   1.112 -0.4282 -0.6285  0.2720
28022WAT      O13892   2.789   5.608   0.922 -0.5386  0.1233  0.2917
28022WAT     H113893   2.826   5.685   0.879 -0.2309 -0.3640 -0.3208
28022WAT     H213894   2.865   5.560   0.954 -0.4385 -1.7653 -2.4423
28022WAT    EPW13895   2.804   5.612   0.921 -0.4848 -0.1898 -0.1497
28023WAT      O13896   4.407   6.168   4.493 -0.0314 -0.0819  0.6245
28023WAT     H113897   4.498   6.192   4.510 -0.0473  0.6065 -0.1762
28023WAT     H213898   4.357   6.248   4.511 -0.3141 -0.0540 -0.2238
28023WAT    EPW13899   4.412   6.181   4.498 -0.0710  0.0124  0.4070
28024WAT      O13900   2.988   7.473   3.478 -0.2855  0.2339  0.1757
28024WAT     H113901   2.989   7.467   3.383  0.3444 -0.1036  0.1998
28024WAT     H213902   2.972   7.383   3.508  1.4989 -0.0470  0.4105
28024WAT    EPW13903   2.986   7.460   3.470  0.0328  0.1523  0.2098
28025WAT      O13904   5.855   1.962   0.744  0.1004  0.4167  0.1237
28025WAT     H113905   5.810   1.963   0.829  0.1870  0.6041  0.1673
28025WAT     H213906   5.833   1.877   0.707 -0.1967  0.4593  0.1977
28025WAT    EPW13907   5.846   1.951   0.751  0.0725  0.4471  0.1393
28026WAT      O13908   2.416   9.782   2.807 -0.3311 -1.0216  0.5306
28026WAT     H113909   2.330   9.772   2.848 -0.2955  0.3426  0.9990
28026WAT     H213910   2.431   9.698   2.763  0.4579 -3.3693  4.7684
28026WAT    EPW13911   2.406   9.770   2.807 -0.2222 -1.1516  1.1512
28027WAT      O13912   7.043   4.821   1.961  0.4081 -0.1556  0.4696
28027WAT     H113913   7.093   4.807   2.041  0.9540 -0.9370  0.0112
28027WAT     H213914   7.089   4.891   1.915  0.4085 -0.0831  0.5802
28027WAT    EPW13915   7.055   4.828   1.965  0.4802 -0.2491  0.4237
28028WAT      O13916   9.312   1.088   4.143  0.1755 -0.1224 -0.4325
28028WAT     H113917   9.305   1.176   4.107 -3.2076 -0.7976 -1.8673
28028WAT     H213918   9.385   1.048   4.095  0.0828  1.1136 -1.6631
28028WAT    EPW13919   9.320   1.094   4.132 -0.2828 -0.0484 -0.7842
28029WAT      O13920   4.659   9.433   3.662 -0.0014 -0.2056 -0.7842
28029WAT     H113921   4.694   9.501   3.605 -1.3950  0.3561 -1.0076
28029WAT     H213922   4.728   9.367   3.666  1.5039  1.3202 -0.3627
28029WAT    EPW13923   4.673   9.433   3.655  0.0134  0.0696 -0.7581
28030WAT      O13924   5.750   8.189   3.987  0.0602 -0.3051  0.1130
28030WAT     H113925   5.763   8.170   4.080  0.1141 -3.9812 -0.5038
28030WAT     H213926   5.662   8.226   3.983  1.2145  3.0679  1.8515
28030WAT    EPW13927   5.740   8.192   3.999  0.2198 -0.3452  0.2608
28031WAT      O13928   4.261   5.579   2.104  0.9272  0.1659  0.3337
28031WAT     H113929   4.311   5.534   2.172 -0.2644  0.3452  1.3538
28031WAT     H213930   4.189   5.519   2.083  0.9574  0.3647 -0.3582
28031WAT    EPW13931   4.258   5.565   2.110  0.7741  0.2160  0.3769
28032WAT      O13932   1.302   3.888   8.838  0.2783  0.1053  0.8435
28032WAT     H113933   1.337   3.823   8.776 -1.7821 -0.3452  0.0780
28032WAT     H213934   1.243   3.942   8.785  0.8257  1.6963  1.7976
28032WAT    EPW13935   1.299   3.886   8.823  0.0787  0.2557  0.8683
28033WAT      O13936   3.513   8.348   2.648 -0.1596  0.1480 -0.1989
28033WAT     H113937   3.460   8.303   2.713  0.6628  0.7535  0.9152
28033WAT     H213938   3.604   8.329   2.672  0.1565  0.0939 -1.3770
28033WAT    EPW13939   3.518   8.340   2.659 -0.0094  0.2213 -0.2072
28034WAT      O13940   1.702   6.149   2.607  0.5774  0.4243 -0.3716
28034WAT     H113941   1.710   6.195   2.690 -0.1067 -0.1831  0.0423
28034WAT     H213942   1.724   6.058   2.628  0.2481  0.2376 -0.8241
28034WAT    EPW13943   1.706   6.143   2.621  0.4437  0.3195 -0.3766
28035WAT      O13944   7.157   8.062   2.287  0.0973 -0.1514  0.6402
28035WAT     H113945   7.100   8.014   2.347 -4.5162  0.5634 -2.5594
28035WAT     H213946   7.104   8.139   2.262  3.4372  1.7716 -1.1799
28035WAT    EPW13947   7.142   8.066   2.292 -0.0706  0.1960 -0.0219
28036WAT      O13948   4.309   7.001   6.099 -0.3706  0.1378  0.2462
28036WAT     H113949   4.369   6.984   6.173 -0.5165 -0.4095  0.2466
28036WAT     H213950   4.367   7.015   6.024 -0.2341 -0.4633  0.2318
28036WAT    EPW13951   4.325   7.000   6.099 -0.3717 -0.0138  0.2441
28037WAT      O13952   6.286   8.703   2.543 -0.1834 -0.1620 -0.8259
28037WAT     H113953   6.324   8.789   2.525  1.5980 -0.7235  0.0092
28037WAT     H213954   6.339   8.642   2.492  0.8845 -1.0823  1.2422
28037WAT    EPW13955   6.298   8.706   2.534  0.1926 -0.3576 -0.4429
28038WAT      O13956   1.936  10.244   1.976  0.5018  0.2714 -0.2740
28038WAT     H113957   1.898  10.228   1.889  1.0695  1.5196 -0.7715
28038WAT     H213958   1.990  10.167   1.993  0.7322  0.2146 -1.2170
28038WAT    EPW13959   1.938  10.231   1.967  0.6071  0.4282 -0.4641
28039WAT      O13960   2.013   1.023   8.113  0.2067  0.0616 -0.2694
28039WAT     H113961   2.077   1.059   8.174  0.5143 -1.0829  0.1195
28039WAT     H213962   1.930   1.062   8.140  0.4766  0.2483  0.3202
28039WAT    EPW13963   2.010   1.033   8.125  0.2829 -0.0647 -0.1402
28040WAT      O13964   4.559   6.724   2.526  0.0418 -0.6049 -0.5164
28040WAT     H113965   4.522   6.809   2.504 -0.2964 -0.5976  0.0728
28040WAT     H213966   4.516   6.699   2.607  0.4161 -1.1687 -0.4850
28040WAT    EPW13967   4.549   6.732   2.534  0.0465 -0.6783 -0.4345
28041WAT      O13968   7.732   6.255   4.989  0.5803 -0.1845  0.2174
28041WAT     H113969   7.801   6.227   5.049  1.2196  0.5211 -0.1789
28041WAT     H213970   7.770   6.247   4.902  1.4376  3.3429  0.0881
28041WAT    EPW13971   7.746   6.251   4.986  0.7777  0.3736  0.1483
28042WAT      O13972   4.439   8.353   2.619  0.0436  1.2060  0.2454
28042WAT     H113973   4.487   8.434   2.605 -1.4511  2.0613 -0.2368
28042WAT     H213974   4.358   8.364   2.568 -0.1844 -0.6027  0.1406
28042WAT    EPW13975   4.434   8.365   2.611 -0.1838  1.0805  0.1681
28043WAT      O13976   4.156   8.311   0.003 -0.4679 -0.3416  0.1324
28043WAT     H113977   4.064   8.287  -0.005 -0.6787  0.3170  0.5101
28043WAT     H213978   4.161   8.358   0.086  0.0523  0.3575 -0.2917
28043WAT    EPW13979   4.145   8.314   0.013 -0.4272 -0.1626  0.1264
28044WAT      O13980   0.890   9.707   2.664 -0.0113 -0.4108 -0.2094
28044WAT     H113981   0.842   9.738   2.740 -1.2148 -1.3314 -0.5533
28044WAT     H213982   0.827   9.715   2.592  1.9816  3.2648 -1.8129
28044WAT    EPW13983   0.875   9.712   2.664  0.0928 -0.0477 -0.4663
28045WAT      O13984   6.031   7.219   2.042  0.3110  0.1233  0.3222
28045WAT     H113985   6.051   7.234   1.950  1.2512 -0.4251  0.4216
28045WAT     H213986   6.078   7.288   2.089 -1.2899  1.2728  0.3392
28045WAT    EPW13987   6.040   7.230   2.036  0.2239  0.2027  0.3376
28046WAT      O13988   8.177   0.479   0.982  0.1077 -0.3821  0.0045
28046WAT     H113989   8.225   0.453   1.061  0.0114 -1.1525 -0.1749
28046WAT     H213990   8.241   0.468   0.912  0.4361  1.0666  0.0525
28046WAT    EPW13991   8.192   0.474   0.984  0.1378 -0.2927 -0.0128
28047WAT      O13992   3.790   8.059   3.976  0.0626  0.0686  0.9859
28047WAT     H113993   3.852   8.055   3.902 -0.1633  1.0192  0.7337
28047WAT     H213994   3.712   8.100   3.939 -1.5085 -2.8561  0.7897
28047WAT    EPW13995   3.788   8.064   3.961 -0.1745 -0.1917  0.9267
28048WAT      O13996   6.613   5.466   2.922 -0.2382 -0.9736  1.0777
28048WAT     H113997   6.698   5.426   2.941  0.1201 -0.0319  1.5249
28048WAT     H213998   6.605   5.537   2.986  1.3601  2.8928 -2.5778
28048WAT    EPW13999   6.623   5.470   2.933  0.0198 -0.3395  0.6547
28049WAT      O14000   6.507   7.363   6.018 -0.3024 -0.9998  0.5458
28049WAT     H114001   6.481   7.455   6.025 -0.7091 -0.7873 -2.3010
28049WAT     H214002   6.459   7.319   6.087  1.2917  1.1092  3.1801
28049WAT    EPW14003   6.497   7.369   6.028 -0.1457 -0.6936  0.5178
28050WAT      O14004   8.017   1.785   3.639  0.4180  0.2348 -0.3518
28050WAT     H114005   7.926   1.787   3.668  0.1719  0.5555 -1.1245
28050WAT     H214006   8.049   1.699   3.666  0.0601  0.3414  0.4283
28050WAT    EPW14007   8.009   1.774   3.647  0.3381  0.2911 -0.3510
28051WAT      O14008   5.794   7.368   6.767 -0.2826  0.2815  0.7649
28051WAT     H114009   5.881   7.372   6.808 -0.3593  1.0629  0.8755
28051WAT     H214010   5.800   7.430   6.694 -0.8737  0.6619  1.0304
28051WAT    EPW14011   5.806   7.377   6.763 -0.3705  0.4349  0.8144
28052WAT      O14012   4.596   6.434   1.849  0.1679  0.2233  0.0586
28052WAT     H114013   4.543   6.404   1.775  0.6712  2.4865 -1.3292
28052WAT     H214014   4.546   6.506   1.887  2.3201  2.8392 -1.6739
28052WAT    EPW14015   4.583   6.439   1.844  0.5183  0.8669 -0.3530
28053WAT      O14016   3.310   7.379   0.644  0.6526  0.2891 -0.1994
28053WAT     H114017   3.216   7.395   0.642  0.4558 -0.7950 -0.1433
28053WAT     H214018   3.320   7.290   0.611  1.6000  0.1353  0.4642
28053WAT    EPW14019   3.299   7.369   0.639  0.7515  0.1259 -0.1045
28054WAT      O14020   6.910   7.914   1.597 -0.8072 -0.3237  0.7118
28054WAT     H114021   6.826   7.873   1.616 -0.8652 -0.7226 -0.3311
28054WAT     H214022   6.962   7.844   1.557 -1.3838  0.8910 -2.4470
28054WAT    EPW14023   6.906   7.900   1.594 -0.8912 -0.2162  0.1577
28055WAT      O14024   3.860  10.046   2.297 -0.9027  0.2407  0.3782
28055WAT     H114025   3.896  10.134   2.303 -1.8469  0.5515  1.7243
28055WAT     H214026   3.937   9.989   2.301 -0.4425  0.9213  2.1188
28055WAT    EPW14027   3.875  10.050   2.298 -0.9664  0.3719  0.7852
28056WAT      O14028   5.482   7.300   1.289  0.1808 -0.1367  0.7914
28056WAT     H114029   5.574   7.311   1.265 -0.2447 -1.3130 -1.7515
28056WAT     H214030   5.482   7.236   1.360  1.2786 -0.9459  0.0774
28056WAT    EPW14031   5.494   7.293   1.295  0.2694 -0.3986  0.3618
28057WAT      O14032   8.839   7.150   3.351  0.2324  0.5448 -0.9269
28057WAT     H114033   8.749   7.118   3.349  0.4659 -0.9656  2.8963
28057WAT     H214034   8.872   7.137   3.262 -3.1390  0.7617 -2.3423
28057WAT    EPW14035   8.831   7.144   3.339 -0.1822  0.3746 -0.6094
28058WAT      O14036   5.283   8.182   1.020 -0.1886  0.1479  0.3086
28058WAT     H114037   5.282   8.137   0.936  0.1240  1.4999 -0.4482
28058WAT     H214038   5.346   8.254   1.008 -0.0431  0.2900  1.7337
28058WAT    EPW14039   5.291   8.186   1.007 -0.1285  0.3448  0.3967
28059WAT      O14040   4.439   9.653   2.945  0.2771  0.0129 -0.0257
28059WAT     H114041   4.523   9.662   2.901 -0.3293 -2.7008 -1.9714
28059WAT     H214042   4.438   9.562   2.977 -1.9343 -0.0616 -0.1529
28059WAT    EPW14043   4.450   9.642   2.943 -0.0949 -0.3548 -0.2990
28060WAT      O14044   8.271   6.575   4.137 -0.3174 -0.7857 -0.8187
28060WAT     H114045   8.343   6.597   4.077  0.8842 -2.2542  0.0076
28060WAT     H214046   8.192   6.589   4.085  0.6574 -1.7375 -2.6901
28060WAT    EPW14047   8.270   6.579   4.122 -0.0310 -1.1048 -0.9568
28061WAT      O14048   5.240   7.419   4.098 -0.1882  0.0551  0.1529
28061WAT     H114049   5.202   7.424   4.010  1.4871 -0.6155 -0.6528
28061WAT     H214050   5.219   7.331   4.128  1.3434 -0.6310 -0.6448
28061WAT    EPW14051   5.232   7.408   4.090  0.2351 -0.1237 -0.0587
28062WAT      O14052   4.123   5.414   3.667 -0.5409 -0.0847  0.7160
28062WAT     H114053   4.057   5.477   3.696 -1.0915  0.0253 -0.6711
28062WAT     H214054   4.168   5.457   3.594 -0.1201 -0.8339  0.5124
28062WAT    EPW14055   4.120   5.428   3.661 -0.5579 -0.1690  0.5060
28063WAT      O14056   3.239   7.423   3.716  0.2440 -0.0894 -0.0589
28063WAT     H114057   3.298   7.386   3.651 -0.9228  0.9450 -1.7793
28063WAT     H214058   3.224   7.513   3.687 -2.1344 -0.2977  0.3060
28063WAT    EPW14059   3.245   7.430   3.704 -0.2236  0.0198 -0.2377
28064WAT      O14060   7.137   8.478   0.549 -0.5903 -0.3453 -0.0472
28064WAT     H114061   7.129   8.493   0.455 -0.1148 -0.8288 -0.1704
28064WAT     H214062   7.169   8.562   0.584  1.6867 -0.8740 -0.6791
28064WAT    EPW14063   7.140   8.491   0.541 -0.2270 -0.4783 -0.1468
28065WAT      O14064   8.151   8.423   3.928 -0.5444  0.2887  0.0947
28065WAT     H114065   8.184   8.441   3.840 -0.9692 -1.5979 -0.5069
28065WAT     H214066   8.121   8.332   3.923 -2.9011  0.9274  1.4815
28065WAT    EPW14067   8.152   8.413   3.915 -0.9112  0.1235  0.1982
28066WAT      O14068   9.921   0.545   4.394  0.1687  0.0274 -0.1415
28066WAT     H114069   9.889   0.524   4.482 -2.3381  0.5952 -0.8360
28066WAT     H214070   9.859   0.610   4.362 -2.2415 -3.7374 -4.2302
28066WAT    EPW14071   9.909   0.551   4.402 -0.4797 -0.3943 -0.7725
28067WAT      O14072   4.916  10.301   1.199  0.3544 -0.1765 -0.6663
28067WAT     H114073   4.893  10.331   1.111 -1.2295  0.5351 -0.0491
28067WAT     H214074   4.895  10.208   1.199 -1.8977  0.2717 -0.3999
28067WAT    EPW14075   4.910  10.293   1.187 -0.1514 -0.0234 -0.5499
28068WAT      O14076   9.348   0.296   1.787  0.4717 -0.3415 -0.3445
28068WAT     H114077   9.253   0.298   1.794  0.5115 -1.0885  0.6122
28068WAT     H214078   9.371   0.377   1.741 -0.6392 -0.3001 -0.8424
28068WAT    EPW14079   9.339   0.307   1.782  0.3309 -0.4346 -0.2840
28069WAT      O14080   5.988  10.182   3.014 -0.1524  0.5240 -0.2967
28069WAT     H114081   5.994  10.087   3.026 -1.9213 -0.1093 -3.5143
28069WAT     H214082   6.013  10.218   3.100 -0.7898 -2.8543  1.4849
28069WAT    EPW14083   5.992  10.174   3.027 -0.4694 -0.0048 -0.4861
28070WAT      O14084   8.883   7.646   1.519  0.0143  0.4313 -0.0412
28070WAT     H114085   8.948   7.607   1.578  0.1485  1.7709  0.7450
28070WAT     H214086   8.800   7.606   1.546  0.0167  1.2683  1.3504
28070WAT    EPW14087   8.880   7.636   1.530  0.0329  0.7181  0.2460
28071WAT      O14088   8.477   0.146   3.923 -0.3760 -0.3842 -0.3390
28071WAT     H114089   8.433   0.088   3.861 -1.3905  0.1785 -0.1823
28071WAT     H214090   8.559   0.102   3.944  0.1100 -0.4770 -2.2571
28071WAT    EPW14091   8.482   0.133   3.918 -0.4458 -0.3223 -0.5713
28072WAT      O14092   8.772   2.005   3.345  0.5200 -0.7499 -0.4868
28072WAT     H114093   8.783   1.990   3.251  0.5389 -0.9892 -0.4469
28072WAT     H214094   8.678   2.023   3.355  0.7271  0.5948 -0.7303
28072WAT    EPW14095   8.761   2.005   3.334  0.5498 -0.6040 -0.5138
28073WAT      O14096   1.930   9.838   2.366 -0.0360 -0.2383 -0.0936
28073WAT     H114097   1.902   9.915   2.414 -1.8228 -1.2555  0.5813
28073WAT     H214098   1.862   9.773   2.383  0.9459 -1.6713 -1.3884
28073WAT    EPW14099   1.918   9.839   2.375 -0.1421 -0.5612 -0.1756
28074WAT      O14100   7.033   9.627   3.557 -0.2247  0.5662 -0.0913
28074WAT     H114101   7.088   9.574   3.500 -2.3079 -3.5419  1.2410
28074WAT     H214102   7.082   9.633   3.639 -0.0763  0.3996 -0.1667
28074WAT    EPW14103   7.046   9.621   3.560 -0.4799  0.0024  0.0744
28075WAT      O14104   3.792   9.840   7.459  0.3050 -0.1382  0.8259
28075WAT     H114105   3.852   9.908   7.428  0.2056  0.0620  1.0676
28075WAT     H214106   3.770   9.790   7.380 -1.7740  1.7785  0.0514
28075WAT    EPW14107   3.797   9.843   7.444  0.0176  0.1407  0.7555
28076WAT      O14108  10.606   1.696   0.519  0.4180 -0.2297  0.5149
28076WAT     H114109  10.532   1.751   0.493 -0.1211 -1.7808 -1.5317
28076WAT     H214110  10.572   1.606   0.512  2.4757 -0.9866 -0.4600
28076WAT    EPW14111  10.592   1.691   0.515  0.6180 -0.5341  0.1163
28077WAT      O14112   8.487   0.378   1.403  0.2434  0.0545 -0.6102
28077WAT     H114113   8.412   0.395   1.460 -0.0311 -0.2901 -0.8636
28077WAT     H214114   8.531   0.462   1.394  1.2498 -0.1794  1.4605
28077WAT    EPW14115   8.483   0.391   1.410  0.3395 -0.0218 -0.3705
28078WAT      O14116   2.836   0.052   4.880 -0.0780  0.3170  0.0437
28078WAT     H114117   2.919   0.055   4.927 -1.4004 -3.7488  3.1748
28078WAT     H214118   2.849  -0.014   4.812 -0.8782 -1.0479  1.1542
28078WAT    EPW14119   2.848   0.044   4.877 -0.3579 -0.3992  0.6032
28079WAT      O14120   6.464  10.221   0.542 -1.2340  0.2506  0.6372
28079WAT     H114121   6.552  10.191   0.520 -0.7470  0.8781  1.6642
28079WAT     H214122   6.456  10.306   0.497 -0.9369  0.6541  1.3308
28079WAT    EPW14123   6.474  10.228   0.533 -1.1306  0.3867  0.8641
28080WAT      O14124   6.354   8.418   4.886  0.5235  0.2291 -0.1816
28080WAT     H114125   6.395   8.349   4.939 -1.2819 -0.3440  0.5666
28080WAT     H214126   6.305   8.371   4.819  0.4235  0.8370 -0.5395
28080WAT    EPW14127   6.353   8.403   4.884  0.2723  0.2337 -0.1299
28081WAT      O14128   8.966   4.275   2.380 -0.1586 -0.3205  0.2822
28081WAT     H114129   9.010   4.194   2.404  0.0736  0.3339  2.2865
28081WAT     H214130   8.874   4.261   2.404 -0.1660 -0.0875  0.3976
28081WAT    EPW14131   8.960   4.263   2.386 -0.1287 -0.2034  0.5618
28082WAT      O14132   6.540   7.953   3.499  0.3089  0.7791 -0.6791
28082WAT     H114133   6.468   8.016   3.507 -0.1548  0.1625  0.1897
28082WAT     H214134   6.496   7.867   3.504  1.0175  0.3947 -0.9970
28082WAT    EPW14135   6.524   7.950   3.501  0.3412  0.6471 -0.6067
28083WAT      O14136   6.230   8.604   3.079 -0.3269 -0.3992 -0.6690
28083WAT     H114137   6.307   8.547   3.070 -0.5124 -0.7149 -0.3135
28083WAT     H214138   6.189   8.575   3.161  0.0863  0.8694  0.0067
28083WAT    EPW14139   6.235   8.593   3.089 -0.2968 -0.2732 -0.5331
28084WAT      O14140  10.647   1.422   0.756  0.6497 -0.5066 -0.4564
28084WAT     H114141  10.638   1.490   0.823  3.2024  0.2122 -0.7341
28084WAT     H214142  10.677   1.345   0.803 -0.6384 -0.9728 -0.3718
28084WAT    EPW14143  10.650   1.421   0.771  0.8163 -0.4733 -0.4819
28085WAT      O14144   5.441   9.272   7.051  0.2016 -0.2406  0.4338
28085WAT     H114145   5.373   9.330   7.086  0.2412  0.7486 -1.0322
28085WAT     H214146   5.405   9.241   6.968  1.3326 -0.1042 -0.1263
28085WAT    EPW14147   5.427   9.275   7.045  0.3562 -0.0925  0.1667
28086WAT      O14148   7.582   9.999   2.184  0.6876 -0.9665 -0.3465
28086WAT     H114149   7.535   9.977   2.264 -0.1717  1.0891 -0.2072
28086WAT     H214150   7.668  10.029   2.214  0.1122  0.5111 -0.0676
28086WAT    EPW14151   7.587  10.000   2.198  0.4985 -0.5012 -0.2915
28087WAT      O14152   4.292   7.040   2.297  1.0660 -0.8514 -0.3557
28087WAT     H114153   4.216   7.077   2.253  0.8614  0.5569  1.1288
28087WAT     H214154   4.267   6.949   2.314  0.5587 -0.9923 -1.7463
28087WAT    EPW14155   4.279   7.033   2.293  0.9720 -0.6843 -0.3434
28088WAT      O14156   7.760   0.885   2.488 -0.1691 -0.1983 -0.1242
28088WAT     H114157   7.813   0.903   2.566  0.1608 -0.0571 -0.3800
28088WAT     H214158   7.750   0.790   2.488 -0.9844 -0.1305  0.6173
28088WAT    EPW14159   7.766   0.875   2.498 -0.2329 -0.1707 -0.0601
28089WAT      O14160   7.658   2.285   1.972  0.4068 -0.0129 -0.1557
28089WAT     H114161   7.606   2.269   1.894  0.2634 -0.0102 -0.0605
28089WAT     H214162   7.659   2.201   2.018  1.6261 -0.4044 -0.8353
28089WAT    EPW14163   7.651   2.272   1.968  0.5488 -0.0643 -0.2328
28090WAT      O14164   9.347   6.688   2.234  0.1865  0.7157  0.3267
28090WAT     H114165   9.328   6.666   2.143  1.7987 -2.7494  0.6841
28090WAT     H214166   9.434   6.728   2.231 -0.0293  1.2018  0.3312
28090WAT    EPW14167   9.356   6.691   2.222  0.3700  0.3228  0.3743
28091WAT      O14168   7.589  10.049   1.886  0.0833 -0.2771 -0.4173
28091WAT     H114169   7.532  10.115   1.845 -0.6912 -0.4772  0.3017
28091WAT     H214170   7.592  10.074   1.978 -0.2787 -1.2772 -0.1180
28091WAT    EPW14171   7.582  10.061   1.892 -0.0668 -0.4358 -0.2830
28092WAT      O14172   5.364   9.976   2.012 -0.3812  0.2941 -0.0119
28092WAT     H114173   5.448   9.930   2.003 -0.6831 -1.2826  3.4290
28092WAT     H214174   5.331   9.983   1.923  1.1681 -3.5012 -1.0959
28092WAT    EPW14175   5.371   9.971   1.999 -0.2165 -0.4144  0.2990
28093WAT      O14176   6.662   9.260   4.841 -0.1159  0.4018  0.0302
28093WAT     H114177   6.590   9.285   4.784  0.4766  0.1635 -0.8480
28093WAT     H214178   6.739   9.304   4.804  0.4080 -0.3452  0.1957
28093WAT    EPW14179   6.663   9.269   4.829  0.0312  0.2718 -0.0637
28094WAT      O14180  10.161   1.585   3.156  0.6438  0.6417  0.4267
28094WAT     H114181  10.232   1.629   3.110  1.4127  0.6082  1.5364
28094WAT     H214182  10.116   1.534   3.089  2.2782 -0.1297 -0.1365
28094WAT    EPW14183  10.164   1.584   3.141  0.9613  0.5355  0.4988
28095WAT      O14184   2.506   2.455   7.469  0.0863 -0.2476 -0.1208
28095WAT     H114185   2.437   2.521   7.477  0.3978  0.0192  0.5235
28095WAT     H214186   2.544   2.470   7.383 -0.6382 -0.3819 -0.4710
28095WAT    EPW14187   2.502   2.466   7.459  0.0318 -0.2302 -0.0823
28096WAT      O14188   7.752   2.169   2.364  0.2135  0.2201  0.0040
28096WAT     H114189   7.829   2.216   2.331  0.4616  1.0068  1.5866
28096WAT     H214190   7.784   2.120   2.440 -0.5925 -0.4465 -0.0723
28096WAT    EPW14191   7.767   2.169   2.370  0.1402  0.2359  0.2027
28097WAT      O14192   9.599   1.547   1.861 -0.0220 -0.7523 -0.2470
28097WAT     H114193   9.644   1.489   1.799 -0.1740  0.2950 -1.3662
28097WAT     H214194   9.634   1.634   1.843 -2.1639  0.0427 -0.8790
28097WAT    EPW14195   9.610   1.551   1.850 -0.3242 -0.5093 -0.4780
28098WAT      O14196   1.175   1.032   3.625 -0.1582 -0.0342 -0.3769
28098WAT     H114197   1.101   1.051   3.683  0.0559  1.6503 -0.6150
28098WAT     H214198   1.214   0.953   3.663 -1.3532 -0.2698  0.4472
28098WAT    EPW14199   1.170   1.024   3.638 -0.2876  0.1569 -0.2996
28099WAT      O14200   0.545   2.938   0.105 -0.4970 -0.1174  0.1422
28099WAT     H114201   0.460   2.943   0.061 -1.7420 -2.1101  2.1159
28099WAT     H214202   0.550   2.847   0.136  2.3537 -0.0461  0.1402
28099WAT    EPW14203   0.534   2.927   0.103 -0.2852 -0.3710  0.4023
28100WAT      O14204   1.447   3.694   8.511 -0.2500  0.2137  0.1739
28100WAT     H114205   1.516   3.757   8.529 -1.6008  0.9869  3.4065
28100WAT     H214206   1.366   3.743   8.523 -1.3450 -1.7340  1.2067
28100WAT    EPW14207   1.445   3.709   8.515 -0.5726  0.0588  0.7362
28101WAT      O14208   3.499   9.811   0.607  0.0302  0.5857  0.2252
28101WAT     H114209   3.448   9.858   0.673  1.5947  0.6508  1.4519
28101WAT     H214210   3.532   9.734   0.654  2.0808  1.1981 -0.1495
28101WAT    EPW14211   3.497   9.807   0.622  0.5070  0.6752  0.3376
28102WAT      O14212   9.446   1.986   2.732 -0.5280  0.1414  0.3629
28102WAT     H114213   9.463   1.951   2.819 -0.5325  0.2208  0.3956
28102WAT     H214214   9.446   1.909   2.674 -2.2813 -0.1407  0.6824
28102WAT    EPW14215   9.448   1.971   2.736 -0.7601  0.1146  0.4092
28103WAT      O14216   8.971   1.304   2.539 -0.6698  0.1056 -0.2850
28103WAT     H114217   9.002   1.237   2.479  0.6367 -0.5192  1.0296
28103WAT     H214218   8.876   1.294   2.541 -0.4050 -3.9235  2.2851
28103WAT    EPW14219   8.962   1.294   2.531 -0.4630 -0.5082  0.2275
28104WAT      O14220  10.677   2.045   2.755 -0.0574  0.0534 -0.0517
28104WAT     H114221  10.687   2.062   2.661  1.7481  1.2917  0.3035
28104WAT     H214222  10.640   2.126   2.790 -0.1478 -0.1748  0.3870
28104WAT    EPW14223  10.673   2.058   2.747  0.1683  0.1866  0.0530
28105WAT      O14224   4.010   9.280   3.047 -0.6845 -0.4974  0.5970
28105WAT     H114225   3.930   9.228   3.045 -1.6502  0.9886 -0.8068
28105WAT     H214226   3.981   9.371   3.040  1.1065  0.0752 -0.0494
28105WAT    EPW14227   3.996   9.285   3.046 -0.5754 -0.2260  0.3266
28106WAT      O14228  10.035   9.220   3.952  0.3219 -0.0592 -0.0741
28106WAT     H114229  10.106   9.241   3.893 -0.7083  1.2128 -0.9183
28106WAT     H214230   9.957   9.259   3.912 -1.5504 -4.1275 -0.9561
28106WAT    EPW14231  10.034   9.228   3.939 -0.0606 -0.4277 -0.3018
28107WAT      O14232   8.119  10.048   3.522  0.5431 -0.8506 -0.0973
28107WAT     H114233   8.199  10.088   3.555  0.6875 -0.7386 -0.5761
28107WAT     H214234   8.052  10.071   3.586  0.4831  0.7053 -0.6727
28107WAT    EPW14235   8.121  10.056   3.535  0.5541 -0.6313 -0.2364
28108WAT      O14236   8.709   9.700   3.866 -0.7145 -0.2723 -0.6256
28108WAT     H114237   8.700   9.672   3.775 -0.6624 -0.9080 -0.4386
28108WAT     H214238   8.632   9.665   3.910 -0.0987 -1.0829 -0.1566
28108WAT    EPW14239   8.698   9.692   3.860 -0.6261 -0.4630 -0.5391
28109WAT      O14240   4.472  10.004   2.394 -0.0620 -0.3337  0.2817
28109WAT     H114241   4.560   9.984   2.363 -0.7349 -0.3623 -1.8234
28109WAT     H214242   4.460  10.097   2.374 -0.9071 -0.6125 -0.6227
28109WAT    EPW14243   4.482  10.014   2.387 -0.2625 -0.3743 -0.1153
28110WAT      O14244   2.391   7.820   1.752 -0.1649  0.1085  0.3506
28110WAT     H114245   2.339   7.870   1.689  2.5976  0.9442 -1.4779
28110WAT     H214246   2.337   7.744   1.774 -1.8606  0.5793 -1.8836
28110WAT    EPW14247   2.377   7.817   1.747 -0.0241  0.2809 -0.1853
28111WAT      O14248   2.834   9.412   3.642 -0.0616  0.1844 -0.3619
28111WAT     H114249   2.830   9.399   3.547  0.2826 -3.9691 -0.0309
28111WAT     H214250   2.921   9.381   3.666 -0.8681 -0.8664  1.4442
28111WAT    EPW14251   2.845   9.406   3.632 -0.1225 -0.5016 -0.0800
28112WAT      O14252   6.164   9.384   1.332 -0.3452 -0.2295  0.1778
28112WAT     H114253   6.097   9.442   1.370  0.4573 -0.5518  2.1849
28112WAT     H214254   6.228   9.444   1.293 -1.8688  0.0819 -2.0719
28112WAT    EPW14255   6.163   9.400   1.332 -0.4401 -0.2308  0.1459
28113WAT      O14256   3.545   9.824   2.835 -0.4372 -0.9678  0.2332
28113WAT     H114257   3.584   9.754   2.888  1.1903 -1.5846 -1.6514
28113WAT     H214258   3.527   9.783   2.751 -3.6635 -0.2081  0.4384
28113WAT    EPW14259   3.548   9.810   2.831 -0.6481 -0.9494  0.0117
28114WAT      O14260   9.160   8.314   5.229  0.2261  0.6349 -0.2046
28114WAT     H114261   9.219   8.378   5.191 -1.7725  2.1855 -0.8876
28114WAT     H214262   9.153   8.340   5.321  0.3345  0.6987 -0.2150
28114WAT    EPW14263   9.167   8.326   5.236 -0.0234  0.8478 -0.2961
28115WAT      O14264   8.835  10.191   5.512  0.2524 -0.2537 -0.1710
28115WAT     H114265   8.891  10.124   5.472  0.9831  0.7981 -0.9579
28115WAT     H214266   8.896  10.249   5.557 -0.4327 -0.4730  1.0646
28115WAT    EPW14267   8.850  10.190   5.512  0.2584 -0.1440 -0.1121
28116WAT      O14268   9.892   7.972   4.707 -0.0663 -0.2053 -0.4293
28116WAT     H114269   9.975   7.926   4.711 -0.4198 -0.7812  1.0241
28116WAT     H214270   9.865   7.966   4.615  0.2137 -2.3289 -0.4068
28116WAT    EPW14271   9.899   7.965   4.695 -0.0758 -0.5612 -0.2344
28117WAT      O14272   2.403   3.951   8.798 -0.6104 -0.9246 -0.0398
28117WAT     H114273   2.437   3.961   8.710 -0.1639 -2.0595 -0.0103
28117WAT     H214274   2.373   3.860   8.802  0.0620 -1.1168  1.2051
28117WAT    EPW14275   2.403   3.941   8.787 -0.4628 -1.0997  0.1287
28118WAT      O14276   7.431   9.920   4.209  0.2378  0.3059  0.3702
28118WAT     H114277   7.456   9.935   4.117 -0.3385 -0.8501  0.0070
28118WAT     H214278   7.514   9.925   4.257  0.3696  2.4611  0.0406
28118WAT    EPW14279   7.445   9.923   4.203  0.1793  0.4377  0.2789
28119WAT      O14280   9.592   9.162   2.061  0.8331  0.0673 -0.1312
28119WAT     H114281   9.561   9.077   2.092 -0.4671  0.7474  0.5180
28119WAT     H214282   9.610   9.148   1.968  1.6966 -1.1888  0.2039
28119WAT    EPW14283   9.590   9.149   2.053  0.7758 -0.0095 -0.0013
28120WAT      O14284   7.853   2.707   4.782 -0.3111 -0.1321 -0.2268
28120WAT     H114285   7.915   2.675   4.847  1.3490  3.3242  0.1517
28120WAT     H214286   7.776   2.732   4.832  0.6200  1.6761  0.4023
28120WAT    EPW14287   7.851   2.706   4.797  0.0305  0.5623 -0.0939
28121WAT      O14288   8.231   0.913   5.057  0.3670  0.1352 -0.2432
28121WAT     H114289   8.140   0.925   5.032  0.6028 -0.3461 -1.4083
28121WAT     H214290   8.261   0.840   5.002  1.5714  0.5760 -0.1969
28121WAT    EPW14291   8.223   0.905   5.046  0.5569  0.1298 -0.3905
28122WAT      O14292   0.451   6.409   7.943 -0.3156  0.2124 -0.0462
28122WAT     H114293   0.402   6.397   8.024 -1.3551  0.8985 -0.5532
28122WAT     H214294   0.384   6.420   7.876  0.5312  0.6257 -0.8501
28122WAT    EPW14295   0.436   6.409   7.945 -0.3410  0.3576 -0.2189
28123WAT      O14296   1.138   0.265   3.567  0.2017  0.3756 -0.5068
28123WAT     H114297   1.072   0.274   3.498 -2.1276  2.5321  1.7745
28123WAT     H214298   1.212   0.317   3.536  1.0382 -2.0880 -3.1271
28123WAT    EPW14299   1.139   0.273   3.554  0.0048  0.3351 -0.5516
28124WAT      O14300   7.626   2.687   5.053 -0.2816  0.4481 -0.5938
28124WAT     H114301   7.686   2.743   5.103 -2.2291  2.1580 -0.0074
28124WAT     H214302   7.603   2.618   5.114  1.3568 -0.4958 -0.9748
28124WAT    EPW14303   7.631   2.686   5.068 -0.3226  0.5491 -0.5665
28125WAT      O14304   6.925   3.828   3.775  0.1895 -0.4869 -0.6863
28125WAT     H114305   6.971   3.910   3.796  1.1064 -1.0974 -0.2460
28125WAT     H214306   6.958   3.765   3.840 -1.6818 -0.8258 -0.0166
28125WAT    EPW14307   6.936   3.831   3.786  0.0637 -0.6120 -0.5398
28126WAT      O14308   5.014  10.272   2.238  0.2614  0.1283 -0.0922
28126WAT     H114309   5.025  10.177   2.244  0.8553  0.2387  0.9764
28126WAT     H214310   5.060  10.305   2.315  0.7165  1.3384 -0.8623
28126WAT    EPW14311   5.021  10.264   2.249  0.3996  0.3023 -0.0528
28127WAT      O14312   6.816   0.182   3.974 -0.4947 -0.0926  0.2990
28127WAT     H114313   6.853   0.122   3.908 -1.2481 -0.7510  0.4675
28127WAT     H214314   6.893   0.228   4.008  0.0972 -0.8909  0.0981
28127WAT    EPW14315   6.831   0.180   3.969 -0.5159 -0.2847  0.2948
28128WAT      O14316   9.236   1.216   3.006 -0.2678 -0.1404  0.1484
28128WAT     H114317   9.254   1.122   3.009 -0.0305 -0.1090 -0.2032
28128WAT     H214318   9.229   1.236   2.912 -0.2783  0.1983  0.2206
28128WAT    EPW14319   9.238   1.206   2.994 -0.2379 -0.0916  0.1116
28129WAT      O14320   3.708   7.547   6.719 -0.4466 -0.6443 -0.5945
28129WAT     H114321   3.790   7.507   6.747 -0.5619 -1.2864 -1.1598
28129WAT     H214322   3.660   7.477   6.675 -1.8802 -0.6396  0.8708
28129WAT    EPW14323   3.712   7.533   6.717 -0.6509 -0.7281 -0.4759
28130WAT      O14324   9.341   3.834   1.534 -0.1939 -0.2609  0.0284
28130WAT     H114325   9.298   3.789   1.462 -1.5154 -0.1467  0.7134
28130WAT     H214326   9.323   3.926   1.519  1.0573 -0.0626 -0.4391
28130WAT    EPW14327   9.333   3.840   1.523 -0.2036 -0.2196  0.0571
28131WAT      O14328   5.716   9.718   1.132 -0.1615  0.1293  0.6630
28131WAT     H114329   5.766   9.759   1.061  1.6831 -0.9292  1.2758
28131WAT     H214330   5.652   9.662   1.088  2.1996 -2.0150 -0.3122
28131WAT    EPW14331   5.714   9.716   1.117  0.3929 -0.2928  0.6152
28132WAT      O14332   3.351   8.032   3.111  0.7195  0.4394  0.0482
28132WAT     H114333   3.421   8.032   3.045  0.5546  1.9937 -0.1526
28132WAT     H214334   3.283   7.977   3.072  0.6150  1.3494 -1.0975
28132WAT    EPW14335   3.352   8.024   3.097  0.6840  0.7644 -0.1295
28133WAT      O14336  10.968   1.784   3.571 -0.3047  0.4639  0.0277
28133WAT     H114337  11.024   1.708   3.590 -0.1972  1.1084  2.7064
28133WAT     H214338  10.882   1.760   3.607 -0.1890  1.6823  1.1834
28133WAT    EPW14339  10.964   1.770   3.579 -0.2756  0.7097  0.5336
28134WAT      O14340  10.758   2.416   1.824 -1.0945 -0.0831  0.1961
28134WAT     H114341  10.747   2.331   1.781 -1.6824  0.8644 -1.6306
28134WAT     H214342  10.807   2.469   1.762 -1.1797  1.0767  1.0777
28134WAT    EPW14343  10.763   2.412   1.810 -1.1840  0.1950  0.0715
28135WAT      O14344   6.463   9.077   4.925  0.7162 -0.4974  0.0369
28135WAT     H114345   6.416   9.106   4.846 -1.8973  1.3136  2.0835
28135WAT     H214346   6.532   9.141   4.937  0.9068 -0.5847 -0.5709
28135WAT    EPW14347   6.466   9.089   4.916  0.3967 -0.2708  0.2267
28136WAT      O14348   6.705   7.840   5.838 -0.9734 -0.3983 -0.2487
28136WAT     H114349   6.702   7.777   5.910  0.3256 -0.3446 -0.1216
28136WAT     H214350   6.680   7.924   5.878  0.3811 -0.2412  0.3143
28136WAT    EPW14351   6.701   7.843   5.853 -0.6232 -0.3707 -0.1571
28137WAT      O14352   3.323   2.231   0.233 -1.1237 -0.8516 -0.1789
28137WAT     H114353   3.234   2.195   0.229 -1.0599 -0.9143 -1.7971
28137WAT     H214354   3.380   2.154   0.227 -0.8758 -0.9729  2.3805
28137WAT    EPW14355   3.319   2.216   0.232 -1.0825 -0.8759 -0.0548
28138WAT      O14356   9.755   1.767   1.847  0.0923 -0.5520  0.3003
28138WAT     H114357   9.834   1.820   1.857  0.0027 -0.7152  2.2608
28138WAT     H214358   9.684   1.831   1.841  0.1528 -0.4295  0.8770
28138WAT    EPW14359   9.756   1.782   1.847  0.0882 -0.5574  0.6349
28139WAT      O14360   6.622   3.033   1.247  0.0336 -0.2011  0.2042
28139WAT     H114361   6.557   3.017   1.316  0.5522  0.7965  0.9651
28139WAT     H214362   6.664   3.115   1.273 -0.3633  0.6948 -1.7935
28139WAT    EPW14363   6.619   3.042   1.260  0.0496  0.0486  0.0411
28140WAT      O14364   8.399   2.567   4.282 -0.3418 -0.1896 -0.6653
28140WAT     H114365   8.387   2.662   4.278  1.5618  0.1459  0.4558
28140WAT     H214366   8.405   2.539   4.191 -1.9261  0.5837 -1.0456
28140WAT    EPW14367   8.398   2.576   4.269 -0.2999 -0.0434 -0.5677
28141WAT      O14368   7.815   7.679   4.331 -0.3306 -0.1662 -0.2963
28141WAT     H114369   7.759   7.736   4.384 -0.2702 -1.1673  0.9041
28141WAT     H214370   7.840   7.732   4.256 -1.8124  0.7358 -0.1849
28141WAT    EPW14371   7.811   7.693   4.328 -0.5183 -0.1791 -0.1233
28142WAT      O14372   8.059   8.845   2.571 -0.4907 -0.6027  0.1500
28142WAT     H114373   8.114   8.816   2.499 -0.9905  0.7965 -0.8471
28142WAT     H214374   8.001   8.771   2.589 -1.2196 -0.5404 -1.7695
28142WAT    EPW14375   8.058   8.831   2.564 -0.6528 -0.4096 -0.2346
28143WAT      O14376   8.296   1.941   2.660 -0.0915 -0.5261  0.0770
28143WAT     H114377   8.233   1.969   2.593  0.5944  0.8636 -0.0033
28143WAT     H214378   8.242   1.897   2.726 -0.9680 -0.5577 -0.6334
28143WAT    EPW14379   8.281   1.939   2.660 -0.1159 -0.3470 -0.0273
28144WAT      O14380   5.874   9.693   2.739 -0.0802  0.4777  0.2268
28144WAT     H114381   5.815   9.624   2.706  1.4465 -1.4179  1.2507
28144WAT     H214382   5.830   9.725   2.818 -0.0055 -0.6227  0.7457
28144WAT    EPW14383   5.860   9.688   2.745  0.1307  0.0830  0.4302
28145WAT      O14384   2.823   1.610   5.492  1.1822 -0.2965 -0.1165
28145WAT     H114385   2.744   1.593   5.542 -0.0014 -1.1086 -2.1476
28145WAT     H214386   2.800   1.587   5.402  2.7037  2.5535 -1.3539
28145WAT    EPW14387   2.810   1.604   5.487  1.2268 -0.0277 -0.5476
28146WAT      O14388   0.120   2.778   3.722 -0.5866  0.1866 -0.4098
28146WAT     H114389   0.104   2.808   3.633 -0.3073  0.2588 -0.4377
28146WAT     H214390   0.214   2.794   3.736 -0.8420  1.2313  0.2841
28146WAT    EPW14391   0.130   2.784   3.712 -0.5834  0.3339 -0.3220
28147WAT      O14392   6.587   0.785   6.815  0.0714  0.7196  0.0985
28147WAT     H114393   6.547   0.872   6.821 -1.1940  0.0668  2.2599
28147WAT     H214394   6.581   0.750   6.904  1.0033 -1.3986 -0.6157
28147WAT    EPW14395   6.581   0.792   6.828  0.0277  0.3541  0.2890
28148WAT      O14396   3.923  10.365   3.170 -0.3149  0.2682 -0.3646
28148WAT     H114397   4.011  10.328   3.162  0.2547  1.2104  1.1212
28148WAT     H214398   3.922  10.405   3.257 -2.5636 -0.5823  0.0692
28148WAT    EPW14399   3.934  10.365   3.181 -0.5364  0.2804 -0.1113
28149WAT      O14400   9.480   3.309   1.622  0.3195  0.6451  0.5336
28149WAT     H114401   9.533   3.275   1.694 -0.1844 -0.8583  0.2290
28149WAT     H214402   9.402   3.345   1.665 -0.2160 -0.6980  0.7572
28149WAT    EPW14403   9.476   3.309   1.637  0.1826  0.2697  0.5229
28150WAT      O14404   4.230   6.933   4.709  0.1059  0.0266 -0.1406
28150WAT     H114405   4.283   7.013   4.709  0.5090 -0.2370  0.8105
28150WAT     H214406   4.207   6.920   4.617  3.0661 -0.7711 -0.8624
28150WAT    EPW14407   4.234   6.942   4.697  0.5493 -0.1135 -0.1104
28151WAT      O14408   9.317   0.656   0.311 -0.5350  0.4142 -0.4938
28151WAT     H114409   9.351   0.586   0.367 -0.8418 -0.9341 -1.9169
28151WAT     H214410   9.358   0.736   0.344  2.3360 -0.8263 -0.7723
28151WAT    EPW14411   9.327   0.657   0.323 -0.1969  0.0727 -0.7182
28152WAT      O14412   4.764   9.804   3.291 -0.0340 -0.0843 -0.3820
28152WAT     H114413   4.722   9.729   3.248 -0.3659  0.5491 -1.2030
28152WAT     H214414   4.852   9.807   3.253 -0.0110 -0.0729 -0.3280
28152WAT    EPW14415   4.770   9.794   3.280 -0.0746  0.0005 -0.4833
28153WAT      O14416   6.173  10.038   2.671 -0.2289 -0.0791 -0.5308
28153WAT     H114417   6.263  10.028   2.639 -0.0464 -0.9030  0.1894
28153WAT     H214418   6.120   9.993   2.605  0.0302 -0.7760 -0.2727
28153WAT    EPW14419   6.178  10.030   2.658 -0.1707 -0.2794 -0.4017
28154WAT      O14420   9.922   2.187   5.261  0.0254  0.1882  0.0794
28154WAT     H114421   9.948   2.109   5.309 -0.1302  0.6064  0.8519
28154WAT     H214422   9.834   2.168   5.229 -0.4982  0.4992  1.2927
28154WAT    EPW14423   9.914   2.174   5.263 -0.0644  0.2844  0.3412
28155WAT      O14424   9.525   5.051   3.666  0.1839 -0.2337  0.5129
28155WAT     H114425   9.449   5.070   3.611 -0.3557 -1.7799  0.6719
28155WAT     H214426   9.545   4.959   3.648  1.7252  0.0075  0.8493
28155WAT    EPW14427   9.518   5.042   3.656  0.3161 -0.4060  0.5782
28156WAT      O14428   7.272   9.673   1.724 -0.1891  0.3005  0.0035
28156WAT     H114429   7.227   9.682   1.807  1.1857 -0.1948  0.8395
28156WAT     H214430   7.244   9.587   1.690 -0.2059  0.1884  0.3018
28156WAT    EPW14431   7.263   9.663   1.730 -0.0098  0.2203  0.1531
28157WAT      O14432   7.930   8.596   2.672 -0.3476 -0.0778 -0.4132
28157WAT     H114433   7.871   8.612   2.746 -3.3279 -2.4667 -2.1003
28157WAT     H214434   8.010   8.563   2.713 -2.3344 -2.5758  1.8174
28157WAT    EPW14435   7.933   8.594   2.687 -1.0030 -0.7224 -0.3415
28158WAT      O14436   3.362   6.264   8.852 -0.0839  0.2007 -0.5050
28158WAT     H114437   3.408   6.291   8.931 -1.2639 -2.3842  1.2214
28158WAT     H214438   3.386   6.329   8.786  0.2691  3.0139  2.1728
28158WAT    EPW14439   3.371   6.276   8.854 -0.1929  0.2308  0.0753
28159WAT      O14440   5.910  10.089   3.737  1.0965 -0.0052 -0.1110
28159WAT     H114441   5.918  10.115   3.646  2.4446 -1.0090 -0.3030
28159WAT     H214442   5.852  10.013   3.736  1.0125  0.0583 -0.1116
28159WAT    EPW14443   5.904  10.082   3.725  1.2636 -0.1287 -0.1363
28160WAT      O14444   9.556   3.395   0.032  0.8554  0.4357  0.0255
28160WAT     H114445   9.531   3.461  -0.032 -0.0558  0.1345  0.0516
28160WAT     H214446   9.631   3.350  -0.006  0.2606  0.1904 -0.8887
28160WAT    EPW14447   9.562   3.397   0.019  0.6561  0.3637 -0.0916
28161WAT      O14448   4.238   8.704   5.040 -0.6359  0.4708 -0.2472
28161WAT     H114449   4.254   8.714   4.946  1.0954  1.6998  0.1235
28161WAT     H214450   4.241   8.793   5.074  3.7279 -0.1805  1.6375
28161WAT    EPW14451   4.240   8.717   5.032  0.1678  0.5469  0.0503
28162WAT      O14452   6.052   9.690   5.713  0.0692  0.0737 -0.0508
28162WAT     H114453   6.110   9.702   5.788  0.0497 -0.2195  0.0116
28162WAT     H214454   5.964   9.683   5.751 -0.2646  2.3336 -0.2490
28162WAT    EPW14455   6.048   9.691   5.728  0.0224  0.3328 -0.0689
28163WAT      O14456  10.188   0.479   1.430 -0.0196 -0.1198  0.0099
28163WAT     H114457  10.131   0.555   1.416 -0.8706 -0.9570 -1.2384
28163WAT     H214458  10.236   0.500   1.510 -1.8619  0.7353  0.9407
28163WAT    EPW14459  10.187   0.492   1.438 -0.3748 -0.1175 -0.0320
28164WAT      O14460   1.515   2.134   1.828 -0.4004 -0.3259  0.0964
28164WAT     H114461   1.446   2.086   1.874 -0.9582  0.1772 -0.1942
28164WAT     H214462   1.543   2.074   1.758 -3.0899  0.7516 -2.1092
28164WAT    EPW14463   1.509   2.120   1.825 -0.8286 -0.1174 -0.2329
28165WAT      O14464   9.728   9.222   1.466  0.4904  0.1608  0.7403
28165WAT     H114465   9.674   9.249   1.391  1.3593 -0.2859 -0.0662
28165WAT     H214466   9.765   9.304   1.499  0.4790  0.3119  0.3853
28165WAT    EPW14467   9.726   9.236   1.460  0.6032  0.1225  0.5871
28166WAT      O14468   8.327   3.417   1.975  0.5047  0.4087 -0.3954
28166WAT     H114469   8.247   3.457   2.007 -0.8875 -0.6631 -2.2894
28166WAT     H214470   8.359   3.365   2.049 -2.9301 -2.5323 -0.6503
28166WAT    EPW14471   8.321   3.415   1.989 -0.1321 -0.1206 -0.6789
28167WAT      O14472   6.210   9.748   4.529  0.0563 -0.5471  0.1159
28167WAT     H114473   6.298   9.765   4.563  0.7261 -2.5904 -0.4704
28167WAT     H214474   6.225   9.720   4.439 -1.1016 -2.0058  0.3551
28167WAT    EPW14475   6.223   9.747   4.521 -0.0079 -1.0085  0.0703
28168WAT      O14476  10.981   2.292   1.997  0.0718  0.5476 -0.1929
28168WAT     H114477  10.899   2.318   1.953  1.6491  1.2074 -2.9672
28168WAT     H214478  11.023   2.375   2.018  1.3709  0.2613 -1.5475
28168WAT    EPW14479  10.976   2.307   1.994  0.4512  0.5969 -0.7374
28169WAT      O14480  10.752   1.072   8.719  0.9039 -0.2973  0.8098
28169WAT     H114481  10.785   1.119   8.642 -0.6453 -0.8254 -0.2191
28169WAT     H214482  10.784   0.982   8.707  1.9939 -0.0344  1.6279
28169WAT    EPW14483  10.761   1.066   8.707  0.8430 -0.3323  0.7820
28170WAT      O14484   3.710   9.445   1.963  0.1433  0.7849  0.0685
28170WAT     H114485   3.699   9.519   2.023  0.6100  1.0609 -0.1771
28170WAT     H214486   3.768   9.478   1.895 -1.3117  0.8650 -1.1922
28170WAT    EPW14487   3.716   9.459   1.962  0.0130  0.8321 -0.1302
28171WAT      O14488   9.021   1.226   3.575 -0.1830  0.0028  0.3824
28171WAT     H114489   9.106   1.206   3.535  0.4239 -1.6525  2.3352
28171WAT     H214490   9.041   1.290   3.643 -1.0795  2.1889 -1.3121
28171WAT    EPW14491   9.035   1.231   3.579 -0.2208  0.0728  0.4165
28172WAT      O14492   8.674   2.867   4.300  0.0390 -0.4371  0.3868
28172WAT     H114493   8.750   2.870   4.359  1.6784 -1.4203 -1.5719
28172WAT     H214494   8.602   2.839   4.357  1.2544 -0.1614  2.1746
28172WAT    EPW14495   8.675   2.864   4.315  0.4153 -0.5305  0.3643
28173WAT      O14496  10.147   2.167   4.843  0.1634 -0.4702  0.3028
28173WAT     H114497  10.077   2.109   4.814  1.2405 -1.7214  0.1295
28173WAT     H214498  10.137   2.245   4.788 -0.3631 -1.1265 -0.5667
28173WAT    EPW14499  10.136   2.170   4.832  0.2360 -0.7218  0.1652
28174WAT      O14500  10.521   0.215   1.587  0.4579 -0.1909  0.4812
28174WAT     H114501  10.444   0.224   1.532  0.7598 -0.4231  0.0068
28174WAT     H214502  10.498   0.258   1.669  0.5850  1.6258 -0.4064
28174WAT    EPW14503  10.508   0.222   1.591  0.5145  0.0181  0.3015
28175WAT      O14504  10.434   0.998   3.458  0.6379  0.6353  0.1046
28175WAT     H114505  10.387   1.012   3.541  1.0065  0.0206  0.4294
28175WAT     H214506  10.435   0.903   3.447  1.0962  0.6819 -0.3065
28175WAT    EPW14507  10.428   0.987   3.468  0.7467  0.5604  0.0932
28176WAT      O14508   6.191   8.935   4.170  0.6794  0.4140 -0.5372
28176WAT     H114509   6.203   8.840   4.171 -0.2168  0.2541  1.8139
28176WAT     H214510   6.111   8.948   4.119 -0.0946 -0.2758  0.4548
28176WAT    EPW14511   6.182   8.924   4.164  0.4592  0.3018 -0.0963
28177WAT      O14512   9.171  10.097   3.053  0.1643  0.2238  0.2254
28177WAT     H114513   9.187  10.088   2.959 -0.4171  0.1056  0.1393
28177WAT     H214514   9.208  10.182   3.076  2.5864 -0.7784  0.3828
28177WAT    EPW14515   9.178  10.107   3.044  0.4067  0.0763  0.2348
28178WAT      O14516   9.597   1.207   3.982  0.5464  0.2553 -0.3601
28178WAT     H114517   9.502   1.199   3.981  0.5924 -1.0221  1.4187
28178WAT     H214518   9.618   1.232   4.071  1.9315 -0.1706 -0.5495
28178WAT    EPW14519   9.587   1.209   3.993  0.7353  0.0307 -0.1504
28179WAT      O14520   6.443   7.354   3.978 -0.4579  0.2694 -0.6633
28179WAT     H114521   6.378   7.283   3.972 -0.0865 -0.7091  3.4906
28179WAT     H214522   6.521   7.319   3.934 -1.7277  0.2572 -3.0773
28179WAT    EPW14523   6.445   7.340   3.972 -0.5765  0.1388 -0.4338
28180WAT      O14524   8.898   1.039   3.323 -0.0387 -0.0921  0.2265
28180WAT     H114525   8.898   1.135   3.330 -0.0850  0.0420 -1.3461
28180WAT     H214526   8.981   1.013   3.362  0.8835  0.7640 -1.0625
28180WAT    EPW14527   8.909   1.048   3.329  0.0768  0.0384 -0.1509
28181WAT      O14528   9.146   1.278   1.903 -0.3773  0.0446 -0.6910
28181WAT     H114529   9.152   1.215   1.831  1.9483  0.5525 -1.0017
28181WAT     H214530   9.153   1.364   1.860  1.4890  0.3416  0.1324
28181WAT    EPW14531   9.147   1.281   1.887  0.1755  0.1507 -0.6233
28182WAT      O14532   7.434   0.460   2.804 -0.2815  0.5758  0.6343
28182WAT     H114533   7.358   0.484   2.752 -1.0120 -1.5624  0.6306
28182WAT     H214534   7.407   0.383   2.853  1.4739  0.5354  1.6472
28182WAT    EPW14535   7.420   0.453   2.804 -0.1462  0.2885  0.7675
28183WAT      O14536  10.016   8.580   8.968  0.0736 -0.1016 -0.0004
28183WAT     H114537   9.937   8.608   9.015 -0.2182 -1.8162  0.6049
28183WAT     H214538  10.087   8.594   9.031  0.1530  0.7018 -0.2612
28183WAT    EPW14539  10.015   8.586   8.983  0.0458 -0.2217  0.0448
28184WAT      O14540   4.687   7.063   7.659  0.4744  0.1477 -0.3055
28184WAT     H114541   4.733   6.983   7.685  0.5885  0.3913  0.2402
28184WAT     H214542   4.619   7.032   7.599  1.0519 -0.2638 -0.7688
28184WAT    EPW14543   4.684   7.048   7.654  0.5658  0.1254 -0.2944
28185WAT      O14544   5.758   8.541   2.288  0.4339 -0.0677 -0.7980
28185WAT     H114545   5.853   8.532   2.299  0.3673 -2.2593 -1.4188
28185WAT     H214546   5.739   8.494   2.207 -1.4219 -1.7688  0.5223
28185WAT    EPW14547   5.768   8.533   2.279  0.1802 -0.5808 -0.7057
28186WAT      O14548   8.916   1.736   5.042  0.0937  0.1580  0.3031
28186WAT     H114549   8.849   1.802   5.021 -0.0950  0.0929  0.6876
28186WAT     H214550   8.866   1.657   5.063  0.3369 -1.1014 -3.1985
28186WAT    EPW14551   8.900   1.734   5.042  0.1011 -0.0166 -0.1080
28187WAT      O14552   1.537   0.683   4.918 -0.2074  0.3218  0.1125
28187WAT     H114553   1.524   0.776   4.897  0.5586  0.4496  0.1939
28187WAT     H214554   1.540   0.640   4.832  1.8876  0.7088 -0.0483
28187WAT    EPW14555   1.535   0.690   4.904  0.1699  0.3897  0.1018
28188WAT      O14556   9.525   0.446   5.597 -0.1811  0.9035  0.5419
28188WAT     H114557   9.612   0.460   5.560  0.1729  0.6937  1.2879
28188WAT     H214558   9.469   0.507   5.548 -0.0059 -0.3600 -1.3143
28188WAT    EPW14559   9.529   0.456   5.586 -0.1116  0.7092  0.3955
28189WAT      O14560   0.331   0.389   1.927 -1.2557 -0.5497  0.0081
28189WAT     H114561   0.271   0.335   1.977 -0.1111 -0.5132  1.5126
28189WAT     H214562   0.393   0.422   1.993 -0.1343  0.1222 -1.3397
28189WAT    EPW14563   0.331   0.386   1.943 -0.9568 -0.4563  0.0288
28190WAT      O14564   8.732   9.614   3.618  0.3315 -0.3715  0.4069
28190WAT     H114565   8.780   9.661   3.550  0.1296 -0.6663  0.0571
28190WAT     H214566   8.691   9.541   3.572  0.8768 -1.0513  0.9989
28190WAT    EPW14567   8.733   9.611   3.603  0.3767 -0.4997  0.4388
28191WAT      O14568   7.909   9.076   2.105  0.3102 -0.1164 -0.5568
28191WAT     H114569   7.932   9.089   2.197  1.1476 -1.1362 -0.6022
28191WAT     H214570   7.990   9.093   2.057  0.2745 -1.0706 -0.9701
28191WAT    EPW14571   7.923   9.080   2.111  0.4158 -0.3772 -0.6174
28192WAT      O14572   5.494  10.206   1.805  0.3454 -0.8163  0.1720
28192WAT     H114573   5.465  10.262   1.877  2.5569 -0.2197  0.6771
28192WAT     H214574   5.493  10.263   1.728  0.7692 -0.5912  0.3245
28192WAT    EPW14575   5.490  10.221   1.804  0.6928 -0.7076  0.2587
28193WAT      O14576   7.044   9.332   4.553  0.4782  0.1631 -0.2150
28193WAT     H114577   7.065   9.360   4.464 -1.4058 -0.1796 -0.8285
28193WAT     H214578   6.994   9.251   4.541  2.3960 -1.3561  1.3202
28193WAT    EPW14579   7.040   9.325   4.540  0.4828 -0.0825 -0.0932
28194WAT      O14580   3.303   3.749   8.734 -0.3203  0.0677 -0.3803
28194WAT     H114581   3.377   3.809   8.724  0.5709 -0.9089  0.0963
28194WAT     H214582   3.227   3.799   8.706  0.1866  1.9013  1.2651
28194WAT    EPW14583   3.303   3.764   8.729 -0.1359  0.1808 -0.1001
28195WAT      O14584   3.032   9.771   6.227 -0.6095 -0.1431  0.0178
28195WAT     H114585   3.044   9.728   6.142  2.3159  0.7267 -0.1351
28195WAT     H214586   3.077   9.855   6.218  1.0432 -0.5995  2.7963
28195WAT    EPW14587   3.040   9.776   6.214 -0.0056 -0.0887  0.3641
28196WAT      O14588   3.455   8.178   8.882  0.0048  0.2756 -0.2140
28196WAT     H114589   3.455   8.089   8.915  0.0902 -0.0437 -1.0485
28196WAT     H214590   3.434   8.232   8.958 -0.2264 -0.4661  0.2572
28196WAT    EPW14591   3.452   8.174   8.896 -0.0144  0.1359 -0.2618
28197WAT      O14592   0.184   0.162   3.170  0.2896 -0.3199  0.6508
28197WAT     H114593   0.278   0.181   3.177  0.4075  1.8634 -3.3937
28197WAT     H214594   0.147   0.190   3.253  2.9751  0.8665  1.5495
28197WAT    EPW14595   0.192   0.168   3.182  0.6594  0.1246  0.2358
28198WAT      O14596   8.972   1.767   2.593 -0.4796  0.8695 -0.2968
28198WAT     H114597   9.049   1.822   2.584 -0.3869  0.5038 -2.1723
28198WAT     H214598   8.933   1.766   2.505  0.0956 -2.8444 -0.6678
28198WAT    EPW14599   8.977   1.774   2.580 -0.3910  0.3314 -0.5931
28199WAT      O14600  10.451   1.256   3.808  0.0601 -0.5682 -0.5801
28199WAT     H114601  10.516   1.221   3.869  0.3730 -0.5068 -0.8806
28199WAT     H214602  10.502   1.303   3.743 -0.2977 -0.3902 -0.7313
28199WAT    EPW14603  10.466   1.258   3.808  0.0534 -0.5366 -0.6398
28200WAT      O14604   8.708   2.897   2.406 -0.0267  0.3123  0.6231
28200WAT     H114605   8.681   2.837   2.337 -1.0950  0.7064  0.6881
28200WAT     H214606   8.799   2.919   2.385 -0.6268  1.1842 -1.1902
28200WAT    EPW14607   8.716   2.892   2.394 -0.2470  0.4792  0.3926
28201WAT      O14608   9.296   0.987   3.518 -0.3073  0.0088  0.0629
28201WAT     H114609   9.355   0.921   3.553 -1.3180  0.9386  4.0652
28201WAT     H214610   9.354   1.059   3.492  0.5542 -1.0254 -0.9992
28201WAT    EPW14611   9.311   0.988   3.519 -0.3276 -0.0050  0.4506
28202WAT      O14612   4.450  10.234   1.374 -0.5152  0.4089  0.2945
28202WAT     H114613   4.408  10.151   1.396  1.8740 -2.0168 -3.2009
28202WAT     H214614   4.522  10.241   1.436 -1.4107  0.5291  1.3493
28202WAT    EPW14615   4.454  10.224   1.385 -0.3181  0.1049 -0.0274
28203WAT      O14616   6.701   8.583   2.327  0.0800 -0.6003 -0.4540
28203WAT     H114617   6.784   8.604   2.283  0.3642 -1.2573 -0.2423
28203WAT     H214618   6.701   8.488   2.334 -0.2277 -0.5419  0.4653
28203WAT    EPW14619   6.712   8.573   2.322  0.0768 -0.6790 -0.3048
28204WAT      O14620   6.422   1.968   4.077 -0.0957  0.2659 -0.4854
28204WAT     H114621   6.513   1.985   4.051 -0.4135  0.3776 -1.5420
28204WAT     H214622   6.413   2.011   4.162 -0.1764  3.3602 -1.9256
28204WAT    EPW14623   6.433   1.976   4.085 -0.1483  0.6887 -0.8147
28205WAT      O14624   5.738   7.200   0.816 -0.2825 -0.9580  1.0066
28205WAT     H114625   5.665   7.157   0.859 -2.0778 -0.3618 -1.2505
28205WAT     H214626   5.731   7.292   0.842  1.5432 -1.3329  3.1449
28205WAT    EPW14627   5.728   7.207   0.825 -0.2782 -0.9286  0.9909
28206WAT      O14628   6.789   8.494   1.391 -0.8302 -0.2540  0.6932
28206WAT     H114629   6.715   8.521   1.338 -0.9760 -0.0789  0.9832
28206WAT     H214630   6.863   8.492   1.330 -1.6093 -3.3148 -0.2967
28206WAT    EPW14631   6.789   8.497   1.376 -0.9522 -0.6347  0.6009
28207WAT      O14632   6.045   8.251   2.161 -0.0646 -1.0355  0.2176
28207WAT     H114633   5.964   8.301   2.159  0.7756  0.3547 -0.5625
28207WAT     H214634   6.082   8.268   2.248 -0.0829 -0.7999  0.1784
28207WAT    EPW14635   6.039   8.260   2.172  0.0439 -0.8211  0.1094
28208WAT      O14636   7.979   3.006   4.328  0.3220  0.1613  0.9359
28208WAT     H114637   8.053   3.058   4.360  2.9683 -3.1386  0.7964
28208WAT     H214638   7.940   2.970   4.407  0.3371  0.1028  0.9166
28208WAT    EPW14639   7.984   3.008   4.343  0.6733 -0.2817  0.9148
28209WAT      O14640  10.441   3.690   3.418  0.3142  0.2472  0.4053
28209WAT     H114641  10.413   3.777   3.444 -0.6976  0.0259  0.0919
28209WAT     H214642  10.366   3.653   3.372  0.4413 -1.0779  1.2053
28209WAT    EPW14643  10.428   3.696   3.416  0.1974  0.0433  0.4696
28210WAT      O14644   5.842   9.222   0.761 -0.3628  0.1121 -0.8343
28210WAT     H114645   5.790   9.147   0.788  1.4056 -0.2363  1.9287
28210WAT     H214646   5.802   9.297   0.805  0.6256  0.0423  0.2198
28210WAT    EPW14647   5.830   9.222   0.770  0.0010  0.0572 -0.3309
28211WAT      O14648   2.706   5.624   8.859 -0.0444  0.1411  0.1612
28211WAT     H114649   2.720   5.647   8.951 -0.7467  0.5536  0.1784
28211WAT     H214650   2.760   5.686   8.810  0.4981 -0.2202  0.3016
28211WAT    EPW14651   2.715   5.635   8.864 -0.0656  0.1478  0.1826
28212WAT      O14652   5.928   8.380   4.757  0.3562  0.4036  0.2180
28212WAT     H114653   6.013   8.388   4.715  0.2022  0.0234 -0.1765
28212WAT     H214654   5.918   8.286   4.772  0.0365  0.4536  0.3283
28212WAT    EPW14655   5.938   8.368   4.753  0.2935  0.3600  0.1805
28213WAT      O14656   4.061  10.083   3.262  0.0065 -0.5719  0.3947
28213WAT     H114657   4.056  10.167   3.307  0.5493  1.3013 -2.7641
28213WAT     H214658   3.972  10.048   3.268 -0.6585  1.0167  0.3926
28213WAT    EPW14659   4.049  10.089   3.269 -0.0095 -0.1149 -0.0222
28214WAT      O14660   8.888   8.243   2.545  0.1447  0.4297  0.3821
28214WAT     H114661   8.946   8.252   2.620 -0.8401 -0.2413  1.2482
28214WAT     H214662   8.891   8.329   2.502  2.3163  0.2051 -0.0404
28214WAT    EPW14663   8.896   8.256   2.549  0.3004  0.3114  0.4407
28215WAT      O14664   9.180   2.287   1.500 -0.2680 -0.4737 -0.1829
28215WAT     H114665   9.214   2.266   1.413  0.7800  0.6684 -0.0756
28215WAT     H214666   9.087   2.306   1.485 -0.7566 -2.8230 -0.6089
28215WAT    EPW14667   9.172   2.287   1.486 -0.1945 -0.6329 -0.2250
28216WAT      O14668   6.964   9.118   3.624  0.5360  0.0166 -0.6778
28216WAT     H114669   6.937   9.076   3.542 -1.8868 -0.1510  0.1067
28216WAT     H214670   6.960   9.211   3.606 -1.5139  0.0259 -0.3882
28216WAT    EPW14671   6.960   9.124   3.611 -0.0541 -0.0038 -0.5361
28217WAT      O14672  10.822   2.411   2.809  0.3424 -0.7236 -1.2168
28217WAT     H114673  10.809   2.328   2.854  2.3076 -1.3570 -1.7431
28217WAT     H214674  10.900   2.398   2.755 -0.9825  0.5090 -3.5937
28217WAT    EPW14675  10.830   2.399   2.808  0.4268 -0.6446 -1.5998
28218WAT      O14676   2.148   1.304   2.365  0.0273 -0.2951 -0.1455
28218WAT     H114677   2.059   1.338   2.374  0.0988 -0.4070  1.2946
28218WAT     H214678   2.144   1.243   2.292 -1.3071 -0.9653  0.4570
28218WAT    EPW14679   2.136   1.300   2.357 -0.1394 -0.3983  0.1237
28219WAT      O14680   8.138   1.860   2.879 -0.3415 -0.0495 -0.2811
28219WAT     H114681   8.136   1.939   2.932 -0.1249 -0.7033  0.7228
28219WAT     H214682   8.185   1.796   2.932 -0.1713 -0.7484 -1.2312
28219WAT    EPW14683   8.144   1.862   2.893 -0.2904 -0.2278 -0.2739
28220WAT      O14684   7.766   1.487   0.775 -0.2928  0.5491 -0.5409
28220WAT     H114685   7.712   1.489   0.854  1.3221 -1.2424  0.6828
28220WAT     H214686   7.703   1.489   0.703 -1.8564  1.0663  0.7895
28220WAT    EPW14687   7.751   1.488   0.776 -0.2861  0.3810 -0.2040
28221WAT      O14688  10.038   1.554   1.366 -0.1857  0.4667  0.1050
28221WAT     H114689   9.982   1.603   1.305  0.5574  0.7036 -0.3987
28221WAT     H214690  10.127   1.575   1.339  0.1855  1.0602  1.6555
28221WAT    EPW14691  10.042   1.563   1.354 -0.0391  0.5762  0.2430
28222WAT      O14692   7.947   7.499   1.897 -0.0781  0.0031 -0.4242
28222WAT     H114693   7.884   7.467   1.962 -2.7937  2.5255 -1.5912
28222WAT     H214694   7.978   7.582   1.933  1.5291 -0.5029 -0.5647
28222WAT    EPW14695   7.942   7.505   1.910 -0.2244  0.2692 -0.5966
28223WAT      O14696   6.828   7.947   4.917  0.6074  0.0238  0.8575
28223WAT     H114697   6.903   7.905   4.959  1.2693 -0.4071 -0.6868
28223WAT     H214698   6.863   8.029   4.882  0.1682  0.1823  0.7800
28223WAT    EPW14699   6.843   7.952   4.918  0.6366 -0.0122  0.6435
28224WAT      O14700   7.379   2.367   0.226  0.3860 -0.2850  0.5797
28224WAT     H114701   7.367   2.462   0.228  4.0588  0.3235  1.4385
28224WAT     H214702   7.389   2.342   0.318  0.4117 -1.3570  0.2997
28224WAT    EPW14703   7.379   2.376   0.238  0.8738 -0.3463  0.6561
28225WAT      O14704   8.256   0.869   2.632  0.2445 -0.4993 -0.3997
28225WAT     H114705   8.322   0.803   2.609  0.1582 -0.9394  0.5873
28225WAT     H214706   8.285   0.904   2.716 -0.2432  0.0356 -0.4506
28225WAT    EPW14707   8.269   0.865   2.640  0.1683 -0.4868 -0.2763
28226WAT      O14708   0.922   7.499   7.629 -0.6685 -0.1090  0.6864
28226WAT     H114709   0.827   7.488   7.625 -0.6481 -0.0277 -0.8085
28226WAT     H214710   0.948   7.462   7.713 -1.9202 -0.9162  0.7347
28226WAT    EPW14711   0.913   7.493   7.639 -0.8309 -0.2046  0.4954
28227WAT      O14712   8.437   0.232   6.941  0.5807 -0.5643  0.3124
28227WAT     H114713   8.490   0.286   7.001  0.2496  0.7619 -0.5329
28227WAT     H214714   8.347   0.254   6.963  0.3902 -1.8322  0.8645
28227WAT    EPW14715   8.432   0.242   6.952  0.5116 -0.5566  0.2737
28228WAT      O14716   4.526   8.886   1.103  0.0905 -0.5878  0.7003
28228WAT     H114717   4.513   8.966   1.154  0.0966  1.2562 -1.9794
28228WAT     H214718   4.437   8.852   1.089  0.0454 -0.7681  1.4194
28228WAT    EPW14719   4.512   8.892   1.108  0.0854 -0.3681  0.4417
28229WAT      O14720   5.982  10.036   5.872 -0.2950  0.3879  0.1036
28229WAT     H114721   5.946  10.068   5.790 -1.7772  0.0215  0.5953
28229WAT     H214722   6.032  10.111   5.907 -3.4642  2.2024  1.1040
28229WAT    EPW14723   5.984  10.050   5.866 -0.9089  0.5789  0.3004
28230WAT      O14724   5.381   9.043   5.068  0.1408 -0.4751 -0.1765
28230WAT     H114725   5.459   9.030   5.013 -1.0500 -1.3219 -1.7346
28230WAT     H214726   5.371   8.960   5.115 -0.4594 -0.7952 -0.8521
28230WAT    EPW14727   5.390   9.030   5.067 -0.0954 -0.6289 -0.4711
28231WAT      O14728   2.241   0.415   2.095 -0.2687 -0.3957  0.1100
28231WAT     H114729   2.193   0.404   2.177  1.6869  4.5980  2.4233
28231WAT     H214730   2.332   0.429   2.123  0.5578  1.2056 -2.8776
28231WAT    EPW14731   2.247   0.416   2.110  0.0981  0.4742  0.0211
28232WAT      O14732   5.091   9.531   3.880  0.0638  0.2318 -0.0372
28232WAT     H114733   5.130   9.610   3.842  0.2091 -0.5162 -1.5067
28232WAT     H214734   5.000   9.554   3.895  0.3964  1.0926  0.8040
28232WAT    EPW14735   5.084   9.545   3.877  0.1268  0.2465 -0.1200
28233WAT      O14736   7.748   8.249   3.137  0.0282 -0.3958 -0.2514
28233WAT     H114737   7.784   8.335   3.114  0.8237 -0.9660 -1.2693
28233WAT     H214738   7.692   8.227   3.062 -3.5092  0.9563  1.7679
28233WAT    EPW14739   7.746   8.257   3.124 -0.3335 -0.2928 -0.1193
28234WAT      O14740   5.723  10.337   4.344 -0.3690  0.4150 -0.3818
28234WAT     H114741   5.733  10.409   4.281 -3.9956 -0.2648 -1.9681
28234WAT     H214742   5.747  10.259   4.294  2.4632  0.2554  1.0095
28234WAT    EPW14743   5.728  10.336   4.329 -0.4737  0.3037 -0.4072
28235WAT      O14744   7.037   9.663   4.881 -1.0251  0.3784 -0.4236
28235WAT     H114745   7.026   9.719   4.804 -2.5642  0.8558  0.1156
28235WAT     H214746   7.000   9.714   4.953 -0.0877 -0.2841  0.5567
28235WAT    EPW14747   7.031   9.677   4.880 -1.1044  0.3538 -0.2232
28236WAT      O14748   5.374   7.206   2.978  0.6349 -0.6127  0.3739
28236WAT     H114749   5.416   7.151   3.044  0.0894  0.0689  1.3283
28236WAT     H214750   5.354   7.147   2.906  2.9485 -1.0044 -0.0067
28236WAT    EPW14751   5.377   7.191   2.977  0.8681 -0.5744  0.4497
28237WAT      O14752   2.078  10.336   6.218  0.0677  0.8161  0.5355
28237WAT     H114753   2.110  10.348   6.308  0.9418 -2.1029  0.7179
28237WAT     H214754   2.013  10.266   6.225 -0.9292  1.5544 -0.9277
28237WAT    EPW14755   2.074  10.328   6.231  0.0515  0.5293  0.3662
28238WAT      O14756   4.186  10.074   2.816  0.0317  0.1711 -0.1138
28238WAT     H114757   4.196  10.080   2.721 -0.8105 -1.8170 -0.3722
28238WAT     H214758   4.263  10.118   2.852 -0.2366  2.0494 -1.6660
28238WAT    EPW14759   4.197  10.081   2.808 -0.1149  0.1569 -0.3526
28239WAT      O14760   6.030  10.255   2.502  0.5132 -0.7769 -0.3032
28239WAT     H114761   6.057  10.168   2.532  1.3856 -0.1840  0.6969
28239WAT     H214762   6.095  10.279   2.436  2.2087  0.3948  1.6719
28239WAT    EPW14763   6.042  10.247   2.497  0.8519 -0.5441  0.0893
28240WAT      O14764   6.094   7.179   4.986 -0.1135  0.6030 -0.0963
28240WAT     H114765   6.143   7.186   4.904  0.2350  1.0543  0.1481
28240WAT     H214766   6.138   7.108   5.034 -0.9262 -0.3476 -0.7045
28240WAT    EPW14767   6.106   7.170   4.982 -0.1748  0.5372 -0.1442
28241WAT      O14768   2.038   0.086   3.941  0.0477  0.0285  1.0221
28241WAT     H114769   1.971   0.021   3.963  1.3571 -1.3304  1.2027
28241WAT     H214770   2.121   0.044   3.967  0.9166  1.9790  1.5837
28241WAT    EPW14771   2.040   0.072   3.947  0.3350  0.1065  1.1201
28242WAT      O14772   7.470   5.550   5.725 -0.2484 -0.2377  0.2725
28242WAT     H114773   7.456   5.623   5.785 -0.9924  0.0760 -0.2660
28242WAT     H214774   7.528   5.585   5.658 -2.4075  0.6263 -1.2563
28242WAT    EPW14775   7.476   5.564   5.724 -0.6316 -0.0823 -0.0002
28243WAT      O14776   7.210   3.507   2.536 -0.2280 -0.5302 -0.0580
28243WAT     H114777   7.249   3.552   2.611  1.4500 -2.6029  0.3981
28243WAT     H214778   7.140   3.565   2.508  1.4796  2.1051  0.7765
28243WAT    EPW14779   7.206   3.520   2.543  0.2186 -0.4560  0.1122
28244WAT      O14780  10.511   2.190   2.209  0.6920  0.6060  0.4393
28244WAT     H114781  10.427   2.161   2.174  0.6508  0.8511  0.3362
28244WAT     H214782  10.577   2.142   2.158  0.6308  0.9163  0.0668
28244WAT    EPW14783  10.509   2.180   2.198  0.6785  0.6791  0.3766
28245WAT      O14784   0.985   3.211   8.697  0.0683  0.3813  0.7625
28245WAT     H114785   0.901   3.213   8.651 -0.8248 -2.4329  2.0618
28245WAT     H214786   1.009   3.303   8.706 -2.0423  1.2114 -1.0796
28245WAT    EPW14787   0.977   3.223   8.692 -0.3278  0.1196  0.6909
28246WAT      O14788   5.166   8.379   4.183  0.6926  0.4873  0.3438
28246WAT     H114789   5.259   8.398   4.172  0.4699  0.8033 -1.2456
28246WAT     H214790   5.165   8.299   4.236  1.9874 -0.9295 -1.6124
28246WAT    EPW14791   5.178   8.371   4.189  0.8342  0.3419 -0.1237
28247WAT      O14792   9.713   2.603   3.753  0.3043  0.2518  0.2081
28247WAT     H114793   9.628   2.621   3.793  0.4996  0.0503  0.7179
28247WAT     H214794   9.777   2.638   3.815  0.5625  4.0507 -1.9325
28247WAT    EPW14795   9.710   2.610   3.767  0.3643  0.7262 -0.0069
28248WAT      O14796   6.877   0.673   4.109  0.2594  0.5868 -0.6134
28248WAT     H114797   6.789   0.670   4.070  0.3749  0.9240 -0.9032
28248WAT     H214798   6.875   0.750   4.165 -0.2101 -0.4219  0.8048
28248WAT    EPW14799   6.865   0.683   4.111  0.2127  0.4982 -0.4647
28249WAT      O14800  10.686   1.402   4.021 -0.0795  0.7902  0.5676
28249WAT     H114801  10.723   1.397   4.110  1.6088 -3.5905 -0.1174
28249WAT     H214802  10.759   1.431   3.967 -0.2538  0.6811  0.2752
28249WAT    EPW14803  10.701   1.405   4.026  0.1197  0.1981  0.4387
28250WAT      O14804  10.366   0.420   3.586 -0.1134 -0.4594 -0.3241
28250WAT     H114805  10.295   0.485   3.584 -0.9263 -0.8426  4.4042
28250WAT     H214806  10.337   0.355   3.651  1.9368 -4.1098 -2.7278
28250WAT    EPW14807  10.353   0.420   3.594  0.0491 -0.9914 -0.0176
28251WAT      O14808   9.163   3.774   2.192  0.0907  0.3022 -0.4388
28251WAT     H114809   9.071   3.776   2.216  0.2744  1.5814  0.2488
28251WAT     H214810   9.180   3.860   2.152  0.8130 -0.1912 -1.2426
28251WAT    EPW14811   9.153   3.786   2.190  0.2098  0.4059 -0.4541
28252WAT      O14812   4.475   8.251   1.278  0.9063 -0.0432  0.2181
28252WAT     H114813   4.569   8.236   1.278  1.1639  1.3165 -0.8275
28252WAT     H214814   4.460   8.307   1.201 -0.7838 -0.4338  0.2244
28252WAT    EPW14815   4.485   8.257   1.268  0.7174  0.0844  0.0810
28253WAT      O14816   4.561   9.441   0.255  0.5674 -0.0094  0.5002
28253WAT     H114817   4.499   9.424   0.184  0.7568  1.5267 -0.0729
28253WAT     H214818   4.609   9.359   0.265  1.4532  0.1089 -2.0789
28253WAT    EPW14819   4.559   9.428   0.247  0.7093  0.2084  0.0845
28254WAT      O14820   7.273  10.277   1.101  0.5590 -0.2666 -0.0345
28254WAT     H114821   7.194  10.315   1.138  0.1645 -1.3462  0.2648
28254WAT     H214822   7.297  10.336   1.028 -1.3295 -0.7115 -1.0630
28254WAT    EPW14823   7.266  10.290   1.096  0.2582 -0.4673 -0.1307
28255WAT      O14824   8.240   0.164   4.613 -0.0561 -0.2596  0.5063
28255WAT     H114825   8.258   0.121   4.529  0.2116  6.0616 -3.4052
28255WAT     H214826   8.326   0.176   4.653  0.5984  1.1229 -1.1705
28255WAT    EPW14827   8.254   0.160   4.607  0.0653  0.7565 -0.2308
28256WAT      O14828   6.450   0.249   3.281  0.3575 -0.4579  0.3916
28256WAT     H114829   6.371   0.269   3.332 -0.3672 -1.4717 -0.2796
28256WAT     H214830   6.488   0.173   3.325  1.5456  0.6270  1.2995
28256WAT    EPW14831   6.444   0.241   3.294  0.4187 -0.4485  0.4228
28257WAT      O14832   6.979   8.279   2.246  0.0988  0.2695 -0.1865
28257WAT     H114833   7.003   8.371   2.239  0.2717  0.1990 -0.5928
28257WAT     H214834   6.884   8.278   2.239  0.0480  0.4712  0.4578
28257WAT    EPW14835   6.970   8.291   2.244  0.1149  0.2875 -0.1552
28258WAT      O14836  10.071   5.687   4.780  0.0470 -0.6712  0.3794
28258WAT     H114837  10.050   5.612   4.836  1.5336 -0.1962  1.6290
28258WAT     H214838  10.166   5.689   4.776  0.0010  0.1506 -1.0552
28258WAT    EPW14839  10.081   5.677   4.787  0.2370 -0.5002  0.3550
28259WAT      O14840   9.543   8.986   2.767  0.6070 -0.1537  0.0959
28259WAT     H114841   9.610   8.990   2.835 -1.7666 -3.5183  2.9532
28259WAT     H214842   9.465   9.023   2.807 -0.2207  0.3887 -1.8679
28259WAT    EPW14843   9.542   8.992   2.781  0.1850 -0.5260  0.2139
28260WAT      O14844   7.647   7.706   5.984 -0.4055 -0.3089  0.5371
28260WAT     H114845   7.694   7.759   5.918 -3.0512  1.3010 -0.2149
28260WAT     H214846   7.586   7.653   5.933 -1.7869  0.2001  1.5874
28260WAT    EPW14847   7.645   7.706   5.968 -0.9365 -0.0296  0.5765
28261WAT      O14848   5.250   8.545   4.440 -0.0398  1.1210  0.1650
28261WAT     H114849   5.345   8.533   4.450 -0.1421  0.9222  0.9781
28261WAT     H214850   5.235   8.542   4.346  0.4466 -1.5148  0.0982
28261WAT    EPW14851   5.261   8.543   4.429  0.0107  0.7472  0.2635
28262WAT      O14852   1.332   1.003   3.390 -0.1839 -0.7823 -0.8670
28262WAT     H114853   1.278   1.051   3.327  2.2669 -0.8102 -3.1452
28262WAT     H214854   1.281   1.004   3.471 -1.4522  3.3010 -1.5048
28262WAT    EPW14855   1.318   1.009   3.392 -0.0280 -0.2474 -1.2517
28263WAT      O14856   8.306   9.605   3.665  0.6715 -0.4565  0.2211
28263WAT     H114857   8.332   9.687   3.624 -0.3778  0.5603  1.4919
28263WAT     H214858   8.322   9.618   3.758 -2.4600 -0.4160  0.8858
28263WAT    EPW14859   8.311   9.617   3.672  0.1206 -0.3171  0.4764
28264WAT      O14860   9.240   0.551   2.350 -0.4230  0.3490  0.2387
28264WAT     H114861   9.324   0.596   2.358  0.0909 -0.0958 -1.9888
28264WAT     H214862   9.214   0.532   2.440  0.5547  2.8073  1.1279
28264WAT    EPW14863   9.248   0.554   2.363 -0.2260  0.6146  0.0621
28265WAT      O14864   0.647   5.148   8.534  0.1046  0.3796  0.6172
28265WAT     H114865   0.582   5.198   8.484 -0.1777  0.0170  0.6180
28265WAT     H214866   0.692   5.096   8.468 -0.2366 -0.0639  0.7303
28265WAT    EPW14867   0.644   5.148   8.518  0.0224  0.2735  0.6323
28266WAT      O14868   2.673   1.328   3.362 -0.7129 -0.8298 -0.1159
28266WAT     H114869   2.735   1.397   3.385  1.3673 -2.6504  0.0579
28266WAT     H214870   2.667   1.274   3.440 -2.7231 -0.6251 -0.0736
28266WAT    EPW14871   2.680   1.330   3.375 -0.7036 -1.0430 -0.0875
28267WAT      O14872   1.910   0.078   4.631  0.2939  0.7890 -0.1739
28267WAT     H114873   1.930   0.161   4.587  0.7457  0.4007 -0.7044
28267WAT     H214874   1.952   0.011   4.578 -1.0150  0.0891 -0.3808
28267WAT    EPW14875   1.918   0.080   4.618  0.1807  0.6455 -0.2711
28268WAT      O14876   3.772   8.470   0.437  0.4246  0.3491 -0.0398
28268WAT     H114877   3.678   8.455   0.424  0.5212  1.4500 -2.4301
28268WAT     H214878   3.800   8.515   0.358  2.8867  0.5407  0.8754
28268WAT    EPW14879   3.763   8.474   0.425  0.7621  0.5193 -0.2343
28269WAT      O14880   8.684   6.251   4.043 -0.4925  0.2095  0.0284
28269WAT     H114881   8.725   6.174   4.004  1.1170  0.8961  0.2832
28269WAT     H214882   8.637   6.292   3.971  1.1786  0.6275 -0.8660
28269WAT    EPW14883   8.683   6.246   4.029 -0.0601  0.3552 -0.0560
28270WAT      O14884   2.678   5.816   8.308  0.9782 -0.5370  0.1480
28270WAT     H114885   2.592   5.849   8.284  1.5016  1.9872  1.5003
28270WAT     H214886   2.660   5.741   8.364 -0.4083  0.7465  1.4996
28270WAT    EPW14887   2.665   5.810   8.312  0.8644 -0.0346  0.5050
28271WAT      O14888  10.744   0.375   4.389  0.5488 -0.1951 -0.3299
28271WAT     H114889  10.773   0.336   4.307  1.7506  1.1719 -0.6060
28271WAT     H214890  10.675   0.436   4.363 -0.4344 -1.1702 -0.0604
28271WAT    EPW14891  10.739   0.378   4.374  0.5774 -0.1434 -0.3307
28272WAT      O14892   0.417   3.344   4.590  0.4973 -0.1290  0.1073
28272WAT     H114893   0.323   3.338   4.610  0.2283 -0.7270 -1.2059
28272WAT     H214894   0.461   3.329   4.674 -0.5846  0.2017  0.7465
28272WAT    EPW14895   0.410   3.341   4.604  0.3191 -0.1642  0.0184
28273WAT      O14896   7.583   3.607   2.231 -0.2693 -0.3939  0.2082
28273WAT     H114897   7.496   3.638   2.253 -0.2588 -0.7270  0.7303
28273WAT     H214898   7.634   3.687   2.216 -0.4741 -0.1783  0.6444
28273WAT    EPW14899   7.579   3.622   2.232 -0.2952 -0.4092  0.3344
28274WAT      O14900   7.772   9.980   4.687 -0.9498 -0.7899  0.0669
28274WAT     H114901   7.718  10.038   4.632 -0.9532 -1.2613 -0.4446
28274WAT     H214902   7.754   9.892   4.652 -1.0814 -1.1149  0.9427
28274WAT    EPW14903   7.762   9.976   4.675 -0.9675 -0.8950  0.1152
28275WAT      O14904   0.892   2.839   2.355 -0.1267  0.4825  0.2326
28275WAT     H114905   0.929   2.752   2.366 -0.1589  0.5752  1.1712
28275WAT     H214906   0.798   2.828   2.367 -0.1361  0.6375  0.3119
28275WAT    EPW14907   0.885   2.826   2.358 -0.1322  0.5151  0.3669
28276WAT      O14908  10.288   0.907   4.987  0.6601  0.5113 -0.1806
28276WAT     H114909  10.246   0.829   5.023 -0.5011  0.2114 -2.0787
28276WAT     H214910  10.331   0.876   4.907  1.4103  1.5603 -0.2049
28276WAT    EPW14911  10.288   0.892   4.982  0.6061  0.6101 -0.4342
28277WAT      O14912   9.503   2.771   1.937 -0.4650 -0.4761  0.3264
28277WAT     H114913   9.575   2.710   1.949 -1.0932 -1.2434  0.2894
28277WAT     H214914   9.500   2.820   2.019  0.5676  0.0959  0.0386
28277WAT    EPW14915   9.512   2.770   1.950 -0.4115 -0.5019  0.2835
28278WAT      O14916   1.140   3.090   6.234 -0.0758  1.0884  0.2039
28278WAT     H114917   1.118   2.997   6.219  1.3539  0.4260  1.8949
28278WAT     H214918   1.087   3.137   6.169 -0.1872 -0.9604 -1.3091
28278WAT    EPW14919   1.130   3.084   6.223  0.0981  0.7308  0.2275
28279WAT      O14920   7.359   9.574   3.142  0.3880 -0.4919  0.1626
28279WAT     H114921   7.284   9.583   3.200  0.3887  1.1961 -0.0563
28279WAT     H214922   7.414   9.508   3.184  0.5459  0.9106  2.2900
28279WAT    EPW14923   7.357   9.566   3.155  0.4091 -0.0844  0.4144
28280WAT      O14924   9.890   9.999   3.427 -0.3559  0.4808 -0.5819
28280WAT     H114925   9.886  10.024   3.519  1.4627  2.7640 -1.0415
28280WAT     H214926   9.799  10.001   3.398 -0.9123  0.1460  1.0419
28280WAT    EPW14927   9.877  10.003   3.435 -0.1893  0.7367 -0.4284
28281WAT      O14928   9.725   0.757   3.146 -0.4443  0.1319  0.3508
28281WAT     H114929   9.807   0.707   3.145 -0.3041  0.3336  0.9593
28281WAT     H214930   9.744   0.834   3.092 -0.9758 -0.9163 -1.4226
28281WAT    EPW14931   9.739   0.761   3.139 -0.4964  0.0202  0.1972
28282WAT      O14932   0.288   4.884   0.986 -0.5842 -0.3061 -0.1695
28282WAT     H114933   0.353   4.832   1.034  1.9207  1.4813 -1.3798
28282WAT     H214934   0.267   4.956   1.045 -1.7289 -1.0193  0.3221
28282WAT    EPW14935   0.294   4.887   1.000 -0.4048 -0.1643 -0.2643
28283WAT      O14936   9.513   8.940   1.467  0.2994 -0.4853  0.4048
28283WAT     H114937   9.576   8.913   1.400  0.3452 -0.3728  0.4016
28283WAT     H214938   9.503   9.035   1.454  0.6724 -0.3777  0.8573
28283WAT    EPW14939   9.520   8.949   1.457  0.3548 -0.4563  0.4641
28284WAT      O14940   6.542   8.226   5.004 -0.3155  0.3174  0.4257
28284WAT     H114941   6.621   8.190   5.044 -0.7736 -1.1542  0.0549
28284WAT     H214942   6.474   8.214   5.070 -0.1193  2.3441  1.0879
28284WAT    EPW14943   6.544   8.220   5.018 -0.3500  0.3905  0.4642
28285WAT      O14944   1.508   3.260   0.794 -0.3358 -0.6219  0.3267
28285WAT     H114945   1.470   3.180   0.830 -0.2127  0.4645  3.0800
28285WAT     H214946   1.453   3.331   0.828  0.3542  0.5788 -0.9309
28285WAT    EPW14947   1.496   3.259   0.803 -0.2286 -0.3203  0.5240
28286WAT      O14948  10.550   1.980   4.894 -0.2380  0.1317  0.1588
28286WAT     H114949  10.521   2.070   4.884  0.5646  0.5436  1.3469
28286WAT     H214950  10.474   1.928   4.867 -0.7850  1.1435 -0.3304
28286WAT    EPW14951  10.536   1.985   4.889 -0.2041  0.3195  0.2508
28287WAT      O14952   6.494   9.986   0.146 -0.4169  0.1515  0.4939
28287WAT     H114953   6.574  10.019   0.188 -1.0833  0.7927  1.3023
28287WAT     H214954   6.466   9.913   0.201 -1.3401  1.0506  1.2805
28287WAT    EPW14955   6.501   9.981   0.159 -0.6268  0.3543  0.7043
28288WAT      O14956   6.475   6.854   0.681  0.0622  0.0713 -0.4515
28288WAT     H114957   6.506   6.894   0.600 -0.1436  0.0617 -0.5345
28288WAT     H214958   6.437   6.927   0.731  0.9375  0.2323 -0.0003
28288WAT    EPW14959   6.474   6.869   0.677  0.1507  0.0916 -0.4029
28289WAT      O14960   9.418   0.800   2.128 -0.2126  0.7933 -0.3987
28289WAT     H114961   9.333   0.844   2.119  0.5531  1.9350 -2.6871
28289WAT     H214962   9.405   0.714   2.087  0.3577  1.9762 -3.3082
28289WAT    EPW14963   9.405   0.795   2.121 -0.0362  1.0999 -1.0843
28290WAT      O14964   7.058   9.100   0.666 -0.1091 -0.2454  0.1855
28290WAT     H114965   7.084   9.192   0.656  0.8112 -0.6644 -1.7748
28290WAT     H214966   7.140   9.055   0.686  0.3288 -1.1660 -3.0813
28290WAT    EPW14967   7.072   9.106   0.667  0.0699 -0.4230 -0.5040
28291WAT      O14968   0.004   1.884   4.714  0.2383  0.2923 -0.3275
28291WAT     H114969   0.032   1.798   4.681  0.9109  0.5078 -0.3221
28291WAT     H214970   0.073   1.944   4.686  0.0563  0.7345  0.1686
28291WAT    EPW14971   0.017   1.880   4.706  0.3028  0.3790 -0.2615
28292WAT      O14972   8.949   9.609   5.756 -0.2675 -0.8664  0.0927
28292WAT     H114973   8.885   9.638   5.690  1.7093  0.9781 -1.1674
28292WAT     H214974   8.996   9.538   5.713 -0.5692 -1.3048  0.4838
28292WAT    EPW14975   8.947   9.604   5.741 -0.0458 -0.6809 -0.0219
28293WAT      O14976   7.320   8.438   3.954 -0.4357  0.4909  0.2400
28293WAT     H114977   7.314   8.408   3.863 -2.9276  0.3509  0.3826
28293WAT     H214978   7.268   8.374   4.004  1.5185  0.1156  1.9252
28293WAT    EPW14979   7.312   8.425   3.949 -0.5066  0.4230  0.4810
28294WAT      O14980   2.145   0.394   1.553 -0.0091 -0.4603  0.3995
28294WAT     H114981   2.080   0.460   1.530 -0.5711  0.0500  3.0471
28294WAT     H214982   2.093   0.319   1.584  0.6141 -0.4968  1.4147
28294WAT    EPW14983   2.129   0.393   1.554 -0.0011 -0.3978  0.8826
28295WAT      O14984   9.363   9.630   3.937 -0.5824  0.6702 -0.3772
28295WAT     H114985   9.296   9.635   4.005  0.0648  0.5382  0.2804
28295WAT     H214986   9.386   9.721   3.919  1.1049  0.6548  1.4693
28295WAT    EPW14987   9.357   9.643   3.943 -0.2742  0.6504 -0.0468
28296WAT      O14988   8.173   2.330   5.317  0.5478  0.0637 -0.1129
28296WAT     H114989   8.156   2.318   5.224  0.4472 -1.6903  0.1011
28296WAT     H214990   8.253   2.281   5.334  0.5701  0.3708  0.7101
28296WAT    EPW14991   8.181   2.322   5.307  0.5374 -0.1273  0.0243
28297WAT      O14992  10.414   0.764   1.718  0.0073 -0.2972 -0.6495
28297WAT     H114993  10.414   0.817   1.798  1.1369  0.1092 -0.8985
28297WAT     H214994  10.480   0.805   1.662 -0.6433 -0.6766 -1.7334
28297WAT    EPW14995  10.423   0.777   1.721  0.0706 -0.2936 -0.8253
28298WAT      O14996   0.168   2.072   0.709  0.1779  0.2056 -0.5295
28298WAT     H114997   0.132   2.159   0.726  0.2658 -0.2266  2.2763
28298WAT     H214998   0.091   2.015   0.709  0.2102  0.1343 -1.5584
28298WAT    EPW14999   0.153   2.076   0.711  0.1937  0.1390 -0.2951
28299WAT      O15000   2.826   9.198   5.079  0.2547  0.0063  0.3548
28299WAT     H115001   2.768   9.125   5.101 -0.8875  0.5067 -0.8628
28299WAT     H215002   2.830   9.198   4.983  1.2662  0.7731  0.3691
28299WAT    EPW15003   2.819   9.188   5.069  0.2375  0.1736  0.1960
28300WAT      O15004  10.736   1.285   1.518 -0.0412 -0.3066  0.1471
28300WAT     H115005  10.697   1.356   1.569  1.0814  1.5890 -1.4863
28300WAT     H215006  10.783   1.232   1.582  0.4491  1.3783  1.2394
28300WAT    EPW15007  10.737   1.288   1.533  0.1717  0.1656  0.0757
28301WAT      O15008   9.008   1.451   3.082 -0.1510  0.0026 -0.0605
28301WAT     H115009   8.975   1.512   3.016  0.6716 -0.1030 -0.5936
28301WAT     H215010   9.099   1.435   3.056  0.7229  1.1824  1.9942
28301WAT    EPW15011   9.016   1.457   3.070  0.0730  0.1443  0.1402
28302WAT      O15012   7.920   3.467   3.815 -0.2210  0.0504 -0.9434
28302WAT     H115013   7.864   3.501   3.745  0.8719 -0.2155 -1.9784
28302WAT     H215014   8.007   3.464   3.776  0.3130 -0.6285  0.2654
28302WAT    EPW15015   7.924   3.471   3.800 -0.0062 -0.0744 -0.9205
28303WAT      O15016   2.057   2.129   3.574  0.5813  0.1653 -0.0245
28303WAT     H115017   2.153   2.127   3.573  0.6290  0.9807  1.1257
28303WAT     H215018   2.033   2.165   3.489  1.2268 -1.4336 -0.9187
28303WAT    EPW15019   2.067   2.134   3.563  0.6728  0.0620  0.0091
28304WAT      O15020   2.498   0.803   2.984 -0.1091 -0.3631 -0.5160
28304WAT     H115021   2.587   0.837   2.980  1.8161 -4.5314  1.0511
28304WAT     H215022   2.476   0.806   3.078 -0.8515 -1.1077 -0.6573
28304WAT    EPW15023   2.507   0.808   2.996  0.0468 -1.0111 -0.3278
28305WAT      O15024   8.830   0.597   4.075 -0.9337  0.3045  0.2668
28305WAT     H115025   8.803   0.610   3.985  0.1859  1.0397  0.0255
28305WAT     H215026   8.834   0.685   4.112  1.6170  0.3011  0.1283
28305WAT    EPW15027   8.827   0.610   4.068 -0.4501  0.4010  0.2167
28306WAT      O15028   9.019   8.789   1.954 -0.4068  0.2104 -0.3440
28306WAT     H115029   9.031   8.748   2.039 -0.0214 -0.8767 -0.8924
28306WAT     H215030   8.930   8.823   1.955  0.0391  1.4105  0.9701
28306WAT    EPW15031   9.009   8.788   1.965 -0.2971  0.2255 -0.2430
28307WAT      O15032   8.888   8.782   1.112  1.0330  0.0707  0.1290
28307WAT     H115033   8.849   8.699   1.140 -1.0796  0.9780  0.1197
28307WAT     H215034   8.960   8.757   1.054 -0.8475 -1.7777 -1.5739
28307WAT    EPW15035   8.892   8.768   1.108  0.5064 -0.0529 -0.0968
28308WAT      O15036   9.353   8.440   3.124 -0.6496  0.6838  0.7182
28308WAT     H115037   9.410   8.486   3.186  0.4172  0.8521 -0.3419
28308WAT     H215038   9.264   8.462   3.152 -0.2572 -0.6319  3.2028
28308WAT    EPW15039   9.349   8.449   3.136 -0.4573  0.5322  0.9060
28309WAT      O15040  10.545   4.082   2.486  0.7655  0.1015 -0.3355
28309WAT     H115041  10.504   3.996   2.495  1.0076  0.1734  2.0572
28309WAT     H215042  10.474   4.140   2.459  0.7691 -0.9334 -2.7860
28309WAT    EPW15043  10.530   4.079   2.484  0.7982 -0.0257 -0.3430
28310WAT      O15044   8.155   0.421   4.526 -0.2133  0.3922 -0.6281
28310WAT     H115045   8.213   0.463   4.589  1.0887  0.6411 -1.9537
28310WAT     H215046   8.193   0.334   4.511 -2.0346 -0.7760  0.9364
28310WAT    EPW15047   8.167   0.415   4.532 -0.2818  0.2709 -0.5968
28311WAT      O15048   2.202   0.692   3.066 -0.6212 -0.6227  0.1147
28311WAT     H115049   2.263   0.765   3.058 -0.8962  0.0531  3.0510
28311WAT     H215050   2.216   0.640   2.987  0.0700  2.1921 -1.7588
28311WAT    EPW15051   2.212   0.695   3.055 -0.5664 -0.1623  0.2549
28312WAT      O15052  10.437   2.224   4.453 -0.0985  0.2101  0.5940
28312WAT     H115053  10.428   2.298   4.393 -3.7805 -1.5887 -1.4238
28312WAT     H215054  10.413   2.260   4.539 -2.2140  1.3462 -0.3998
28312WAT    EPW15055  10.433   2.238   4.457 -0.8631  0.1227  0.1969
28313WAT      O15056   5.945   8.423   2.927  0.2743  0.5992  0.6047
28313WAT     H115057   5.899   8.366   2.989 -0.1072  0.3429  0.0965
28313WAT     H215058   6.032   8.434   2.964  0.9018 -1.5973 -0.0363
28313WAT    EPW15059   5.950   8.417   2.940  0.3068  0.2751  0.4531
28314WAT      O15060   9.109   7.609   6.890  0.0200  0.0952  0.3867
28314WAT     H115061   9.138   7.526   6.852 -1.2438  1.2450 -3.6518
28314WAT     H215062   9.172   7.673   6.857  0.5177  0.9307  2.7917
28314WAT    EPW15063   9.121   7.606   6.881 -0.0811  0.3572  0.1714
28315WAT      O15064  10.535   1.238   2.038  1.0363 -0.0634  0.7630
28315WAT     H115065  10.616   1.217   1.992  1.4435  3.3112 -0.3060
28315WAT     H215066  10.560   1.307   2.100 -0.4728 -1.1422  2.7083
28315WAT    EPW15067  10.549   1.245   2.040  0.8917  0.2394  0.8783
28316WAT      O15068   8.117   1.596   4.063  0.2378  0.3871  0.2424
28316WAT     H115069   8.060   1.664   4.029  1.6492  1.3653 -0.2817
28316WAT     H215070   8.183   1.644   4.114  0.6893 -0.6782  0.6873
28316WAT    EPW15071   8.118   1.611   4.065  0.4835  0.3756  0.2320
28317WAT      O15072   2.122   3.459   0.682 -0.6262 -0.8427 -0.0852
28317WAT     H115073   2.176   3.436   0.758 -3.5097 -2.0983  1.7306
28317WAT     H215074   2.055   3.518   0.717  0.5692  2.3534 -2.6682
28317WAT    EPW15075   2.121   3.464   0.697 -0.8488 -0.5867 -0.1864
28318WAT      O15076   9.920   4.119   2.864 -0.1972  0.0834  0.5675
28318WAT     H115077   9.886   4.037   2.827  0.1267 -0.1606  0.8035
28318WAT     H215078   9.933   4.100   2.957  0.4083  0.2268  0.5154
28318WAT    EPW15079   9.917   4.105   2.871 -0.0749  0.0703  0.5918
28319WAT      O15080   9.577   0.261   1.496 -0.1220  0.2857 -0.2264
28319WAT     H115081   9.501   0.264   1.437 -0.3340 -2.0915 -0.1777
28319WAT     H215082   9.636   0.328   1.462 -1.7634  1.4389 -0.9324
28319WAT    EPW15083   9.575   0.270   1.484 -0.3662  0.1243 -0.3130
28320WAT      O15084   8.798   7.387   4.262 -0.2955 -0.5223 -0.1134
28320WAT     H115085   8.786   7.382   4.357 -1.6873  0.0670 -0.2292
28320WAT     H215086   8.709   7.385   4.227  0.0940  1.1112 -1.3031
28320WAT    EPW15087   8.785   7.386   4.270 -0.4282 -0.2291 -0.2856
28321WAT      O15088   5.548   2.268   2.633 -0.9626  0.7744 -0.1883
28321WAT     H115089   5.584   2.208   2.697  2.1361  0.2726 -2.1504
28321WAT     H215090   5.605   2.345   2.637 -2.1842  1.7550 -0.7031
28321WAT    EPW15091   5.560   2.271   2.642 -0.7150  0.8376 -0.5150
28322WAT      O15092   0.438   0.865   3.041 -0.1497  0.0756 -0.0913
28322WAT     H115093   0.402   0.787   3.083  0.9692 -0.1169  0.5569
28322WAT     H215094   0.527   0.840   3.016  0.7714  1.5549  1.4669
28322WAT    EPW15095   0.445   0.852   3.043  0.1194  0.2453  0.1996
28323WAT      O15096   8.872   2.509   4.929  0.0175  0.0975  0.0541
28323WAT     H115097   8.861   2.464   5.012 -1.1081  0.4281  0.0997
28323WAT     H215098   8.953   2.473   4.893  0.0560 -0.6841  0.8818
28323WAT    EPW15099   8.881   2.498   4.935 -0.1254  0.0380  0.1695
28324WAT      O15100   9.685   0.971   1.034  0.0055 -0.1526  0.6555
28324WAT     H115101   9.608   0.931   1.073 -0.6567  0.3997 -0.0588
28324WAT     H215102   9.651   1.026   0.963  1.0856 -0.2976 -0.0089
28324WAT    EPW15103   9.671   0.973   1.030  0.0606 -0.0988  0.4737
28325WAT      O15104   0.675   3.578   4.225 -0.0702 -0.1842  0.4532
28325WAT     H115105   0.701   3.521   4.152  0.6466  0.2627  0.3509
28325WAT     H215106   0.675   3.520   4.301 -0.2535 -0.5235  0.2025
28325WAT    EPW15107   0.678   3.563   4.225  0.0002 -0.1700  0.4067
28326WAT      O15108   1.639   0.669   4.092  0.6363 -0.8102  0.2675
28326WAT     H115109   1.604   0.621   4.168  0.8446 -0.9139  0.2998
28326WAT     H215110   1.732   0.679   4.111  0.5523 -0.1839  0.3679
28326WAT    EPW15111   1.647   0.664   4.105  0.6527 -0.7412  0.2849
28327WAT      O15112   7.649  10.305   3.063  0.1821  0.2727  0.4392
28327WAT     H115113   7.604  10.382   3.097  0.3672  1.1836 -1.2654
28327WAT     H215114   7.740  10.332   3.054 -0.1576  0.7806 -2.4881
28327WAT    EPW15115   7.655  10.319   3.066  0.1619  0.4597 -0.1718
28328WAT      O15116   0.905   9.351   3.968 -0.0415 -0.1600 -0.3064
28328WAT     H115117   0.974   9.284   3.977 -0.3294 -0.9949 -3.3644
28328WAT     H215118   0.830   9.303   3.932 -1.2358  1.3333  0.0965
28328WAT    EPW15119   0.904   9.336   3.965 -0.2370 -0.0734 -0.6567
28329WAT      O15120   1.402   2.337   3.311  0.1766 -0.4944 -0.1215
28329WAT     H115121   1.472   2.288   3.353  0.0386 -0.8256 -0.2754
28329WAT     H215122   1.447   2.402   3.257  0.3908  1.6229  2.4241
28329WAT    EPW15123   1.417   2.339   3.309  0.1866 -0.2588  0.1937
28330WAT      O15124   2.080   1.078   3.750  0.1301  0.7143 -0.6024
28330WAT     H115125   2.121   1.050   3.668  3.9871  1.3437  0.8974
28330WAT     H215126   2.094   1.172   3.753 -1.5660  0.9809  0.0326
28330WAT    EPW15127   2.087   1.086   3.740  0.4150  0.8325 -0.3208
28331WAT      O15128   7.692   1.412   3.123 -0.0243  0.4781  0.3145
28331WAT     H115129   7.650   1.343   3.073  1.0419 -0.4348  0.6512
28331WAT     H215130   7.645   1.414   3.207 -0.2977  0.4273  0.1619
28331WAT    EPW15131   7.680   1.403   3.128  0.0799  0.3510  0.3388
28332WAT      O15132   5.966   9.452   1.896 -0.7496  0.4302  0.5036
28332WAT     H115133   5.975   9.360   1.872  0.6692  0.9742 -1.2648
28332WAT     H215134   6.034   9.465   1.963 -0.3992  0.3833  0.1581
28332WAT    EPW15135   5.976   9.441   1.902 -0.5162  0.4954  0.2248
28333WAT      O15136   2.836   4.205   8.379 -0.4922 -0.4619  0.0547
28333WAT     H115137   2.751   4.163   8.368  0.0447 -1.8179  0.8190
28333WAT     H215138   2.829   4.287   8.329 -0.6561 -2.7103 -4.0025
28333WAT    EPW15139   2.824   4.210   8.371 -0.4431 -0.9372 -0.3796
28334WAT      O15140   8.170   2.119   1.730 -0.3846  0.3319 -0.0766
28334WAT     H115141   8.231   2.133   1.657 -0.1778 -2.0552 -0.4277
28334WAT     H215142   8.225   2.087   1.801 -1.2114 -2.2764 -0.5327
28334WAT    EPW15143   8.186   2.117   1.730 -0.4654 -0.3268 -0.1830
28335WAT      O15144   0.805   1.438   3.114 -0.1825 -0.1985  0.0670
28335WAT     H115145   0.828   1.442   3.021 -0.9959 -0.5301 -0.1571
28335WAT     H215146   0.712   1.413   3.114 -0.4409  0.7259  0.9429
28335WAT    EPW15147   0.795   1.435   3.102 -0.3239 -0.1203  0.1529
28336WAT      O15148  10.285   9.783   3.549  0.0557 -0.2335 -0.0966
28336WAT     H115149  10.256   9.796   3.458 -0.4633  0.5817  0.1651
28336WAT     H215150  10.226   9.840   3.600  0.0961 -0.9709  0.7858
28336WAT    EPW15151  10.273   9.792   3.544 -0.0076 -0.2232  0.0544
28337WAT      O15152   8.885   9.632   1.838 -0.6263  0.4720  0.4508
28337WAT     H115153   8.839   9.620   1.921  1.5148  0.9906  1.7968
28337WAT     H215154   8.930   9.549   1.823 -0.1476  0.7397  0.3826
28337WAT    EPW15155   8.885   9.620   1.847 -0.2804  0.5755  0.6193
28338WAT      O15156  10.344   2.530   2.332 -0.4482 -0.6647 -0.0658
28338WAT     H115157  10.302   2.574   2.258 -0.3175 -0.1001  0.1902
28338WAT     H215158  10.272   2.501   2.387 -0.5262 -0.4607 -0.0598
28338WAT    EPW15159  10.329   2.532   2.329 -0.4411 -0.5631 -0.0312
28339WAT      O15160  10.828   1.485   4.633  0.6777 -0.4393  0.5313
28339WAT     H115161  10.761   1.536   4.587 -0.4782 -0.1398  2.4295
28339WAT     H215162  10.886   1.550   4.671  2.0290 -0.6972 -0.9851
28339WAT    EPW15163  10.827   1.500   4.632  0.7033 -0.4338  0.5820
28340WAT      O15164   9.069   1.092   4.296 -0.1761  0.1529  0.0696
28340WAT     H115165   9.123   1.044   4.234  0.6473  2.0932 -0.8034
28340WAT     H215166   9.131   1.142   4.348 -1.0450  1.3476  0.0027
28340WAT    EPW15167   9.084   1.092   4.295 -0.1822  0.5664 -0.0546
28341WAT      O15168   9.247   0.260   1.501 -0.6064  0.0191  0.1901
28341WAT     H115169   9.243   0.262   1.405  0.2362  2.1375  0.1184
28341WAT     H215170   9.265   0.169   1.523  1.1019 -0.2109 -1.8115
28341WAT    EPW15171   9.249   0.249   1.491 -0.2699  0.2682 -0.0833
28342WAT      O15172   1.413   2.968   2.772  0.5873 -0.0595  1.0544
28342WAT     H115173   1.411   2.891   2.715  1.9571 -2.0162  3.4540
28342WAT     H215174   1.475   2.945   2.842 -2.4629  1.2560  4.5330
28342WAT    EPW15175   1.421   2.955   2.774  0.3656 -0.1441  1.8296
28343WAT      O15176   5.436   9.229   6.224 -0.0474  0.0368 -0.2964
28343WAT     H115177   5.491   9.307   6.213 -0.3109  0.9481  3.4963
28343WAT     H215178   5.347   9.260   6.208  0.0227 -0.1189 -1.0613
28343WAT    EPW15179   5.431   9.243   6.220 -0.0727  0.1364  0.1030
28344WAT      O15180   1.869   0.907   3.883  0.4066  0.9818  0.5059
28344WAT     H115181   1.933   0.968   3.920  3.7459 -0.9304 -1.5513
28344WAT     H215182   1.834   0.953   3.807  2.0044  0.8918 -0.3416
28344WAT    EPW15183   1.873   0.921   3.878  1.0578  0.7177  0.1227
28345WAT      O15184   9.767   1.475   3.716 -0.0300 -0.2916 -0.1713
28345WAT     H115185   9.748   1.486   3.809  0.6666  0.8781 -0.1539
28345WAT     H215186   9.852   1.432   3.713 -0.2060 -0.6346 -0.2684
28345WAT    EPW15187   9.775   1.471   3.728  0.0386 -0.1826 -0.1819
28346WAT      O15188   2.740   0.930   1.377  0.4557  0.5631  0.2638
28346WAT     H115189   2.779   0.948   1.291  1.3619  0.4986  0.6501
28346WAT     H215190   2.656   0.889   1.357  1.4126 -1.0795 -0.6079
28346WAT    EPW15191   2.734   0.927   1.363  0.7015  0.3379  0.1997
28347WAT      O15192   3.032   2.266   1.543  0.0046  0.6621  0.0309
28347WAT     H115193   3.126   2.251   1.533 -0.1359  0.3122 -0.7597
28347WAT     H215194   2.991   2.184   1.516 -0.5278  0.7800  0.4629
28347WAT    EPW15195   3.039   2.253   1.538 -0.0842  0.6315 -0.0163
28348WAT      O15196   0.756   1.664   2.525 -0.6896  0.1403  0.0932
28348WAT     H115197   0.698   1.691   2.454  0.0278  1.4391 -0.0174
28348WAT     H215198   0.757   1.739   2.585  3.3115  1.5796 -1.4542
28348WAT    EPW15199   0.748   1.677   2.524 -0.0673  0.5015 -0.1256
28349WAT      O15200   9.867   9.594   3.610 -0.2274  0.4907 -0.0917
28349WAT     H115201   9.818   9.513   3.599 -0.6068  0.5381  1.1406
28349WAT     H215202   9.803   9.658   3.640  0.2497  1.0196 -0.1644
28349WAT    EPW15203   9.852   9.592   3.612 -0.2151  0.5674  0.0612
28350WAT      O15204  10.662   1.712   2.164 -0.3136  0.7038  0.4959
28350WAT     H115205  10.611   1.631   2.157  1.2613 -0.2061 -1.3427
28350WAT     H215206  10.706   1.705   2.249 -0.1553 -0.4218  0.3333
28350WAT    EPW15207  10.661   1.700   2.175 -0.0854  0.4354  0.2321
28351WAT      O15208   9.188   4.720   0.328  0.3378  0.5280  0.9425
28351WAT     H115209   9.128   4.695   0.258 -0.3117  2.5485  0.7105
28351WAT     H215210   9.149   4.684   0.407  0.3348 -0.5776  0.4531
28351WAT    EPW15211   9.175   4.712   0.329  0.2513  0.6487  0.8473
28352WAT      O15212   2.250   1.126   4.181  0.3946 -0.4176  0.1759
28352WAT     H115213   2.326   1.183   4.165  0.0106 -0.1108 -0.6055
28352WAT     H215214   2.179   1.186   4.203  0.3469 -0.6974  0.7896
28352WAT    EPW15215   2.251   1.142   4.181  0.3376 -0.4141  0.1535
28353WAT      O15216  10.852   4.005   2.255 -0.5853  0.0285 -0.2478
28353WAT     H115217  10.934   4.007   2.304 -0.8099  0.8317  0.1197
28353WAT     H215218  10.807   3.926   2.284 -0.0075 -0.3328 -0.3415
28353WAT    EPW15219  10.857   3.995   2.265 -0.5388  0.0865 -0.2115
28354WAT      O15220  10.433   5.018   0.074  0.6000  0.2585 -1.1012
28354WAT     H115221  10.513   5.051   0.033 -0.4270  1.9106 -1.8782
28354WAT     H215222  10.364   5.037   0.011 -0.8030  1.4218  0.6798
28354WAT    EPW15223  10.435   5.025   0.060  0.2799  0.6297 -0.9688
28355WAT      O15224   9.551   0.059   8.530 -0.1250  0.1664 -0.2606
28355WAT     H115225   9.559  -0.028   8.492  1.3675 -0.2990  1.0084
28355WAT     H215226   9.459   0.082   8.520  0.0018 -0.2920 -3.2194
28355WAT    EPW15227   9.540   0.051   8.524  0.0887  0.0445 -0.4835
28356WAT      O15228   1.518   5.787   1.366  0.1422 -0.3325  0.2374
28356WAT     H115229   1.428   5.767   1.339 -0.0215  0.1457  0.4144
28356WAT     H215230   1.572   5.721   1.322  0.1069  1.4759 -2.7811
28356WAT    EPW15231   1.513   5.775   1.357  0.1160 -0.0308 -0.1374
28357WAT      O15232   7.551   2.891   8.150  0.5850  0.3628  0.5232
28357WAT     H115233   7.560   2.967   8.207 -2.0933  1.8463 -0.8334
28357WAT     H215234   7.593   2.917   8.068 -0.0662  0.2580  0.1509
28357WAT    EPW15235   7.558   2.904   8.146  0.1457  0.5447  0.2947
28358WAT      O15236   2.078   5.865   2.652 -0.2670 -0.1444 -0.2646
28358WAT     H115237   2.171   5.886   2.655 -0.4121  0.5169  2.2390
28358WAT     H215238   2.069   5.802   2.581  2.0127  0.0554 -0.7932
28358WAT    EPW15239   2.089   5.860   2.643  0.0144 -0.0308 -0.0041
28359WAT      O15240   1.299   2.370   0.476 -0.0887 -0.0126  0.4441
28359WAT     H115241   1.300   2.277   0.500  1.4699  0.0123  0.6043
28359WAT     H215242   1.276   2.371   0.383 -1.9586 -0.4047  0.8573
28359WAT    EPW15243   1.296   2.358   0.467 -0.1298 -0.0610  0.5197
28360WAT      O15244   0.797   4.524   2.750  0.2271 -0.4613  0.1511
28360WAT     H115245   0.714   4.489   2.784  1.0934 -1.9761  0.7867
28360WAT     H215246   0.820   4.594   2.810 -0.3439 -0.3558  0.2541
28360WAT    EPW15247   0.789   4.529   2.762  0.2661 -0.6473  0.2486
28361WAT      O15248   6.421   9.528   8.728 -0.2628  0.2545 -0.7777
28361WAT     H115249   6.508   9.499   8.700 -0.0145  1.2063 -1.0338
28361WAT     H215250   6.362   9.488   8.664  0.1096  0.6622 -1.3860
28361WAT    EPW15251   6.425   9.519   8.716 -0.1810  0.4330 -0.8917
28362WAT      O15252  10.265   1.312   1.979 -0.3490 -0.6031  0.0840
28362WAT     H115253  10.240   1.284   2.067  0.9570 -2.1310  0.0161
28362WAT     H215254  10.358   1.290   1.973  0.6682  3.1664 -0.2913
28362WAT    EPW15255  10.274   1.305   1.990 -0.0429 -0.3075  0.0256
28363WAT      O15256   3.186   5.514   8.938 -0.6585 -0.0368 -0.6257
28363WAT     H115257   3.194   5.588   8.998  0.3483 -0.6540  0.0400
28363WAT     H215258   3.261   5.524   8.879 -1.0118 -0.0491 -1.0767
28363WAT    EPW15259   3.197   5.525   8.938 -0.5722 -0.1198 -0.5974
28364WAT      O15260   2.375   4.206   1.290 -1.1790 -0.6005 -0.3008
28364WAT     H115261   2.372   4.265   1.215 -2.0756  0.3741  0.4538
28364WAT     H215262   2.468   4.201   1.313 -0.7630 -1.7787 -2.0947
28364WAT    EPW15263   2.387   4.213   1.283 -1.2423 -0.6273 -0.4379
28365WAT      O15264   5.133   3.207   0.582  0.0663 -0.0744 -0.1695
28365WAT     H115265   5.130   3.166   0.495 -1.8032 -0.9759  0.2813
28365WAT     H215266   5.079   3.151   0.637  0.9242  0.6864  1.5185
28365WAT    EPW15267   5.125   3.194   0.577 -0.0672 -0.0931  0.1126
28366WAT      O15268   1.767   6.229   0.126 -0.0555  0.1180 -0.5828
28366WAT     H115269   1.722   6.311   0.105 -1.4280  0.0074  1.6092
28366WAT     H215270   1.842   6.256   0.179  0.5144  0.0570 -1.3459
28366WAT    EPW15271   1.771   6.243   0.130 -0.1614  0.0951 -0.3943
28367WAT      O15272   0.323   1.654   4.399 -0.0260 -0.6783  0.5994
28367WAT     H115273   0.396   1.628   4.455  0.7667 -0.4476 -0.3042
28367WAT     H215274   0.364   1.690   4.320 -1.1121  0.3430  0.4665
28367WAT    EPW15275   0.338   1.655   4.396 -0.0647 -0.5132  0.4625
28368WAT      O15276   0.872   6.961   1.383  0.0971 -0.1972 -0.0023
28368WAT     H115277   0.944   6.937   1.441  1.9989  2.2500 -1.1304
28368WAT     H215278   0.914   7.012   1.313 -2.5879  0.2337 -1.4436
28368WAT    EPW15279   0.887   6.965   1.381 -0.0062  0.1824 -0.3412
28369WAT      O15280   9.141   4.272   2.041 -0.1152 -0.1152  0.2814
28369WAT     H115281   9.097   4.341   1.990 -1.1839 -0.8359  0.1858
28369WAT     H215282   9.232   4.301   2.047 -0.6774  1.6427  0.8332
28369WAT    EPW15283   9.147   4.285   2.035 -0.3300  0.0212  0.3415
28370WAT      O15284   2.144   1.688   2.026 -0.4550 -0.3732 -0.0849
28370WAT     H115285   2.151   1.727   2.112 -2.4024 -1.1502  0.4921
28370WAT     H215286   2.157   1.594   2.041 -3.3014 -0.8760 -0.1116
28370WAT    EPW15287   2.147   1.681   2.039 -1.0873 -0.5419 -0.0122
28371WAT      O15288  10.293   5.295   0.642  0.2861 -0.3535  0.2386
28371WAT     H115289  10.227   5.357   0.611 -1.1258 -0.3240  2.9806
28371WAT     H215290  10.297   5.309   0.736  2.6485 -1.9188  0.4669
28371WAT    EPW15291  10.285   5.305   0.650  0.4120 -0.5560  0.6303
28372WAT      O15292   2.442   4.889   2.492  0.3409  0.1756  0.2612
28372WAT     H115293   2.382   4.948   2.448  0.5438  0.8152  0.8207
28372WAT     H215294   2.506   4.947   2.535  0.5704 -0.4424  0.7790
28372WAT    EPW15295   2.443   4.904   2.492  0.3979  0.1786  0.4033
28373WAT      O15296   3.045   5.429   2.233 -0.2939  0.7978  0.5294
28373WAT     H115297   3.021   5.520   2.218 -1.4204  0.0948 -2.6333
28373WAT     H215298   2.990   5.401   2.306  1.3117  3.0036  2.7320
28373WAT    EPW15299   3.035   5.437   2.241 -0.2307  0.9959  0.4027
28374WAT      O15300   3.785   4.049   1.271 -0.0052 -0.4709 -0.0325
28374WAT     H115301   3.697   4.016   1.254  0.9015 -2.1951 -1.8781
28374WAT     H215302   3.801   4.028   1.363 -1.8353  0.7817  0.6189
28374WAT    EPW15303   3.776   4.042   1.281 -0.1270 -0.5331 -0.1900
28375WAT      O15304  10.490   6.242   1.181 -0.3649  1.1495  0.1306
28375WAT     H115305  10.575   6.286   1.190  1.8072 -2.4892 -0.4231
28375WAT     H215306  10.466   6.218   1.271 -1.0766  2.5038  0.3290
28375WAT    EPW15307  10.498   6.245   1.194 -0.1717  0.8481  0.0837
28376WAT      O15308   5.878   8.569   7.175  0.0988 -0.3834  0.0261
28376WAT     H115309   5.795   8.615   7.163  0.2882 -0.4046 -1.4907
28376WAT     H215310   5.917   8.566   7.088  2.1176  0.3874  0.8543
28376WAT    EPW15311   5.872   8.575   7.162  0.3901 -0.2847 -0.0648
28377WAT      O15312   3.039   1.473   3.053 -0.4841  0.1420  0.3165
28377WAT     H115313   2.947   1.487   3.029 -0.4777 -0.4929 -0.0914
28377WAT     H215314   3.088   1.508   2.979 -0.3800  0.9107  0.7434
28377WAT    EPW15315   3.033   1.480   3.040 -0.4694  0.1596  0.3190
28378WAT      O15316   4.508   1.360   0.550 -0.2167  0.5858 -0.6649
28378WAT     H115317   4.475   1.450   0.552  0.1507  0.7153  0.0961
28378WAT     H215318   4.541   1.345   0.639 -0.1288 -0.2465 -0.8309
28378WAT    EPW15319   4.508   1.370   0.562 -0.1569  0.4931 -0.5864
28379WAT      O15320   3.022   2.773   1.873 -0.1911 -0.0128  0.2632
28379WAT     H115321   3.052   2.752   1.961  1.7067  1.1824 -0.0244
28379WAT     H215322   3.011   2.688   1.831 -1.1825 -0.5970  1.6495
28379WAT    EPW15323   3.025   2.759   1.879 -0.0715  0.0678  0.4081
28380WAT      O15324   4.949   0.867   2.147 -0.3703  0.2081 -0.3074
28380WAT     H115325   4.880   0.906   2.201 -0.3857 -0.4629  0.1609
28380WAT     H215326   4.921   0.777   2.132 -0.1594  0.2568 -1.0918
28380WAT    EPW15327   4.936   0.860   2.152 -0.3445  0.1260 -0.3492
28381WAT      O15328   0.999   2.222   1.042 -0.1636 -0.2731 -0.0246
28381WAT     H115329   0.929   2.288   1.040  0.3651  0.3116 -2.9011
28381WAT     H215330   1.063   2.257   1.104 -1.4322  0.1944  1.0738
28381WAT    EPW15331   0.998   2.235   1.050 -0.2612 -0.1343 -0.2592
28382WAT      O15332   4.240   1.418   2.364  0.2992  0.4862  0.0673
28382WAT     H115333   4.232   1.323   2.365 -2.1552  0.6338 -0.5355
28382WAT     H215334   4.170   1.450   2.420  1.3352  1.9682  0.6025
28382WAT    EPW15335   4.230   1.410   2.371  0.1123  0.7011  0.0583
28383WAT      O15336   5.920  10.028   8.814 -0.4919  0.5044 -0.1446
28383WAT     H115337   5.912  10.123   8.810  0.5510  0.6888  1.4658
28383WAT     H215338   5.876   9.997   8.734  0.6307  2.4035 -1.5726
28383WAT    EPW15339   5.913  10.036   8.803 -0.2065  0.7792 -0.1206
28384WAT      O15340   3.641   2.386   0.449 -0.3462  0.1775 -0.5881
28384WAT     H115341   3.691   2.439   0.511  1.8981  0.0390 -2.1220
28384WAT     H215342   3.552   2.420   0.454  0.0438  1.0615  1.6728
28384WAT    EPW15343   3.636   2.398   0.458  0.0013  0.2760 -0.4922
28385WAT      O15344   6.665   3.338   1.738  0.2310  0.5002 -0.8727
28385WAT     H115345   6.661   3.282   1.661 -1.1127  0.9346 -1.1451
28385WAT     H215346   6.730   3.295   1.795 -3.2769 -3.5719  0.6211
28385WAT    EPW15347   6.673   3.325   1.735 -0.4091  0.0204 -0.7117
28386WAT      O15348   7.737   6.341   8.111 -0.3151  0.4172  0.3199
28386WAT     H115349   7.762   6.303   8.195  1.3898  1.2066  0.2186
28386WAT     H215350   7.644   6.320   8.102 -0.3718 -0.2834  2.0668
28386WAT    EPW15351   7.728   6.333   8.121 -0.0978  0.4292  0.5374
28387WAT      O15352   4.691   8.314   8.675  0.4350 -0.6979 -0.2230
28387WAT     H115353   4.753   8.333   8.604  0.8192  0.3587  0.3648
28387WAT     H215354   4.705   8.222   8.695  1.0735 -0.7387 -0.8176
28387WAT    EPW15355   4.701   8.304   8.668  0.5698 -0.5636 -0.2236
28388WAT      O15356   9.141   9.604   1.159  0.5840  0.7172  0.3250
28388WAT     H115357   9.108   9.558   1.236  2.3324 -1.3665 -0.0687
28388WAT     H215358   9.072   9.593   1.093 -0.1410  0.9546  1.0347
28388WAT    EPW15359   9.128   9.596   1.160  0.7186  0.4740  0.3666
28389WAT      O15360   2.368   2.071   3.136  0.2154  0.5278 -0.1207
28389WAT     H115361   2.366   1.983   3.174  0.7904 -1.2228 -3.7234
28389WAT     H215362   2.393   2.127   3.209  0.5339 -2.3520  2.2095
28389WAT    EPW15363   2.371   2.066   3.151  0.3333 -0.0830 -0.2886
28390WAT      O15364   2.707   2.100   3.674  0.5462  0.1888 -0.4552
28390WAT     H115365   2.771   2.161   3.711  2.0496 -0.8951 -1.1336
28390WAT     H215366   2.677   2.143   3.594  1.1735  0.2971 -0.6378
28390WAT    EPW15367   2.712   2.113   3.668  0.8273  0.0600 -0.5689
28391WAT      O15368  10.432   2.092   3.375 -0.4388 -0.0546  0.2459
28391WAT     H115369  10.380   2.163   3.411  1.0236  1.1137  0.1406
28391WAT     H215370  10.484   2.133   3.305 -1.1299 -1.6776 -1.3102
28391WAT    EPW15371  10.432   2.107   3.370 -0.3376 -0.1146  0.0267
28392WAT      O15372   0.534   1.496   0.683  0.3127 -0.2949 -0.4300
28392WAT     H115373   0.492   1.453   0.757 -1.3538  3.0446  0.8001
28392WAT     H215374   0.479   1.573   0.667  1.1184 -0.3884 -4.6209
28392WAT    EPW15375   0.521   1.501   0.691  0.1991  0.1332 -0.8205
28393WAT      O15376   8.001   7.566   7.772 -0.0519 -0.1950 -0.7583
28393WAT     H115377   8.009   7.609   7.687  1.5085  0.0267 -0.5260
28393WAT     H215378   8.049   7.484   7.762  0.6048  0.0823  0.0651
28393WAT    EPW15379   8.008   7.561   7.759  0.2403 -0.1290 -0.6192
28394WAT      O15380   3.015   0.969   2.896 -0.2139  0.0302 -0.4480
28394WAT     H115381   2.920   0.957   2.895 -0.4615  1.7650 -0.5921
28394WAT     H215382   3.043   0.923   2.975 -1.0594 -1.1258 -0.7905
28394WAT    EPW15383   3.006   0.961   2.907 -0.3581  0.1066 -0.5121
28395WAT      O15384   8.104  10.230   8.288  0.1985  0.9183 -0.8114
28395WAT     H115385   8.092  10.300   8.353  0.1233 -0.3527  0.6124
28395WAT     H215386   8.017  10.193   8.277  0.6386 -0.6372  0.5022
28395WAT    EPW15387   8.091  10.234   8.295  0.2460  0.5455 -0.4506
28396WAT      O15388   1.129   4.020   1.437 -0.1256  0.6268  0.0039
28396WAT     H115389   1.043   3.992   1.406 -0.6888  3.1968 -1.0458
28396WAT     H215390   1.191   3.966   1.388 -1.1076 -0.0381 -0.5386
28396WAT    EPW15391   1.126   4.009   1.427 -0.3294  0.8781 -0.2061
28397WAT      O15392   0.426   0.673   4.813 -0.4521 -1.5196  0.6835
28397WAT     H115393   0.456   0.736   4.879 -1.3553 -1.5574  1.1505
28397WAT     H215394   0.490   0.679   4.743 -0.2341 -0.4539  0.9568
28397WAT    EPW15395   0.438   0.682   4.813 -0.5425 -1.3840  0.7808
28398WAT      O15396  10.544   2.586   0.070  0.1791  0.3932  0.5469
28398WAT     H115397  10.624   2.548   0.032 -0.4419  0.4679 -0.9170
28398WAT     H215398  10.547   2.561   0.162  1.1872 -0.8207  0.2163
28398WAT    EPW15399  10.555   2.577   0.077  0.2303  0.2428  0.3102
28399WAT      O15400   1.954   1.736   4.900  0.1850 -0.1269 -0.1422
28399WAT     H115401   1.943   1.829   4.879  0.0935 -0.1856 -0.3513
28399WAT     H215402   1.865   1.704   4.913  0.0768 -0.5692 -1.7094
28399WAT    EPW15403   1.941   1.744   4.899  0.1587 -0.1930 -0.3767
28400WAT      O15404   9.630   4.723   0.969 -0.2413  0.1996 -0.4053
28400WAT     H115405   9.702   4.729   1.032 -0.3590 -1.3759 -0.0746
28400WAT     H215406   9.672   4.734   0.884  0.1904  0.6071 -0.1463
28400WAT    EPW15407   9.645   4.725   0.966 -0.1998  0.0455 -0.3275
28401WAT      O15408   3.834   2.413   1.539 -0.3166 -0.9931  0.1593
28401WAT     H115409   3.758   2.356   1.552 -0.8000 -0.3477  0.2029
28401WAT     H215410   3.849   2.453   1.625 -1.0001  0.1918 -0.2569
28401WAT    EPW15411   3.826   2.411   1.552 -0.4705 -0.7516  0.1101
28402WAT      O15412   9.225   2.245   1.226 -0.8372 -0.2325  0.3545
28402WAT     H115413   9.316   2.238   1.196 -0.6126 -2.3545  1.3990
28402WAT     H215414   9.178   2.178   1.177 -2.3382  2.0495 -1.5893
28402WAT    EPW15415   9.231   2.235   1.216 -1.0052 -0.2114  0.2359
28403WAT      O15416   1.675   6.029   4.101  0.4445  0.8060  0.4384
28403WAT     H115417   1.641   6.042   4.189  0.1094  1.7353  0.1780
28403WAT     H215418   1.770   6.030   4.111  0.4457  2.6509  0.5675
28403WAT    EPW15419   1.683   6.031   4.114  0.4004  1.1721  0.4210
28404WAT      O15420   1.393   2.883   3.506  0.2293  0.5631 -0.0085
28404WAT     H115421   1.448   2.923   3.574  0.6759 -0.0064 -0.0357
28404WAT     H215422   1.333   2.827   3.554  1.6840 -1.2321 -0.1609
28404WAT    EPW15423   1.393   2.881   3.522  0.4801  0.2512 -0.0322
28405WAT      O15424  10.125   4.188   1.740  0.1263 -0.1127 -0.5303
28405WAT     H115425  10.167   4.106   1.764 -0.1656 -0.1501 -0.1324
28405WAT     H215426  10.196   4.243   1.706  0.1036 -1.0292 -2.1882
28405WAT    EPW15427  10.140   4.185   1.739  0.0849 -0.2387 -0.6965
28406WAT      O15428  10.521   3.275   4.530 -0.0724  0.3149 -0.4954
28406WAT     H115429  10.529   3.355   4.478  1.4433 -0.0218 -0.8137
28406WAT     H215430  10.526   3.304   4.621  0.8762  0.5583 -0.6176
28406WAT    EPW15431  10.522   3.289   4.535  0.2527  0.3027 -0.5538
28407WAT      O15432   5.946   4.990   2.007 -0.8515  0.5263 -0.3279
28407WAT     H115433   5.994   4.916   2.045 -0.5219  0.5367 -0.7150
28407WAT     H215434   5.908   5.035   2.082  1.1776  1.5274  0.1668
28407WAT    EPW15435   5.947   4.986   2.022 -0.5405  0.6597 -0.3138
28408WAT      O15436   0.800   4.032   3.535  0.3680  0.1267 -0.2541
28408WAT     H115437   0.839   4.116   3.558  1.6627 -0.7597  0.9561
28408WAT     H215438   0.870   3.985   3.488 -0.3126 -0.3038 -0.8542
28408WAT    EPW15439   0.815   4.037   3.532  0.4490 -0.0470 -0.1737
28409WAT      O15440   5.371   5.946   8.770  0.7698  0.2633 -0.3250
28409WAT     H115441   5.421   6.011   8.820 -0.1650  1.8325 -1.3474
28409WAT     H215442   5.396   5.862   8.809  1.2298  1.2888  1.7417
28409WAT    EPW15443   5.381   5.943   8.782  0.7069  0.6053 -0.1874
28410WAT      O15444   5.062   6.963   7.717 -0.3541 -0.2684 -0.0678
28410WAT     H115445   5.029   7.041   7.761 -2.3361 -0.0727 -1.6822
28410WAT     H215446   5.018   6.890   7.762 -0.2519 -0.2705  0.0273
28410WAT    EPW15447   5.052   6.963   7.729 -0.6022 -0.2427 -0.2680
28411WAT      O15448   9.749   5.452   4.715  0.5229 -0.4250  0.4156
28411WAT     H115449   9.727   5.518   4.650 -0.0585 -3.1968 -2.3982
28411WAT     H215450   9.812   5.395   4.671 -0.7854 -3.1103  1.7682
28411WAT    EPW15451   9.755   5.453   4.701  0.2742 -1.1446  0.2229
28412WAT      O15452  10.347   4.778   3.988  0.1849 -0.3887 -0.0120
28412WAT     H115453  10.385   4.729   4.060  0.4520  0.4967  0.4644
28412WAT     H215454  10.267   4.816   4.024 -0.0114 -0.4636 -0.3652
28412WAT    EPW15455  10.341   4.777   4.002  0.1950 -0.2816  0.0043
28413WAT      O15456   6.505   0.734   8.609  0.1153  0.4019 -0.2404
28413WAT     H115457   6.442   0.757   8.676  1.5657 -2.1260  2.2105
28413WAT     H215458   6.582   0.788   8.628 -0.2113  1.2847 -1.3241
28413WAT    EPW15459   6.507   0.744   8.620  0.2637  0.1850 -0.0601
28414WAT      O15460   2.366   4.618   2.408  0.1742  0.1705  0.2198
28414WAT     H115461   2.374   4.698   2.461  0.7304 -0.4481  1.0942
28414WAT     H215462   2.278   4.622   2.371  0.3174  1.3554 -0.0348
28414WAT    EPW15463   2.355   4.629   2.410  0.2664  0.2451  0.3016
28415WAT      O15464   9.865   4.280   0.834 -0.0633 -0.0541  0.1643
28415WAT     H115465   9.874   4.339   0.908  0.9555  3.3582 -2.4241
28415WAT     H215466   9.955   4.253   0.814 -0.2240 -0.1933 -0.3968
28415WAT    EPW15467   9.878   4.284   0.841  0.0505  0.3777 -0.2511
28416WAT      O15468   0.463   5.924   2.351  0.3524 -0.6615 -0.2608
28416WAT     H115469   0.419   5.844   2.324 -2.9381  0.1742  2.0335
28416WAT     H215470   0.402   5.967   2.411  2.6972  2.7208  0.0361
28416WAT    EPW15471   0.449   5.919   2.356  0.2277 -0.1051  0.0809
28417WAT      O15472   1.664   6.248   4.486 -0.3716  0.3510  0.1217
28417WAT     H115473   1.591   6.310   4.491 -0.1363  0.5698  1.2816
28417WAT     H215474   1.742   6.304   4.481 -0.2618  0.1189 -0.9626
28417WAT    EPW15475   1.665   6.264   4.486 -0.3260  0.3490  0.1314
28418WAT      O15476   6.316   3.565   1.303 -0.2086  0.0421 -0.1758
28418WAT     H115477   6.344   3.573   1.212 -1.7769  0.2798 -0.6773
28418WAT     H215478   6.261   3.642   1.317  1.0115  0.6718  1.3830
28418WAT    EPW15479   6.312   3.576   1.293 -0.2544  0.1565 -0.0364
28419WAT      O15480   1.773   1.432   4.010  1.0323  0.3992  0.2613
28419WAT     H115481   1.714   1.508   4.007 -0.7660 -0.8053  2.0975
28419WAT     H215482   1.783   1.405   3.919 -0.8662  0.9603 -0.1551
28419WAT    EPW15483   1.767   1.439   3.998  0.5447  0.3144  0.4486
28420WAT      O15484   1.772   2.418   3.732 -0.3956 -0.2264  0.0147
28420WAT     H115485   1.833   2.383   3.667 -1.8803 -2.3133 -0.3901
28420WAT     H215486   1.693   2.437   3.681 -0.2756  2.0408  0.5864
28420WAT    EPW15487   1.770   2.416   3.717 -0.5756 -0.2027  0.0366
28421WAT      O15488   2.133   4.394   1.122  0.2281 -0.4223 -0.6708
28421WAT     H115489   2.098   4.353   1.043  2.1127 -0.3945 -1.5832
28421WAT     H215490   2.140   4.322   1.185  1.9046 -1.2154 -1.6946
28421WAT    EPW15491   2.129   4.379   1.120  0.6977 -0.5233 -0.9262
28422WAT      O15492   2.501   4.790   3.173 -0.3387  0.0978 -0.2594
28422WAT     H115493   2.434   4.854   3.148 -0.1034 -0.2032 -1.7500
28422WAT     H215494   2.452   4.719   3.213 -0.7085  0.7048  0.4032
28422WAT    EPW15495   2.486   4.789   3.175 -0.3564  0.1380 -0.3685
28423WAT      O15496   1.514   4.680   1.893 -0.1260 -0.0644  0.0865
28423WAT     H115497   1.487   4.648   1.978  0.0934  2.0695  1.0348
28423WAT     H215498   1.460   4.632   1.830 -0.4113 -1.5513  1.4150
28423WAT    EPW15499   1.504   4.670   1.896 -0.1346  0.0210  0.3869
28424WAT      O15500   0.039   1.306   4.150 -0.3325 -0.3042  0.5430
28424WAT     H115501   0.124   1.319   4.191  0.1751  0.3273 -0.6441
28424WAT     H215502  -0.023   1.305   4.223  0.5232  0.8398  1.3316
28424WAT    EPW15503   0.042   1.308   4.165 -0.1527 -0.0700  0.4904
28425WAT      O15504   9.666   5.006   4.660 -0.0219  0.5605 -0.3191
28425WAT     H115505   9.685   5.096   4.688 -0.3015  0.4976  0.0780
28425WAT     H215506   9.662   4.956   4.741  1.2595 -0.0398 -0.6160
28425WAT    EPW15507   9.668   5.012   4.674  0.1101  0.4733 -0.3059
28426WAT      O15508   1.653   2.045   2.194 -0.6397 -0.6524  0.5418
28426WAT     H115509   1.558   2.050   2.185 -0.6334 -0.5020  0.5673
28426WAT     H215510   1.667   1.980   2.264 -0.7126 -0.9485  0.2838
28426WAT    EPW15511   1.643   2.037   2.202 -0.6484 -0.6717  0.5113
28427WAT      O15512   0.201   2.454   0.338  0.2580 -0.0632  0.6560
28427WAT     H115513   0.212   2.543   0.306 -0.3551 -0.1729  0.1374
28427WAT     H215514   0.132   2.417   0.285  0.1871 -0.7054  1.1772
28427WAT    EPW15515   0.194   2.461   0.327  0.1678 -0.1625  0.6564
28428WAT      O15516   1.181   3.180   3.167  0.0785  0.3725 -0.8637
28428WAT     H115517   1.214   3.091   3.183 -1.3512  0.1757  1.4695
28428WAT     H215518   1.207   3.199   3.077  0.7494 -2.2674 -1.3228
28428WAT    EPW15519   1.189   3.171   3.157 -0.0215 -0.0015 -0.6166
28429WAT      O15520   3.324   4.108   0.700  0.2895 -0.9129 -0.0609
28429WAT     H115521   3.398   4.049   0.690 -1.4396 -2.8302 -2.9448
28429WAT     H215522   3.309   4.143   0.612 -0.1344  2.2519  1.1133
28429WAT    EPW15523   3.332   4.105   0.687  0.0055 -0.7486 -0.2864
28430WAT      O15524   0.539   3.065   2.342 -0.5947 -0.5529 -0.3803
28430WAT     H115525   0.539   2.974   2.374 -0.5781 -0.3609  0.1827
28430WAT     H215526   0.579   3.115   2.413 -0.9474 -0.0495 -0.5286
28430WAT    EPW15527   0.544   3.059   2.356 -0.6391 -0.4610 -0.3256
28431WAT      O15528   2.361   4.753   0.371  0.4621 -0.2731  0.2563
28431WAT     H115529   2.412   4.684   0.413  2.6717  0.4782 -1.0424
28431WAT     H215530   2.390   4.834   0.415 -1.6469 -0.0446  1.3499
28431WAT    EPW15531   2.371   4.755   0.382  0.4753 -0.1440  0.2293
28432WAT      O15532   8.113   9.814   6.067  0.3627 -0.2341 -0.2583
28432WAT     H115533   8.113   9.844   5.976 -2.1544  1.6880  0.2468
28432WAT     H215534   8.038   9.754   6.073 -1.7457  2.2871  1.1311
28432WAT    EPW15535   8.103   9.810   6.056 -0.2475  0.3519 -0.0083
28433WAT      O15536   2.513   2.971   0.028 -0.5956  0.0531  0.5239
28433WAT     H115537   2.549   2.989   0.115  3.2406 -1.8713 -0.4803
28433WAT     H215538   2.587   2.979  -0.032 -2.0045 -3.0589 -1.9639
28433WAT    EPW15539   2.527   2.974   0.032 -0.2754 -0.6112  0.0634
28434WAT      O15540  10.761   2.783   3.928 -0.6064 -0.7521  0.0945
28434WAT     H115541  10.787   2.748   4.012 -0.5242  0.5592  0.6397
28434WAT     H215542  10.791   2.718   3.864  1.6319 -0.5618  0.8780
28434WAT    EPW15543  10.768   2.770   3.930 -0.3004 -0.5540  0.2698
28435WAT      O15544   6.871   1.195   8.068 -0.0197 -0.1541 -0.1332
28435WAT     H115545   6.800   1.160   8.015  0.0607  1.9299 -1.7724
28435WAT     H215546   6.951   1.163   8.027  0.0187 -0.5538  0.2502
28435WAT    EPW15547   6.872   1.186   8.056 -0.0041  0.0681 -0.2990
28436WAT      O15548   1.585   7.009   3.295  0.7307 -0.4100 -0.1054
28436WAT     H115549   1.608   7.102   3.304  0.7087 -0.4155  0.0025
28436WAT     H215550   1.626   6.967   3.371 -0.5228 -0.2574  0.6764
28436WAT    EPW15551   1.594   7.016   3.306  0.5624 -0.3905  0.0119
28437WAT      O15552   1.211   3.472   5.500 -0.9039 -0.0070  0.5036
28437WAT     H115553   1.293   3.428   5.477  0.2860  0.0377  4.1007
28437WAT     H215554   1.162   3.407   5.551 -2.6573  0.3822 -0.5699
28437WAT    EPW15555   1.215   3.457   5.504 -0.9782  0.0502  0.8366
28438WAT      O15556  10.588   4.646   3.246 -0.1648 -0.5319 -0.5777
28438WAT     H115557  10.617   4.737   3.251 -2.2676  0.1536  0.6017
28438WAT     H215558  10.620   4.615   3.161  0.7080  1.2656 -0.9496
28438WAT    EPW15559  10.596   4.654   3.235 -0.3276 -0.2043 -0.4714
28439WAT      O15560   3.530   0.542   3.657  0.2896 -0.5969 -0.3433
28439WAT     H115561   3.575   0.587   3.728 -0.2809  0.4436 -0.6268
28439WAT     H215562   3.486   0.469   3.700  0.3062 -0.2389  0.2986
28439WAT    EPW15563   3.530   0.538   3.672  0.2165 -0.4125 -0.2961
28440WAT      O15564   8.751   9.042   8.328 -0.1097 -0.1970 -0.2999
28440WAT     H115565   8.674   9.004   8.286 -0.3173 -0.4821  0.3233
28440WAT     H215566   8.820   9.036   8.261 -0.6581  0.1899 -0.9088
28440WAT    EPW15567   8.750   9.036   8.313 -0.2098 -0.1831 -0.2985
28441WAT      O15568   2.976   1.694   1.757 -0.3528  0.0418  0.4272
28441WAT     H115569   3.032   1.771   1.752 -0.8328  0.3313 -1.9188
28441WAT     H215570   2.887   1.728   1.746 -0.7918 -0.6388  1.6640
28441WAT    EPW15571   2.971   1.708   1.755 -0.4740 -0.0098  0.2809
28442WAT      O15572   4.440   3.656   3.871 -0.3888  0.6607  0.0900
28442WAT     H115573   4.484   3.673   3.955  2.8185 -1.3334 -1.0165
28442WAT     H215574   4.440   3.741   3.827  0.1747  1.2229  1.1282
28442WAT    EPW15575   4.446   3.670   3.876  0.1085  0.4718  0.0808
28443WAT      O15576   6.148   1.926   1.571  0.3430 -0.5393  0.2145
28443WAT     H115577   6.179   2.016   1.572 -1.2384  0.0279  1.0187
28443WAT     H215578   6.227   1.873   1.564  1.2713  0.9133 -0.5379
28443WAT    EPW15579   6.162   1.931   1.570  0.2568 -0.2729  0.2214
28444WAT      O15580   8.163   9.710   1.182  0.2082 -0.5782  0.4715
28444WAT     H115581   8.220   9.651   1.133  0.5264  0.7688 -0.8424
28444WAT     H215582   8.103   9.652   1.228  0.1804 -1.9194 -1.1582
28444WAT    EPW15583   8.163   9.695   1.182  0.2465 -0.5774  0.0832
28445WAT      O15584   1.605   1.528   5.646  0.3376 -0.3002 -0.1819
28445WAT     H115585   1.597   1.552   5.554  0.3000 -0.6242 -0.2628
28445WAT     H215586   1.699   1.519   5.660  0.3331 -0.4355 -0.2364
28445WAT    EPW15587   1.616   1.530   5.636  0.3321 -0.3608 -0.1998
28446WAT      O15588   7.646   8.857   8.532 -0.6593 -0.1309  0.0355
28446WAT     H115589   7.722   8.907   8.502 -1.5087  1.6184  0.6810
28446WAT     H215590   7.642   8.782   8.472 -0.7287  1.7956 -2.5180
28446WAT    EPW15591   7.656   8.854   8.520 -0.7808  0.3538 -0.2160
28447WAT      O15592   0.328   3.639   2.629  0.6898 -0.0456  0.1344
28447WAT     H115593   0.415   3.656   2.664  0.4735 -0.5832  0.9598
28447WAT     H215594   0.324   3.544   2.619  0.4869  0.0427 -0.6899
28447WAT    EPW15595   0.339   3.629   2.632  0.6345 -0.1048  0.1346
28448WAT      O15596   4.475   5.284   4.909 -0.6650  0.4900  0.0058
28448WAT     H115597   4.403   5.343   4.932  0.3844  1.1186  1.8934
28448WAT     H215598   4.482   5.224   4.983  0.8948  0.6239  0.0049
28448WAT    EPW15599   4.466   5.284   4.922 -0.3211  0.5906  0.2546
28449WAT      O15600   3.523   7.227   5.428 -0.3025  0.1336  0.1421
28449WAT     H115601   3.575   7.190   5.500  1.7896  2.0280 -0.2988
28449WAT     H215602   3.564   7.193   5.349 -0.5255  0.6657 -0.2047
28449WAT    EPW15603   3.535   7.217   5.427 -0.0560  0.4537  0.0381
28450WAT      O15604   3.780   8.366   8.923 -0.0184  0.7789 -0.1861
28450WAT     H115605   3.803   8.289   8.872  1.0444  2.0336 -1.7328
28450WAT     H215606   3.699   8.399   8.883 -0.1458  0.7977  0.0823
28450WAT    EPW15607   3.772   8.360   8.911  0.1049  0.9465 -0.3543
28451WAT      O15608   2.206   3.665   2.559 -0.3365 -0.4366 -0.5256
28451WAT     H115609   2.215   3.571   2.576 -3.0611 -1.0696 -2.0421
28451WAT     H215610   2.111   3.681   2.558  0.0221  2.6589  1.1295
28451WAT    EPW15611   2.195   3.655   2.561 -0.6485 -0.1121 -0.5072
28452WAT      O15612   1.132   0.419   2.084 -0.3811  0.0029  0.1090
28452WAT     H115613   1.114   0.465   2.166  0.8993  0.8990 -0.0877
28452WAT     H215614   1.157   0.488   2.023  0.4193 -0.8356 -0.5371
28452WAT    EPW15615   1.133   0.434   2.087 -0.1066  0.0105 -0.0020
28453WAT      O15616   1.535   5.010   0.259  0.2753 -0.4823 -0.2797
28453WAT     H115617   1.575   4.938   0.211  0.3774 -0.6492  0.0543
28453WAT     H215618   1.554   4.991   0.351 -1.3942 -1.0774 -0.0299
28453WAT    EPW15619   1.543   4.998   0.264  0.0686 -0.5827 -0.2027
28454WAT      O15620   1.909   5.497   3.840  0.0451 -0.6420 -0.3008
28454WAT     H115621   1.963   5.421   3.818  2.0852 -0.2881  2.9016
28454WAT     H215622   1.971   5.559   3.879 -2.3387  0.7453  1.4637
28454WAT    EPW15623   1.925   5.496   3.842 -0.0002 -0.4125  0.3543
28455WAT      O15624   7.557   2.911   1.565 -0.0997 -0.0077 -0.7091
28455WAT     H115625   7.615   2.926   1.640 -2.8799  1.7304  1.3151
28455WAT     H215626   7.502   2.837   1.591 -1.4120  0.9084 -0.7177
28455WAT    EPW15627   7.557   2.903   1.578 -0.6397  0.3424 -0.4432
28456WAT      O15628   3.649   3.487   0.994  0.7977 -0.5915 -0.3626
28456WAT     H115629   3.610   3.489   1.081  0.9314 -0.7739 -0.2990
28456WAT     H215630   3.678   3.577   0.979  1.2322 -0.6687 -0.0101
28456WAT    EPW15631   3.648   3.500   1.004  0.8726 -0.6256 -0.3077
28457WAT      O15632   1.553   6.078   1.772  0.3824 -0.6991 -0.4615
28457WAT     H115633   1.488   6.105   1.836  0.2486  0.7372 -1.1574
28457WAT     H215634   1.531   5.988   1.751 -1.5930 -0.1557 -0.9082
28457WAT    EPW15635   1.542   6.070   1.777  0.1042 -0.4380 -0.6121
28458WAT      O15636  10.595   2.654   0.737  0.2953 -0.3113  0.1343
28458WAT     H115637  10.646   2.628   0.814  0.6595  1.4290  0.5125
28458WAT     H215638  10.615   2.747   0.726 -1.0226 -0.1568 -1.0996
28458WAT    EPW15639  10.605   2.663   0.746  0.1693 -0.0614  0.0214
28459WAT      O15640   1.207   2.030   1.342  0.6056  0.4154  0.0663
28459WAT     H115641   1.223   1.969   1.270 -0.1408  1.1929 -0.7720
28459WAT     H215642   1.279   2.013   1.404  0.0849 -1.7067  0.1456
28459WAT    EPW15643   1.219   2.020   1.341  0.4385  0.2379 -0.0338
28460WAT      O15644   0.043   6.866   2.192  0.0757 -0.0485  0.1649
28460WAT     H115645   0.097   6.811   2.136  0.6894 -0.6348  1.3060
28460WAT     H215646  -0.022   6.806   2.228 -0.8685  0.4981 -0.5720
28460WAT    EPW15647   0.041   6.851   2.189  0.0321 -0.0534  0.2183
28461WAT      O15648  10.567   4.367   2.122  0.8928 -0.2029  0.5865
28461WAT     H115649  10.498   4.341   2.061  3.2225 -0.9924 -1.9374
28461WAT     H215650  10.590   4.286   2.168 -0.8930  0.4011  2.7114
28461WAT    EPW15651  10.561   4.352   2.120  0.9646 -0.2275  0.5339
28462WAT      O15652  10.252   6.130   7.946  0.6330  0.2776  0.0813
28462WAT     H115653  10.275   6.064   7.881 -0.0661  0.4926 -0.4069
28462WAT     H215654  10.166   6.162   7.917  0.9694  1.4071  0.2971
28462WAT    EPW15655  10.243   6.126   7.933  0.5851  0.4547  0.0455
28463WAT      O15656   2.312   3.208   5.910 -0.6294 -0.3365 -0.3103
28463WAT     H115657   2.286   3.236   5.823 -1.5288  0.6912  0.2566
28463WAT     H215658   2.286   3.281   5.967 -1.2003 -1.4967  0.9721
28463WAT    EPW15659   2.305   3.221   5.906 -0.8234 -0.3539 -0.0665
28464WAT      O15660   6.031   2.711   0.360 -0.6305  0.1471 -0.0607
28464WAT     H115661   6.010   2.804   0.347 -0.1532  0.1419 -0.9362
28464WAT     H215662   6.126   2.710   0.371 -0.6518 -0.2269  0.0874
28464WAT    EPW15663   6.041   2.723   0.360 -0.5703  0.0970 -0.1566
28465WAT      O15664   1.023   1.335   6.028 -0.0719 -0.5071 -0.2390
28465WAT     H115665   1.084   1.321   5.956  1.1776 -1.0143  0.8661
28465WAT     H215666   0.955   1.269   6.015  0.1697 -0.6296 -0.9194
28465WAT    EPW15667   1.022   1.325   6.017  0.1248 -0.5901 -0.1831
28466WAT      O15668  10.917   4.633   1.628 -0.6566 -0.1108  0.1677
28466WAT     H115669  10.996   4.641   1.575 -0.2764 -1.0183  0.5726
28466WAT     H215670  10.876   4.551   1.598 -1.2576  0.1699  0.2015
28466WAT    EPW15671  10.922   4.623   1.617 -0.6857 -0.1934  0.2255
28467WAT      O15672   9.417   1.207   8.043  0.0483 -0.9925  0.3259
28467WAT     H115673   9.327   1.205   8.009 -0.0559 -0.0791  0.5119
28467WAT     H215674   9.459   1.131   8.004 -0.6556 -1.1241 -0.2037
28467WAT    EPW15675   9.410   1.197   8.033 -0.0582 -0.8892  0.2809
28468WAT      O15676   2.224   5.095   1.505 -0.4163  0.0791  0.3543
28468WAT     H115677   2.275   5.014   1.498 -2.6623 -1.5553  1.3896
28468WAT     H215678   2.289   5.165   1.508  1.6400 -1.6979 -0.2733
28468WAT    EPW15679   2.239   5.093   1.505 -0.4413 -0.3707  0.4082
28469WAT      O15680   3.649   4.613   5.175 -0.9349 -0.5178  0.0790
28469WAT     H115681   3.617   4.679   5.113  0.0646 -0.4022 -0.3394
28469WAT     H215682   3.708   4.559   5.123  0.7858  0.2297  1.1503
28469WAT    EPW15683   3.652   4.615   5.160 -0.5761 -0.4036  0.1650
28470WAT      O15684   1.538   3.993   1.306  0.5551  0.0650 -0.1033
28470WAT     H115685   1.476   3.927   1.275 -0.2077 -0.5717  2.5651
28470WAT     H215686   1.494   4.035   1.380  2.1103  1.7523 -0.0527
28470WAT    EPW15687   1.524   3.990   1.312  0.6596  0.2035  0.2553
28471WAT      O15688   0.987   5.563   0.304 -0.1934 -0.6622 -0.0973
28471WAT     H115689   1.062   5.505   0.314 -2.1829 -3.4190  0.0446
28471WAT     H215690   0.930   5.518   0.241 -1.8844  1.1463  0.0402
28471WAT    EPW15691   0.989   5.549   0.297 -0.6789 -0.7873 -0.0604
28472WAT      O15692  10.107   5.454   0.131  0.6673 -0.2109 -0.1293
28472WAT     H115693  10.024   5.416   0.103  1.2184 -1.1972 -0.4717
28472WAT     H215694  10.085   5.506   0.208 -0.4873  0.6690 -1.0277
28472WAT    EPW15695  10.093   5.455   0.138  0.5884 -0.2253 -0.2929
28473WAT      O15696  10.080   0.422   5.419 -0.2527 -0.2394 -0.3937
28473WAT     H115697  10.107   0.514   5.418  1.4230 -0.7033 -0.0382
28473WAT     H215698  10.151   0.375   5.375 -1.5973 -1.2648 -1.5988
28473WAT    EPW15699  10.093   0.428   5.413 -0.2093 -0.4359 -0.5059
28474WAT      O15700   2.046   3.617   3.786  0.6933  0.0862  0.0412
28474WAT     H115701   2.062   3.523   3.787 -1.0358 -0.2474  0.4180
28474WAT     H215702   2.066   3.644   3.697  1.1875 -0.6322 -0.0747
28474WAT    EPW15703   2.051   3.609   3.775  0.5304 -0.0526  0.0757
28475WAT      O15704   7.505   8.939   7.305 -0.3495  0.7805 -0.5311
28475WAT     H115705   7.527   8.851   7.334 -1.3903  0.4893 -0.5874
28475WAT     H215706   7.433   8.966   7.362 -0.2859  1.4440 -0.7571
28475WAT    EPW15707   7.498   8.931   7.316 -0.4785  0.8297 -0.5684
28476WAT      O15708   5.063   9.438   7.880  0.4542 -0.0496  0.4855
28476WAT     H115709   5.137   9.498   7.886  0.1672  0.2546  1.0976
28476WAT     H215710   5.100   9.352   7.899  0.8392 -0.0526 -0.2452
28476WAT    EPW15711   5.078   9.434   7.883  0.4671 -0.0100  0.4699
28477WAT      O15712   6.973   8.484   5.903  0.6949 -0.5250 -0.2852
28477WAT     H115713   6.982   8.389   5.900  0.8485 -0.5787  1.0285
28477WAT     H215714   7.039   8.512   5.967 -1.0653  0.1667  1.3285
28477WAT    EPW15715   6.983   8.475   5.911  0.4833 -0.4411  0.1009
28478WAT      O15716   6.880   9.129   8.750 -0.5823  0.2131 -0.1889
28478WAT     H115717   6.790   9.113   8.779 -0.9838  1.9142 -0.3703
28478WAT     H215718   6.899   9.059   8.688 -1.4444 -0.6907  0.5426
28478WAT    EPW15719   6.871   9.118   8.746 -0.7489  0.3181 -0.1163
28479WAT      O15720   2.704   5.247   2.745 -0.2386  0.2438 -0.3927
28479WAT     H115721   2.691   5.254   2.840  1.1376 -0.1159 -0.1579
28479WAT     H215722   2.751   5.327   2.721 -3.0453  1.7764 -1.3122
28479WAT    EPW15723   2.708   5.259   2.754 -0.4274  0.3986 -0.4829
28480WAT      O15724  10.609   4.280   2.923 -0.5815 -0.4427 -0.8901
28480WAT     H115725  10.524   4.238   2.912  0.0514 -3.2821  2.9373
28480WAT     H215726  10.668   4.208   2.947  2.3431  1.7399 -1.0062
28480WAT    EPW15727  10.606   4.265   2.925 -0.1125 -0.5295 -0.4007
28481WAT      O15728   3.425   4.626   0.649 -0.1032 -0.4186  0.5024
28481WAT     H115729   3.438   4.585   0.564  0.1132  0.0971  0.2836
28481WAT     H215730   3.362   4.569   0.694  0.6223 -1.2923  0.4278
28481WAT    EPW15731   3.418   4.613   0.644  0.0211 -0.4659  0.4637
28482WAT      O15732   2.622   4.441   1.393 -0.6954  0.4189 -0.5897
28482WAT     H115733   2.702   4.466   1.347  0.7446 -0.7402  1.1446
28482WAT     H215734   2.639   4.461   1.485 -1.5780 -1.6851  0.1170
28482WAT    EPW15735   2.635   4.447   1.399 -0.6219 -0.0114 -0.2677
28483WAT      O15736   1.925   3.606   2.721  0.3994 -0.2838  0.4354
28483WAT     H115737   1.983   3.578   2.792 -0.1893 -1.1292  0.6120
28483WAT     H215738   1.879   3.526   2.696 -0.5924  0.3412  0.2178
28483WAT    EPW15739   1.927   3.592   2.727  0.1910 -0.3130  0.4300
28484WAT      O15740   2.332   8.500   1.515 -0.5656  0.0709 -0.5321
28484WAT     H115741   2.257   8.530   1.566 -1.0428  0.9523 -1.7010
28484WAT     H215742   2.317   8.406   1.502 -2.1201  0.4423 -1.7382
28484WAT    EPW15743   2.320   8.491   1.520 -0.8336  0.2360 -0.8453
28485WAT      O15744   7.269   1.597   8.913  0.5139  0.2157  0.2423
28485WAT     H115745   7.255   1.550   8.830 -2.2179  1.9182 -0.3801
28485WAT     H215746   7.257   1.530   8.980  2.4700 -1.1318 -0.6372
28485WAT    EPW15747   7.266   1.582   8.911  0.4115  0.2626  0.0443
28486WAT      O15748   5.584   9.622   7.658  0.1086 -0.1238  0.1475
28486WAT     H115749   5.653   9.681   7.689  2.7568 -2.7066 -0.4163
28486WAT     H215750   5.504   9.659   7.695  1.8086  2.6485  1.4705
28486WAT    EPW15751   5.583   9.635   7.667  0.6821 -0.0987  0.2477
28487WAT      O15752   9.414   0.872   8.072 -0.5586  0.0446  0.2145
28487WAT     H115753   9.352   0.928   8.119 -0.8078  0.0390 -0.1020
28487WAT     H215754   9.401   0.894   7.980 -1.0252 -0.8819  0.0418
28487WAT    EPW15755   9.404   0.882   8.066 -0.6528 -0.0784  0.1502
28488WAT      O15756   3.393   6.900   0.221  0.0070  0.2093 -0.0561
28488WAT     H115757   3.461   6.927   0.283 -0.4323  0.2792  0.4035
28488WAT     H215758   3.424   6.932   0.136 -0.2468  1.7162  0.3951
28488WAT    EPW15759   3.406   6.908   0.218 -0.0844  0.4175  0.0640
28489WAT      O15760   2.894   4.837   0.239 -0.1641 -0.0302  0.1084
28489WAT     H115761   2.824   4.816   0.301  1.1406  0.1044  1.7131
28489WAT     H215762   2.947   4.758   0.235  0.3366  0.3085 -0.0423
28489WAT    EPW15763   2.892   4.824   0.247  0.0740  0.0324  0.3002
28490WAT      O15764   0.505   3.982   4.348  0.1936  0.0317 -0.0937
28490WAT     H115765   0.510   3.906   4.290 -0.3639  0.4361 -0.7037
28490WAT     H215766   0.590   3.986   4.392  0.5096 -0.4768 -0.6498
28490WAT    EPW15767   0.517   3.972   4.346  0.1618  0.0182 -0.2475
28491WAT      O15768   8.943   2.182   6.998 -0.2736  0.3094 -0.1534
28491WAT     H115769   8.859   2.229   6.996 -1.0162 -0.9785 -1.0462
28491WAT     H215770   8.980   2.203   7.083 -1.7883  0.4600  0.5047
28491WAT    EPW15771   8.937   2.191   7.009 -0.5713  0.1595 -0.1845
28492WAT      O15772   4.922   1.654   1.707  0.7240 -0.4414 -0.5854
28492WAT     H115773   5.004   1.656   1.658  1.5835 -3.5391  0.5385
28492WAT     H215774   4.879   1.573   1.680  0.5487 -1.5558  2.6124
28492WAT    EPW15775   4.927   1.644   1.697  0.8142 -0.9969 -0.0154
28493WAT      O15776   0.490   4.116   2.802 -0.2450  0.1321 -0.1872
28493WAT     H115777   0.481   4.023   2.781  0.0981 -0.3644  1.7035
28493WAT     H215778   0.423   4.132   2.869 -2.2426  1.9613 -2.4350
28493WAT    EPW15779   0.480   4.106   2.808 -0.4632  0.3078 -0.2344
28494WAT      O15780   7.072   0.519   7.517  0.1914 -0.4603  0.2275
28494WAT     H115781   7.157   0.529   7.561 -0.2722 -0.2938  1.1039
28494WAT     H215782   7.022   0.462   7.575 -0.0888 -1.0512 -0.5904
28494WAT    EPW15783   7.077   0.513   7.531  0.0932 -0.5163  0.2353
28495WAT      O15784   5.648  10.239   5.870  0.6277 -0.5300 -0.1158
28495WAT     H115785   5.567  10.281   5.895  0.8203  0.1629 -0.6389
28495WAT     H215786   5.663  10.266   5.779  0.3329 -2.3722 -0.7612
28495WAT    EPW15787   5.639  10.248   5.861  0.6144 -0.6819 -0.2697
28496WAT      O15788   9.035   1.977   8.481  0.0347  0.2870 -0.1413
28496WAT     H115789   9.062   1.954   8.570  0.1402 -1.8324 -0.6876
28496WAT     H215790   8.939   1.983   8.486  0.1417  2.2624  0.5340
28496WAT    EPW15791   9.026   1.975   8.494  0.0634  0.2680 -0.1240
28497WAT      O15792  10.837   9.103   0.966 -0.6887 -0.1250 -0.2854
28497WAT     H115793  10.777   9.121   1.039  0.2309  0.5129  0.3375
28497WAT     H215794  10.838   9.008   0.959 -0.0608 -0.2530  1.1895
28497WAT    EPW15795  10.829   9.093   0.975 -0.4845 -0.0577 -0.0087
28498WAT      O15796   1.174   2.387   7.986 -0.8606 -0.9457 -0.6018
28498WAT     H115797   1.140   2.441   8.058 -1.4409 -2.1002  0.0056
28498WAT     H215798   1.258   2.355   8.017 -1.1966 -1.5976 -0.3570
28498WAT    EPW15799   1.180   2.390   7.999 -0.9815 -1.1839 -0.4900
28499WAT      O15800   1.037   5.723   3.582  0.9396  0.1902 -0.5856
28499WAT     H115801   1.022   5.734   3.488 -2.7855 -0.7663 -0.2703
28499WAT     H215802   1.040   5.628   3.594  1.0531  0.3014  0.3040
28499WAT    EPW15803   1.035   5.712   3.571  0.4633  0.0789 -0.4268
28500WAT      O15804   2.743   9.792   6.923 -0.0083 -0.8633  0.3379
28500WAT     H115805   2.681   9.758   6.987  0.2082 -1.1587  0.3895
28500WAT     H215806   2.702   9.873   6.891 -0.8884 -1.5491 -0.3353
28500WAT    EPW15807   2.730   9.799   6.927 -0.0958 -0.9928  0.2558
28501WAT      O15808   8.677   1.067   7.994 -1.2333  0.0667 -0.5994
28501WAT     H115809   8.602   1.031   7.947 -1.9497  1.3190 -0.4709
28501WAT     H215810   8.639   1.108   8.072 -0.1565 -1.2953  0.7175
28501WAT    EPW15811   8.662   1.068   7.998 -1.1864  0.0523 -0.4086
28502WAT      O15812  10.081   4.523   0.788 -0.2204 -0.0669 -0.2761
28502WAT     H115813  10.142   4.590   0.757  0.9771 -0.0756  1.8476
28502WAT     H215814  10.041   4.488   0.708 -0.2928  2.5751 -1.5074
28502WAT    EPW15815  10.084   4.527   0.773 -0.0720  0.2806 -0.1584
28503WAT      O15816   4.560   3.172   3.485 -0.8739 -0.2138 -0.0515
28503WAT     H115817   4.480   3.191   3.535 -1.4857  1.9938 -1.7211
28503WAT     H215818   4.631   3.191   3.546 -1.5592 -1.6206  1.2732
28503WAT    EPW15819   4.559   3.177   3.500 -1.0452 -0.1080 -0.0970
28504WAT      O15820   4.512   4.040   2.809 -0.1617  0.2726  0.4936
28504WAT     H115821   4.426   4.049   2.850  0.0579  0.1264  0.9822
28504WAT     H215822   4.493   4.037   2.715 -0.6982  0.1390  0.6061
28504WAT    EPW15823   4.498   4.041   2.802 -0.2036  0.2356  0.5729
28505WAT      O15824   2.857   3.995   1.674 -0.5184  0.4354 -0.4351
28505WAT     H115825   2.807   4.073   1.651 -1.1051 -0.0563 -0.8511
28505WAT     H215826   2.905   3.972   1.594 -0.6235  0.1651 -0.4225
28505WAT    EPW15827   2.857   4.002   1.660 -0.6096  0.3347 -0.4883
28506WAT      O15828   6.229   9.361   7.952  0.0466 -0.3288  0.0847
28506WAT     H115829   6.173   9.374   8.028  0.4637 -3.2450  0.9962
28506WAT     H215830   6.198   9.279   7.913  0.4991  0.5694 -2.3324
28506WAT    EPW15831   6.218   9.352   7.957  0.1614 -0.5951 -0.1140
28507WAT      O15832   1.882   4.884   8.891  0.0065  0.0659  0.3018
28507WAT     H115833   1.976   4.902   8.884  0.0912 -0.3916  0.2227
28507WAT     H215834   1.875   4.819   8.960 -0.3153  0.5550  0.7356
28507WAT    EPW15835   1.893   4.878   8.899 -0.0248  0.0699  0.3486
28508WAT      O15836   3.454   4.009   4.484 -0.2536  0.3721 -0.5177
28508WAT     H115837   3.544   4.042   4.492  0.3930 -1.4624  0.2692
28508WAT     H215838   3.432   3.977   4.571 -1.1880 -0.3982 -1.0141
28508WAT    EPW15839   3.463   4.009   4.496 -0.2917  0.0284 -0.4795
28509WAT      O15840   2.319   4.309   0.831  0.2171  0.4195 -0.2870
28509WAT     H115841   2.378   4.282   0.760  1.9520  0.4971  1.0515
28509WAT     H215842   2.234   4.320   0.789  1.2467  0.7517 -2.3937
28509WAT    EPW15843   2.315   4.307   0.816  0.5817  0.4735 -0.3883
28510WAT      O15844   2.552   3.511   1.758 -0.0480  0.6616 -0.5841
28510WAT     H115845   2.529   3.459   1.681 -0.9853  2.3059 -1.4545
28510WAT     H215846   2.630   3.560   1.732 -0.3098  1.1461 -0.4724
28510WAT    EPW15847   2.559   3.510   1.745 -0.2060  0.9423 -0.6841
28511WAT      O15848   3.820   4.219   3.869  0.6049  0.3245 -0.5283
28511WAT     H115849   3.901   4.183   3.906 -0.8012 -2.1655  0.3305
28511WAT     H215850   3.810   4.174   3.786 -0.0384  0.4583 -0.5234
28511WAT    EPW15851   3.830   4.208   3.863  0.3346  0.0136 -0.4144
28512WAT      O15852   3.042   9.910   6.866 -0.1373  1.5098  0.0291
28512WAT     H115853   3.059   9.889   6.774 -0.4277  3.8098 -0.6245
28512WAT     H215854   2.969   9.853   6.890  0.2462  0.5397 -1.0125
28512WAT    EPW15855   3.035   9.900   6.857 -0.1252  1.6856 -0.1943
28513WAT      O15856   1.909   7.380   1.499  0.3575 -0.4941  0.3156
28513WAT     H115857   1.827   7.404   1.456  1.0810 -0.7016 -1.2616
28513WAT     H215858   1.972   7.447   1.470  0.2119  1.3369  3.7047
28513WAT    EPW15859   1.907   7.392   1.490  0.4337 -0.2797  0.5546
28514WAT      O15860   6.646   5.961   6.896  0.7378 -0.1718 -0.0526
28514WAT     H115861   6.617   5.885   6.847 -0.4944  0.5610 -0.4886
28514WAT     H215862   6.608   5.950   6.983  0.9407 -0.2733  0.0250
28514WAT    EPW15863   6.637   5.949   6.901  0.6020 -0.0885 -0.0999
28515WAT      O15864   7.690  10.118   8.525 -0.1538 -0.3382  0.1807
28515WAT     H115865   7.717  10.039   8.478 -0.3242 -1.2533  1.5635
28515WAT     H215866   7.772  10.165   8.543  0.1258 -1.0167  0.7356
28515WAT    EPW15867   7.705  10.114   8.521 -0.1392 -0.5484  0.4368
28516WAT      O15868   0.419   1.414   1.786 -0.4135  0.3769 -0.1284
28516WAT     H115869   0.453   1.370   1.708  2.6551 -0.6193  1.5977
28516WAT     H215870   0.442   1.506   1.775  2.2939 -0.1350  0.5813
28516WAT    EPW15871   0.426   1.420   1.774  0.3483  0.1779  0.1928
28517WAT      O15872   4.473   4.026   1.060  0.2555  0.1228 -0.3754
28517WAT     H115873   4.416   3.953   1.085  1.3103 -0.5715  0.1028
28517WAT     H215874   4.538   3.988   1.001  1.1894  0.5080  0.3516
28517WAT    EPW15875   4.474   4.012   1.056  0.5176  0.0820 -0.2164
28518WAT      O15876   2.949   2.258   2.257  0.0054 -0.2448  0.3551
28518WAT     H115877   2.967   2.265   2.163 -1.8262  0.3543  0.0163
28518WAT     H215878   3.003   2.185   2.286  0.5219 -0.5134 -1.1831
28518WAT    EPW15879   2.959   2.249   2.249 -0.1680 -0.2012  0.1075
28519WAT      O15880   1.010   6.834   2.972 -0.1043  0.2287 -0.1853
28519WAT     H115881   1.090   6.885   2.965  0.9775 -1.1995  1.0162
28519WAT     H215882   0.952   6.869   2.905  0.8907  2.4263  0.0368
28519WAT    EPW15883   1.013   6.845   2.962  0.1696  0.3304  0.0025
28520WAT      O15884   2.083   4.527   5.707 -0.8950  0.4354  0.3832
28520WAT     H115885   2.064   4.504   5.798 -2.3005  2.1989  0.6005
28520WAT     H215886   2.145   4.599   5.713 -0.7284  0.3348 -0.0840
28520WAT    EPW15887   2.089   4.533   5.720 -1.0583  0.6547  0.3502
28521WAT      O15888  10.510   1.393   6.523  0.9834  0.1069 -0.3878
28521WAT     H115889  10.533   1.486   6.513  0.0311  0.4455  0.3898
28521WAT     H215890  10.574   1.359   6.585  1.0981  0.3443 -0.3738
28521WAT    EPW15891  10.522   1.401   6.530  0.8731  0.1829 -0.2832
28522WAT      O15892   5.812   3.475   2.972  1.1726 -0.5126 -0.0816
28522WAT     H115893   5.813   3.561   3.015 -0.5223 -1.3529  1.7975
28522WAT     H215894   5.780   3.493   2.883  1.4409  0.8536  0.0719
28522WAT    EPW15895   5.808   3.489   2.966  0.9844 -0.4435  0.1866
28523WAT      O15896   2.282   6.028   5.766 -0.9015  0.1594  0.1409
28523WAT     H115897   2.205   6.013   5.711 -0.7480 -1.8488  0.4021
28523WAT     H215898   2.247   6.039   5.855 -0.8437 -3.0589  0.6540
28523WAT    EPW15899   2.267   6.028   5.771 -0.8737 -0.5300  0.2432
28524WAT      O15900   2.798   3.991   0.058  0.0792  0.6632  0.2087
28524WAT     H115901   2.764   4.078   0.036 -1.7642 -0.6579 -2.7864
28524WAT     H215902   2.720   3.938   0.074  1.1812 -0.3522  2.8691
28524WAT    EPW15903   2.783   3.995   0.057 -0.0186  0.3550  0.1645
28525WAT      O15904   6.290   9.944   8.280  0.6668  0.1649 -0.5878
28525WAT     H115905   6.376   9.952   8.320  0.4286 -0.5924  0.0990
28525WAT     H215906   6.297   9.991   8.197  1.1928  1.7117  0.3023
28525WAT    EPW15907   6.302   9.951   8.274  0.7045  0.2685 -0.3800
28526WAT      O15908   5.337   7.504   7.994  0.2653  0.4612  0.2842
28526WAT     H115909   5.384   7.543   8.068 -0.4470  1.4415  0.2391
28526WAT     H215910   5.383   7.537   7.917 -1.3189  2.6289  0.1871
28526WAT    EPW15911   5.349   7.514   7.993 -0.0379  0.8762  0.2656
28527WAT      O15912   0.691   5.747   0.067  0.0408 -0.1914  0.9918
28527WAT     H115913   0.679   5.759   0.162 -0.3913  0.2116  0.8926
28527WAT     H215914   0.635   5.814   0.028 -0.3410 -0.8213  0.4359
28527WAT    EPW15915   0.682   5.758   0.075 -0.0666 -0.2215  0.9054
28528WAT      O15916   1.551   5.841   0.261 -0.1030  0.5186  0.4651
28528WAT     H115917   1.483   5.781   0.229 -0.5594  2.1937 -2.0149
28528WAT     H215918   1.537   5.846   0.355 -1.7285 -1.2084  0.3590
28528WAT    EPW15919   1.540   5.834   0.269 -0.3776  0.5119  0.1240
28529WAT      O15920   0.585   3.939   0.310 -0.1076  0.1169 -0.7190
28529WAT     H115921   0.498   3.957   0.277 -1.4006 -1.1062  1.7575
28529WAT     H215922   0.603   3.848   0.284 -1.4241 -1.1025  2.1798
28529WAT    EPW15923   0.576   3.929   0.302 -0.4518 -0.2054 -0.0100
28530WAT      O15924   0.470   5.218   0.634  0.2682 -0.2437  0.0121
28530WAT     H115925   0.452   5.163   0.558 -4.5417 -0.9568  1.3049
28530WAT     H215926   0.502   5.157   0.701 -1.5119 -0.9069  0.3219
28530WAT    EPW15927   0.472   5.202   0.633 -0.6010 -0.4251  0.2234
28531WAT      O15928   4.969   3.099   0.804 -0.6819 -0.6726 -0.5982
28531WAT     H115929   5.002   3.022   0.849  0.0879 -0.8692 -1.4725
28531WAT     H215930   5.018   3.172   0.842 -0.1188 -0.8241 -1.0191
28531WAT    EPW15931   4.980   3.099   0.815 -0.5062 -0.7187 -0.7690
28532WAT      O15932   7.365   0.949   4.465 -0.1899  0.1545 -0.0724
28532WAT     H115933   7.457   0.924   4.461 -0.1494  0.2985 -3.8842
28532WAT     H215934   7.330   0.926   4.379 -3.4755  1.1189  0.8408
28532WAT    EPW15935   7.372   0.942   4.453 -0.6180  0.3007 -0.4547
28533WAT      O15936   4.267   9.588   8.186  0.1702 -0.7174 -0.1816
28533WAT     H115937   4.362   9.591   8.170  0.5386 -1.3425  1.5883
28533WAT     H215938   4.257   9.517   8.250 -1.2651  0.5535  1.0649
28533WAT    EPW15939   4.278   9.579   8.193  0.0296 -0.6323  0.2170
28534WAT      O15940   0.143   6.172   1.468  0.2347 -0.0249  0.0930
28534WAT     H115941   0.156   6.130   1.553  1.9378 -1.7567 -0.9207
28534WAT     H215942   0.177   6.108   1.405 -0.3328  1.4867 -1.8458
28534WAT    EPW15943   0.149   6.158   1.471  0.3845 -0.0539 -0.2965
28535WAT      O15944   3.185   8.030   8.918  0.1840  0.3866 -0.0830
28535WAT     H115945   3.261   8.060   8.868 -0.6525 -0.2079 -1.7621
28535WAT     H215946   3.214   7.948   8.958 -0.2796 -1.2444 -2.8274
28535WAT    EPW15947   3.199   8.024   8.917  0.0125  0.0925 -0.6666
28536WAT      O15948  10.283   9.498   1.939  0.5022 -0.3983 -0.5078
28536WAT     H115949  10.229   9.574   1.958  0.5460 -0.4622 -0.1063
28536WAT     H215950  10.245   9.428   1.993  0.7092 -0.5552 -0.5628
28536WAT    EPW15951  10.271   9.499   1.949  0.5355 -0.4277 -0.4621
28537WAT      O15952   5.460   8.617   7.803 -0.1292 -0.4964 -0.0622
28537WAT     H115953   5.437   8.582   7.890 -0.7560  1.0394  0.4310
28537WAT     H215954   5.376   8.640   7.764  0.1981  3.8112  1.1526
28537WAT    EPW15955   5.446   8.616   7.809 -0.1688  0.2742  0.1633
28538WAT      O15956   0.867   6.685   0.610  0.2976  0.2092  0.4778
28538WAT     H115957   0.920   6.641   0.543  3.2543  1.0414  2.0848
28538WAT     H215958   0.780   6.646   0.602  2.0858 -4.3067  0.3124
28538WAT    EPW15959   0.863   6.674   0.600  0.9234 -0.2766  0.6680
28539WAT      O15960   2.713   6.506   3.030  0.0503 -0.2088 -0.1017
28539WAT     H115961   2.677   6.595   3.029 -2.2166 -1.0543  0.3685
28539WAT     H215962   2.660   6.458   2.967  1.4571 -1.1887 -0.5875
28539WAT    EPW15963   2.702   6.512   3.021 -0.0631 -0.4499 -0.1036
28540WAT      O15964   4.207   3.101   2.872  0.3089 -0.1997 -0.3464
28540WAT     H115965   4.294   3.062   2.861  0.3055  0.0294 -1.2647
28540WAT     H215966   4.164   3.087   2.788 -0.9811 -1.3382  0.4593
28540WAT    EPW15967   4.213   3.094   2.860  0.1380 -0.3196 -0.3613
28541WAT      O15968   8.483   1.677   7.820 -0.4013 -0.4774  0.7432
28541WAT     H115969   8.440   1.646   7.900 -0.8167 -5.1490 -0.9266
28541WAT     H215970   8.576   1.671   7.840 -0.4672  1.1956  1.6914
28541WAT    EPW15971   8.490   1.672   7.834 -0.4649 -0.8729  0.6478
28542WAT      O15972   3.623   3.027   2.703 -0.0286 -0.5622 -0.2235
28542WAT     H115973   3.679   3.039   2.626  0.7503 -3.1046 -0.1333
28542WAT     H215974   3.655   2.947   2.744 -1.2562  0.0292  2.0597
28542WAT    EPW15975   3.634   3.018   2.698 -0.0877 -0.8197  0.0895
28543WAT      O15976   9.088   4.412   0.896  0.0892 -0.2445  0.6355
28543WAT     H115977   9.151   4.358   0.944 -1.0460 -1.4652  0.8282
28543WAT     H215978   9.077   4.367   0.812 -1.5507 -0.8867  1.1449
28543WAT    EPW15979   9.095   4.399   0.891 -0.2770 -0.4900  0.7281
28544WAT      O15980   0.971   6.017   3.657  0.1421 -0.1399 -0.3626
28544WAT     H115981   0.961   5.965   3.577 -0.2967  1.8443 -1.6654
28544WAT     H215982   1.011   6.098   3.627  1.1146  0.1800  1.6587
28544WAT    EPW15983   0.975   6.021   3.642  0.2125  0.1640 -0.2677
28545WAT      O15984   2.116   3.866   0.558 -0.5651 -0.2150  0.4134
28545WAT     H115985   2.139   3.790   0.505  0.0778 -0.9471  1.6700
28545WAT     H215986   2.063   3.830   0.630  1.8355  0.0178  2.4613
28545WAT    EPW15987   2.112   3.851   0.561 -0.1637 -0.2810  0.8492
28546WAT      O15988   5.272   8.699   4.782  0.6483 -0.1068  0.3804
28546WAT     H115989   5.234   8.664   4.702  1.4012 -2.6128  1.0152
28546WAT     H215990   5.332   8.767   4.753  0.5382 -0.6251 -1.1427
28546WAT    EPW15991   5.275   8.703   4.768  0.7331 -0.5054  0.2632
28547WAT      O15992   8.394  10.181   3.592 -1.3552  0.4214 -0.2488
28547WAT     H115993   8.486  10.163   3.575 -1.4887 -0.0654 -0.4786
28547WAT     H215994   8.364  10.106   3.644 -1.6144  0.5921 -0.1470
28547WAT    EPW15995   8.402  10.168   3.597 -1.4067  0.3796 -0.2655
28548WAT      O15996   1.417   4.130   6.026  0.6366 -0.7620 -0.3766
28548WAT     H115997   1.503   4.112   6.064  0.1504 -1.5543  0.3698
28548WAT     H215998   1.355   4.095   6.089 -0.2122 -1.2048 -1.4411
28548WAT    EPW15999   1.421   4.123   6.039  0.4605 -0.9251 -0.4187
28549WAT      O16000   2.692   5.021   0.403  0.3772  0.0991 -0.1771
28549WAT     H116001   2.717   4.929   0.391  2.3276  0.8892 -3.4795
28549WAT     H216002   2.774   5.065   0.424 -0.6957  1.0350  2.4084
28549WAT    EPW16003   2.706   5.015   0.404  0.4929  0.3271 -0.2717
28550WAT      O16004   4.546   4.030   1.443  0.4571 -1.0545  0.6995
28550WAT     H116005   4.630   4.041   1.398  0.2355 -0.4215  0.4406
28550WAT     H216006   4.481   4.064   1.383  0.1167 -0.5499  1.3388
28550WAT    EPW16007   4.549   4.036   1.429  0.3831 -0.9043  0.7497
28551WAT      O16008   2.007   7.196   0.028  0.0091  0.3243 -0.0638
28551WAT     H116009   1.972   7.123  -0.024 -0.1059  0.2828  0.0725
28551WAT     H216010   2.073   7.156   0.084 -1.9369 -0.2049  2.0222
28551WAT    EPW16011   2.011   7.181   0.028 -0.2627  0.2489  0.2293
28552WAT      O16012   2.665   5.805   4.830  0.0445  0.3548 -0.0744
28552WAT     H116013   2.686   5.718   4.796 -1.3771  0.0734 -0.2738
28552WAT     H216014   2.750   5.848   4.839  0.9253 -1.5395  1.3886
28552WAT    EPW16015   2.679   5.800   4.827 -0.0266  0.0677  0.0923
28553WAT      O16016   5.184   4.629   0.378  0.2910 -0.0945  0.5133
28553WAT     H116017   5.190   4.702   0.441  2.3705 -1.0452  1.4872
28553WAT     H216018   5.173   4.552   0.433  0.8241 -0.8040 -0.3651
28553WAT    EPW16019   5.183   4.629   0.394  0.6354 -0.3133  0.5259
28554WAT      O16020   2.505   4.518   0.445 -0.1153 -0.4371 -0.6208
28554WAT     H116021   2.598   4.540   0.454 -0.6111  1.3648  0.7853
28554WAT     H216022   2.491   4.448   0.508 -0.1171  0.8436  0.8825
28554WAT    EPW16023   2.516   4.512   0.455 -0.1810 -0.0305 -0.2371
28555WAT      O16024  10.941   3.496   2.887 -0.4488 -0.6474  0.2680
28555WAT     H116025  10.926   3.532   2.974 -3.1198 -0.8229 -0.0386
28555WAT     H216026  10.861   3.516   2.838  0.0992 -2.4035 -1.4938
28555WAT    EPW16027  10.928   3.503   2.892 -0.7291 -0.9021 -0.0048
28556WAT      O16028   4.212   8.334   0.969 -0.2630 -0.9810 -0.1660
28556WAT     H116029   4.157   8.393   1.020 -0.6253  0.7633 -2.4189
28556WAT     H216030   4.300   8.345   1.005 -0.0413  2.0798 -1.3496
28556WAT    EPW16031   4.216   8.343   0.980 -0.2813 -0.3471 -0.6193
28557WAT      O16032   1.366   4.895   5.066 -0.1881  0.2864  0.2694
28557WAT     H116033   1.318   4.817   5.097  2.5587 -1.2431  1.0220
28557WAT     H216034   1.333   4.910   4.977 -2.9123  0.1676  1.1567
28557WAT    EPW16035   1.355   4.887   5.058 -0.1851  0.0689  0.4857
28558WAT      O16036   5.028   8.021   8.868  0.2001 -0.0057  0.4849
28558WAT     H116037   5.053   8.000   8.778 -1.4183 -2.1617  0.4570
28558WAT     H216038   5.102   7.992   8.921  0.8494  0.5818 -0.0872
28558WAT    EPW16039   5.041   8.014   8.863  0.0722 -0.2127  0.4063
28559WAT      O16040  10.526   1.083   8.581 -0.0055 -0.3142 -0.4470
28559WAT     H116041  10.609   1.100   8.626  0.6809 -0.8342 -1.4693
28559WAT     H216042  10.513   1.158   8.524  0.7422 -1.0767 -1.6665
28559WAT    EPW16043  10.535   1.095   8.580  0.1836 -0.4834 -0.7424
28560WAT      O16044   4.356   2.095   1.847 -0.3259  0.3853  0.1008
28560WAT     H116045   4.286   2.034   1.870 -0.1823  0.1675 -0.0385
28560WAT     H216046   4.346   2.168   1.910 -0.5204  0.2390  0.2410
28560WAT    EPW16047   4.345   2.097   1.859 -0.3324  0.3374  0.1010
28561WAT      O16048  10.461   5.650   0.115  0.6952 -0.3649 -0.3761
28561WAT     H116049  10.387   5.688   0.161  1.6958  1.3444 -0.1002
28561WAT     H216050  10.440   5.663   0.022  0.0503 -1.1281 -0.3510
28561WAT    EPW16051  10.449   5.657   0.109  0.7424 -0.2403 -0.3364
28562WAT      O16052   8.703   1.312   7.781  0.3975  0.1674  0.5902
28562WAT     H116053   8.694   1.255   7.858  0.0169 -0.6469 -0.0433
28562WAT     H216054   8.708   1.400   7.817 -2.3104  0.0478  1.4501
28562WAT    EPW16055   8.702   1.316   7.796 -0.0100  0.0442  0.6204
28563WAT      O16056   8.183   2.967   8.808  0.1689  0.4454 -0.5511
28563WAT     H116057   8.110   3.004   8.857  0.2726  0.5149 -0.4446
28563WAT     H216058   8.254   2.963   8.872 -0.2218 -1.2238 -0.1801
28563WAT    EPW16059   8.183   2.971   8.823  0.1311  0.2344 -0.4873
28564WAT      O16060   5.091   2.624   3.143 -0.2119 -0.3218 -0.0444
28564WAT     H116061   5.185   2.605   3.139 -0.6923 -2.9322 -0.9592
28564WAT     H216062   5.069   2.617   3.236  0.1695 -1.7397 -0.0451
28564WAT    EPW16063   5.100   2.621   3.155 -0.2248 -0.8533 -0.1651
28565WAT      O16064   3.925   5.755   4.071  0.1852 -0.0363  0.6295
28565WAT     H116065   3.983   5.753   3.995  0.2109  3.7458  0.3732
28565WAT     H216066   3.868   5.679   4.059  2.3580 -1.4879 -1.3049
28565WAT    EPW16067   3.925   5.745   4.059  0.4750  0.2711  0.3405
28566WAT      O16068  10.639   5.037   0.849  0.0012  0.0694  0.4322
28566WAT     H116069  10.636   5.130   0.827 -1.7799  0.2694  1.3261
28566WAT     H216070  10.690   4.997   0.778 -1.0751  1.3973 -1.1582
28566WAT    EPW16071  10.646   5.044   0.837 -0.3753  0.2711  0.3403
28567WAT      O16072   5.069   4.390   0.492 -0.2707 -0.3989 -0.1768
28567WAT     H116073   5.071   4.326   0.421  0.8896  0.8379 -1.3324
28567WAT     H216074   5.010   4.352   0.557 -3.0601 -0.7184 -2.6369
28567WAT    EPW16075   5.061   4.376   0.491 -0.4857 -0.2778 -0.6537
28568WAT      O16076   2.091   4.763   0.399 -0.2567  0.6674  0.1086
28568WAT     H116077   2.096   4.814   0.480  0.1727  1.3459 -0.3308
28568WAT     H216078   2.182   4.748   0.375 -0.3691  1.2796 -0.7371
28568WAT    EPW16079   2.103   4.768   0.407 -0.2149  0.8376 -0.0609
28569WAT      O16080   2.394   6.566   4.127  0.6696 -0.3151  0.0846
28569WAT     H116081   2.383   6.535   4.217  1.5572 -2.0336 -0.3512
28569WAT     H216082   2.315   6.616   4.109  0.0752 -0.6807  1.5376
28569WAT    EPW16083   2.382   6.568   4.137  0.7085 -0.5903  0.2186
28570WAT      O16084   7.929   9.074   1.706 -0.2249  0.2826  0.0681
28570WAT     H116085   7.929   9.037   1.618 -0.6314  0.2281  0.0876
28570WAT     H216086   8.011   9.044   1.745  0.3813  1.0380 -0.5923
28570WAT    EPW16087   7.940   9.065   1.700 -0.1984  0.3753 -0.0165
28571WAT      O16088   2.358   2.968   1.408  0.3305 -0.2538  0.2408
28571WAT     H116089   2.367   2.953   1.314  1.4464 -2.1528  0.6024
28571WAT     H216090   2.371   3.062   1.419 -2.3200  0.4450 -1.7301
28571WAT    EPW16091   2.361   2.979   1.397  0.1280 -0.4121  0.0286
28572WAT      O16092   5.413   8.948   8.753  0.2405  0.3136 -0.8333
28572WAT     H116093   5.364   8.898   8.688  1.5988 -0.7899 -1.0667
28572WAT     H216094   5.380   8.915   8.837 -2.1572  2.3693 -0.8292
28572WAT    EPW16095   5.402   8.937   8.756  0.1035  0.4392 -0.8636
28573WAT      O16096   2.715   3.998   2.248 -0.0033 -0.5433 -0.5665
28573WAT     H116097   2.630   4.034   2.223  0.0065  1.7473  2.1346
28573WAT     H216098   2.770   4.010   2.171 -1.9930 -1.8387 -2.2882
28573WAT    EPW16099   2.711   4.004   2.235 -0.2643 -0.4117 -0.4373
28574WAT      O16100   3.729   2.057   0.023 -0.0089  0.5250 -0.8607
28574WAT     H116101   3.637   2.059   0.050  0.6292  3.4382  1.6779
28574WAT     H216102   3.770   2.127   0.073  3.7116 -0.8279 -1.7005
28574WAT    EPW16103   3.722   2.067   0.033  0.5660  0.7309 -0.6366
28575WAT      O16104   9.480   0.720   8.807  0.2844  0.3763  0.3661
28575WAT     H116105   9.412   0.655   8.788 -0.8428  1.4548  0.5822
28575WAT     H216106   9.519   0.740   8.722 -1.2758  1.4510 -0.1429
28575WAT    EPW16107   9.476   0.714   8.794 -0.0696  0.6603  0.3276
28576WAT      O16108   3.259   1.689   2.321 -0.1874 -0.0872  0.2779
28576WAT     H116109   3.212   1.641   2.390  0.3791  0.9927  1.4493
28576WAT     H216110   3.221   1.777   2.323 -1.0845 -0.3593 -1.7244
28576WAT    EPW16111   3.247   1.694   2.330 -0.2310  0.0194  0.1682
28577WAT      O16112   9.150   7.872   8.223 -0.0254  0.4558 -0.0678
28577WAT     H116113   9.164   7.860   8.317  0.1158 -0.3970 -0.1840
28577WAT     H216114   9.128   7.784   8.191  2.9735  0.0276 -1.3498
28577WAT    EPW16115   9.149   7.859   8.231  0.3886  0.2868 -0.2522
28578WAT      O16116   2.507   4.185   2.200 -0.1116  0.1204 -0.6602
28578WAT     H116117   2.502   4.221   2.112 -2.3660  2.5915  0.3084
28578WAT     H216118   2.555   4.252   2.250 -2.6743  1.0027  0.8008
28578WAT    EPW16119   2.513   4.199   2.195 -0.7470  0.5627 -0.3399
28579WAT      O16120   0.729   4.081   2.657  0.3385 -0.2498 -0.3343
28579WAT     H116121   0.701   4.148   2.594  0.9705 -1.1786 -1.6720
28579WAT     H216122   0.687   4.105   2.739  0.6487  1.8426 -0.7391
28579WAT    EPW16123   0.720   4.093   2.659  0.4628 -0.0958 -0.5641
28580WAT      O16124   1.561   4.407   2.172  0.0227  1.0325  0.2583
28580WAT     H116125   1.541   4.492   2.211  1.3664  1.1453  0.7370
28580WAT     H216126   1.479   4.380   2.130  0.2159  3.7179 -2.1140
28580WAT    EPW16127   1.548   4.414   2.172  0.2255  1.4019  0.0085
28581WAT      O16128  10.305   5.668   2.565 -0.2220  0.1306  0.4895
28581WAT     H116129  10.300   5.618   2.483  1.2673 -0.1473  0.5478
28581WAT     H216130  10.290   5.758   2.539  2.3298  0.3525 -0.4705
28581WAT    EPW16131  10.302   5.673   2.550  0.3114  0.1235  0.3706
28582WAT      O16132   6.798   5.976   1.455  0.2878  0.3536  0.1446
28582WAT     H116133   6.789   5.913   1.383  1.0086  2.7608 -2.1958
28582WAT     H216134   6.843   5.926   1.524 -0.2678 -2.0081 -1.0779
28582WAT    EPW16135   6.803   5.961   1.455  0.3092  0.3595 -0.3254
28583WAT      O16136   4.652   4.833   2.628  0.9229  0.0784 -0.0897
28583WAT     H116137   4.572   4.781   2.619  0.9821 -0.3250  1.3814
28583WAT     H216138   4.648   4.866   2.718  2.9144 -0.8128  0.3764
28583WAT    EPW16139   4.641   4.831   2.639  1.1933 -0.0923  0.1659
28584WAT      O16140   9.158   0.990   6.732  0.7119  0.5684 -0.1999
28584WAT     H116141   9.250   1.010   6.750  1.3069 -2.0826  0.2018
28584WAT     H216142   9.161   0.919   6.668 -1.0607  0.5833 -0.3498
28584WAT    EPW16143   9.171   0.983   6.726  0.5569  0.2207 -0.1667
28585WAT      O16144   5.194   5.911   3.222 -0.2189  0.4122 -0.2999
28585WAT     H116145   5.261   5.977   3.238  0.7373 -0.6574  0.3305
28585WAT     H216146   5.129   5.924   3.290 -0.0378  0.7060 -0.1858
28585WAT    EPW16147   5.195   5.921   3.233 -0.0687  0.3095 -0.2016
28586WAT      O16148   3.704   4.217   1.823  0.1551 -0.7622 -0.7696
28586WAT     H116149   3.768   4.189   1.888 -0.2406 -0.3695 -0.2069
28586WAT     H216150   3.624   4.170   1.846 -0.3458  0.3393 -0.1816
28586WAT    EPW16151   3.702   4.207   1.834  0.0370 -0.5651 -0.6178
28587WAT      O16152   3.584   6.214   1.620 -0.5293 -0.5605  0.2188
28587WAT     H116153   3.508   6.172   1.578 -0.7648  1.3034 -1.3637
28587WAT     H216154   3.654   6.205   1.556  0.6074 -2.0799  1.5841
28587WAT    EPW16155   3.583   6.207   1.606 -0.4104 -0.5150  0.1902
28588WAT      O16156   3.373   6.233   3.525 -0.0960 -0.0523  0.0054
28588WAT     H116157   3.449   6.265   3.477 -0.3221 -0.7252 -0.8194
28588WAT     H216158   3.396   6.143   3.550 -1.1550 -0.7870 -1.5117
28588WAT    EPW16159   3.386   6.225   3.522 -0.2656 -0.2379 -0.3036
28589WAT      O16160   9.644   0.385   8.334  0.2660  0.0768 -0.8473
28589WAT     H116161   9.653   0.480   8.347  2.3206 -0.0778 -0.8223
28589WAT     H216162   9.725   0.348   8.369 -0.7889 -1.7781 -0.2318
28589WAT    EPW16163   9.656   0.393   8.340  0.3977 -0.1882 -0.7629
28590WAT      O16164   5.761   7.382   3.575 -0.4780 -0.2629 -0.1620
28590WAT     H116165   5.749   7.474   3.555 -0.5108 -0.1608  0.3102
28590WAT     H216166   5.799   7.381   3.663  1.0266 -0.6392 -0.7711
28590WAT    EPW16167   5.764   7.394   3.584 -0.2840 -0.2990 -0.1800
28591WAT      O16168   9.994   9.120   8.528  0.0322 -0.4754 -0.3025
28591WAT     H116169  10.036   9.170   8.599 -0.0043  1.6896 -1.6981
28591WAT     H216170   9.905   9.105   8.559 -0.2341  1.1717 -0.1592
28591WAT    EPW16171   9.988   9.125   8.542 -0.0076  0.0272 -0.4678
28592WAT      O16172   2.320   5.590   1.671 -0.4378 -0.3669  0.5153
28592WAT     H116173   2.246   5.625   1.622  1.5492  0.0117 -2.5334
28592WAT     H216174   2.378   5.665   1.683  0.9911 -1.2937 -0.3134
28592WAT    EPW16175   2.318   5.605   1.666  0.0126 -0.4392  0.0039
28593WAT      O16176   5.565   7.821   2.579  0.1078 -0.0878 -0.2755
28593WAT     H116177   5.473   7.817   2.555  0.0236  2.6100 -0.6867
28593WAT     H216178   5.599   7.733   2.560 -2.1365 -0.8471 -1.0219
28593WAT    EPW16179   5.557   7.809   2.573 -0.1993  0.1678 -0.4281
28594WAT      O16180   6.992   4.908   8.793  0.5330  0.4642 -0.5750
28594WAT     H116181   6.977   4.860   8.875 -0.1503  0.2945 -0.7983
28594WAT     H216182   6.990   4.840   8.725 -0.7850  0.8407 -0.9286
28594WAT    EPW16183   6.990   4.892   8.795  0.2692  0.4916 -0.6514
28595WAT      O16184   3.965   6.879   0.459  0.2958  0.1091 -0.0670
28595WAT     H116185   3.889   6.871   0.518  0.3493 -0.2203 -0.0377
28595WAT     H216186   4.001   6.965   0.478  0.4198 -0.0636  0.5174
28595WAT    EPW16187   3.960   6.889   0.469  0.3192  0.0427  0.0140
28596WAT      O16188   1.959   6.088   0.754 -0.2308  0.3933  0.7071
28596WAT     H116189   1.886   6.110   0.695  1.3365  1.1338 -1.0786
28596WAT     H216190   1.936   6.003   0.791 -1.7513  0.3629 -0.2391
28596WAT    EPW16191   1.946   6.080   0.751 -0.2246  0.4866  0.3468
28597WAT      O16192   2.700   5.979   3.350  0.2108 -0.4409  0.0108
28597WAT     H116193   2.772   6.027   3.390 -0.2526 -1.1071  1.7394
28597WAT     H216194   2.725   5.887   3.359  0.0780 -0.6203 -1.2585
28597WAT    EPW16195   2.712   5.973   3.356  0.1322 -0.5527  0.0714
28598WAT      O16196   4.271   6.433   5.161 -0.4491  0.6857 -0.4885
28598WAT     H116197   4.255   6.356   5.215 -0.0859  1.0549  0.1714
28598WAT     H216198   4.264   6.402   5.071 -2.5907  0.3493 -0.2669
28598WAT    EPW16199   4.268   6.419   5.156 -0.6835  0.6902 -0.3722
28599WAT      O16200   0.950   5.544   2.101  0.0875 -0.3031 -0.2625
28599WAT     H116201   0.923   5.550   2.009 -0.3188 -1.4148 -0.2359
28599WAT     H216202   1.017   5.611   2.111  1.1203 -1.0646 -1.7397
28599WAT    EPW16203   0.955   5.554   2.090  0.1701 -0.5503 -0.4539
28600WAT      O16204   3.448   1.621   3.867  0.0076 -0.3280 -0.2694
28600WAT     H116205   3.461   1.528   3.846  1.0212 -0.3633  0.4184
28600WAT     H216206   3.370   1.646   3.817  0.8801 -1.0081 -2.0592
28600WAT    EPW16207   3.439   1.612   3.858  0.2563 -0.4224 -0.4147
28601WAT      O16208   1.895   3.930   1.867  0.4493 -0.1660 -0.0830
28601WAT     H116209   1.947   3.933   1.787 -0.1667  2.6052 -0.4871
28601WAT     H216210   1.838   4.007   1.862 -1.9722 -1.6999  1.5011
28601WAT    EPW16211   1.894   3.941   1.856  0.0487 -0.0029  0.0727
28602WAT      O16212   2.883   5.930   0.344  0.1431 -0.7474  0.4722
28602WAT     H116213   2.922   5.847   0.316  0.0331 -0.9011  0.7722
28602WAT     H216214   2.809   5.943   0.284  2.3380  1.0320 -2.0880
28602WAT    EPW16215   2.878   5.921   0.332  0.4181 -0.5331  0.1741
28603WAT      O16216   5.187   8.689   7.768  0.1139 -0.4832  0.1976
28603WAT     H116217   5.142   8.729   7.842 -1.1224 -0.8552 -0.3346
28603WAT     H216218   5.201   8.762   7.707  1.0907 -0.1874  0.7592
28603WAT    EPW16219   5.183   8.704   7.769  0.0796 -0.4935  0.2017
28604WAT      O16220   3.085   5.212   4.650  0.3752 -0.2129  0.5818
28604WAT     H116221   3.146   5.235   4.580 -0.4481  0.6141  0.1225
28604WAT     H216222   3.024   5.286   4.654 -0.4856 -0.9388  1.1574
28604WAT    EPW16223   3.085   5.225   4.642  0.1531 -0.1993  0.5970
28605WAT      O16224   3.545   4.096   4.766 -0.6831  0.5813 -0.2527
28605WAT     H116225   3.637   4.071   4.750 -0.1004  0.0144  3.3133
28605WAT     H216226   3.547   4.192   4.765  0.0218  0.5796  0.1658
28605WAT    EPW16227   3.558   4.105   4.764 -0.5133  0.5062  0.2728
28606WAT      O16228   1.746   4.444   1.647  0.2433 -0.5381  0.0308
28606WAT     H116229   1.802   4.442   1.569  1.7304  1.1589  0.9982
28606WAT     H216230   1.797   4.401   1.715 -0.5496 -0.9378  0.3912
28606WAT    EPW16231   1.760   4.438   1.646  0.3348 -0.3667  0.2059
28607WAT      O16232   9.523   0.040   5.255 -0.2208 -0.2492  0.1289
28607WAT     H116233   9.449   0.093   5.283  1.5368  4.0718 -2.4648
28607WAT     H216234   9.487  -0.020   5.190 -1.5530  2.1742 -1.5462
28607WAT    EPW16235   9.509   0.039   5.250 -0.1650  0.6404 -0.4339
28608WAT      O16236   2.376   4.795   2.880  0.1028  0.2483 -0.1396
28608WAT     H116237   2.328   4.804   2.962  0.7306 -2.5258  0.6477
28608WAT     H216238   2.309   4.795   2.812 -0.5166  1.4567  0.4328
28608WAT    EPW16239   2.361   4.796   2.882  0.1040  0.0415  0.0397
28609WAT      O16240   6.108   7.808   7.459 -0.4241 -0.1012 -0.7075
28609WAT     H116241   6.170   7.811   7.532 -1.5447  1.9045  0.2768
28609WAT     H216242   6.035   7.864   7.488 -0.8116  0.9813 -3.4645
28609WAT    EPW16243   6.106   7.816   7.473 -0.6230  0.3061 -0.9418
28610WAT      O16244   2.815   4.070   2.019  0.4365 -0.5890  0.3771
28610WAT     H116245   2.765   3.995   1.988 -3.7020  1.2546  1.8931
28610WAT     H216246   2.797   4.139   1.956  3.2562 -0.4039 -0.3713
28610WAT    EPW16247   2.806   4.069   2.007  0.2626 -0.3211  0.4783
28611WAT      O16248   8.921   9.246   8.176 -0.3585  0.0689 -0.0236
28611WAT     H116249   8.868   9.260   8.254 -1.6175  2.0379 -1.1335
28611WAT     H216250   8.995   9.306   8.186  1.8308 -2.6498  1.5061
28611WAT    EPW16251   8.923   9.255   8.188 -0.2356 -0.0296  0.0315
28612WAT      O16252   1.634   2.509   1.075 -0.4140  0.4037 -0.2986
28612WAT     H116253   1.704   2.567   1.044  2.4123 -0.7635  3.1221
28612WAT     H216254   1.669   2.421   1.062 -2.2495 -0.3421 -0.4724
28612WAT    EPW16255   1.648   2.505   1.070 -0.2833  0.1514  0.1295
28613WAT      O16256   3.870   7.450   2.173  0.2353 -0.0076 -0.0196
28613WAT     H116257   3.954   7.454   2.219  0.1575 -1.1434  0.2643
28613WAT     H216258   3.886   7.494   2.090  0.1028  3.0341  1.4332
28613WAT    EPW16259   3.883   7.456   2.168  0.2075  0.2437  0.2096
28614WAT      O16260   5.045   2.470   1.584  0.2583 -0.6255  0.0714
28614WAT     H116261   5.133   2.506   1.582 -0.9806  2.7340  0.5885
28614WAT     H216262   4.999   2.510   1.511 -1.6561  0.2201  1.6177
28614WAT    EPW16263   5.050   2.480   1.574 -0.1576 -0.0709  0.3436
28615WAT      O16264   9.324   0.141   7.526  0.1044 -0.4251  0.4812
28615WAT     H116265   9.235   0.118   7.497  0.0947 -1.0669  0.9866
28615WAT     H216266   9.339   0.228   7.490 -1.4051  0.4514  1.8070
28615WAT    EPW16267   9.314   0.149   7.517 -0.0963 -0.3941  0.7229
28616WAT      O16268   0.163   4.522   6.184 -0.4203  0.9086  0.0954
28616WAT     H116269   0.237   4.555   6.134  0.2095  1.3412  1.2920
28616WAT     H216270   0.169   4.565   6.269 -1.6609  0.4442  0.4520
28616WAT    EPW16271   0.173   4.532   6.188 -0.5009  0.9046  0.3002
28617WAT      O16272   0.271   2.451   1.742 -0.3891  0.3468 -0.2409
28617WAT     H116273   0.366   2.450   1.729 -0.4592 -1.5083 -0.8923
28617WAT     H216274   0.248   2.360   1.761 -1.9684  0.8785  0.6216
28617WAT    EPW16275   0.280   2.439   1.743 -0.6067  0.1723 -0.2130
28618WAT      O16276   1.560   5.097   2.489 -0.6779 -0.4005  0.0688
28618WAT     H116277   1.468   5.078   2.469 -0.9295  0.7579  0.0441
28618WAT     H216278   1.608   5.022   2.454 -1.5775 -0.8504 -0.2391
28618WAT    EPW16279   1.554   5.085   2.482 -0.8298 -0.3068  0.0249
28619WAT      O16280   2.376   4.473   0.191 -0.0057  0.9557  0.1495
28619WAT     H116281   2.424   4.487   0.273  0.5697  0.1752 -0.0433
28619WAT     H216282   2.395   4.552   0.140  0.8530  0.7937  0.1928
28619WAT    EPW16283   2.385   4.485   0.195  0.1833  0.8314  0.1298
28620WAT      O16284   6.779   6.428   2.699 -1.7056 -0.5263  0.7380
28620WAT     H116285   6.847   6.402   2.638 -2.0635 -1.4333  0.7008
28620WAT     H216286   6.768   6.522   2.685 -3.1884 -1.0104 -2.0713
28620WAT    EPW16287   6.786   6.437   2.689 -1.9484 -0.7098  0.3625
28621WAT      O16288   3.128   5.926   3.328 -0.1748 -0.2115  0.2620
28621WAT     H116289   3.178   5.965   3.257 -0.6848 -1.0233 -0.5693
28621WAT     H216290   3.089   6.000   3.374 -2.1807  0.2847 -2.0383
28621WAT    EPW16291   3.129   5.941   3.325 -0.5065 -0.2532 -0.1513
28622WAT      O16292   6.032   8.250   6.380  0.0207 -0.0041  0.0826
28622WAT     H116293   6.044   8.210   6.467  2.4014 -0.8409 -0.5461
28622WAT     H216294   6.104   8.313   6.374  1.3252 -1.5799 -2.1042
28622WAT    EPW16295   6.043   8.253   6.391  0.5069 -0.3223 -0.2885
28623WAT      O16296   6.069   8.679   7.763 -0.1468 -0.0746  0.1959
28623WAT     H116297   6.151   8.683   7.812  1.1064 -0.1690 -1.7822
28623WAT     H216298   6.089   8.720   7.679 -1.7159 -1.3609 -0.8701
28623WAT    EPW16299   6.082   8.685   7.758 -0.1886 -0.2565 -0.2055
28624WAT      O16300   7.638   7.114   7.364  0.0659  0.1860 -0.0528
28624WAT     H116301   7.697   7.062   7.419 -1.6348  0.5115  2.2236
28624WAT     H216302   7.622   7.059   7.288  1.2192 -1.0236  0.5285
28624WAT    EPW16303   7.644   7.100   7.362 -0.0062  0.0691  0.3240
28625WAT      O16304   8.700   9.795   7.358 -0.6937 -0.1170 -0.1522
28625WAT     H116305   8.605   9.800   7.344 -0.3679  1.8336 -2.4223
28625WAT     H216306   8.734   9.876   7.319  1.8612 -0.4070  1.2488
28625WAT    EPW16307   8.692   9.806   7.351 -0.3142  0.1020 -0.2670
28626WAT      O16308   7.549   4.956   8.135 -0.3136 -0.2512 -0.3192
28626WAT     H116309   7.554   4.875   8.185 -1.3605 -0.3975 -0.4354
28626WAT     H216310   7.638   4.968   8.100 -0.0909 -1.2204 -0.1134
28626WAT    EPW16311   7.562   4.947   8.137 -0.4222 -0.3984 -0.3071
28627WAT      O16312   1.129   6.857   0.292 -0.6978  0.6446 -0.0906
28627WAT     H116313   1.073   6.785   0.320  1.5762 -1.5369 -0.8047
28627WAT     H216314   1.132   6.849   0.196 -1.2119  2.3984 -0.3037
28627WAT    EPW16315   1.122   6.847   0.283 -0.4656  0.5879 -0.2129
28628WAT      O16316   3.562   2.365   1.809 -0.6255 -0.3889  0.0393
28628WAT     H116317   3.541   2.298   1.875 -1.2009 -2.2860 -1.9509
28628WAT     H216318   3.564   2.317   1.726 -0.1119  1.9334 -1.3829
28628WAT    EPW16319   3.560   2.349   1.807 -0.6337 -0.3328 -0.4108
28629WAT      O16320   2.879   3.974   2.773 -0.1582 -0.5413 -0.2897
28629WAT     H116321   2.858   3.919   2.698  2.9627 -0.9358 -1.0083
28629WAT     H216322   2.958   3.934   2.810  0.2463  1.5278  1.2304
28629WAT    EPW16323   2.886   3.961   2.768  0.3066 -0.3203 -0.1839
28630WAT      O16324   4.776   2.226   4.946  0.4495  0.5680  0.2101
28630WAT     H116325   4.839   2.260   5.010 -0.0568  0.5727  0.7138
28630WAT     H216326   4.825   2.160   4.897  1.2780  1.6135 -0.3945
28630WAT    EPW16327   4.791   2.222   4.948  0.4921  0.7064  0.1965
28631WAT      O16328   6.972   7.561   8.535 -0.4373 -0.0633  0.1536
28631WAT     H116329   7.062   7.588   8.519 -0.6091 -0.4101 -1.7013
28631WAT     H216330   6.975   7.517   8.619  1.9890 -3.4387 -1.4467
28631WAT    EPW16331   6.984   7.559   8.544 -0.1402 -0.5543 -0.3023
28632WAT      O16332   4.435   9.069   7.643 -0.3248  0.0734  0.2850
28632WAT     H116333   4.458   9.160   7.663  3.6938 -0.3269 -1.5138
28632WAT     H216334   4.457   9.059   7.550 -3.4922 -2.0425 -0.3807
28632WAT    EPW16335   4.441   9.080   7.633 -0.2124 -0.2584 -0.0401
28633WAT      O16336   6.746   8.712   3.515  0.1255  0.0051 -0.9966
28633WAT     H116337   6.721   8.790   3.565 -1.6579 -0.6891 -0.7234
28633WAT     H216338   6.752   8.743   3.424  0.3872  0.6515 -0.7647
28633WAT    EPW16339   6.744   8.726   3.510 -0.0749 -0.0010 -0.9298
28634WAT      O16340   5.694   8.215   5.787  0.1190  0.1038 -0.6048
28634WAT     H116341   5.742   8.296   5.768  2.0099 -1.4309 -2.8594
28634WAT     H216342   5.657   8.188   5.703 -1.7481 -0.6519  0.4015
28634WAT    EPW16343   5.696   8.222   5.774  0.1221 -0.1984 -0.7696
28635WAT      O16344   2.229   5.153   0.115  0.6781  0.4286  0.1482
28635WAT     H116345   2.241   5.151   0.020 -2.2671  2.3549 -0.3786
28635WAT     H216346   2.206   5.063   0.139  0.2285  0.1907 -1.1471
28635WAT    EPW16347   2.228   5.141   0.106  0.2303  0.6514 -0.0921
28636WAT      O16348   2.357   6.182   3.248 -0.4095  0.3141 -0.3361
28636WAT     H116349   2.393   6.268   3.270 -1.2307  0.5550  0.0899
28636WAT     H216350   2.279   6.201   3.196 -0.6238 -0.1742 -0.1970
28636WAT    EPW16351   2.351   6.196   3.244 -0.5461  0.2813 -0.2617
28637WAT      O16352   1.428   4.375   0.474 -0.3066  0.0911  0.0167
28637WAT     H116353   1.439   4.465   0.504  1.0795 -0.5865  1.6653
28637WAT     H216354   1.512   4.352   0.435 -0.1770 -0.9046  0.8315
28637WAT    EPW16355   1.440   4.384   0.473 -0.1066 -0.1297  0.3416
28638WAT      O16356   5.023   1.384   0.153 -0.6826  1.0385  0.1819
28638WAT     H116357   4.955   1.338   0.103 -0.0024  1.1815 -0.9148
28638WAT     H216358   5.065   1.441   0.089  2.0524 -0.7760  0.2030
28638WAT    EPW16359   5.019   1.385   0.138 -0.2325  0.8180  0.0400
28639WAT      O16360   5.707   7.225   0.289  0.3774  0.1589  0.2285
28639WAT     H116361   5.778   7.265   0.239  0.0269  0.3623 -0.1109
28639WAT     H216362   5.628   7.271   0.260  0.3280  1.3236  2.0475
28639WAT    EPW16363   5.706   7.236   0.279  0.3245  0.3395  0.4236
28640WAT      O16364   1.162   5.621   2.650  0.6193 -0.8247 -0.0226
28640WAT     H116365   1.245   5.664   2.671  0.8114 -0.3958 -1.5094
28640WAT     H216366   1.095   5.677   2.689  0.9217  0.2940 -1.0305
28640WAT    EPW16367   1.164   5.634   2.658  0.6845 -0.6208 -0.3517
28641WAT      O16368   0.793   9.024   6.450  0.7222  0.8992 -0.0702
28641WAT     H116369   0.760   8.950   6.501 -1.4697  1.7128 -0.2317
28641WAT     H216370   0.773   9.001   6.359  1.0136  1.2257 -0.2190
28641WAT    EPW16371   0.786   9.011   6.445  0.4716  1.0500 -0.1111
28642WAT      O16372   5.292   7.158   5.875 -0.0874 -0.3321 -0.5678
28642WAT     H116373   5.268   7.071   5.907  0.2211 -0.6072 -1.0720
28642WAT     H216374   5.350   7.192   5.943 -0.0889 -0.5824 -0.4377
28642WAT    EPW16375   5.297   7.151   5.888 -0.0470 -0.4013 -0.6170
28643WAT      O16376   1.986   3.633   1.559  0.1202 -0.3768  0.4490
28643WAT     H116377   1.932   3.609   1.634 -0.9577 -0.4354 -0.3380
28643WAT     H216378   2.031   3.713   1.586 -1.3493  0.3995  0.6429
28643WAT    EPW16379   1.985   3.640   1.572 -0.2158 -0.2823  0.3707
28644WAT      O16380   9.759   0.618   8.755 -0.6401 -0.0013 -0.0716
28644WAT     H116381   9.727   0.595   8.842 -0.1719  1.2345  0.4588
28644WAT     H216382   9.838   0.565   8.744 -2.2198 -2.3230 -0.9823
28644WAT    EPW16383   9.765   0.608   8.765 -0.7868 -0.1445 -0.1216
28645WAT      O16384   2.644   3.414   4.515 -0.5055 -0.8333 -0.0065
28645WAT     H116385   2.628   3.375   4.601  1.0570  0.0098  0.7103
28645WAT     H216386   2.672   3.340   4.461 -1.4726 -1.3682  0.2002
28645WAT    EPW16387   2.645   3.399   4.519 -0.4270 -0.7927  0.1154
28646WAT      O16388   5.459   4.882   0.850 -0.4818 -0.1062  0.4910
28646WAT     H116389   5.401   4.956   0.838 -1.4955 -0.9260  0.1670
28646WAT     H216390   5.456   4.863   0.944 -0.5994 -0.0296  0.5022
28646WAT    EPW16391   5.451   4.889   0.861 -0.6311 -0.2043  0.4497
28647WAT      O16392   3.793   1.591   1.721 -1.1071  0.9342  0.1483
28647WAT     H116393   3.734   1.519   1.695 -0.4381  0.6800 -0.7117
28647WAT     H216394   3.862   1.547   1.771  0.8349  0.4553 -2.6821
28647WAT    EPW16395   3.794   1.575   1.724 -0.7627  0.8376 -0.3384
28648WAT      O16396   5.840   8.970   7.867  0.2484 -0.0448 -0.8736
28648WAT     H116397   5.861   8.891   7.818  3.1500  0.8123 -1.1916
28648WAT     H216398   5.884   8.959   7.951  0.1240  0.9454 -0.6612
28648WAT    EPW16399   5.849   8.958   7.872  0.6149  0.1988 -0.8876
28649WAT      O16400   6.078   0.409   8.837 -0.0851 -0.3616 -0.2201
28649WAT     H116401   6.112   0.493   8.808  0.0860  0.3998  2.0087
28649WAT     H216402   6.134   0.383   8.910 -1.1612 -1.5577  0.2375
28649WAT    EPW16403   6.090   0.417   8.843 -0.2046 -0.4189  0.1345
28650WAT      O16404   5.656   9.390   8.113  0.6128 -0.2289 -0.1420
28650WAT     H116405   5.730   9.409   8.055  1.2769 -0.8314  0.4849
28650WAT     H216406   5.583   9.373   8.053  0.5709  1.8424 -0.7630
28650WAT    EPW16407   5.656   9.390   8.097  0.6948 -0.0348 -0.1411
28651WAT      O16408   5.546   5.964   1.686 -0.1064 -0.1169  0.0090
28651WAT     H116409   5.578   6.038   1.737  1.4530 -0.2588 -0.7170
28651WAT     H216410   5.625   5.917   1.659 -0.9923 -1.1670 -0.8518
28651WAT    EPW16411   5.560   5.968   1.689 -0.0176 -0.2742 -0.2003
28652WAT      O16412   2.015   8.730   1.297  0.5491  0.6812 -0.4131
28652WAT     H116413   2.045   8.652   1.250 -0.8389  0.0993 -0.3817
28652WAT     H216414   1.927   8.708   1.326  0.2790  2.1261 -0.0519
28652WAT    EPW16415   2.007   8.717   1.295  0.3303  0.7949 -0.3613
28653WAT      O16416   1.274   2.385   5.026  0.0412  0.4066  0.5167
28653WAT     H116417   1.208   2.445   5.062 -1.3985  0.4348 -1.9579
28653WAT     H216418   1.328   2.440   4.970  0.3121 -0.1556  0.2241
28653WAT    EPW16419   1.272   2.400   5.023 -0.1130  0.3362  0.1516
28654WAT      O16420   9.010   1.792   7.649  0.5501  0.6972 -0.3469
28654WAT     H116421   9.009   1.697   7.650 -2.8749  0.4812 -2.8873
28654WAT     H216422   9.092   1.815   7.605  2.1445 -0.9045  1.6104
28654WAT    EPW16423   9.021   1.783   7.643  0.3085  0.4575 -0.4239
28655WAT      O16424   0.723   4.475   4.337  0.1337 -0.1671  0.1697
28655WAT     H116425   0.774   4.554   4.358  0.8560 -0.0596 -1.7729
28655WAT     H216426   0.788   4.412   4.305 -0.5635 -1.2110  0.7442
28655WAT    EPW16427   0.739   4.477   4.336  0.1370 -0.2906 -0.0107
28656WAT      O16428   1.486   4.416   1.542 -0.3352  0.0865 -0.2848
28656WAT     H116429   1.419   4.457   1.598  0.7728 -0.9889  1.9756
28656WAT     H216430   1.565   4.415   1.596  0.7400 -1.2959 -1.7882
28656WAT    EPW16431   1.487   4.421   1.557 -0.0473 -0.2375 -0.1849
28657WAT      O16432   0.591   4.340   0.997 -0.5791  0.3826  0.6302
28657WAT     H116433   0.623   4.250   1.009 -2.2778 -0.8615 -2.6654
28657WAT     H216434   0.671   4.392   0.987  0.5445 -1.4977 -1.1484
28657WAT    EPW16435   0.606   4.335   0.997 -0.6550 -0.0296 -0.0390
28658WAT      O16436   3.977   9.849   1.693 -0.4267  0.0936  0.1203
28658WAT     H116437   3.948   9.781   1.632 -1.4616 -0.2812  1.0032
28658WAT     H216438   4.031   9.802   1.757  0.2237  0.3991 -0.1904
28658WAT    EPW16439   3.980   9.834   1.693 -0.4774  0.0844  0.1958
28659WAT      O16440   2.277   6.014   2.355 -0.0462  0.0686 -0.2156
28659WAT     H116441   2.285   5.932   2.403  0.6339  0.2109 -0.0753
28659WAT     H216442   2.272   5.989   2.263 -0.3498 -0.1564 -0.1364
28659WAT    EPW16443   2.277   6.000   2.349  0.0033  0.0575 -0.1866
28660WAT      O16444   3.488   0.926   4.579 -0.2970 -0.3857  0.1942
28660WAT     H116445   3.444   0.855   4.531  0.9188 -0.2661 -1.1571
28660WAT     H216446   3.416   0.978   4.616 -1.2536 -1.0960 -0.6137
28660WAT    EPW16447   3.472   0.923   4.577 -0.2629 -0.4636 -0.0906
28661WAT      O16448   8.631   8.878   6.863  0.0740  0.4365 -0.1005
28661WAT     H116449   8.550   8.929   6.874 -0.1209  0.4812 -1.5975
28661WAT     H216450   8.689   8.935   6.813  0.5101 -0.1457 -0.2664
28661WAT    EPW16451   8.628   8.892   6.858  0.1054  0.3648 -0.3195
28662WAT      O16452   2.896   4.601   3.467 -0.2470 -0.0576  0.0826
28662WAT     H116453   2.821   4.564   3.514  0.3042 -0.6968  0.4937
28662WAT     H216454   2.937   4.660   3.530  1.6669 -2.4108  1.2564
28662WAT    EPW16455   2.892   4.604   3.482  0.0782 -0.4525  0.2917
28663WAT      O16456   3.532   6.171   0.346 -0.7352 -0.4686 -0.2590
28663WAT     H116457   3.544   6.243   0.283 -2.5020 -1.9609 -2.4493
28663WAT     H216458   3.533   6.214   0.432  2.5127  1.5774 -1.1481
28663WAT    EPW16459   3.534   6.186   0.349 -0.5399 -0.3955 -0.6651
28664WAT      O16460   2.119   3.082   2.938 -0.2734 -0.2213 -0.2639
28664WAT     H116461   2.060   3.008   2.954  0.1316 -0.4635  0.0972
28664WAT     H216462   2.069   3.158   2.968 -0.5845 -0.3715 -0.3861
28664WAT    EPW16463   2.104   3.082   2.944 -0.2612 -0.2730 -0.2322
28665WAT      O16464   0.841   8.351   2.331  0.2042 -0.8476 -0.1855
28665WAT     H116465   0.808   8.440   2.315  2.8326  0.1166 -0.7814
28665WAT     H216466   0.882   8.326   2.248  5.3868  0.2211  1.6409
28665WAT    EPW16467   0.842   8.359   2.318  1.2344 -0.5798 -0.0232
28666WAT      O16468   3.452   3.469   0.602  0.7414 -0.5457  0.4206
28666WAT     H116469   3.376   3.476   0.660 -0.3992  0.3987 -1.1155
28666WAT     H216470   3.414   3.454   0.516  2.3376 -0.4608 -0.3160
28666WAT    EPW16471   3.437   3.467   0.599  0.8016 -0.4100  0.1209
28667WAT      O16472   3.958   5.502   0.828 -0.3661  0.5041 -0.1120
28667WAT     H116473   3.920   5.577   0.781 -4.5579 -0.7529  0.8291
28667WAT     H216474   3.977   5.438   0.759 -1.1395  0.7579 -0.5772
28667WAT    EPW16475   3.955   5.504   0.813 -1.0210  0.3715 -0.0492
28668WAT      O16476   0.441   6.479   4.849 -0.2095  0.4722 -0.7874
28668WAT     H116477   0.346   6.468   4.841 -0.3951  2.0369 -0.9629
28668WAT     H216478   0.462   6.551   4.790  1.0668  0.2860 -0.5874
28668WAT    EPW16479   0.431   6.487   4.840 -0.0656  0.6542 -0.7844
28669WAT      O16480   8.636   9.240   8.850 -0.5284  0.3676 -0.1021
28669WAT     H116481   8.672   9.151   8.854  2.4760  1.4279 -0.4898
28669WAT     H216482   8.592   9.252   8.934  2.2676 -0.3047  1.5885
28669WAT    EPW16483   8.635   9.229   8.861  0.2365  0.4187  0.0696
28670WAT      O16484   1.350   7.590   5.635  0.0979  0.3975  0.3118
28670WAT     H116485   1.366   7.587   5.541 -1.2963  1.0567  0.0237
28670WAT     H216486   1.429   7.629   5.672  0.6034  0.2534 -0.6103
28670WAT    EPW16487   1.362   7.595   5.628 -0.0194  0.4654  0.1521
28671WAT      O16488   0.543   4.352   4.868  1.0819  0.0983 -0.7056
28671WAT     H116489   0.488   4.275   4.883 -0.1752  0.9991 -0.4994
28671WAT     H216490   0.570   4.345   4.776  1.0769 -0.6416 -0.6538
28671WAT    EPW16491   0.539   4.341   4.858  0.9154  0.1194 -0.6714
28672WAT      O16492   5.561   9.919   7.642 -0.3288  0.1255 -0.0156
28672WAT     H116493   5.514   9.852   7.692  0.0285  0.5598  0.9128
28672WAT     H216494   5.520  10.001   7.667  0.6691  0.4750  0.5233
28672WAT    EPW16495   5.549   9.921   7.652 -0.1502  0.2284  0.1781
28673WAT      O16496   1.104   1.801   0.557 -0.2037 -0.0746 -0.2626
28673WAT     H116497   1.198   1.799   0.539  0.2969 -0.1121  2.0502
28673WAT     H216498   1.064   1.817   0.472  1.9994  1.7789 -1.0626
28673WAT    EPW16499   1.112   1.803   0.543  0.1529  0.1649 -0.0631
28674WAT      O16500   2.393   5.505   1.150  0.4347 -0.1699 -0.0708
28674WAT     H116501   2.326   5.572   1.140  0.3848 -0.4124 -1.4653
28674WAT     H216502   2.346   5.422   1.150  0.6288 -0.2843  0.1962
28674WAT    EPW16503   2.378   5.503   1.149  0.4537 -0.2170 -0.2195
28675WAT      O16504   7.242   9.126   8.864  0.2182 -0.4883 -0.6158
28675WAT     H116505   7.290   9.169   8.935 -0.0026  2.9510 -2.3291
28675WAT     H216506   7.310   9.095   8.804  0.3666 -1.8668  0.2391
28675WAT    EPW16507   7.257   9.128   8.865  0.2086 -0.2170 -0.7281
28676WAT      O16508   1.366   3.321   2.831 -0.1225  1.2484  0.7041
28676WAT     H116509   1.425   3.278   2.770 -1.9371  0.9926 -0.9672
28676WAT     H216510   1.301   3.254   2.853  0.2687  1.4465  2.6715
28676WAT    EPW16511   1.365   3.306   2.826 -0.3102  1.2407  0.7430
28677WAT      O16512   3.920   2.784   1.298 -0.5460  0.0899  0.0521
28677WAT     H116513   3.869   2.728   1.240 -2.1591  1.9057 -0.3576
28677WAT     H216514   3.961   2.849   1.239  0.3609  0.0681  0.6327
28677WAT    EPW16515   3.919   2.785   1.282 -0.6392  0.3266  0.0746
28678WAT      O16516   2.754   5.440   3.384 -0.2799 -0.5200  0.5421
28678WAT     H116517   2.820   5.446   3.315 -0.5726 -0.6429  0.2511
28678WAT     H216518   2.738   5.531   3.409 -0.4466 -0.4511  0.1871
28678WAT    EPW16519   2.761   5.453   3.378 -0.3405 -0.5271  0.4570
28679WAT      O16520   2.802   6.834   2.759  0.5180  0.3026  0.2568
28679WAT     H116521   2.897   6.838   2.771  0.3221  1.7206  1.6043
28679WAT     H216522   2.785   6.743   2.738  2.3000  0.2448 -1.2589
28679WAT    EPW16523   2.813   6.823   2.758  0.7272  0.4823  0.2346
28680WAT      O16524   1.693   4.840   1.420 -0.6282  0.4359  0.6466
28680WAT     H116525   1.776   4.794   1.407  0.4488  2.4675 -0.2748
28680WAT     H216526   1.684   4.848   1.514 -0.6858 -1.2820  0.8254
28680WAT    EPW16527   1.703   4.835   1.430 -0.4938  0.4773  0.5486
28681WAT      O16528   6.995   6.486   1.008 -0.4534 -0.1302  0.7231
28681WAT     H116529   6.995   6.399   0.969 -2.4278 -0.1905  0.7623
28681WAT     H216530   7.037   6.542   0.943 -0.3418 -0.8679  0.1487
28681WAT    EPW16531   7.001   6.482   0.994 -0.6993 -0.2353  0.6525
28682WAT      O16532   3.277   5.924   3.631  0.6029 -0.4539 -0.2190
28682WAT     H116533   3.224   5.855   3.670  1.1147 -0.3800  0.6393
28682WAT     H216534   3.231   5.948   3.551 -0.0109 -1.2207 -0.1010
28682WAT    EPW16535   3.264   5.918   3.626  0.5895 -0.5453 -0.0900
28683WAT      O16536   5.206   6.388   2.819  0.6669 -0.1053 -0.2856
28683WAT     H116537   5.222   6.459   2.882  1.0137 -1.4363  1.1946
28683WAT     H216538   5.280   6.393   2.759  1.1234  0.2929  0.2938
28683WAT    EPW16539   5.218   6.398   2.819  0.7732 -0.2284 -0.0141
28684WAT      O16540   5.553   2.922   3.968 -0.9735 -0.6129 -0.2301
28684WAT     H116541   5.501   2.849   4.003  1.9725 -1.9659  1.8200
28684WAT     H216542   5.598   2.958   4.044  1.3198  0.2115 -1.8560
28684WAT    EPW16543   5.552   2.917   3.983 -0.2823 -0.6827 -0.1742
28685WAT      O16544   1.398   1.700   6.146 -0.2983 -0.5693  0.3994
28685WAT     H116545   1.417   1.700   6.240 -1.1022  0.2311  0.5769
28685WAT     H216546   1.459   1.637   6.109  1.8542  0.9931  1.0829
28685WAT    EPW16547   1.409   1.692   6.153 -0.1204 -0.2576  0.5128
28686WAT      O16548   5.861   9.095   2.038  0.0636  0.1201  0.1459
28686WAT     H116549   5.935   9.105   1.979 -0.2140 -0.4455 -0.3082
28686WAT     H216550   5.876   9.012   2.082 -1.4226 -1.1771 -1.6206
28686WAT    EPW16551   5.873   9.086   2.036 -0.1693 -0.1254 -0.1469
28687WAT      O16552   2.607  10.028   1.369  0.4327 -0.5125  0.5703
28687WAT     H116553   2.649   9.989   1.291 -0.6845  1.9871 -1.4303
28687WAT     H216554   2.514  10.024   1.350  0.1357  0.1341  1.8246
28687WAT    EPW16555   2.600  10.022   1.356  0.2460 -0.0973  0.4718
28688WAT      O16556   5.394   7.642   4.069 -0.1564 -0.6500 -0.3586
28688WAT     H116557   5.339   7.564   4.065  0.4132 -1.0042 -2.5393
28688WAT     H216558   5.336   7.713   4.040 -0.4297 -0.3890  0.7860
28688WAT    EPW16559   5.379   7.641   4.065 -0.1175 -0.6623 -0.4952
28689WAT      O16560   5.553   5.647   2.292  0.1685  0.0490  0.4207
28689WAT     H116561   5.485   5.684   2.349  0.5490 -0.4423  1.2063
28689WAT     H216562   5.509   5.633   2.208 -0.1282  1.7775  0.2485
28689WAT    EPW16563   5.538   5.650   2.289  0.1795  0.2122  0.5018
28690WAT      O16564   6.048   6.700   0.633  0.7237 -0.0291 -0.5290
28690WAT     H116565   6.056   6.721   0.726 -2.3785  0.3696 -0.2389
28690WAT     H216566   6.138   6.688   0.603  1.8805  0.8904  2.2595
28690WAT    EPW16567   6.061   6.701   0.641  0.4671  0.1450 -0.1230
28691WAT      O16568   8.778   8.654   7.375  0.4552 -0.7819 -0.5758
28691WAT     H116569   8.817   8.630   7.459  1.1237  0.3172 -0.5579
28691WAT     H216570   8.822   8.735   7.350 -0.6021 -0.4387 -1.4007
28691WAT    EPW16571   8.789   8.662   7.383  0.4039 -0.5918 -0.6821
28692WAT      O16572   4.725   7.111   2.212 -0.4187 -0.0629 -0.5896
28692WAT     H116573   4.805   7.084   2.168  0.6235  1.6039  0.2136
28692WAT     H216574   4.685   7.174   2.153 -0.4696  0.0745 -0.4095
28692WAT    EPW16575   4.730   7.116   2.199 -0.2878  0.1752 -0.4600
28693WAT      O16576  10.083   0.687   8.315  0.8510  0.5799  0.3474
28693WAT     H116577  10.119   0.731   8.391  0.0659  1.7195  0.0867
28693WAT     H216578  10.110   0.741   8.241  2.9120 -1.3289 -0.4043
28693WAT    EPW16579  10.091   0.700   8.315  1.0195  0.4785  0.2136
28694WAT      O16580   7.119   9.055   8.397  0.1573  0.0981  0.2982
28694WAT     H116581   7.159   9.142   8.391  0.9439 -0.3225 -0.7065
28694WAT     H216582   7.189   8.998   8.429 -0.3808 -0.1701  1.0448
28694WAT    EPW16583   7.134   9.059   8.401  0.1903  0.0072  0.2642
28695WAT      O16584   7.877   4.237   8.325 -0.5294  0.0250  0.4280
28695WAT     H116585   7.821   4.163   8.301  3.5993 -3.2606 -0.3327
28695WAT     H216586   7.856   4.255   8.417 -2.0270 -1.7373  0.4756
28695WAT    EPW16587   7.867   4.230   8.334 -0.1824 -0.6406  0.3338
28696WAT      O16588   4.977   8.866   3.897 -0.2634  0.2721  0.3587
28696WAT     H116589   4.988   8.847   3.804  0.7079  1.3407  0.2325
28696WAT     H216590   5.016   8.953   3.909 -1.5692  0.7402  1.5141
28696WAT    EPW16591   4.983   8.875   3.887 -0.3078  0.4749  0.4945
28697WAT      O16592  10.362   1.224   5.118  0.6362  0.7525 -0.4701
28697WAT     H116593  10.423   1.156   5.146 -1.2186 -0.3240  1.1155
28697WAT     H216594  10.415   1.304   5.118  1.6873  0.1595  2.5270
28697WAT    EPW16595  10.377   1.226   5.121  0.5302  0.5323  0.1345
28698WAT      O16596   5.631   7.783   3.994 -0.0404 -0.1011 -0.2509
28698WAT     H116597   5.567   7.723   4.031 -1.1483 -0.0884 -2.0212
28698WAT     H216598   5.584   7.827   3.923  1.1376  1.9161  0.1537
28698WAT    EPW16599   5.617   7.781   3.989 -0.0312  0.1667 -0.4311
28699WAT      O16600  10.012   7.209   0.349 -0.1253 -0.0949  0.0614
28699WAT     H116601   9.946   7.276   0.333  0.0505  0.7117  2.2785
28699WAT     H216602  10.060   7.241   0.425 -0.3160 -2.9068  1.5148
28699WAT    EPW16603  10.009   7.222   0.357 -0.1268 -0.3593  0.5455
28700WAT      O16604   3.124   8.051   1.303  0.4804 -0.2006 -0.1124
28700WAT     H116605   3.187   8.028   1.235 -1.1319 -1.8118 -1.1415
28700WAT     H216606   3.089   7.967   1.333 -0.2807  0.5869  1.3241
28700WAT    EPW16607   3.128   8.037   1.298  0.1674 -0.3095 -0.0586
28701WAT      O16608   3.805   5.876   4.947  0.2205 -0.4140 -0.2200
28701WAT     H116609   3.770   5.855   5.033 -1.1600  4.3483  0.6547
28701WAT     H216610   3.733   5.919   4.901  1.9756  0.4645 -2.3546
28701WAT    EPW16611   3.791   5.879   4.952  0.2698  0.3297 -0.3862
28702WAT      O16612   1.432   4.448   3.264  0.1514 -0.4709 -0.3576
28702WAT     H116613   1.490   4.512   3.223  0.6009 -1.0480 -0.6388
28702WAT     H216614   1.344   4.480   3.245  0.3647  0.6187  0.4015
28702WAT    EPW16615   1.428   4.461   3.256  0.2388 -0.4034 -0.2944
28703WAT      O16616   5.752   6.329   2.434  0.4513 -0.3858 -0.4734
28703WAT     H116617   5.840   6.354   2.463  0.2127  1.2797 -1.0771
28703WAT     H216618   5.697   6.405   2.456 -1.5574 -2.4891  2.7317
28703WAT    EPW16619   5.756   6.342   2.441  0.1550 -0.4437 -0.1303
28704WAT      O16620   6.296   9.122   6.864  0.0132  0.0918 -1.0050
28704WAT     H116621   6.248   9.116   6.947  0.8234  0.5045 -0.4935
28704WAT     H216622   6.359   9.050   6.869 -2.2600 -2.2370 -2.8618
28704WAT    EPW16623   6.298   9.111   6.876 -0.1793 -0.1607 -1.1826
28705WAT      O16624   6.367   6.502   1.626  0.3960 -0.3152  0.8357
28705WAT     H116625   6.393   6.590   1.599  1.1471 -0.5589  0.7266
28705WAT     H216626   6.277   6.493   1.596  0.4026  0.3191  0.6125
28705WAT    EPW16627   6.358   6.512   1.619  0.4959 -0.2637  0.7918
28706WAT      O16628   7.210   8.567   2.949 -0.1796  0.5139  0.6901
28706WAT     H116629   7.227   8.648   2.998 -0.1837  1.2790 -0.5333
28706WAT     H216630   7.153   8.594   2.877 -0.7837 -0.7278  0.6767
28706WAT    EPW16631   7.205   8.581   2.946 -0.2599  0.4506  0.5270
28707WAT      O16632   6.464   8.203   2.537  0.8261  0.2224 -0.3210
28707WAT     H116633   6.468   8.114   2.572 -1.8382  1.3742  3.6908
28707WAT     H216634   6.371   8.216   2.518  1.1060  2.2336 -0.5110
28707WAT    EPW16635   6.452   8.193   2.539  0.5114  0.6399  0.1832
28708WAT      O16636   3.281   6.723   3.891 -0.1601  0.4281 -0.2762
28708WAT     H116637   3.241   6.808   3.908 -1.4310 -0.5084  1.8242
28708WAT     H216638   3.369   6.744   3.858 -0.5041  2.5235 -0.0127
28708WAT    EPW16639   3.288   6.737   3.889 -0.3730  0.5810  0.0356
28709WAT      O16640   9.413   1.778   7.697 -0.4819 -0.7888  0.0021
28709WAT     H116641   9.386   1.850   7.754 -1.2181 -0.8812 -0.2202
28709WAT     H216642   9.332   1.734   7.673 -0.4701  0.4835 -2.7856
28709WAT    EPW16643   9.399   1.782   7.701 -0.5770 -0.6332 -0.3948
28710WAT      O16644   0.320   4.348   2.630  0.1711 -0.3900  0.2539
28710WAT     H116645   0.294   4.257   2.615 -1.1132 -0.0986  0.6001
28710WAT     H216646   0.251   4.384   2.686  0.1463  1.0662 -0.6473
28710WAT    EPW16647   0.307   4.341   2.635 -0.0016 -0.1597  0.1807
28711WAT      O16648   4.963   9.535   2.552  0.5511 -0.6123 -0.6033
28711WAT     H116649   5.032   9.547   2.486  0.0824 -0.4866 -1.0799
28711WAT     H216650   4.883   9.523   2.501 -0.0366  0.7437 -0.0591
28711WAT    EPW16651   4.962   9.535   2.537  0.4120 -0.4163 -0.5943
28712WAT      O16652   5.940   5.425   1.862 -0.7688  0.2117 -0.3780
28712WAT     H116653   6.014   5.469   1.821 -0.3429  1.3319  1.4544
28712WAT     H216654   5.928   5.471   1.945 -1.8876 -1.5964  0.5328
28712WAT    EPW16655   5.948   5.437   1.868 -0.8597  0.1209 -0.0162
28713WAT      O16656   5.370   4.433   3.257 -0.2052  0.0718 -0.3870
28713WAT     H116657   5.454   4.445   3.302 -0.8986  1.4122  0.6278
28713WAT     H216658   5.387   4.366   3.191  1.1905 -1.0035  1.0095
28713WAT    EPW16659   5.383   4.426   3.254 -0.1125  0.1070 -0.0689
28714WAT      O16660   8.392   0.228   0.807  0.2012 -0.4455  0.0332
28714WAT     H116661   8.402   0.200   0.715 -1.0407 -1.6890  0.2358
28714WAT     H216662   8.452   0.171   0.855  1.0439  0.3827 -0.0175
28714WAT    EPW16663   8.402   0.217   0.801  0.1483 -0.5003  0.0532
28715WAT      O16664   2.128   4.571   2.292  0.0261 -0.8099 -0.0640
28715WAT     H116665   2.117   4.514   2.368 -2.4868  0.4586  0.6525
28715WAT     H216666   2.081   4.527   2.222  1.0035 -1.2190 -0.4798
28715WAT    EPW16667   2.120   4.558   2.293 -0.1763 -0.6964 -0.0243
28716WAT      O16668   4.106   9.260   3.483  0.4056  0.2037 -0.4355
28716WAT     H116669   4.096   9.338   3.428 -1.6101  0.9890  0.9103
28716WAT     H216670   4.193   9.268   3.522  0.8381  0.9496 -1.5259
28716WAT    EPW16671   4.116   9.271   3.481  0.1967  0.4053 -0.4017
28717WAT      O16672   5.960   4.434   1.990 -0.6047  0.0026 -0.5081
28717WAT     H116673   5.921   4.419   1.904 -0.1611  2.7530 -1.2804
28717WAT     H216674   6.041   4.383   1.989  0.7464  1.9814 -2.8292
28717WAT    EPW16675   5.965   4.425   1.979 -0.3681  0.6263 -0.9161
28718WAT      O16676   5.541   4.879   3.414 -0.4782  0.5027  0.7600
28718WAT     H116677   5.633   4.899   3.430  0.0773 -1.9676  1.0598
28718WAT     H216678   5.502   4.872   3.501 -0.4881 -0.3312  0.6947
28718WAT    EPW16679   5.548   4.881   3.428 -0.4065  0.0668  0.7910
28719WAT      O16680   2.392   6.565   2.713 -0.3924  0.5881  0.0333
28719WAT     H116681   2.351   6.495   2.662  0.2588 -0.3119  0.7106
28719WAT     H216682   2.441   6.615   2.648  1.2304 -1.1195 -0.1355
28719WAT    EPW16683   2.393   6.562   2.698 -0.0926  0.2441  0.1003
28720WAT      O16684   6.098   4.502   1.636  0.1889  0.5419  0.0190
28720WAT     H116685   6.104   4.584   1.586  1.3108 -0.2778 -1.2540
28720WAT     H216686   6.098   4.434   1.569  3.7528 -0.7191  1.1125
28720WAT    EPW16687   6.099   4.504   1.620  0.8070  0.2675 -0.0046
28721WAT      O16688   3.960   3.341   4.292 -0.7121 -0.7305 -0.5368
28721WAT     H116689   3.918   3.397   4.357 -1.2307  0.9333 -2.2321
28721WAT     H216690   3.921   3.367   4.208 -0.6703 -3.3635 -1.4641
28721WAT    EPW16691   3.949   3.352   4.289 -0.7750 -0.8583 -0.8826
28722WAT      O16692   6.142   7.067   8.911  0.4217 -0.4040  0.2332
28722WAT     H116693   6.075   7.130   8.883  0.9335 -0.5150 -1.3580
28722WAT     H216694   6.098   6.982   8.902  0.8650 -0.5075 -1.2142
28722WAT    EPW16695   6.127   7.064   8.906  0.5476 -0.4325 -0.1678
28723WAT      O16696   3.784   7.494   0.728  0.1805 -0.4507  0.6067
28723WAT     H116697   3.846   7.565   0.740  2.9300 -2.0856 -2.5372
28723WAT     H216698   3.712   7.533   0.679  0.8712  0.5073  0.3358
28723WAT    EPW16699   3.782   7.508   0.723  0.6342 -0.5403  0.1563
28724WAT      O16700   5.350   7.656   1.819 -0.4181 -0.3976  0.0467
28724WAT     H116701   5.332   7.664   1.913 -1.2958  0.6970 -0.1854
28724WAT     H216702   5.409   7.581   1.812 -0.8146 -0.8730  1.4113
28724WAT    EPW16703   5.355   7.647   1.831 -0.5860 -0.3159  0.1960
28725WAT      O16704   3.771   6.962   2.102 -0.5357  0.3782 -0.1878
28725WAT     H116705   3.738   7.052   2.096 -2.5692 -0.2678  0.5716
28725WAT     H216706   3.809   6.945   2.016 -1.4553  1.4724 -0.8425
28725WAT    EPW16707   3.772   6.972   2.090 -0.9252  0.4370 -0.1738
28726WAT      O16708   7.022   8.115   3.001 -0.2984 -0.4257  0.1848
28726WAT     H116709   6.934   8.077   3.011 -0.5642 -0.0318 -0.5892
28726WAT     H216710   7.006   8.202   2.963  0.4522 -0.5397 -0.4122
28726WAT    EPW16711   7.008   8.122   2.997 -0.2344 -0.3886  0.0041
28727WAT      O16712   2.562   4.583   1.963  0.1058  0.8310  0.6002
28727WAT     H116713   2.573   4.643   1.890  3.1017  0.6621  0.7858
28727WAT     H216714   2.504   4.629   2.024 -3.1820  0.6299 -2.0719
28727WAT    EPW16715   2.556   4.597   1.962  0.0672  0.7823  0.2722
28728WAT      O16716   0.644   3.221   1.593 -0.6398  0.2065 -0.0220
28728WAT     H116717   0.678   3.223   1.503  0.5562  0.7494  0.4256
28728WAT     H216718   0.605   3.134   1.601 -0.7972  0.1634 -1.0793
28728WAT    EPW16719   0.644   3.210   1.582 -0.5028  0.2725 -0.1025
28729WAT      O16720   6.245   6.974   1.963 -0.0046  0.4524 -1.0873
28729WAT     H116721   6.168   6.924   1.991  0.6607 -1.0819 -1.8636
28729WAT     H216722   6.230   6.991   1.870 -0.9457  3.1615 -0.5379
28729WAT    EPW16723   6.233   6.970   1.954 -0.0408  0.6075 -1.1172
28730WAT      O16724   2.723   5.693   1.633  0.3942 -1.2195  0.6182
28730WAT     H116725   2.751   5.749   1.560  1.7556 -1.4516  0.9262
28730WAT     H216726   2.674   5.751   1.691  0.7052 -0.6360  0.3063
28730WAT    EPW16727   2.720   5.708   1.631  0.6146 -1.1733  0.6176
28731WAT      O16728   6.080   7.886   4.629 -0.3127  0.2615  0.2052
28731WAT     H116729   6.045   7.975   4.635  0.3437  0.4890  0.7341
28731WAT     H216730   6.004   7.832   4.606 -0.7824  0.9054  0.2253
28731WAT    EPW16731   6.065   7.890   4.627 -0.2882  0.3767  0.2775
28732WAT      O16732   6.747   4.164   2.036 -0.2481 -0.0352  0.2846
28732WAT     H116733   6.674   4.215   2.069  0.8527  0.0459  2.7906
28732WAT     H216734   6.813   4.229   2.011 -0.3461 -0.1588 -0.3254
28732WAT    EPW16735   6.746   4.179   2.037 -0.1159 -0.0405  0.5347
28733WAT      O16736   4.589   5.491   1.594 -0.6327  0.2724 -0.3863
28733WAT     H116737   4.672   5.534   1.574 -1.3567  0.6744 -2.8510
28733WAT     H216738   4.522   5.551   1.559 -1.9136 -0.6474  0.3826
28733WAT    EPW16739   4.591   5.505   1.587 -0.8972  0.2043 -0.6100
28734WAT      O16740   0.894   6.278   3.090 -0.3705  1.2681  0.0505
28734WAT     H116741   0.989   6.276   3.078 -0.5267 -0.5328 -1.2729
28734WAT     H216742   0.881   6.254   3.182  0.4462  1.5083  0.2392
28734WAT    EPW16743   0.905   6.275   3.101 -0.2834  1.0622 -0.0993
28735WAT      O16744   5.085   5.481   2.554  0.6819 -0.6226  0.1806
28735WAT     H116745   5.041   5.424   2.491  0.4626  1.5795 -1.7944
28735WAT     H216746   5.062   5.445   2.639  0.0401 -3.0624 -0.9333
28735WAT    EPW16747   5.076   5.469   2.557  0.5686 -0.6540 -0.2270
28736WAT      O16748   1.103   0.236   2.380  0.0864 -0.4591  1.1718
28736WAT     H116749   1.070   0.215   2.467 -0.9094 -2.7768  0.3205
28736WAT     H216750   1.027   0.228   2.323  0.2767  2.8157  0.2142
28736WAT    EPW16751   1.089   0.233   2.384 -0.0198 -0.3328  0.9333
28737WAT      O16752   9.243   5.639   2.753  0.4573 -0.6935  0.2629
28737WAT     H116753   9.313   5.699   2.779 -1.2337  1.3070  0.5336
28737WAT     H216754   9.283   5.581   2.689  2.4222  0.1342  0.6723
28737WAT    EPW16755   9.258   5.639   2.748  0.4935 -0.3204  0.3525
28738WAT      O16756   2.237   0.390   8.719  0.1083  0.2504 -0.2104
28738WAT     H116757   2.234   0.374   8.813  2.9523 -1.6321 -0.2983
28738WAT     H216758   2.162   0.342   8.684  0.4950 -1.2627  0.9231
28738WAT    EPW16759   2.227   0.381   8.727  0.5343 -0.1975 -0.0720
28739WAT      O16760   3.731   4.737   0.804  0.3283  0.1304 -0.6567
28739WAT     H116761   3.729   4.723   0.710 -0.9375 -0.8297 -0.5217
28739WAT     H216762   3.671   4.671   0.839  0.1501  0.9916  0.7542
28739WAT    EPW16763   3.723   4.726   0.796  0.1379  0.1173 -0.4528
28740WAT      O16764  10.805   1.545   7.093 -0.4175  0.5852  0.0516
28740WAT     H116765  10.877   1.567   7.151  0.1322  0.6857 -0.6555
28740WAT     H216766  10.816   1.452   7.075  0.5579  0.9632 -1.4212
28740WAT    EPW16767  10.816   1.536   7.098 -0.2165  0.6483 -0.2358
28741WAT      O16768   5.534   6.189   0.322  0.8068 -0.0447  0.3126
28741WAT     H116769   5.592   6.117   0.295  0.4492 -1.3379  2.6839
28741WAT     H216770   5.584   6.234   0.391 -1.2811 -1.8429  3.1845
28741WAT    EPW16771   5.548   6.186   0.328  0.4845 -0.4520  1.0041
28742WAT      O16772   6.220   4.616   2.911  0.1798  0.4814 -0.5631
28742WAT     H116773   6.224   4.696   2.963  0.9257 -0.7189  1.3387
28742WAT     H216774   6.199   4.547   2.974  0.4145 -0.9631 -1.9864
28742WAT    EPW16775   6.218   4.617   2.926  0.3092  0.1326 -0.5000
28743WAT      O16776   5.722   4.735   1.173 -0.0992  0.6868  0.0802
28743WAT     H116777   5.808   4.713   1.207 -0.1763  1.5362  0.8535
28743WAT     H216778   5.682   4.791   1.240  0.1143  3.2586 -1.7724
28743WAT    EPW16779   5.728   4.740   1.186 -0.0813  1.1382 -0.0621
28744WAT      O16780   4.062   7.105   1.201 -0.3540 -0.7599  0.1929
28744WAT     H116781   3.968   7.092   1.214 -0.3012 -0.0700  1.4029
28744WAT     H216782   4.068   7.190   1.156 -0.2934 -0.6201  0.4650
28744WAT    EPW16783   4.050   7.115   1.197 -0.3390 -0.6506  0.3884
28745WAT      O16784   0.916   6.180   1.828 -1.0062 -0.5172  1.1035
28745WAT     H116785   1.010   6.186   1.810 -1.0818  0.2600  0.9383
28745WAT     H216786   0.903   6.089   1.856  0.2498  0.0365  3.7918
28745WAT    EPW16787   0.927   6.169   1.829 -0.8505 -0.3417  1.4363
28746WAT      O16788   2.820   5.042   1.883 -0.4576 -0.4741 -0.3800
28746WAT     H116789   2.807   5.028   1.790  0.2054 -0.6971 -0.4444
28746WAT     H216790   2.880   4.972   1.910 -0.0925 -0.0003  0.0698
28746WAT    EPW16791   2.826   5.031   1.875 -0.3219 -0.4408 -0.3291
28747WAT      O16792   3.935   5.111   4.049 -0.5677 -0.2802 -0.8601
28747WAT     H116793   3.938   5.205   4.029  0.9268  0.0775  0.7913
28747WAT     H216794   4.004   5.073   3.996  0.1272 -0.1059 -0.1071
28747WAT    EPW16795   3.945   5.119   4.040 -0.2789 -0.2100 -0.5431
28748WAT      O16796   4.192   3.360   3.009  0.0404  0.7778  0.3916
28748WAT     H116797   4.172   3.416   2.934 -0.0479  0.6339  0.3084
28748WAT     H216798   4.187   3.271   2.975  0.8494  0.7385  0.3606
28748WAT    EPW16799   4.189   3.356   2.995  0.1357  0.7536  0.3766
28749WAT      O16800   2.551   8.085   1.671 -0.5391 -0.0517 -0.5571
28749WAT     H116801   2.490   8.158   1.684 -0.8482 -0.6131  1.5202
28749WAT     H216802   2.504   8.008   1.701  0.5961 -0.7480 -0.4954
28749WAT    EPW16803   2.537   8.085   1.677 -0.4301 -0.2174 -0.2749
28750WAT      O16804   3.783   4.002   3.166  0.5997  0.0796  0.5192
28750WAT     H116805   3.716   3.965   3.108  0.5332  2.7983 -1.2934
28750WAT     H216806   3.758   3.972   3.253 -2.8647  0.7918 -0.0990
28750WAT    EPW16807   3.771   3.993   3.170  0.1341  0.5322  0.1986
28751WAT      O16808   5.412   8.359   2.193 -0.2225 -0.2106  0.3040
28751WAT     H116809   5.393   8.440   2.240 -0.7100 -0.4576  0.5340
28751WAT     H216810   5.382   8.376   2.103  2.1498  0.8351 -0.3633
28751WAT    EPW16811   5.406   8.372   2.187  0.0265 -0.1054  0.2464
28752WAT      O16812   7.335   8.318   2.261 -0.1586 -0.0464 -0.2093
28752WAT     H116813   7.404   8.251   2.258  0.5082  0.6509 -2.2547
28752WAT     H216814   7.254   8.269   2.248  0.3743 -0.4707 -2.4124
28752WAT    EPW16815   7.333   8.303   2.259 -0.0007 -0.0100 -0.7696
28753WAT      O16816   2.813   6.003   2.000  0.7170 -0.5393 -0.5774
28753WAT     H116817   2.786   6.093   2.016  2.4391 -0.4808  3.0753
28753WAT     H216818   2.731   5.955   1.987 -0.5948  0.9299  1.5719
28753WAT    EPW16819   2.799   6.008   2.001  0.7712 -0.3376  0.1879
28754WAT      O16820   6.275   5.810   2.629  0.6739 -0.1395  0.3427
28754WAT     H116821   6.207   5.785   2.691 -0.3207 -0.9139 -1.0132
28754WAT     H216822   6.321   5.728   2.610 -1.2320 -0.7121 -2.4848
28754WAT    EPW16823   6.272   5.796   2.634  0.2913 -0.3173 -0.2091
28755WAT      O16824   8.208   4.897   2.131 -0.8163  0.1788  0.0557
28755WAT     H116825   8.255   4.878   2.212 -0.1078 -0.0194 -0.3894
28755WAT     H216826   8.116   4.896   2.156 -0.6076  0.0913  0.8502
28755WAT    EPW16827   8.202   4.894   2.145 -0.6948  0.1411  0.1019
28756WAT      O16828   2.621   3.234   4.742  0.1379 -0.4183  0.4841
28756WAT     H116829   2.708   3.217   4.778  0.4157 -0.5155 -0.2165
28756WAT     H216830   2.597   3.154   4.695  0.0219 -0.1054 -0.0060
28756WAT    EPW16831   2.629   3.221   4.740  0.1591 -0.3901  0.3271
28757WAT      O16832   5.353   3.057   3.849 -0.1545  0.0903  0.0292
28757WAT     H116833   5.434   3.011   3.870 -0.8443 -0.7159  1.0325
28757WAT     H216834   5.381   3.140   3.812  1.1410 -0.9368 -1.4231
28757WAT    EPW16835   5.368   3.062   3.847 -0.0744 -0.1515 -0.0300
28758WAT      O16836   9.706   8.180   6.768  0.1560  0.3358 -0.8598
28758WAT     H116837   9.647   8.156   6.840 -1.1828 -0.5725 -2.1875
28758WAT     H216838   9.668   8.137   6.691  1.7065  1.0239 -2.0663
28758WAT    EPW16839   9.693   8.171   6.768  0.1841  0.3066 -1.1940
28759WAT      O16840   5.537   5.587   0.327  0.0027 -0.2481 -0.3826
28759WAT     H116841   5.563   5.496   0.338  1.0764  0.1728  0.7066
28759WAT     H216842   5.571   5.632   0.404  1.0456  1.3994 -1.7378
28759WAT    EPW16843   5.545   5.581   0.338  0.2820  0.0248 -0.4177
28760WAT      O16844   5.474   9.612   0.994 -0.1691  0.1268  0.6400
28760WAT     H116845   5.388   9.655   1.003 -0.6253 -0.6309 -0.0422
28760WAT     H216846   5.455   9.528   0.953  1.1375  0.8884 -1.6697
28760WAT    EPW16847   5.460   9.607   0.990 -0.0572  0.1268  0.2455
28761WAT      O16848   3.614   4.980   0.850 -0.4662 -0.0428 -0.5231
28761WAT     H116849   3.694   5.027   0.824 -2.3921  2.0802 -3.1859
28761WAT     H216850   3.625   4.892   0.815  2.1151 -1.0202  2.2987
28761WAT    EPW16851   3.626   4.975   0.842 -0.3798  0.1082 -0.5021
28762WAT      O16852   3.505   9.461   3.714 -0.1328  0.3107 -0.5053
28762WAT     H116853   3.517   9.396   3.645 -0.8269  2.1632 -2.4564
28762WAT     H216854   3.413   9.486   3.710 -0.4580 -0.2588  1.8257
28762WAT    EPW16855   3.495   9.456   3.704 -0.2673  0.4802 -0.4551
28763WAT      O16856   0.037   0.661   8.271 -0.3713  0.2981 -0.0730
28763WAT     H116857   0.087   0.743   8.275 -2.7298  1.8415 -0.0733
28763WAT     H216858   0.012   0.644   8.362 -3.3368  1.9658 -0.4548
28763WAT    EPW16859   0.040   0.669   8.283 -1.0735  0.7216 -0.1240
28764WAT      O16860   6.434   5.768   1.677 -0.2768 -0.0859 -0.0316
28764WAT     H116861   6.380   5.743   1.752  2.1427 -1.4484  1.3609
28764WAT     H216862   6.472   5.852   1.701 -0.8096  0.2921 -0.4871
28764WAT    EPW16863   6.432   5.776   1.690 -0.0279 -0.2155  0.0920
28765WAT      O16864   5.975   7.443   0.582 -0.7967  0.4938  0.8225
28765WAT     H116865   6.002   7.359   0.618  3.3477  1.0829 -0.3309
28765WAT     H216866   5.955   7.496   0.659  0.2031 -0.5126  1.8177
28765WAT    EPW16867   5.976   7.439   0.597 -0.1183  0.4387  0.8016
28766WAT      O16868   1.211   0.400   8.452  0.0523  0.2814 -0.9003
28766WAT     H116869   1.253   0.314   8.444 -1.7839 -1.0101  1.7335
28766WAT     H216870   1.162   0.410   8.370  0.6376 -0.9847 -1.4391
28766WAT    EPW16871   1.210   0.390   8.440 -0.1127 -0.0559 -0.6237
28767WAT      O16872   4.687   5.452   0.733  0.0817 -0.0303  0.2273
28767WAT     H116873   4.631   5.377   0.716 -1.8911  1.2942  0.5424
28767WAT     H216874   4.772   5.414   0.757 -1.0209 -2.1527  1.0021
28767WAT    EPW16875   4.691   5.437   0.734 -0.3240 -0.1357  0.3711
28768WAT      O16876   6.681  10.284   8.884 -0.0460  1.0352  0.2093
28768WAT     H116877   6.659  10.201   8.928 -0.3128  1.2800  0.5437
28768WAT     H216878   6.605  10.302   8.829 -0.2247  1.3421  0.5587
28768WAT    EPW16879   6.668  10.275   8.883 -0.1049  1.1077  0.2995
28769WAT      O16880   2.441   2.819   8.810  0.3725  0.1322  0.3459
28769WAT     H116881   2.403   2.862   8.886 -0.9001  0.8386 -0.6393
28769WAT     H216882   2.501   2.883   8.773  0.5574  0.0068  0.4261
28769WAT    EPW16883   2.444   2.833   8.815  0.2291  0.2089  0.2260
28770WAT      O16884   6.425   7.549   2.915  0.0498 -0.2889 -0.1246
28770WAT     H116885   6.365   7.584   2.980 -0.0320  1.5327 -1.1054
28770WAT     H216886   6.405   7.598   2.835  2.3760 -0.0634 -0.6561
28770WAT    EPW16887   6.415   7.560   2.913  0.3457 -0.0191 -0.3241
28771WAT      O16888   6.925   6.023   2.545 -0.0918 -0.9182 -0.5397
28771WAT     H116889   6.984   5.999   2.616 -1.5955 -1.0634  0.7084
28771WAT     H216890   6.923   6.119   2.546  0.5295 -0.9018 -0.9326
28771WAT    EPW16891   6.932   6.032   2.554 -0.2086 -0.9353 -0.4268
28772WAT      O16892   1.175   6.231   1.787  0.0177 -0.4141 -0.5436
28772WAT     H116893   1.196   6.307   1.842 -1.7735  1.7158 -2.6064
28772WAT     H216894   1.232   6.240   1.711 -2.3157  0.7822 -2.2897
28772WAT    EPW16895   1.185   6.243   1.784 -0.5263  0.0248 -1.0460
28773WAT      O16896   1.893   6.445   3.889  0.0040  0.2620  0.4161
28773WAT     H116897   1.977   6.409   3.862  0.5926 -0.5344  3.0613
28773WAT     H216898   1.907   6.474   3.979 -2.6799 -0.4017  1.1404
28773WAT    EPW16899   1.906   6.444   3.897 -0.2724  0.0696  0.8607
28774WAT      O16900   0.151   4.106   8.359  0.2044 -0.3974  0.3457
28774WAT     H116901   0.179   4.029   8.409 -1.8111 -2.6648 -1.7285
28774WAT     H216902   0.222   4.119   8.295  1.1404  0.3388  1.4854
28774WAT    EPW16903   0.164   4.097   8.357  0.0620 -0.5994  0.2232
28775WAT      O16904   9.387   5.714   3.738  0.3105 -0.0903 -0.3609
28775WAT     H116905   9.324   5.661   3.689 -1.1779 -0.3859  1.6973
28775WAT     H216906   9.464   5.658   3.747  0.6642  0.0093 -2.3320
28775WAT    EPW16907   9.389   5.699   3.733  0.1607 -0.1161 -0.3494
28776WAT      O16908   5.671   8.671   4.188  0.6394  0.1386  0.1998
28776WAT     H116909   5.581   8.638   4.178  0.5849  0.1170  0.7244
28776WAT     H216910   5.693   8.652   4.279  1.3401 -0.2520 -0.0444
28776WAT    EPW16911   5.662   8.664   4.199  0.7248  0.0844  0.2367
28777WAT      O16912   5.053   8.973   4.189  0.1861 -0.8185  0.8319
28777WAT     H116913   5.112   9.036   4.231 -0.5806  0.4473  0.0795
28777WAT     H216914   4.996   9.027   4.134 -1.3039 -2.0712  1.0905
28777WAT    EPW16915   5.054   8.988   4.187 -0.1118 -0.8173  0.7668
28778WAT      O16916   6.489   6.398   2.652 -0.2347 -0.5526 -0.3337
28778WAT     H116917   6.577   6.414   2.684 -0.4037  0.4833 -0.3291
28778WAT     H216918   6.438   6.472   2.687 -0.8935 -0.6328 -1.1077
28778WAT    EPW16919   6.494   6.410   2.661 -0.3436 -0.4263 -0.4351
28779WAT      O16920   4.358   7.837   4.973  0.1094 -0.1280  0.9001
28779WAT     H116921   4.345   7.745   4.996  2.2951 -0.5285  0.7417
28779WAT     H216922   4.453   7.849   4.974 -0.0973  1.9843  0.3188
28779WAT    EPW16923   4.369   7.827   4.976  0.3703  0.0980  0.8028
28780WAT      O16924   5.408   5.475   0.684 -0.0176 -0.3537  0.4045
28780WAT     H116925   5.411   5.528   0.764  1.8677  0.6620 -0.2841
28780WAT     H216926   5.447   5.392   0.710  1.7679  0.4088  0.2831
28780WAT    EPW16927   5.413   5.471   0.698  0.4663 -0.1190  0.2977
28781WAT      O16928   4.428   5.468   2.918  0.1981  0.1740  0.8173
28781WAT     H116929   4.421   5.564   2.925 -2.0486  0.0731  0.7545
28781WAT     H216930   4.376   5.446   2.841  1.6760 -1.0349  0.1247
28781WAT    EPW16931   4.420   5.478   2.909  0.0966  0.0012  0.7175
28782WAT      O16932   9.652   2.262   8.652  0.0049  0.7445 -0.9472
28782WAT     H116933   9.684   2.343   8.692  2.5975  0.9100 -3.1283
28782WAT     H216934   9.585   2.291   8.590  1.4640  1.3799 -2.2834
28782WAT    EPW16935   9.647   2.277   8.649  0.5393  0.8501 -1.4119
28783WAT      O16936   4.995   7.457   2.149  0.4207 -0.4114 -0.0928
28783WAT     H116937   5.009   7.484   2.058  0.4716 -2.4344 -0.7251
28783WAT     H216938   5.080   7.424   2.178  0.6636  1.1239  1.0522
28783WAT    EPW16939   5.008   7.456   2.141  0.4594 -0.4759 -0.0252
28784WAT      O16940   9.721   2.490   2.151 -1.5294  0.1032  0.0085
28784WAT     H116941   9.748   2.420   2.210 -1.9765  0.6040  0.8296
28784WAT     H216942   9.723   2.569   2.205 -1.4880  0.6577 -0.7767
28784WAT    EPW16943   9.725   2.491   2.166 -1.5831  0.2422  0.0131
28785WAT      O16944   6.380   6.588   1.891  0.0122  0.1060 -0.2757
28785WAT     H116945   6.447   6.525   1.916 -1.5173 -1.7528 -0.6099
28785WAT     H216946   6.356   6.563   1.802  1.5066  3.1729 -1.6684
28785WAT    EPW16947   6.386   6.576   1.883  0.0074  0.2654 -0.5034
28786WAT      O16948   4.379   3.844   8.964 -0.4379 -0.4188  0.3352
28786WAT     H116949   4.362   3.898   9.041  1.6017 -1.7657  1.8488
28786WAT     H216950   4.439   3.897   8.911  1.3718 -0.9540  1.7018
28786WAT    EPW16951   4.385   3.858   8.967  0.0701 -0.6676  0.7151
28787WAT      O16952   6.095   7.677   3.816 -0.5821  0.4718 -0.0030
28787WAT     H116953   6.021   7.716   3.768 -1.9675 -1.2764  0.5826
28787WAT     H216954   6.114   7.596   3.769  1.4462  1.1864 -0.5133
28787WAT    EPW16955   6.088   7.671   3.803 -0.4973  0.3355  0.0069
28788WAT      O16956   4.410   6.083   3.153  0.3712  1.0749  0.0240
28788WAT     H116957   4.471   6.060   3.222  1.6776 -0.4491 -1.5469
28788WAT     H216958   4.338   6.020   3.163  1.2340 -0.0898 -0.8061
28788WAT    EPW16959   4.408   6.071   3.163  0.6573  0.7205 -0.2927
28789WAT      O16960   3.622   8.234   0.650  0.1818  0.4013 -0.6310
28789WAT     H116961   3.639   8.318   0.692 -1.1499  0.0902  0.6050
28789WAT     H216962   3.589   8.178   0.720  0.9907 -1.1479 -1.4397
28789WAT    EPW16963   3.620   8.238   0.665  0.1128  0.1559 -0.5746
28790WAT      O16964   1.065   4.155   2.694  0.3663 -0.8053  0.8053
28790WAT     H116965   1.021   4.236   2.670 -0.2267 -0.7133  2.1318
28790WAT     H216966   0.997   4.100   2.732  1.0038 -1.4346  1.0731
28790WAT    EPW16967   1.050   4.159   2.696  0.3723 -0.8762  1.0155
28791WAT      O16968   4.221   3.697   3.260 -0.0510  0.1591 -0.0987
28791WAT     H116969   4.224   3.601   3.258  1.3639  0.1927 -0.5415
28791WAT     H216970   4.156   3.720   3.193 -1.4277 -0.5034  0.9647
28791WAT    EPW16971   4.213   3.687   3.251 -0.0458  0.0762 -0.0168
28792WAT      O16972   6.685   5.196   2.672  0.3462  0.3419  0.4150
28792WAT     H116973   6.626   5.181   2.746  0.8124 -1.4679  0.4706
28792WAT     H216974   6.641   5.263   2.620 -0.5962  0.7484  1.6713
28792WAT    EPW16975   6.671   5.203   2.675  0.2835  0.1564  0.5879
28793WAT      O16976   3.842   9.326   2.312  0.4278 -0.1698  0.3415
28793WAT     H116977   3.819   9.278   2.232  3.7447  0.4640 -1.1557
28793WAT     H216978   3.892   9.263   2.364  0.1250  0.0712  0.9299
28793WAT    EPW16979   3.846   9.311   2.308  0.8254 -0.0548  0.2217
28794WAT      O16980   5.200   4.721   2.294 -0.2866 -0.2055  0.6277
28794WAT     H116981   5.247   4.698   2.214  0.9642  0.4303  1.1508
28794WAT     H216982   5.155   4.641   2.320  0.9480 -0.9950  0.3972
28794WAT    EPW16983   5.200   4.707   2.287  0.0412 -0.2258  0.6663
28795WAT      O16984   1.486   3.915   6.973  0.2779  0.3237  0.4468
28795WAT     H116985   1.505   3.905   6.880 -0.6210 -3.0439  0.4909
28795WAT     H216986   1.570   3.940   7.012  0.2281  3.8715 -1.3905
28795WAT    EPW16987   1.500   3.917   6.966  0.1528  0.3475  0.2103
28796WAT      O16988   1.849   1.733   8.123  0.5403  1.1730  0.1523
28796WAT     H116989   1.852   1.641   8.150  0.5147  0.8257 -0.9582
28796WAT     H216990   1.940   1.754   8.102  0.3420  0.9534 -0.9742
28796WAT    EPW16991   1.861   1.724   8.124  0.5108  1.0983 -0.1426
28797WAT      O16992   8.859   8.356   8.689  0.0198  0.1833  0.7598
28797WAT     H116993   8.784   8.405   8.722 -1.5954 -2.2508  1.0157
28797WAT     H216994   8.836   8.334   8.599  1.2519  0.9023  0.2531
28797WAT    EPW16995   8.846   8.359   8.682 -0.0310 -0.0429  0.7267
28798WAT      O16996   2.078   4.941   4.242 -0.1833 -0.3402  0.4471
28798WAT     H116997   2.078   4.993   4.322  2.3157 -0.4120  0.5841
28798WAT     H216998   2.025   4.864   4.263  1.0447 -0.7423  2.3466
28798WAT    EPW16999   2.071   4.938   4.255  0.3082 -0.4027  0.7155
28799WAT      O17000   9.626  10.078   7.405 -0.3361  0.1164 -0.5421
28799WAT     H117001   9.572  10.119   7.473 -1.6122 -1.3528 -0.6387
28799WAT     H217002   9.655   9.995   7.444  1.5546  0.6715 -0.6500
28799WAT    EPW17003   9.623  10.073   7.419 -0.2551 -0.0043 -0.5693
28800WAT      O17004   4.194   6.659   2.133 -0.2209 -0.4695  0.0070
28800WAT     H117005   4.211   6.566   2.149  1.1197 -0.4847 -1.2750
28800WAT     H217006   4.239   6.704   2.204 -1.3354 -0.7887  0.9488
28800WAT    EPW17007   4.202   6.652   2.145 -0.1912 -0.5138 -0.0379
28801WAT      O17008   7.136   7.758   3.734  0.1539  0.0820  0.4959
28801WAT     H117009   7.160   7.676   3.690 -2.5070 -2.1495  2.8319
28801WAT     H217010   7.192   7.760   3.812 -1.0608 -0.5235  1.4006
28801WAT    EPW17011   7.147   7.748   3.739 -0.3572 -0.2921  0.9234
28802WAT      O17012   1.576   6.483   3.122  0.0270 -0.8496  0.0004
28802WAT     H117013   1.660   6.455   3.086  0.2767 -0.6352  0.4125
28802WAT     H217014   1.511   6.446   3.062  0.4633  1.1173 -1.8261
28802WAT    EPW17015   1.579   6.474   3.109  0.1175 -0.5620 -0.1862
28803WAT      O17016   6.287   5.691   1.926 -0.0524  0.8021 -0.0930
28803WAT     H117017   6.234   5.631   1.980  2.3018 -1.3971 -0.0176
28803WAT     H217018   6.355   5.722   1.986  0.6551  0.9642 -0.9766
28803WAT    EPW17019   6.289   5.687   1.941  0.3512  0.5333 -0.1996
28804WAT      O17020   5.427   9.035   0.140  0.5425 -0.4526  0.0840
28804WAT     H117021   5.466   9.089   0.072  0.3279 -1.1519 -0.6100
28804WAT     H217022   5.439   8.945   0.109 -0.8291 -0.7242  0.2687
28804WAT    EPW17023   5.434   9.030   0.127  0.3331 -0.5803  0.0168
28805WAT      O17024   2.306   2.552   3.784 -0.3697 -0.0534 -0.1916
28805WAT     H117025   2.288   2.556   3.690  0.6558 -1.1086 -0.4502
28805WAT     H217026   2.248   2.619   3.822 -0.6285  0.5521 -1.5865
28805WAT    EPW17027   2.296   2.561   3.777 -0.2685 -0.1128 -0.4097
28806WAT      O17028   8.530   6.060   3.025 -0.2850 -0.1202  0.3906
28806WAT     H117029   8.469   6.012   3.081 -1.1389  1.3425  0.7751
28806WAT     H217030   8.475   6.122   2.976  0.9805  2.4645  2.0107
28806WAT    EPW17031   8.514   6.062   3.026 -0.2308  0.4137  0.6549
28807WAT      O17032   2.087   5.743   1.541 -0.1185 -0.3483  0.1407
28807WAT     H117033   2.139   5.823   1.541 -2.3181  1.1748  0.4846
28807WAT     H217034   2.081   5.718   1.449 -1.3686  1.2919 -0.2703
28807WAT    EPW17035   2.093   5.750   1.529 -0.5735  0.0687  0.1318
28808WAT      O17036   3.994   4.507   3.804  0.2041 -0.2404 -0.5488
28808WAT     H117037   3.901   4.489   3.789  0.4298 -0.9491 -1.1160
28808WAT     H217038   4.031   4.423   3.831  0.3259  0.4254  1.5576
28808WAT    EPW17039   3.986   4.494   3.806  0.2500 -0.2458 -0.3457
28809WAT      O17040   6.812   7.446   1.980  0.2219  0.3961 -0.1454
28809WAT     H117041   6.788   7.522   1.927 -1.2041 -0.3301 -0.5906
28809WAT     H217042   6.748   7.444   2.051  1.1558  0.4525  0.7172
28809WAT    EPW17043   6.800   7.455   1.983  0.1574  0.3078 -0.0904
28810WAT      O17044   1.438   2.174   7.645  0.3616 -0.7848  0.3108
28810WAT     H117045   1.481   2.127   7.573  2.3659  1.1135  0.1567
28810WAT     H217046   1.444   2.266   7.620 -1.8129 -0.2688  1.4356
28810WAT    EPW17047   1.445   2.180   7.632  0.3392 -0.4663  0.4389
28811WAT      O17048   4.840   6.982   3.745 -0.9009  0.0612  0.2787
28811WAT     H117049   4.803   7.070   3.732 -1.3566 -0.0519  0.7799
28811WAT     H217050   4.781   6.924   3.696 -0.6553  0.0172  0.0294
28811WAT    EPW17051   4.827   6.986   3.736 -0.9289  0.0403  0.3120
28812WAT      O17052   5.869   5.272   0.213 -0.2677 -0.8246  0.8653
28812WAT     H117053   5.798   5.219   0.178 -1.1885  0.0238  1.4100
28812WAT     H217054   5.930   5.282   0.140 -0.9930 -1.0643  0.2178
28812WAT    EPW17055   5.868   5.266   0.199 -0.4847 -0.7443  0.8517
28813WAT      O17056   0.856   0.469   1.436 -0.2438 -0.3855 -0.1663
28813WAT     H117057   0.913   0.455   1.361 -1.5889 -1.3153 -1.0625
28813WAT     H217058   0.909   0.444   1.512  0.7762 -0.4655 -0.8838
28813WAT    EPW17059   0.870   0.464   1.436 -0.2867 -0.5187 -0.3791
28814WAT      O17060   3.102   6.949   3.964  0.4013  0.6698 -0.0183
28814WAT     H117061   3.117   7.011   4.035 -0.2550 -0.5021  1.1941
28814WAT     H217062   3.009   6.958   3.944 -0.1535 -1.1297  1.4320
28814WAT    EPW17063   3.092   6.958   3.970  0.2416  0.2780  0.3327
28815WAT      O17064   2.974   6.095   0.884 -0.8973  0.7142  0.4283
28815WAT     H117065   3.033   6.165   0.859 -1.5218  0.9887 -0.3193
28815WAT     H217066   2.887   6.136   0.886 -1.0249  0.4394  1.9703
28815WAT    EPW17067   2.970   6.110   0.881 -0.9965  0.7143  0.5331
28816WAT      O17068   6.489   7.252   4.511 -0.4395 -0.3026  0.2456
28816WAT     H117069   6.481   7.247   4.415 -0.9066 -0.5580  0.2963
28816WAT     H217070   6.571   7.205   4.530 -0.8364 -1.0962  0.0469
28816WAT    EPW17071   6.499   7.245   4.501 -0.5531 -0.4408  0.2263
28817WAT      O17072   4.660   6.977   0.353 -0.1462 -0.1864  0.6661
28817WAT     H117073   4.590   7.041   0.343  2.5823  2.9774  0.1357
28817WAT     H217074   4.697   6.996   0.439  1.3128 -0.3983  0.1089
28817WAT    EPW17075   4.656   6.988   0.363  0.4060  0.2029  0.5226
28818WAT      O17076   5.192   4.304   1.180 -0.3989 -0.6981  0.1831
28818WAT     H117077   5.244   4.379   1.152  0.8212 -1.9032 -0.9330
28818WAT     H217078   5.221   4.232   1.123  0.1616 -2.6006  2.6883
28818WAT    EPW17079   5.203   4.304   1.169 -0.1640 -1.1079  0.3662
28819WAT      O17080  10.031   0.018   7.745 -0.4670 -0.5766  0.1242
28819WAT     H117081  10.029   0.114   7.742 -0.2633 -0.5040  1.4409
28819WAT     H217082  10.068  -0.008   7.661 -2.7703  0.3696 -1.2825
28819WAT    EPW17083  10.035   0.027   7.734 -0.7439 -0.4420  0.1123
28820WAT      O17084   3.413   8.213   3.499  0.3364  0.0393  1.1770
28820WAT     H117085   3.376   8.193   3.585  0.3683 -1.9390  0.7606
28820WAT     H217086   3.503   8.239   3.517 -0.2846  1.8570  1.9106
28820WAT    EPW17087   3.420   8.214   3.513  0.2587  0.0186  1.2188
28821WAT      O17088   8.345   0.776   0.915 -0.1655  0.4622 -0.1720
28821WAT     H117089   8.270   0.765   0.973  0.9087 -1.6967  0.9456
28821WAT     H217090   8.383   0.688   0.909  1.3538  1.1729 -1.9897
28821WAT    EPW17091   8.340   0.763   0.922  0.1769  0.2712 -0.2644
28822WAT      O17092   4.291   4.064   0.727  0.4064 -0.3212 -0.3232
28822WAT     H117093   4.315   4.114   0.805  0.0674 -0.1353 -0.3359
28822WAT     H217094   4.282   4.130   0.658 -0.0357 -0.3976 -0.3415
28822WAT    EPW17095   4.293   4.079   0.728  0.3033 -0.3066 -0.3273
28823WAT      O17096   4.657   9.850   4.002 -0.1392 -0.1302  0.7881
28823WAT     H117097   4.619   9.932   4.033  0.3931 -0.0324  1.2088
28823WAT     H217098   4.645   9.852   3.907  0.9775  1.0378  0.6292
28823WAT    EPW17099   4.651   9.861   3.994  0.0782  0.0367  0.8225
28824WAT      O17100   1.054   3.001   0.119  0.7223  0.1785 -0.5634
28824WAT     H117101   1.125   2.941   0.140  1.5056  0.2310 -2.7988
28824WAT     H217102   1.096   3.073   0.072 -0.6714  0.7549 -0.9965
28824WAT    EPW17103   1.069   3.003   0.116  0.6418  0.2614 -0.9154
28825WAT      O17104   6.189   7.836   2.928  1.1851 -0.1024 -0.3382
28825WAT     H117105   6.107   7.815   2.885  0.0808  0.9866  1.1590
28825WAT     H217106   6.242   7.877   2.859  0.0062  0.3308 -1.0107
28825WAT    EPW17107   6.185   7.838   2.913  0.8841  0.0985 -0.2295
28826WAT      O17108   7.229   7.525   3.455 -0.4904 -0.3566  0.9933
28826WAT     H117109   7.153   7.518   3.398 -1.3409 -1.0319  2.1540
28826WAT     H217110   7.291   7.580   3.407 -2.1378  1.1310  0.4830
28826WAT    EPW17111   7.227   7.531   3.441 -0.8199 -0.2494  1.0791
28827WAT      O17112   2.752   5.009   1.606 -0.4356  0.3535  0.1477
28827WAT     H117113   2.770   5.068   1.533  1.4115 -0.2638  0.0636
28827WAT     H217114   2.782   4.923   1.575  2.3448  0.4343  2.3222
28827WAT    EPW17115   2.758   5.005   1.592  0.1748  0.2828  0.4234
28828WAT      O17116   3.338   6.220   2.637  0.4716 -0.5840  0.3677
28828WAT     H117117   3.329   6.312   2.611  0.7080 -0.5610  0.3652
28828WAT     H217118   3.256   6.179   2.609 -0.1303 -0.1381  1.3819
28828WAT    EPW17119   3.326   6.227   2.630  0.4233 -0.5221  0.5012
28829WAT      O17120   9.779   1.844   8.085  0.0572 -0.1979 -0.5981
28829WAT     H117121   9.835   1.857   8.161  0.4084 -1.9672 -0.5064
28829WAT     H217122   9.705   1.792   8.118 -0.4679  0.1591 -1.1847
28829WAT    EPW17123   9.776   1.839   8.099  0.0343 -0.3841 -0.6633
28830WAT      O17124   5.254   7.764   1.223  0.0199  0.6541  0.2798
28830WAT     H117125   5.344   7.748   1.252  0.0141  1.3237  0.7009
28830WAT     H217126   5.254   7.856   1.195 -0.2305  0.3094 -0.9044
28830WAT    EPW17127   5.266   7.774   1.223 -0.0141  0.6969  0.1791
28831WAT      O17128   6.746   5.567   2.705 -0.5451 -0.4507  0.1640
28831WAT     H117129   6.687   5.546   2.778  1.6548  3.5104  3.5152
28831WAT     H217130   6.828   5.523   2.726 -0.0084  0.3676 -0.1754
28831WAT    EPW17131   6.749   5.559   2.717 -0.1841  0.1798  0.5612
28832WAT      O17132   5.074   7.658   1.431  0.1117 -0.1966 -0.5482
28832WAT     H117133   5.055   7.569   1.462  0.8719 -0.8150 -1.7864
28832WAT     H217134   5.116   7.646   1.346  1.5579  1.2799 -0.1092
28832WAT    EPW17135   5.077   7.645   1.424  0.4025 -0.0832 -0.6536
28833WAT      O17136   5.832   8.564   6.814  0.9077  0.2591  1.0508
28833WAT     H117137   5.815   8.646   6.859 -1.1543  0.9524 -0.8382
28833WAT     H217138   5.841   8.588   6.722  0.1731 -1.6231  0.4381
28833WAT    EPW17139   5.831   8.578   6.808  0.5388  0.1020  0.7210
28834WAT      O17140   7.760   5.744   2.250  0.8306 -0.6736 -0.2984
28834WAT     H117141   7.771   5.694   2.331 -0.0932  0.3646  0.4998
28834WAT     H217142   7.722   5.681   2.189 -4.6497 -0.1135  1.9551
28834WAT    EPW17143   7.757   5.729   2.253 -0.0143 -0.4625  0.1041
28835WAT      O17144   6.202   8.756   2.810 -0.7679 -0.0689  0.3694
28835WAT     H117145   6.253   8.680   2.840  1.5734  1.2132 -0.1078
28835WAT     H217146   6.204   8.750   2.715 -0.1135  0.8372  0.3131
28835WAT    EPW17147   6.209   8.745   2.801 -0.3729  0.2203  0.2991
28836WAT      O17148   3.369   7.699   0.890  0.6657  0.1157  0.1135
28836WAT     H117149   3.429   7.750   0.945 -0.1257 -0.0311  1.1398
28836WAT     H217150   3.388   7.608   0.913 -0.6122  0.0998  1.1809
28836WAT    EPW17151   3.380   7.694   0.900  0.3929  0.0939  0.3897
28837WAT      O17152   4.379   7.405   2.343 -0.3348 -0.4351  0.0987
28837WAT     H117153   4.380   7.438   2.253  0.5343 -0.8248 -0.0484
28837WAT     H217154   4.435   7.328   2.341 -0.2405 -0.4076  0.9953
28837WAT    EPW17155   4.387   7.399   2.331 -0.2077 -0.4828  0.1975
28838WAT      O17156   9.519   9.757   8.588 -0.0944  0.1542  0.3766
28838WAT     H117157   9.474   9.814   8.650  0.5513  0.7408  0.3162
28838WAT     H217158   9.524   9.809   8.508  0.8095  0.1545  0.4231
28838WAT    EPW17159   9.514   9.771   8.585  0.1101  0.2313  0.3748
28839WAT      O17160   2.051   5.729   2.427 -0.6250 -0.0282  0.2530
28839WAT     H117161   1.963   5.694   2.415 -0.2228 -0.3890 -2.0752
28839WAT     H217162   2.098   5.661   2.476 -0.9670 -0.9516 -0.6744
28839WAT    EPW17163   2.045   5.715   2.432 -0.6170 -0.1976 -0.1763
28840WAT      O17164   4.988   5.682   3.823 -0.1679 -0.0522 -0.3094
28840WAT     H117165   5.023   5.668   3.910 -1.7722 -0.2365  0.3470
28840WAT     H217166   5.056   5.650   3.764  1.5391  1.3793  0.8042
28840WAT    EPW17167   5.002   5.676   3.827 -0.1545  0.1125 -0.0758
28841WAT      O17168   2.492   5.990   1.440 -0.3601  0.8107 -0.1204
28841WAT     H117169   2.448   6.005   1.356 -0.4174 -1.1560 -0.4854
28841WAT     H217170   2.475   5.898   1.460  0.9575  0.8338  1.2930
28841WAT    EPW17171   2.484   5.980   1.431 -0.1938  0.5546  0.0179
28842WAT      O17172   4.173   6.169   1.001 -0.5078  0.5474 -0.1869
28842WAT     H117173   4.102   6.176   1.066 -1.5696  0.3901 -1.2863
28842WAT     H217174   4.249   6.140   1.051 -1.4036  0.0504  0.9327
28842WAT    EPW17175   4.173   6.166   1.016 -0.7660  0.4611 -0.1843
28843WAT      O17176  10.999   0.150   7.036  0.0625  0.1356 -0.2673
28843WAT     H117177  11.070   0.171   7.097 -0.0906 -0.2822  0.0609
28843WAT     H217178  10.948   0.083   7.082 -0.6563  0.5742 -0.4160
28843WAT    EPW17179  11.001   0.144   7.050 -0.0525  0.1383 -0.2437
28844WAT      O17180   1.767   6.853   2.721  0.0143 -0.3950  0.1244
28844WAT     H117181   1.851   6.810   2.736  0.8297  1.2425  0.4012
28844WAT     H217182   1.777   6.899   2.638  0.2605  1.7815  1.3147
28844WAT    EPW17183   1.779   6.853   2.712  0.1543  0.1080  0.3181
28845WAT      O17184  10.107   5.174   2.009 -0.7445 -0.1042 -0.1267
28845WAT     H117185  10.203   5.175   2.009 -0.7425  0.7282 -0.3730
28845WAT     H217186  10.084   5.097   1.958 -0.2274 -2.2624  2.7031
28845WAT    EPW17187  10.117   5.164   2.002 -0.6762 -0.2794  0.2141
28846WAT      O17188   9.345   7.209   7.694 -0.3717 -0.3674  0.5621
28846WAT     H117189   9.379   7.120   7.689  0.2845 -0.1877  1.5192
28846WAT     H217190   9.357   7.245   7.606  1.3713 -0.5230  0.7041
28846WAT    EPW17191   9.351   7.202   7.682 -0.0553 -0.3643  0.7071
28847WAT      O17192   8.003   1.189   8.458  0.0430  0.2009  0.5700
28847WAT     H117193   8.070   1.152   8.400 -0.6903 -0.6546  0.2486
28847WAT     H217194   8.047   1.201   8.542  0.8353  0.4717  0.1215
28847WAT    EPW17195   8.018   1.186   8.461  0.0505  0.1237  0.4683
28848WAT      O17196   7.286   6.390   3.461 -0.6278 -0.0249 -0.3747
28848WAT     H117197   7.379   6.392   3.484 -0.3455  2.6775 -1.4411
28848WAT     H217198   7.251   6.317   3.513  1.4186  0.8907  2.6034
28848WAT    EPW17199   7.294   6.381   3.471 -0.3209  0.4523 -0.1225
28849WAT      O17200   8.053   6.289   2.191  0.5320  0.3543 -0.9702
28849WAT     H117201   8.107   6.210   2.195 -1.0565 -0.7331 -0.1183
28849WAT     H217202   8.055   6.315   2.099  0.2728 -1.2689 -1.4645
28849WAT    EPW17203   8.061   6.282   2.180  0.2880 -0.0033 -0.9230
28850WAT      O17204   7.261   7.217   0.705  0.6730  0.2209  0.4287
28850WAT     H117205   7.321   7.185   0.637  0.7398 -1.1269  1.0836
28850WAT     H217206   7.189   7.258   0.656  0.9510 -0.2963 -0.4454
28850WAT    EPW17207   7.259   7.218   0.689  0.7186 -0.0253  0.3998
28851WAT      O17208   1.412   3.115   7.818 -0.9106 -0.1672 -0.0176
28851WAT     H117209   1.373   3.201   7.835 -0.1036  0.4589 -1.2053
28851WAT     H217210   1.482   3.133   7.756 -1.7536 -1.9076 -1.5440
28851WAT    EPW17211   1.416   3.129   7.812 -0.9153 -0.3141 -0.3755
28852WAT      O17212   6.014   8.610   1.455  0.3498 -0.0549  0.3733
28852WAT     H117213   6.048   8.553   1.386 -1.7547 -1.3512  0.3073
28852WAT     H217214   6.053   8.695   1.438  0.5172 -0.5453 -1.9320
28852WAT    EPW17215   6.023   8.613   1.444  0.0942 -0.2913  0.0606
28853WAT      O17216   5.521   7.171   4.511 -0.4162  1.1626  0.0526
28853WAT     H117217   5.536   7.181   4.605  2.2822 -1.6211  0.1042
28853WAT     H217218   5.433   7.133   4.505 -0.4381  0.8984  1.5018
28853WAT    EPW17219   5.512   7.167   4.523 -0.0629  0.7608  0.2506
28854WAT      O17220   8.455   6.037   1.959 -0.4143  0.5712 -0.2365
28854WAT     H117221   8.523   6.072   1.902 -0.2570  1.1701  0.3114
28854WAT     H217222   8.459   6.091   2.038  0.4384 -1.2109  1.0291
28854WAT    EPW17223   8.464   6.049   1.962 -0.2818  0.4153  0.0027
28855WAT      O17224   3.446   6.532   2.136  0.7011 -0.3522  0.0672
28855WAT     H117225   3.358   6.533   2.175  0.2290 -0.4247 -0.9712
28855WAT     H217226   3.464   6.624   2.116  0.6330 -0.3958 -0.2033
28855WAT    EPW17227   3.436   6.544   2.139  0.6299 -0.3674 -0.1055
28856WAT      O17228   1.320   1.322   8.551 -0.6155 -0.2404 -0.3229
28856WAT     H117229   1.291   1.326   8.460  0.9762 -0.9338 -0.8944
28856WAT     H217230   1.386   1.391   8.559  0.0019 -0.8535  0.0082
28856WAT    EPW17231   1.325   1.331   8.540 -0.3241 -0.4127 -0.3548
28857WAT      O17232  10.800   4.912   0.597 -0.0326  0.1397  0.0003
28857WAT     H117233  10.778   4.899   0.504 -1.1872  1.5641  0.0378
28857WAT     H217234  10.885   4.956   0.595  0.6803 -1.2169 -0.3160
28857WAT    EPW17235  10.808   4.916   0.584 -0.0911  0.1485 -0.0365
28858WAT      O17236   2.092   5.083   0.707  0.7941 -0.1207  0.3523
28858WAT     H117237   2.071   5.052   0.795 -1.4997  0.2842 -0.0055
28858WAT     H217238   2.007   5.101   0.667  1.7857 -0.2128 -1.9241
28858WAT    EPW17239   2.078   5.081   0.713  0.6224 -0.0796  0.0049
28859WAT      O17240   3.911   4.760   3.939 -0.0335 -0.5183  0.3890
28859WAT     H117241   3.961   4.688   3.901 -0.1276  0.5562 -1.9470
28859WAT     H217242   3.967   4.837   3.927 -0.7790  0.1301  0.9745
28859WAT    EPW17243   3.925   4.761   3.932 -0.1444 -0.2913  0.1581
28860WAT      O17244   3.916   7.391   0.390  1.1974 -0.9146 -0.2817
28860WAT     H117245   3.845   7.328   0.400  1.6396 -1.1107  2.3958
28860WAT     H217246   3.956   7.369   0.306 -1.6519 -0.9904 -1.7359
28860WAT    EPW17247   3.912   7.380   0.380  0.8800 -0.9503 -0.1203
28861WAT      O17248   4.540   6.700   0.153  0.1380  0.2838 -0.4659
28861WAT     H117249   4.513   6.758   0.224  0.1310  0.4612 -0.6148
28861WAT     H217250   4.621   6.660   0.185  0.3394  0.6484 -0.5154
28861WAT    EPW17251   4.547   6.702   0.167  0.1638  0.3555 -0.4921
28862WAT      O17252   6.664   5.555   3.630  0.1999  0.3607 -0.4972
28862WAT     H117253   6.576   5.591   3.633 -0.1917 -0.5607 -0.4511
28862WAT     H217254   6.719   5.627   3.599 -0.7036  0.6870 -1.4043
28862WAT    EPW17255   6.660   5.569   3.626  0.0288  0.2820 -0.6108
28863WAT      O17256   6.510   9.108   7.553  0.2946 -0.4093  0.2885
28863WAT     H117257   6.510   9.019   7.517  2.5807 -1.1900  1.9761
28863WAT     H217258   6.419   9.122   7.581 -0.2028 -2.0547 -0.3435
28863WAT    EPW17259   6.498   9.098   7.552  0.5305 -0.7296  0.4277
28864WAT      O17260   2.901   6.633   0.128 -0.1357  0.1480  0.2187
28864WAT     H117261   2.853   6.558   0.092 -1.3633  1.4879 -1.0515
28864WAT     H217262   2.847   6.662   0.202  0.9827 -0.9247  1.5196
28864WAT    EPW17263   2.887   6.627   0.133 -0.1502  0.1833  0.2228
28865WAT      O17264   2.686   5.930   4.435 -0.0717 -0.4507  0.1272
28865WAT     H117265   2.705   5.999   4.371 -2.3874  0.2769  0.1283
28865WAT     H217266   2.752   5.862   4.417  0.5469  0.5504 -1.7256
28865WAT    EPW17267   2.697   5.930   4.424 -0.2955 -0.2227 -0.1171
28866WAT      O17268   5.298   6.242   1.437  0.1284  0.0296 -0.2649
28866WAT     H117269   5.217   6.237   1.488  0.3793  0.7614  0.2294
28866WAT     H217270   5.279   6.306   1.368 -0.0816 -0.6616 -0.8567
28866WAT    EPW17271   5.285   6.250   1.434  0.1338  0.0350 -0.2778
28867WAT      O17272   2.927   5.331   2.461  0.0153  0.6331  0.3525
28867WAT     H117273   2.875   5.276   2.402 -2.0405  2.0509  0.7625
28867WAT     H217274   2.970   5.269   2.520  1.4529 -0.7812 -1.9992
28867WAT    EPW17275   2.926   5.316   2.461 -0.0662  0.6335  0.0962
28868WAT      O17276   7.294   7.788   2.656  0.6835 -0.3772 -0.2821
28868WAT     H117277   7.370   7.743   2.692  1.8446  1.4842 -0.2703
28868WAT     H217278   7.330   7.868   2.616 -1.4459  1.6118  1.4930
28868WAT    EPW17279   7.309   7.793   2.655  0.5560  0.1307 -0.0464
28869WAT      O17280   6.155   9.669   7.911 -0.2489  0.4321  0.5267
28869WAT     H117281   6.164   9.629   7.997 -2.4573 -0.0896  0.5636
28869WAT     H217282   6.076   9.722   7.917 -1.6129 -1.1800 -1.6941
28869WAT    EPW17283   6.146   9.671   7.923 -0.7200  0.1507  0.2389
28870WAT      O17284   6.472   5.254   3.269  0.9187 -0.5831  0.2735
28870WAT     H117285   6.476   5.237   3.363  0.6213 -1.4096  0.1495
28870WAT     H217286   6.441   5.171   3.231 -1.3566  0.4865 -0.3318
28870WAT    EPW17287   6.468   5.241   3.276  0.5791 -0.5510  0.1773
28871WAT      O17288   1.695   7.488   0.009  0.9248 -0.0499 -0.2754
28871WAT     H117289   1.670   7.458   0.097 -1.4076 -0.4872 -1.0304
28871WAT     H217290   1.791   7.493   0.013  0.9882 -1.3217  1.8873
28871WAT    EPW17291   1.704   7.485   0.021  0.6256 -0.2754 -0.0897
28872WAT      O17292   8.651   6.206   1.798 -0.5991 -0.0687 -0.4380
28872WAT     H117293   8.630   6.164   1.715  1.2641 -0.1501 -0.9049
28872WAT     H217294   8.597   6.285   1.799 -1.8603 -0.8919 -0.9455
28872WAT    EPW17295   8.641   6.211   1.788 -0.5193 -0.1881 -0.5665
28873WAT      O17296   5.203   4.624   5.485  0.3012 -0.1809 -0.7834
28873WAT     H117297   5.282   4.677   5.470 -0.9729  2.3968  0.7966
28873WAT     H217298   5.195   4.618   5.580 -0.2804 -2.2847 -0.9204
28873WAT    EPW17299   5.212   4.631   5.495  0.0563 -0.1183 -0.5932
28874WAT      O17300   3.007   7.362   0.886 -0.2771 -0.0423  0.0417
28874WAT     H117301   2.916   7.374   0.914 -0.1614  3.1143 -0.5691
28874WAT     H217302   3.035   7.449   0.859  2.9605 -0.9289  0.1766
28874WAT    EPW17303   2.999   7.375   0.886  0.1652  0.2570 -0.0211
28875WAT      O17304   7.190   5.855   1.249  0.1585  0.3367 -0.2714
28875WAT     H117305   7.250   5.838   1.322  0.6466  0.4371 -0.6444
28875WAT     H217306   7.161   5.946   1.263  1.2797  0.8215 -0.9129
28875WAT    EPW17307   7.194   5.865   1.260  0.3707  0.4141 -0.4053
28876WAT      O17308   7.152   1.979   5.023 -0.3223 -0.5703 -0.0912
28876WAT     H117309   7.180   2.009   4.936  2.9097  1.2267  1.3491
28876WAT     H217310   7.080   2.037   5.046  1.0564  1.3167 -0.2895
28876WAT    EPW17311   7.146   1.991   5.014  0.2861 -0.0844  0.0727
28877WAT      O17312   7.486   8.505   2.835  0.8520  1.0481  0.4021
28877WAT     H117313   7.442   8.457   2.905  1.3085 -1.2318 -0.7798
28877WAT     H217314   7.417   8.557   2.795 -0.3522 -0.7213  0.0295
28877WAT    EPW17315   7.471   8.505   2.839  0.7534  0.5136  0.1972
28878WAT      O17316   6.815   7.183   3.509 -0.6057 -0.0324  0.4743
28878WAT     H117317   6.736   7.140   3.476  0.3686 -0.5717 -1.2667
28878WAT     H217318   6.806   7.274   3.483 -1.0728  0.1086  1.1093
28878WAT    EPW17319   6.803   7.189   3.502 -0.5388 -0.0849  0.3283
28879WAT      O17320   4.994   5.198   3.548 -0.7350  0.2012 -0.3067
28879WAT     H117321   5.013   5.104   3.545  0.9559  0.4890  0.3212
28879WAT     H217322   4.978   5.222   3.457 -2.0753 -0.8438 -0.3780
28879WAT    EPW17323   4.995   5.189   3.536 -0.6886  0.1016 -0.2333
28880WAT      O17324   1.960   8.221   4.405  0.0199  0.2737 -0.5863
28880WAT     H117325   1.957   8.153   4.472  3.2851 -1.5469 -2.0566
28880WAT     H217326   1.932   8.178   4.325  0.5560  1.0959 -1.2400
28880WAT    EPW17327   1.956   8.207   4.403  0.5213  0.1416 -0.8664
28881WAT      O17328   9.303   9.347   2.208  0.2986  0.2120 -1.0722
28881WAT     H117329   9.353   9.281   2.160  0.2522 -0.6204 -0.0122
28881WAT     H217330   9.356   9.366   2.285 -1.9603 -2.5359  1.4443
28881WAT    EPW17331   9.317   9.341   2.212 -0.0057 -0.2604 -0.6005
28882WAT      O17332   5.753   5.057   1.669  0.3899 -0.1226  0.3554
28882WAT     H117333   5.835   5.087   1.708  1.0776 -0.7806 -0.5407
28882WAT     H217334   5.717   5.136   1.627 -0.3670  0.5905  2.2608
28882WAT    EPW17335   5.759   5.071   1.668  0.3805 -0.1152  0.4885
28883WAT      O17336   8.151   5.851   1.005 -0.1739  0.2563 -0.0708
28883WAT     H117337   8.235   5.829   0.964 -0.1861  1.0885 -0.5697
28883WAT     H217338   8.139   5.944   0.987  0.0939  0.8309  2.3541
28883WAT    EPW17339   8.160   5.860   0.997 -0.1402  0.4420  0.1832
28884WAT      O17340   4.379   6.515   1.487  0.2111  0.2096 -0.2906
28884WAT     H117341   4.345   6.566   1.414  1.3597  2.7358  0.8130
28884WAT     H217342   4.453   6.567   1.520  0.2289 -1.2138  2.1585
28884WAT    EPW17343   4.384   6.529   1.482  0.3645  0.3552  0.1780
28885WAT      O17344   7.689   7.750   8.440 -0.0327 -0.2730 -0.2060
28885WAT     H117345   7.751   7.760   8.512  0.6596 -0.4831 -0.7494
28885WAT     H217346   7.726   7.805   8.370 -0.7767  0.0577 -0.3447
28885WAT    EPW17347   7.702   7.758   8.440 -0.0396 -0.2570 -0.2961
28886WAT      O17348   8.103   0.181   2.740  0.5434 -0.3417  0.2887
28886WAT     H117349   8.038   0.242   2.773 -0.7747 -1.2059 -0.6188
28886WAT     H217350   8.166   0.172   2.811 -0.3678  0.4491  1.2202
28886WAT    EPW17351   8.103   0.188   2.753  0.2489 -0.3514  0.2918
28887WAT      O17352   5.275   6.704   2.656  0.1990  0.1782 -0.3327
28887WAT     H117353   5.363   6.671   2.672  0.3654  0.0487 -1.4232
28887WAT     H217354   5.240   6.647   2.587 -1.0740 -0.3225  0.6821
28887WAT    EPW17355   5.282   6.692   2.649  0.0532  0.0949 -0.3426
28888WAT      O17356   6.865   7.860   4.028 -0.3282  0.4663 -0.3734
28888WAT     H117357   6.871   7.874   3.934  1.7101  0.8976 -0.2296
28888WAT     H217358   6.772   7.868   4.048 -0.8967 -0.2904 -2.4302
28888WAT    EPW17359   6.854   7.863   4.018 -0.1345  0.4234 -0.6256
28889WAT      O17360   4.126   4.251   1.521 -0.7477  0.3099 -0.0966
28889WAT     H117361   4.138   4.240   1.615  2.7441  0.5267 -0.3823
28889WAT     H217362   4.137   4.163   1.485 -0.0147  0.5195 -0.4099
28889WAT    EPW17363   4.129   4.238   1.528 -0.1905  0.3662 -0.1756
28890WAT      O17364   3.910   2.143   2.032 -0.4424 -0.2566 -0.7404
28890WAT     H117365   3.931   2.202   2.104 -0.0524 -0.5595 -0.6047
28890WAT     H217366   3.819   2.117   2.048 -0.6131  0.2866 -0.7912
28890WAT    EPW17367   3.901   2.148   2.043 -0.4134 -0.2249 -0.7292
28891WAT      O17368   5.712   8.960   1.619 -0.3317 -0.0238 -0.6212
28891WAT     H117369   5.681   8.912   1.543 -1.4414 -1.2412  0.5403
28891WAT     H217370   5.692   8.903   1.693  0.5393  1.1927  0.6071
28891WAT    EPW17371   5.705   8.947   1.619 -0.3633 -0.0234 -0.3060
28892WAT      O17372   8.352   6.204   2.841  0.7954  0.0187 -0.5351
28892WAT     H117373   8.317   6.292   2.857 -0.4776 -0.9364  2.6765
28892WAT     H217374   8.277   6.153   2.812  0.9072 -0.5941  0.2253
28892WAT    EPW17375   8.337   6.209   2.839  0.6423 -0.1879 -0.0111
28893WAT      O17376   2.506   0.343   7.258  0.5125 -0.2766 -0.4563
28893WAT     H117377   2.470   0.374   7.342  0.6112 -1.7146  0.1446
28893WAT     H217378   2.530   0.252   7.275 -3.6293 -2.1557 -3.2590
28893WAT    EPW17379   2.504   0.335   7.272 -0.0209 -0.7141 -0.7465
28894WAT      O17380   2.779   6.483   2.165  0.1244 -0.1011 -0.5539
28894WAT     H117381   2.744   6.572   2.172  0.4901  0.0814 -0.9997
28894WAT     H217382   2.780   6.451   2.256  0.4027  0.5124 -0.3315
28894WAT    EPW17383   2.775   6.491   2.178  0.2095  0.0041 -0.5834
28895WAT      O17384   5.068   4.061   6.741  0.1256 -1.0199 -0.0039
28895WAT     H117385   5.077   4.129   6.808  1.6826 -0.4034 -0.7832
28895WAT     H217386   5.155   4.055   6.701 -0.0338 -3.2569 -0.1751
28895WAT    EPW17387   5.081   4.069   6.745  0.3099 -1.2333 -0.1292
28896WAT      O17388   3.811   7.749   5.454  0.4828 -0.1934  0.3401
28896WAT     H117389   3.716   7.763   5.459  0.2997 -0.9829 -0.6829
28896WAT     H217390   3.824   7.664   5.497  0.8279  0.2109  1.0650
28896WAT    EPW17391   3.800   7.739   5.461  0.5041 -0.2441  0.3006
28897WAT      O17392   6.277   8.778   3.348 -0.1148  0.3222 -0.1146
28897WAT     H117393   6.206   8.721   3.378 -0.6546  0.9699 -0.1441
28897WAT     H217394   6.314   8.733   3.272 -0.7542  0.1681 -0.3395
28897WAT    EPW17395   6.273   8.765   3.342 -0.2704  0.3877 -0.1482
28898WAT      O17396   6.590   7.589   1.108 -1.0027 -0.6185  0.1552
28898WAT     H117397   6.659   7.537   1.148  0.8417 -0.0906 -2.1201
28898WAT     H217398   6.534   7.615   1.181  0.1965 -2.5091  1.8576
28898WAT    EPW17399   6.592   7.586   1.123 -0.6011 -0.7982  0.0796
28899WAT      O17400   3.788   8.002   0.167 -0.1436  0.0983 -0.6144
28899WAT     H117401   3.761   8.005   0.259  1.0540 -1.0476 -0.2014
28899WAT     H217402   3.876   8.041   0.167 -0.2543  0.3575 -1.3292
28899WAT    EPW17403   3.796   8.008   0.179 -0.0002 -0.0191 -0.6542
28900WAT      O17404   4.651   8.037   1.030 -0.6924  0.1353  0.2296
28900WAT     H117405   4.616   7.951   1.051 -3.5542  0.3200 -2.8497
28900WAT     H217406   4.729   8.046   1.084 -1.8290 -3.1822  2.7098
28900WAT    EPW17407   4.657   8.027   1.040 -1.2197 -0.2780  0.1506
28901WAT      O17408   6.128   5.513   0.372 -0.4004 -0.5936 -0.4950
28901WAT     H117409   6.181   5.579   0.418 -0.5428  0.6383 -2.0030
28901WAT     H217410   6.121   5.441   0.434 -1.4216  1.3412  1.8336
28901WAT    EPW17411   6.134   5.513   0.386 -0.5538 -0.1762 -0.3867
28902WAT      O17412   9.148   6.641   1.741 -0.4964  0.6066  0.1529
28902WAT     H117413   9.159   6.578   1.812  0.6290  1.5876  0.8902
28902WAT     H217414   9.155   6.589   1.661  2.8732  0.0587  0.6598
28902WAT    EPW17415   9.150   6.626   1.740  0.0963  0.6638  0.3170
28903WAT      O17416   2.640   0.450   7.940  0.0362 -0.6070  0.3727
28903WAT     H117417   2.712   0.473   7.881 -0.4899  2.3107  0.7139
28903WAT     H217418   2.684   0.427   8.022  0.6375 -1.1519 -0.0896
28903WAT    EPW17419   2.656   0.450   7.943  0.0463 -0.2940  0.3567
28904WAT      O17420   6.860   9.398   3.634  0.1013 -0.5770  0.3628
28904WAT     H117421   6.855   9.433   3.723 -1.0905 -0.2402  0.1875
28904WAT     H217422   6.906   9.465   3.584  1.2188 -0.9847  0.8075
28904WAT    EPW17423   6.865   9.411   3.639  0.0916 -0.5865  0.3983
28905WAT      O17424   6.883   6.934   1.635  0.0364  0.1655  0.2125
28905WAT     H117425   6.848   6.989   1.704  1.5220 -0.6073  1.6494
28905WAT     H217426   6.974   6.916   1.662  0.3112 -1.0672 -1.3696
28905WAT    EPW17427   6.891   6.938   1.648  0.2689 -0.0989  0.1934
28906WAT      O17428   6.790   6.966   3.796  0.0770  0.2649  0.4667
28906WAT     H117429   6.849   7.022   3.846  0.7500 -1.2316  1.3775
28906WAT     H217430   6.725   7.027   3.760  2.4829  2.0761 -1.1650
28906WAT    EPW17431   6.789   6.982   3.798  0.4828  0.3064  0.3716
28907WAT      O17432   2.775   1.286   7.773 -0.5823  0.5390  0.1118
28907WAT     H117433   2.704   1.349   7.760  0.3943  2.0463  1.6642
28907WAT     H217434   2.807   1.266   7.685 -0.8992  2.2259 -0.4084
28907WAT    EPW17435   2.770   1.291   7.760 -0.4952  0.9603  0.2480
28908WAT      O17436   6.672   8.668   0.188 -0.0662 -0.5684  0.7781
28908WAT     H117437   6.745   8.713   0.146 -0.6065  1.3031  1.7590
28908WAT     H217438   6.687   8.680   0.282 -1.5370 -0.2618  0.9997
28908WAT    EPW17439   6.683   8.675   0.195 -0.3314 -0.2813  0.9367
28909WAT      O17440   7.285   8.107   3.056 -0.0690 -0.4767 -0.1346
28909WAT     H117441   7.194   8.098   3.027  0.1797 -0.0309 -1.0947
28909WAT     H217442   7.292   8.199   3.083 -0.4256 -0.9975  1.8634
28909WAT    EPW17443   7.274   8.118   3.055 -0.0834 -0.4864  0.0021
28910WAT      O17444   7.766   8.152   4.436 -0.8296  0.3993  0.5480
28910WAT     H117445   7.781   8.235   4.480  1.1586  0.1607  0.4133
28910WAT     H217446   7.788   8.086   4.501  1.3073  0.0422 -0.4741
28910WAT    EPW17447   7.771   8.154   4.450 -0.2856  0.3200  0.3955
28911WAT      O17448   1.623   2.813   8.942 -0.3297  0.0897  0.2058
28911WAT     H117449   1.661   2.752   9.004  0.4278  0.4454  0.0978
28911WAT     H217450   1.533   2.827   8.974 -0.1087 -0.1170  0.9282
28911WAT    EPW17451   1.616   2.807   8.954 -0.2006  0.1093  0.2866
28912WAT      O17452   7.684   9.315   3.657 -0.0942  0.4608  0.3984
28912WAT     H117453   7.697   9.343   3.566 -1.4483  0.2009  0.1061
28912WAT     H217454   7.717   9.225   3.658  3.6321  1.6468  1.1795
28912WAT    EPW17455   7.690   9.307   3.645  0.2186  0.5827  0.4629
28913WAT      O17456   1.843   9.406   3.277 -0.3557 -0.2773 -0.1199
28913WAT     H117457   1.775   9.444   3.221 -0.8904 -0.3414  0.4718
28913WAT     H217458   1.901   9.479   3.297  0.1037 -0.3505 -1.1246
28913WAT    EPW17459   1.841   9.421   3.272 -0.3657 -0.2956 -0.1743
28914WAT      O17460   2.331   9.222   2.350  0.5318  0.0224  0.3052
28914WAT     H117461   2.333   9.258   2.439  0.6063 -1.1491  0.7859
28914WAT     H217462   2.422   9.198   2.332  1.2814  3.4617 -1.4824
28914WAT    EPW17463   2.343   9.224   2.359  0.6405  0.3214  0.1329
28915WAT      O17464   7.408   1.883   0.533 -0.1510 -0.0461  0.1916
28915WAT     H117465   7.427   1.860   0.442 -2.4752 -0.3621 -0.2863
28915WAT     H217466   7.393   1.978   0.532 -3.5079 -0.4608 -0.5396
28915WAT    EPW17467   7.408   1.893   0.521 -0.9005 -0.1425  0.0321
28916WAT      O17468   5.825   7.879   3.203  0.5619  0.7734 -0.1343
28916WAT     H117469   5.810   7.785   3.203  1.4808  0.6202 -0.9253
28916WAT     H217470   5.746   7.916   3.162 -0.2472  0.4483  1.0629
28916WAT    EPW17471   5.812   7.872   3.198  0.5763  0.7102 -0.0807
28917WAT      O17472   7.493   8.752   0.903 -0.0059  0.4350 -0.3723
28917WAT     H117473   7.411   8.783   0.939  0.3184  1.7086 -0.6859
28917WAT     H217474   7.487   8.656   0.908 -0.7392  0.5340  1.2771
28917WAT    EPW17475   7.482   8.743   0.908 -0.0596  0.6161 -0.1961
28918WAT      O17476   5.581   8.697   5.297 -0.0410 -0.0186  0.5860
28918WAT     H117477   5.657   8.713   5.353  0.7799  3.0713 -1.1500
28918WAT     H217478   5.553   8.784   5.270 -2.6068 -1.2066 -0.9526
28918WAT    EPW17479   5.587   8.711   5.300 -0.2713  0.2322  0.1543
28919WAT      O17480   7.447   9.223   1.627 -0.0556  0.1843 -0.1555
28919WAT     H117481   7.427   9.131   1.641  2.5581 -0.4929 -0.4093
28919WAT     H217482   7.474   9.228   1.535 -1.9240  1.5982 -0.6898
28919WAT    EPW17483   7.448   9.212   1.617  0.0427  0.2813 -0.2594
28920WAT      O17484   1.402   1.564   7.598  0.6094  0.4384 -0.3758
28920WAT     H117485   1.324   1.612   7.628  0.9722  0.8180 -0.0226
28920WAT     H217486   1.475   1.613   7.635  1.0034 -0.1561 -0.3653
28920WAT    EPW17487   1.401   1.577   7.607  0.7092  0.4101 -0.3281
28921WAT      O17488   4.095   1.118   5.859  0.0583 -0.1159  0.8375
28921WAT     H117489   4.051   1.185   5.911  1.0458 -0.3254  1.9955
28921WAT     H217490   4.092   1.040   5.913  1.3344 -0.2764  0.7104
28921WAT    EPW17491   4.089   1.117   5.873  0.3572 -0.1647  0.9735
28922WAT      O17492   6.621   8.530   0.951 -0.6195 -0.2901 -0.3506
28922WAT     H117493   6.632   8.436   0.942 -0.6513 -0.3255 -0.0270
28922WAT     H217494   6.710   8.565   0.950 -0.5557  0.2448 -5.9529
28922WAT    EPW17495   6.634   8.522   0.950 -0.6154 -0.2241 -1.0468
28923WAT      O17496   0.353   1.713   8.889 -0.4422 -0.4039  0.1266
28923WAT     H117497   0.309   1.786   8.931 -1.9592 -0.1600 -1.7533
28923WAT     H217498   0.353   1.734   8.796 -0.9225 -2.7613 -0.4915
28923WAT    EPW17499   0.347   1.725   8.883 -0.7056 -0.6826 -0.2031
28924WAT      O17500   5.604   9.333   4.187  0.4696  0.2496  0.5788
28924WAT     H117501   5.590   9.282   4.267  1.0865 -1.1380 -0.1581
28924WAT     H217502   5.681   9.386   4.206  0.8984 -0.4203  0.7710
28924WAT    EPW17503   5.612   9.333   4.200  0.6073 -0.0215  0.5069
28925WAT      O17504   7.792  10.140   1.540  0.6541  0.6383 -0.1616
28925WAT     H117505   7.708  10.156   1.498  1.5622 -1.1673 -2.9261
28925WAT     H217506   7.778  10.062   1.593  0.4009  0.7706 -0.0325
28925WAT    EPW17507   7.779  10.132   1.541  0.7405  0.4177 -0.5092
28926WAT      O17508   0.920   2.495   7.024  0.0193  1.1160 -0.3453
28926WAT     H117509   0.843   2.544   7.053 -0.4342 -0.9647  2.4299
28926WAT     H217510   0.888   2.405   7.015  1.2444  0.8805 -3.3594
28926WAT    EPW17511   0.905   2.489   7.027  0.1211  0.8104 -0.3765
28927WAT      O17512   5.383   9.834   2.286  0.2764  0.2227  0.5524
28927WAT     H117513   5.338   9.873   2.211 -2.1383 -2.2542  0.5610
28927WAT     H217514   5.324   9.848   2.359 -0.6817 -3.1306  0.5645
28927WAT    EPW17515   5.370   9.841   2.285 -0.1686 -0.5469  0.5552
28928WAT      O17516   4.322   6.052   4.179 -0.2220  0.5110  0.3844
28928WAT     H117517   4.304   6.036   4.271 -1.1147 -1.2917 -0.0701
28928WAT     H217518   4.400   6.108   4.180 -1.5590  2.5235  2.2447
28928WAT    EPW17519   4.330   6.057   4.191 -0.5162  0.5388  0.5701
28929WAT      O17520   7.070   7.358   5.185 -0.6361 -0.4557  0.3383
28929WAT     H117521   7.002   7.291   5.188 -0.2263 -0.8879  0.0947
28929WAT     H217522   7.051   7.408   5.106  1.3296 -2.7612 -1.7494
28929WAT    EPW17523   7.058   7.356   5.175 -0.3228 -0.8171  0.0308
28930WAT      O17524   2.055   3.928   5.841 -0.3094  0.1262 -0.7739
28930WAT     H117525   2.075   3.890   5.927  0.9693  1.8328 -0.2786
28930WAT     H217526   1.978   3.879   5.811 -0.6337 -0.6696  1.2159
28930WAT    EPW17527   2.048   3.916   5.848 -0.1836  0.2465 -0.4463
28931WAT      O17528   5.856   6.697   2.538 -0.2105 -0.1479  0.4678
28931WAT     H117529   5.787   6.632   2.526 -0.3011 -0.5224  2.6031
28931WAT     H217530   5.824   6.775   2.492  0.2883 -1.7400 -2.8936
28931WAT    EPW17531   5.843   6.699   2.530 -0.1566 -0.4072  0.3059
28932WAT      O17532   6.664   7.203   1.505  0.2507 -1.0988 -0.3015
28932WAT     H117533   6.717   7.264   1.555  2.4972 -0.3686 -3.3068
28932WAT     H217534   6.615   7.154   1.571  0.8626  1.6187  2.3915
28932WAT    EPW17535   6.664   7.204   1.520  0.6278 -0.6442 -0.3427
28933WAT      O17536   3.772   3.380   7.343  0.8892 -0.5088 -0.1317
28933WAT     H117537   3.738   3.357   7.257 -1.9420 -2.3619  1.3363
28933WAT     H217538   3.824   3.305   7.369  1.7330  0.0457 -0.1737
28933WAT    EPW17539   3.774   3.367   7.335  0.6269 -0.6801  0.0565
28934WAT      O17540   5.213   7.169   4.210  0.1190  0.0584  0.5703
28934WAT     H117541   5.153   7.107   4.169 -1.5383  2.3641 -0.7066
28934WAT     H217542   5.298   7.125   4.209 -0.6130 -1.4617 -1.9770
28934WAT    EPW17543   5.216   7.155   4.205 -0.1962  0.1619  0.0658
28935WAT      O17544   3.738   6.262   4.852 -0.2606 -0.5392  0.1546
28935WAT     H117545   3.708   6.338   4.901  0.6934 -0.6770  0.9885
28935WAT     H217546   3.831   6.255   4.873  0.0764 -0.8889 -1.3155
28935WAT    EPW17547   3.747   6.271   4.861 -0.0904 -0.6034  0.0706
28936WAT      O17548   4.575   5.611   4.876  0.2572 -0.0434 -0.2808
28936WAT     H117549   4.584   5.677   4.944  0.2038 -2.5687  2.3475
28936WAT     H217550   4.482   5.590   4.875  0.3722 -0.5566 -0.6193
28936WAT    EPW17551   4.564   5.617   4.885  0.2656 -0.4439  0.0212
28937WAT      O17552   7.035   6.982   2.159 -0.0680 -0.0477  0.0397
28937WAT     H117553   6.987   7.065   2.154  0.5372  0.2577 -1.0580
28937WAT     H217554   6.979   6.919   2.113  0.3396  0.1872 -0.7801
28937WAT    EPW17555   7.021   6.985   2.153  0.0653  0.0236 -0.2133
28938WAT      O17556   9.893   5.752   3.601  0.3007  0.8875 -0.0164
28938WAT     H117557   9.874   5.813   3.530  1.2776  2.7047  1.2050
28938WAT     H217558   9.981   5.778   3.631 -1.1175  2.0689  3.6423
28938WAT    EPW17559   9.902   5.764   3.595  0.2432  1.2832  0.6273
28939WAT      O17560   5.346   5.324   2.073 -0.4562  0.3184 -0.5834
28939WAT     H117561   5.274   5.266   2.050 -1.2379  0.8981  0.3117
28939WAT     H217562   5.317   5.411   2.047  0.1470  0.4854 -0.7122
28939WAT    EPW17563   5.333   5.328   2.067 -0.4799  0.4170 -0.4823
28940WAT      O17564   4.952   7.564   0.084  0.3857  0.1436 -0.0409
28940WAT     H117565   4.898   7.567   0.163 -1.0350  0.5790 -0.9861
28940WAT     H217566   5.033   7.610   0.109 -0.4552  1.2190  0.8626
28940WAT    EPW17567   4.956   7.571   0.098  0.0875  0.3428 -0.0464
28941WAT      O17568   6.670   4.909   3.420 -0.7336 -0.1121  0.2836
28941WAT     H117569   6.681   4.815   3.411  0.2871 -0.1194  1.4321
28941WAT     H217570   6.736   4.946   3.361 -1.2660 -0.1107 -0.3150
28941WAT    EPW17571   6.680   4.902   3.411 -0.6692 -0.1132  0.3560
28942WAT      O17572   3.600   1.780   8.404 -0.9035 -0.5009  0.2402
28942WAT     H117573   3.612   1.809   8.495 -0.9082  0.7491 -0.1396
28942WAT     H217574   3.680   1.806   8.360 -0.4750 -2.0089  0.0817
28942WAT    EPW17575   3.612   1.787   8.410 -0.8476 -0.5350  0.1693
28943WAT      O17576   3.746   7.195   0.463 -0.3640 -0.2992  0.7967
28943WAT     H117577   3.769   7.206   0.555  3.3410 -2.1367  0.2904
28943WAT     H217578   3.722   7.102   0.455 -2.6087  0.2829  0.1815
28943WAT    EPW17579   3.746   7.184   0.474 -0.1714 -0.4649  0.6488
28944WAT      O17580   6.171   9.707   2.282 -0.3579 -0.0759  0.2480
28944WAT     H117581   6.212   9.690   2.366 -1.2665  2.8380  1.3961
28944WAT     H217582   6.154   9.620   2.245  0.1584 -1.4267  2.9909
28944WAT    EPW17583   6.174   9.693   2.288 -0.4096  0.1302  0.7612
28945WAT      O17584   3.390   6.838   3.132  0.7587  0.2707  0.1586
28945WAT     H117585   3.380   6.749   3.098  2.1539 -0.3059  1.1392
28945WAT     H217586   3.316   6.851   3.191  0.7280 -0.3764  0.2634
28945WAT    EPW17587   3.379   6.828   3.135  0.9389  0.1092  0.3017
28946WAT      O17588   1.999   7.868   1.192  0.1739 -0.5102  0.1851
28946WAT     H117589   2.029   7.875   1.101  0.5911 -0.9482  0.2842
28946WAT     H217590   2.012   7.956   1.228  0.0891 -0.3562 -0.1520
28946WAT    EPW17591   2.005   7.881   1.185  0.2178 -0.5479  0.1537
28947WAT      O17592   1.806   5.021   8.179  0.4261 -0.1240 -1.1196
28947WAT     H117593   1.746   5.084   8.219  0.3283 -0.6236 -0.4444
28947WAT     H217594   1.754   4.978   8.111  0.4698  0.4572 -1.5253
28947WAT    EPW17595   1.791   5.023   8.175  0.4190 -0.1132 -1.0839
28948WAT      O17596   1.179   4.891   8.400 -0.1055  0.5063  0.4703
28948WAT     H117597   1.242   4.857   8.336 -0.1317  1.7704 -0.2591
28948WAT     H217598   1.229   4.895   8.482  0.7604  1.3584 -0.0647
28948WAT    EPW17599   1.194   4.887   8.402  0.0052  0.7851  0.3033
28949WAT      O17600  10.860   4.085   8.789  0.9385  0.3136 -0.4400
28949WAT     H117601  10.926   4.016   8.787  0.7240  0.0666  0.3311
28949WAT     H217602  10.909   4.166   8.798  1.1282  0.0432  1.3741
28949WAT    EPW17603  10.875   4.086   8.790  0.9351  0.2453 -0.0992
28950WAT      O17604   6.729   6.977   2.790  0.3161 -0.1636 -0.8494
28950WAT     H117605   6.651   6.979   2.846  1.7006 -3.9463  1.6404
28950WAT     H217606   6.780   7.053   2.818 -0.3444 -0.3722  1.1121
28950WAT    EPW17607   6.726   6.987   2.801  0.4117 -0.6902 -0.2623
28951WAT      O17608   1.563   1.886   7.969  0.0922  0.2753  0.5768
28951WAT     H117609   1.540   1.823   8.038 -0.1509 -2.1046 -1.5190
28951WAT     H217610   1.645   1.852   7.933 -0.6207  0.4894 -1.3637
28951WAT    EPW17611   1.571   1.873   7.973 -0.0339 -0.0104  0.0443
28952WAT      O17612   6.287   7.675   3.163 -0.0024  0.3293 -0.0305
28952WAT     H117613   6.381   7.680   3.177  0.1951  1.2209 -1.4776
28952WAT     H217614   6.267   7.749   3.105 -1.6420  0.3475  0.4909
28952WAT    EPW17615   6.297   7.685   3.157 -0.1929  0.4492 -0.1526
28953WAT      O17616   6.034   6.809   2.048  0.1786  0.0356 -0.3121
28953WAT     H117617   6.042   6.714   2.040 -0.5336  0.0773 -1.6773
28953WAT     H217618   6.021   6.824   2.142  1.3399 -1.1222  0.0550
28953WAT    EPW17619   6.033   6.799   2.060  0.2377 -0.1116 -0.4437
28954WAT      O17620   0.118   0.093   6.242  0.0404 -0.1634  0.3117
28954WAT     H117621   0.048   0.131   6.295  0.5982  1.8071 -0.2823
28954WAT     H217622   0.084   0.094   6.152  0.2450 -0.6490  0.2266
28954WAT    EPW17623   0.104   0.099   6.237  0.1410  0.0324  0.2222
28955WAT      O17624   2.343   4.743   7.882 -0.1243  0.0975  0.0237
28955WAT     H117625   2.374   4.818   7.830  1.8220  2.1549  3.7056
28955WAT     H217626   2.421   4.688   7.893 -0.0497  0.5000  1.8550
28955WAT    EPW17627   2.357   4.746   7.876  0.1422  0.4220  0.7508
28956WAT      O17628   4.380   8.446   0.498  0.1371  0.7150 -0.6013
28956WAT     H117629   4.442   8.375   0.512 -0.5095 -0.0065 -1.2558
28956WAT     H217630   4.338   8.460   0.583  1.5866  1.6135 -0.0084
28956WAT    EPW17631   4.382   8.439   0.511  0.2429  0.7386 -0.6094
28957WAT      O17632   4.988   9.817   2.582  0.1703 -0.1910  0.0561
28957WAT     H117633   4.966   9.724   2.572  0.4294 -0.3277  0.6756
28957WAT     H217634   4.996   9.829   2.677  0.1370  0.4661 -0.0217
28957WAT    EPW17635   4.986   9.806   2.593  0.2000 -0.1221  0.1274
28958WAT      O17636   8.362   7.885   2.819 -0.1162  0.2207  0.1701
28958WAT     H117637   8.307   7.853   2.747  1.1550 -1.3771 -0.1498
28958WAT     H217638   8.451   7.867   2.790  0.6993  3.2829  0.3929
28958WAT    EPW17639   8.366   7.878   2.805  0.1583  0.4139  0.1574
28959WAT      O17640   6.017   8.801   0.656  0.3367  0.0371 -0.1727
28959WAT     H117641   6.083   8.807   0.588  1.3629  0.0922  0.8012
28959WAT     H217642   5.935   8.823   0.612  0.7998 -0.9967 -1.6218
28959WAT    EPW17643   6.015   8.805   0.641  0.5331 -0.0916 -0.2354
28960WAT      O17644   2.373   7.114   3.223 -0.3468  0.2810 -0.1107
28960WAT     H117645   2.404   7.113   3.313 -3.0136  0.7163  0.9050
28960WAT     H217646   2.410   7.194   3.186  0.7012  0.1451  0.6104
28960WAT    EPW17647   2.382   7.124   3.230 -0.5605  0.3207  0.1183
28961WAT      O17648   5.418   3.336   3.219 -0.4362 -0.1371 -0.2084
28961WAT     H117649   5.343   3.316   3.275 -0.9567  0.0517 -0.8331
28961WAT     H217650   5.382   3.391   3.149  0.2099 -0.3501 -0.7186
28961WAT    EPW17651   5.404   3.341   3.217 -0.4196 -0.1403 -0.3580
28962WAT      O17652   6.864   5.347   3.332 -0.5184 -0.1783  0.6787
28962WAT     H117653   6.839   5.286   3.401  0.2081  1.6774  2.6745
28962WAT     H217654   6.795   5.412   3.331  0.7618  1.2464  1.5187
28962WAT    EPW17655   6.852   5.347   3.341 -0.2539  0.2546  1.0526
28963WAT      O17656   3.605   5.742   0.240 -0.2269 -0.2140  0.2364
28963WAT     H117657   3.535   5.782   0.291 -1.7341 -0.7628 -1.2991
28963WAT     H217658   3.599   5.784   0.154  2.3276  0.7807  0.4671
28963WAT    EPW17659   3.595   5.752   0.235 -0.0888 -0.1547  0.0643
28964WAT      O17660   6.358   9.590   1.135 -0.7247  0.4761  0.8076
28964WAT     H117661   6.391   9.629   1.054  1.7594 -0.4979  1.2432
28964WAT     H217662   6.404   9.636   1.205 -2.3877  0.8984  1.6772
28964WAT    EPW17663   6.369   9.601   1.133 -0.6163  0.4029  0.9798
28965WAT      O17664   4.604   1.394   8.570  0.0946  0.1927  0.2061
28965WAT     H117665   4.680   1.377   8.514 -1.4089 -1.3276 -1.4844
28965WAT     H217666   4.577   1.483   8.546  0.3543  0.1144 -0.4165
28965WAT    EPW17667   4.611   1.403   8.559 -0.0694 -0.0181 -0.0992
28966WAT      O17668  10.807   9.642   1.800  0.9209 -0.1421 -0.4682
28966WAT     H117669  10.740   9.681   1.745  0.4803 -0.2065  0.0196
28966WAT     H217670  10.760   9.610   1.878  1.4528 -0.5284 -0.2948
28966WAT    EPW17671  10.792   9.643   1.803  0.9332 -0.2012 -0.3809
28967WAT      O17672   3.127   0.724   7.438 -0.7695 -0.1361  0.4470
28967WAT     H117673   3.140   0.819   7.443 -4.0154  0.4130  0.6332
28967WAT     H217674   3.212   0.690   7.409 -0.2585  3.1230 -2.7073
28967WAT    EPW17675   3.140   0.732   7.434 -1.1301  0.3662  0.0556
28968WAT      O17676   5.879   6.863   1.245  0.4597 -0.1319 -0.5975
28968WAT     H117677   5.886   6.949   1.204  2.1637  0.0953  0.0876
28968WAT     H217678   5.952   6.860   1.306 -0.1269 -1.7161  0.0680
28968WAT    EPW17679   5.889   6.874   1.247  0.6073 -0.3109 -0.4194
28969WAT      O17680   7.305   8.264   8.228  0.3003 -0.6739 -0.1331
28969WAT     H117681   7.295   8.331   8.296  4.6025  2.0552 -1.7238
28969WAT     H217682   7.224   8.269   8.178 -1.0206  0.6941  1.9521
28969WAT    EPW17683   7.293   8.274   8.230  0.6938 -0.1335 -0.0682
28970WAT      O17684   4.636   8.062   3.587  0.2526  0.3688  0.4248
28970WAT     H117685   4.639   8.052   3.491 -0.1977 -0.3053  0.4676
28970WAT     H217686   4.572   8.131   3.602 -0.2788 -0.0777  0.2572
28970WAT    EPW17687   4.628   8.070   3.576  0.1230  0.2213  0.4083
28971WAT      O17688   5.549   9.936   1.189 -0.3938 -0.3440 -0.1912
28971WAT     H117689   5.590   9.850   1.175 -0.8734 -0.4144 -1.2191
28971WAT     H217690   5.588   9.992   1.122 -1.4518 -0.2321 -0.7187
28971WAT    EPW17691   5.560   9.932   1.178 -0.5965 -0.3381 -0.3963
28972WAT      O17692   4.762   7.723   1.306 -0.0628  0.0152  0.0221
28972WAT     H117693   4.855   7.720   1.328 -0.0047 -1.4172 -0.3445
28972WAT     H217694   4.744   7.816   1.293  1.8922  0.1835 -2.2438
28972WAT    EPW17695   4.772   7.735   1.307  0.2027 -0.1514 -0.3251
28973WAT      O17696   4.356   6.939   1.235 -0.3765 -0.4164  0.3007
28973WAT     H117697   4.272   6.985   1.240  0.0331  0.3347  0.4434
28973WAT     H217698   4.412   6.983   1.298  0.8067  0.5695 -1.3470
28973WAT    EPW17699   4.352   6.951   1.244 -0.1664 -0.1876  0.1021
28974WAT      O17700   3.180   0.279   8.875  0.2611  0.0295 -0.1886
28974WAT     H117701   3.222   0.256   8.958  0.4658  0.5525 -0.1435
28974WAT     H217702   3.238   0.241   8.808  2.0282  2.5189 -0.2226
28974WAT    EPW17703   3.194   0.271   8.877  0.5211  0.4268 -0.1869
28975WAT      O17704   6.845   7.583   3.040  0.6655  0.1010 -0.2801
28975WAT     H117705   6.939   7.568   3.027  1.0696  0.1719  2.0588
28975WAT     H217706   6.810   7.496   3.060 -0.0975 -0.1742 -2.5804
28975WAT    EPW17707   6.853   7.569   3.041  0.6185  0.0741 -0.2749
28976WAT      O17708   8.179   6.694   1.608  0.3092 -0.0012  0.6395
28976WAT     H117709   8.103   6.739   1.571  0.6035 -1.6840 -2.3021
28976WAT     H217710   8.146   6.607   1.633  1.1604 -0.6432 -0.3956
28976WAT    EPW17711   8.165   6.688   1.606  0.4597 -0.3076  0.1150
28977WAT      O17712   0.020   0.488   2.577 -0.2387 -1.2167 -0.6833
28977WAT     H117713  -0.043   0.541   2.625  2.1423  0.4355  0.8527
28977WAT     H217714  -0.016   0.399   2.580 -3.6000 -0.0713 -2.0293
28977WAT    EPW17715   0.007   0.483   2.584 -0.3680 -0.8477 -0.6583
28978WAT      O17716   6.327  10.082   1.106 -0.1815  0.0074 -0.4249
28978WAT     H117717   6.276  10.119   1.178  1.1617 -1.5643  1.4554
28978WAT     H217718   6.264  10.072   1.034 -0.9713  4.2521 -0.5740
28978WAT    EPW17719   6.312  10.085   1.106 -0.1085  0.3605 -0.1966
28979WAT      O17720   6.125   9.919   1.024 -0.2988 -0.4352 -0.2440
28979WAT     H117721   6.117   9.917   1.119  0.1811 -0.5302 -0.2020
28979WAT     H217722   6.192   9.854   1.004  1.0616  0.9845 -0.4869
28979WAT    EPW17723   6.133   9.910   1.034 -0.0560 -0.2604 -0.2705
28980WAT      O17724   7.850   8.146   3.709 -0.1024  0.1411  0.9949
28980WAT     H117725   7.797   8.224   3.693  1.4225  1.0013 -0.1745
28980WAT     H217726   7.840   8.094   3.629  1.7396  0.9164  0.2043
28980WAT    EPW17727   7.842   8.149   3.696  0.3417  0.3562  0.7364
28981WAT      O17728   1.722   3.356   7.622  0.2303  0.5873  0.9876
28981WAT     H117729   1.712   3.398   7.708 -0.0395 -0.1634  1.3376
28981WAT     H217730   1.671   3.275   7.630 -3.0877  2.2661 -1.1726
28981WAT    EPW17731   1.714   3.351   7.635 -0.2429  0.7097  0.7491
28982WAT      O17732   3.316   8.978   1.894  0.4444  0.0546 -0.3612
28982WAT     H117733   3.302   8.888   1.866 -0.8659  0.3152 -0.6101
28982WAT     H217734   3.228   9.018   1.892  1.0450  1.4195 -0.5753
28982WAT    EPW17735   3.302   8.971   1.890  0.3507  0.2694 -0.4223
28983WAT      O17736   6.918   6.116   3.789 -0.2473  0.0090  0.4827
28983WAT     H117737   6.928   6.195   3.842  1.2111  0.0955  0.1263
28983WAT     H217738   6.870   6.144   3.712  0.4833  0.6350  0.2384
28983WAT    EPW17739   6.913   6.130   3.785  0.0415  0.1032  0.4035
28984WAT      O17740   3.464   8.147   0.911  0.3805  0.0284  0.2093
28984WAT     H117741   3.416   8.079   0.958  0.2393 -1.1254 -1.5009
28984WAT     H217742   3.402   8.220   0.905 -0.0991 -0.3376  0.6015
28984WAT    EPW17743   3.449   8.148   0.916  0.2985 -0.1717  0.0355
28985WAT      O17744   4.160   8.370   2.464 -0.4257 -0.1014 -0.6169
28985WAT     H117745   4.077   8.392   2.506 -0.1580 -2.1019  1.1322
28985WAT     H217746   4.203   8.454   2.451 -1.7503  0.8204  0.6073
28985WAT    EPW17747   4.155   8.384   2.468 -0.5651 -0.2437 -0.2248
28986WAT      O17748   6.634   8.250   3.451  0.0752 -0.4484 -0.0014
28986WAT     H117749   6.659   8.235   3.541 -0.8382 -0.4107  0.2714
28986WAT     H217750   6.564   8.186   3.434  0.6334 -0.8533 -0.8654
28986WAT    EPW17751   6.628   8.240   3.460  0.0279 -0.4969 -0.0793
28987WAT      O17752  10.593   3.767   8.865  0.2712 -0.3975 -0.4368
28987WAT     H117753  10.527   3.836   8.873  1.2433  0.4322  0.9930
28987WAT     H217754  10.545   3.691   8.833 -1.0963  0.5603 -0.7517
28987WAT    EPW17755  10.578   3.766   8.862  0.2189 -0.1616 -0.2899
28988WAT      O17756   1.114   0.724   1.351  0.4573  0.3360 -0.1333
28988WAT     H117757   1.124   0.634   1.321  0.7172  1.4572 -3.8752
28988WAT     H217758   1.030   0.752   1.315  0.8057  1.8696  0.1926
28988WAT    EPW17759   1.104   0.716   1.343  0.5376  0.6861 -0.5839
28989WAT      O17760   7.216   8.937   3.665  0.3483  0.3899 -0.4966
28989WAT     H117761   7.131   8.964   3.628 -0.4475 -0.7140  0.4692
28989WAT     H217762   7.279   8.998   3.626 -0.9496  1.5674 -0.8470
28989WAT    EPW17763   7.213   8.949   3.655  0.0720  0.3996 -0.4156
28990WAT      O17764   3.203   2.253   7.027 -0.2597  0.6476  0.2844
28990WAT     H117765   3.275   2.194   7.004 -1.7208 -0.5007 -1.6230
28990WAT     H217766   3.215   2.270   7.120  1.4266 -0.9508  0.4220
28990WAT    EPW17767   3.214   2.248   7.036 -0.2300  0.2853  0.0508
28991WAT      O17768   6.028   7.710   2.744 -0.4619 -0.3339  0.4436
28991WAT     H117769   5.996   7.746   2.661 -0.7703  3.5247  2.0265
28991WAT     H217770   5.948   7.687   2.791 -0.4119 -0.3083  0.5398
28991WAT    EPW17771   6.013   7.712   2.739 -0.4961  0.1783  0.6649
28992WAT      O17772   0.080   3.868   8.795 -0.2426 -0.5038  0.1345
28992WAT     H117773   0.150   3.803   8.788  0.1216 -0.5233  2.8610
28992WAT     H217774   0.003   3.817   8.822 -0.7058 -0.1550 -0.4982
28992WAT    EPW17775   0.079   3.852   8.798 -0.2556 -0.4604  0.4106
28993WAT      O17776   9.022   5.443   2.682 -0.4491  0.2398 -0.3186
28993WAT     H117777   9.006   5.506   2.752 -0.5024 -1.8094  1.6314
28993WAT     H217778   9.117   5.436   2.677 -0.4441  0.4406 -0.5121
28993WAT    EPW17779   9.032   5.451   2.690 -0.4554 -0.0041 -0.0869
28994WAT      O17780   3.301   3.477   1.487 -0.4100 -0.5853 -0.5046
28994WAT     H117781   3.216   3.459   1.446 -0.4466  3.1863 -2.6227
28994WAT     H217782   3.357   3.506   1.415  2.3812 -1.8100  1.0057
28994WAT    EPW17783   3.297   3.479   1.472 -0.0466 -0.2494 -0.5848
28995WAT      O17784   4.642   4.632   1.216  0.4400  0.4313 -0.5266
28995WAT     H117785   4.658   4.555   1.270 -0.0941  1.2024  0.7707
28995WAT     H217786   4.609   4.698   1.277  0.9627  1.7190 -1.5865
28995WAT    EPW17787   4.640   4.631   1.231  0.4385  0.7029 -0.4954
28996WAT      O17788   0.458  10.182   7.442  0.8610  0.0599 -0.2101
28996WAT     H117789   0.363  10.178   7.450  1.0497 -0.7610  2.7194
28996WAT     H217790   0.481  10.109   7.385 -0.0764 -2.5900  2.5649
28996WAT    EPW17791   0.449  10.172   7.436  0.7623 -0.3982  0.5422
28997WAT      O17792   6.406   6.667   1.356 -0.3493 -0.4260  0.3202
28997WAT     H117793   6.348   6.645   1.283  1.0411 -0.8708 -0.6826
28997WAT     H217794   6.493   6.673   1.317  0.1280  1.5859  1.5322
28997WAT    EPW17795   6.410   6.665   1.341 -0.1028 -0.2193  0.3477
28998WAT      O17796   7.090  10.146   3.577 -0.7400  0.6118 -0.0243
28998WAT     H117797   7.075  10.212   3.509  2.5370  0.3716 -1.1465
28998WAT     H217798   7.138  10.194   3.645  1.2262 -0.3831 -0.6261
28998WAT    EPW17799   7.095  10.161   3.577 -0.0484  0.4492 -0.2517
28999WAT      O17800   4.839   7.296   2.803  0.1333  0.4290  0.1067
28999WAT     H117801   4.894   7.226   2.768  1.2303  1.1895  0.2349
28999WAT     H217802   4.755   7.286   2.758 -0.0118 -1.4401  0.7219
28999WAT    EPW17803   4.835   7.286   2.792  0.2584  0.2828  0.2048
29000WAT      O17804   5.053   9.486   0.354 -0.1034 -0.3288  0.0279
29000WAT     H117805   5.044   9.497   0.259 -0.9095 -0.0531  0.1280
29000WAT     H217806   5.056   9.576   0.388 -1.8037 -0.3924  0.4259
29000WAT    EPW17807   5.052   9.499   0.346 -0.4339 -0.2999  0.0936
29001WAT      O17808   6.812   7.764   1.296  0.1935 -0.0183  0.8058
29001WAT     H117809   6.798   7.796   1.207  1.1011 -2.0543 -0.1419
29001WAT     H217810   6.907   7.758   1.304  0.0872 -1.7152  1.1719
29001WAT    EPW17811   6.823   7.768   1.285  0.2990 -0.5109  0.7291
29002WAT      O17812   5.809   9.290   0.071  0.1592 -0.2506  0.2581
29002WAT     H117813   5.862   9.266   0.147  0.4274 -0.7762 -0.0889
29002WAT     H217814   5.870   9.338   0.014 -0.4906  1.8171  1.1777
29002WAT    EPW17815   5.824   9.293   0.073  0.1090 -0.0472  0.3337
29003WAT      O17816   6.665   3.824   1.890  0.5947 -0.1035 -0.3291
29003WAT     H117817   6.674   3.755   1.824  1.3421 -0.3273 -0.0068
29003WAT     H217818   6.714   3.898   1.853  0.2648  0.0703 -0.4218
29003WAT    EPW17819   6.673   3.824   1.876  0.6499 -0.1100 -0.2987
29004WAT      O17820   4.662   8.757   1.646 -0.6881 -0.2651  0.6043
29004WAT     H117821   4.660   8.669   1.685 -0.0246 -0.0211  1.2011
29004WAT     H217822   4.599   8.752   1.574  1.3619 -2.0953 -1.2258
29004WAT    EPW17823   4.653   8.745   1.642 -0.3302 -0.4740  0.4416
29005WAT      O17824   3.708   6.937   1.518  0.0866  0.2518  0.5963
29005WAT     H117825   3.720   6.848   1.485 -0.2514 -0.0568  1.2742
29005WAT     H217826   3.614   6.944   1.534 -0.1541  1.3391 -1.0787
29005WAT    EPW17827   3.698   6.926   1.516  0.0104  0.3543  0.4649
29006WAT      O17828   5.053   5.717   1.342  0.4073  0.1103  0.3088
29006WAT     H117829   4.982   5.737   1.281 -0.2649 -1.4388  0.5482
29006WAT     H217830   5.121   5.677   1.288  0.0329 -0.7627  0.4687
29006WAT    EPW17831   5.052   5.715   1.327  0.2689 -0.2091  0.3615
29007WAT      O17832  10.840   1.385   5.543  0.0630  0.4011 -0.7669
29007WAT     H117833  10.885   1.443   5.604 -0.6722 -0.2361  0.4033
29007WAT     H217834  10.894   1.306   5.541  0.9939  1.0189 -2.2628
29007WAT    EPW17835  10.853   1.382   5.551  0.0887  0.3986 -0.8101
29008WAT      O17836   5.282   1.814   8.147 -0.1801 -0.4943  0.2765
29008WAT     H117837   5.326   1.899   8.156 -2.3069  0.6396  0.6398
29008WAT     H217838   5.323   1.759   8.215  1.6175  0.0107 -0.3359
29008WAT    EPW17839   5.293   1.818   8.157 -0.2236 -0.2781  0.2437
29009WAT      O17840   4.740   3.294   7.382 -0.3135  0.1385  0.2646
29009WAT     H117841   4.737   3.299   7.286  0.6144  0.7601  0.2538
29009WAT     H217842   4.700   3.210   7.403 -0.1045 -0.2147 -0.6946
29009WAT    EPW17843   4.735   3.284   7.372 -0.1636  0.1738  0.1369
29010WAT      O17844  10.030   8.948   4.926  0.7214 -0.0923  0.2406
29010WAT     H117845  10.001   8.882   4.862  0.4440  1.1060 -0.9066
29010WAT     H217846  10.034   9.029   4.877  0.6828  0.8478  1.7226
29010WAT    EPW17847  10.027   8.950   4.911  0.6795  0.1898  0.2847
29011WAT      O17848   6.448   8.341   1.209  0.5683 -0.3249  0.4564
29011WAT     H117849   6.409   8.311   1.291  1.1128  0.7200  1.1167
29011WAT     H217850   6.494   8.422   1.232  1.3130 -0.3800 -0.7363
29011WAT    EPW17851   6.449   8.348   1.223  0.7384 -0.1941  0.3862
29012WAT      O17852   9.746   8.673   3.673 -0.0988  0.1910  0.4998
29012WAT     H117853   9.686   8.599   3.670 -0.1426  0.2468 -0.3694
29012WAT     H217854   9.832   8.634   3.687 -0.0267 -0.0979 -0.6529
29012WAT    EPW17855   9.749   8.658   3.674 -0.0949  0.1607  0.2331
29013WAT      O17856   5.859   6.683   1.015  0.5761 -0.0317  0.2273
29013WAT     H117857   5.873   6.758   1.073 -1.7181  1.5349 -1.0856
29013WAT     H217858   5.825   6.615   1.073  2.2853  0.0043  1.3679
29013WAT    EPW17859   5.856   6.684   1.031  0.4990  0.1795  0.2046
29014WAT      O17860   1.225   9.418   8.733  0.1261 -0.4601 -0.5018
29014WAT     H117861   1.178   9.485   8.782  2.1010  0.1326  0.7353
29014WAT     H217862   1.182   9.336   8.755 -3.1609  0.3860 -3.0469
29014WAT    EPW17863   1.213   9.416   8.742 -0.0469 -0.2699 -0.6742
29015WAT      O17864   1.140   1.602   5.060 -0.4870  0.2440 -0.0267
29015WAT     H117865   1.198   1.657   5.008 -0.2999 -0.6366 -0.7682
29015WAT     H217866   1.060   1.655   5.070 -0.5268  0.4407 -1.2121
29015WAT    EPW17867   1.137   1.616   5.054 -0.4675  0.1538 -0.2806
29016WAT      O17868   4.427   4.487   8.961  0.5500  0.2114  0.2126
29016WAT     H117869   4.491   4.435   9.009  0.5893 -1.0319 -1.1262
29016WAT     H217870   4.467   4.503   8.875 -1.3581 -1.6569 -1.1274
29016WAT    EPW17871   4.441   4.483   8.956  0.3033 -0.1991 -0.1411
29017WAT      O17872   6.895   9.105   4.528 -0.3474  0.5505  0.0003
29017WAT     H117873   6.857   9.035   4.581 -0.0640 -0.1750 -0.7371
29017WAT     H217874   6.825   9.131   4.469 -0.0660 -0.0006 -0.5874
29017WAT    EPW17875   6.881   9.099   4.528 -0.2732  0.3824 -0.1745
29018WAT      O17876   3.795   4.529   7.387 -0.1765  0.5048 -0.1042
29018WAT     H117877   3.878   4.482   7.380 -0.5045 -0.0081 -0.5973
29018WAT     H217878   3.798   4.593   7.316 -0.4455  0.1015 -0.4813
29018WAT    EPW17879   3.806   4.532   7.377 -0.2552  0.3836 -0.2189
29019WAT      O17880   9.703   1.159   7.623 -0.0833  0.7172  0.2228
29019WAT     H117881   9.754   1.079   7.617  0.5140  0.9783  1.5610
29019WAT     H217882   9.767   1.228   7.641 -0.7019  1.3382  0.1209
29019WAT    EPW17883   9.718   1.158   7.625 -0.0863  0.8335  0.3858
29020WAT      O17884   3.187   7.752   5.544 -0.2948 -0.4018 -0.6030
29020WAT     H117885   3.196   7.847   5.533  0.3636 -0.5152 -1.1126
29020WAT     H217886   3.130   7.725   5.473 -1.3560 -0.2517  0.1731
29020WAT    EPW17887   3.181   7.761   5.533 -0.3480 -0.3972 -0.5679
29021WAT      O17888   5.811   6.787   3.632  0.3559 -0.0495  0.0814
29021WAT     H117889   5.854   6.728   3.694  2.2495  0.3999 -0.7343
29021WAT     H217890   5.720   6.790   3.661  1.0930 -0.0982  2.6684
29021WAT    EPW17891   5.805   6.780   3.644  0.7029  0.0033  0.3150
29022WAT      O17892   1.208   4.469   4.788 -0.1532  0.3839 -0.2206
29022WAT     H117893   1.269   4.426   4.848 -0.6339  1.8265  1.3393
29022WAT     H217894   1.225   4.426   4.703  1.4687 -0.7608  0.6293
29022WAT    EPW17895   1.218   4.457   4.784 -0.0027  0.4232  0.0973
29023WAT      O17896   3.958   4.890   0.805  0.2546  0.5543 -0.0734
29023WAT     H117897   4.031   4.871   0.863  0.3309 -0.5284 -0.5077
29023WAT     H217898   3.897   4.817   0.817  0.0214  0.5840 -0.9440
29023WAT    EPW17899   3.959   4.878   0.814  0.2339  0.4156 -0.2455
29024WAT      O17900   4.011   4.081   7.626 -0.4398  0.0595  0.0647
29024WAT     H117901   3.933   4.075   7.571  0.6938 -1.1132 -1.5317
29024WAT     H217902   3.979   4.072   7.715 -2.0177 -1.5338 -0.6085
29024WAT    EPW17903   3.997   4.079   7.630 -0.4983 -0.3054 -0.2348
29025WAT      O17904   9.538   9.178   4.316  0.5593 -0.6236 -0.2789
29025WAT     H117905   9.622   9.217   4.290  1.3049 -1.7838  0.3178
29025WAT     H217906   9.481   9.191   4.241  0.1562  3.2455  0.4839
29025WAT    EPW17907   9.542   9.185   4.303  0.6051 -0.2661 -0.0997
29026WAT      O17908   7.988   5.820   0.040  0.5580 -0.1845  0.0490
29026WAT     H117909   8.044   5.780   0.107  0.3155 -2.7604 -1.1533
29026WAT     H217910   8.049   5.856  -0.024  0.7874  1.0499  0.9363
29026WAT    EPW17911   8.004   5.820   0.041  0.5560 -0.3614  0.0072
29027WAT      O17912   4.061   6.215   2.015  0.3856  0.6557 -0.1892
29027WAT     H117913   4.001   6.289   2.000 -1.6482 -0.7161  0.6936
29027WAT     H217914   4.026   6.171   2.093  1.1679 -1.5698 -1.0096
29027WAT    EPW17915   4.048   6.219   2.023  0.2205  0.1814 -0.1810
29028WAT      O17916   3.618   6.935   0.440 -0.3803 -0.0301  0.3754
29028WAT     H117917   3.616   6.848   0.480  0.3574 -0.3048 -0.1580
29028WAT     H217918   3.661   6.921   0.355 -0.0846  0.8884  0.3606
29028WAT    EPW17919   3.623   6.922   0.434 -0.2440  0.0546  0.3031
29029WAT      O17920   1.452   9.933   1.981  0.1835  0.4633 -0.3757
29029WAT     H117921   1.407   9.948   1.898  1.3962  0.2633 -1.0976
29029WAT     H217922   1.413   9.996   2.042 -1.4638 -0.1150 -0.8050
29029WAT    EPW17923   1.441   9.944   1.978  0.1261  0.3605 -0.5275
29030WAT      O17924   3.956   6.432   2.482 -0.2095 -0.2360  0.1280
29030WAT     H117925   3.955   6.357   2.422 -1.3102 -0.6590  0.6327
29030WAT     H217926   3.940   6.508   2.426 -3.2845 -0.8121  0.0221
29030WAT    EPW17927   3.954   6.432   2.467 -0.7602 -0.3679  0.1806
29031WAT      O17928   0.322   5.744   7.527  0.5590  0.4784 -0.1531
29031WAT     H117929   0.409   5.733   7.490  0.6271  0.4701  0.0091
29031WAT     H217930   0.263   5.709   7.460  0.8347 -2.0729  0.8490
29031WAT    EPW17931   0.325   5.738   7.513  0.6043  0.1407  0.0002
29032WAT      O17932   8.656   9.218   1.075 -0.1683  0.1163  0.2904
29032WAT     H117933   8.681   9.200   1.166 -0.7242 -0.2590  0.3737
29032WAT     H217934   8.709   9.157   1.023  1.3181  1.3963  0.2249
29032WAT    EPW17935   8.667   9.207   1.080 -0.0458  0.2356  0.2928
29033WAT      O17936   5.186   7.151   0.672 -0.2492  0.1438  0.1118
29033WAT     H117937   5.132   7.227   0.693  0.0453  0.1538  0.8464
29033WAT     H217938   5.188   7.100   0.753  1.4828  0.5239  0.3489
29033WAT    EPW17939   5.179   7.154   0.685  0.0181  0.1953  0.2399
29034WAT      O17940   8.328   3.503   8.447 -0.2717  0.1876 -0.6692
29034WAT     H117941   8.246   3.504   8.397  0.1604 -1.1530 -1.4537
29034WAT     H217942   8.348   3.596   8.461 -2.0642  0.5338 -0.1887
29034WAT    EPW17943   8.320   3.516   8.442 -0.4511  0.0565 -0.7091
29035WAT      O17944  10.583   5.278   2.759  0.3505  0.0224  0.6909
29035WAT     H117945  10.599   5.372   2.761  1.7431 -0.1960  0.7480
29035WAT     H217946  10.576   5.252   2.850  0.8181 -0.0516  0.7096
29035WAT    EPW17947  10.584   5.287   2.771  0.5956 -0.0160  0.7008
29036WAT      O17948   3.179   5.787   2.894  0.4777 -0.3039  0.4213
29036WAT     H117949   3.221   5.765   2.811 -1.6543 -2.2071 -0.2678
29036WAT     H217950   3.186   5.707   2.946 -1.6799 -0.5360  0.4665
29036WAT    EPW17951   3.185   5.773   2.890 -0.0881 -0.5853  0.3363
29037WAT      O17952   0.787   1.851   8.873  0.8649  0.4323 -0.0594
29037WAT     H117953   0.867   1.835   8.922 -0.3892 -2.5328  1.2522
29037WAT     H217954   0.717   1.834   8.936 -0.8146  1.1247 -1.6575
29037WAT    EPW17955   0.788   1.847   8.888  0.4780  0.1325 -0.0968
29038WAT      O17956   4.421   5.820   1.029 -0.5112 -0.1088  0.2171
29038WAT     H117957   4.495   5.759   1.037  1.0444  1.3414 -2.0171
29038WAT     H217958   4.360   5.775   0.970  0.6620  0.4102 -1.4775
29038WAT    EPW17959   4.423   5.806   1.022 -0.1514  0.1509 -0.3011
29039WAT      O17960   3.372   4.246   0.450 -0.0136  0.9121 -0.3108
29039WAT     H117961   3.460   4.242   0.488 -0.2124 -0.0662  0.0659
29039WAT     H217962   3.364   4.166   0.399  0.8612  2.8700 -3.9211
29039WAT    EPW17963   3.383   4.235   0.448  0.0755  1.0412 -0.7373
29040WAT      O17964   7.286   7.245   3.254  0.3977 -0.7926  0.5453
29040WAT     H117965   7.235   7.215   3.330 -0.5184  0.4514  0.4550
29040WAT     H217966   7.344   7.172   3.234  0.5980 -1.1919  2.3877
29040WAT    EPW17967   7.287   7.231   3.262  0.3033 -0.6809  0.7765
29041WAT      O17968   5.646   8.762   4.810 -0.1572  0.6462  0.2897
29041WAT     H117969   5.610   8.687   4.858 -0.0215  1.6249  2.0044
29041WAT     H217970   5.658   8.830   4.876  0.2465  2.0185 -1.1142
29041WAT    EPW17971   5.643   8.761   4.825 -0.0858  0.9565  0.3307
29042WAT      O17972   2.951   5.451   4.351 -0.0683 -0.4268 -0.4771
29042WAT     H117973   2.955   5.546   4.349 -1.6707 -0.3442 -1.7048
29042WAT     H217974   2.961   5.428   4.443 -0.0838  0.9412 -0.1155
29042WAT    EPW17975   2.953   5.460   4.363 -0.2818 -0.2356 -0.5915
29043WAT      O17976   7.512   7.429   3.537  0.2651  0.1914 -0.7343
29043WAT     H117977   7.584   7.367   3.543  1.0082  1.1279  0.8037
29043WAT     H217978   7.549   7.511   3.570 -1.5645  0.6427  0.3449
29043WAT    EPW17979   7.527   7.432   3.542  0.1218  0.3743 -0.3890
29044WAT      O17980   7.474   5.309   1.938  0.2674 -0.7774  0.5804
29044WAT     H117981   7.449   5.390   1.982 -0.4511  0.6933 -2.2663
29044WAT     H217982   7.397   5.286   1.886  1.3032 -1.9450 -0.4952
29044WAT    EPW17983   7.461   5.317   1.937  0.3092 -0.7374  0.0631
29045WAT      O17984   5.455   9.458   2.412  0.2774  0.1752  0.4614
29045WAT     H117985   5.400   9.495   2.342 -0.1550 -1.6964 -0.2543
29045WAT     H217986   5.539   9.441   2.369  0.2332 -0.3328  0.5701
29045WAT    EPW17987   5.459   9.461   2.397  0.2148 -0.1388  0.3812
29046WAT      O17988   6.777   5.031   1.745 -0.1364  0.3141 -0.3879
29046WAT     H117989   6.822   5.103   1.789 -1.0841  2.3774 -2.5476
29046WAT     H217990   6.684   5.051   1.754 -0.3949 -0.0961 -1.8483
29046WAT    EPW17991   6.771   5.043   1.752 -0.2954  0.5322 -0.8654
29047WAT      O17992   8.410   7.448   2.106  0.5178  0.2058  0.3709
29047WAT     H117993   8.456   7.366   2.087  1.5137  0.7307  0.3952
29047WAT     H217994   8.321   7.422   2.129 -0.2415 -0.6493 -2.9960
29047WAT    EPW17995   8.405   7.434   2.106  0.5493  0.1621 -0.0699
29048WAT      O17996   5.219   3.890   2.628 -0.3747  0.6842  0.9510
29048WAT     H117997   5.163   3.828   2.675 -1.7943  1.1925 -0.0001
29048WAT     H217998   5.175   3.903   2.544  1.0038  1.3873  0.2970
29048WAT    EPW17999   5.206   3.883   2.623 -0.3798  0.8440  0.7393
29049WAT      O18000   7.903   6.583   0.555 -0.1926 -0.3954 -1.2318
29049WAT     H118001   7.815   6.596   0.589  0.1710  0.4109 -0.5777
29049WAT     H218002   7.890   6.538   0.472 -1.2572  0.2868 -1.4522
29049WAT    EPW18003   7.890   6.579   0.549 -0.2854 -0.1988 -1.1746
29050WAT      O18004   2.124   3.549   7.647  0.1667  0.1792 -0.6521
29050WAT     H118005   2.172   3.478   7.605  0.2683  0.7400 -1.4978
29050WAT     H218006   2.081   3.507   7.722  1.8124 -0.3668  0.0296
29050WAT    EPW18007   2.124   3.534   7.652  0.3970  0.1813 -0.6738
29051WAT      O18008   2.427   5.573   8.035 -0.3450  0.2768  0.2287
29051WAT     H118009   2.517   5.564   8.006 -0.4921  0.4438 -0.2931
29051WAT     H218010   2.427   5.654   8.088 -0.5547  1.3159 -1.3051
29051WAT    EPW18011   2.439   5.583   8.039 -0.3921  0.4358 -0.0429
29052WAT      O18012  10.038   4.530   8.264 -0.2895 -0.0372  0.2119
29052WAT     H118013  10.051   4.460   8.200 -0.7965 -0.5140  0.6290
29052WAT     H218014  10.028   4.485   8.348  0.6191  0.5935  0.6798
29052WAT    EPW18015  10.039   4.515   8.267 -0.2365 -0.0167  0.3290
29053WAT      O18016   8.327   9.852   8.812 -0.7725 -0.8529 -0.3414
29053WAT     H118017   8.340   9.891   8.898 -0.2227  0.6990 -1.0887
29053WAT     H218018   8.270   9.777   8.828  0.3805 -1.3829  1.5356
29053WAT    EPW18019   8.321   9.847   8.826 -0.5479 -0.7176 -0.1922
29054WAT      O18020   7.587   5.790   0.264  0.0927  0.8557 -0.4820
29054WAT     H118021   7.511   5.756   0.217 -1.2560  0.4075  1.8918
29054WAT     H218022   7.643   5.714   0.278 -1.3661  0.1133  1.9302
29054WAT    EPW18023   7.584   5.776   0.259 -0.2778  0.6988  0.1493
29055WAT      O18024   7.631   6.435   1.966  0.1611 -0.5261 -0.1499
29055WAT     H118025   7.630   6.517   1.917  0.7857 -0.5387 -0.2025
29055WAT     H218026   7.551   6.390   1.940 -1.7277  1.3012  2.0540
29055WAT    EPW18027   7.621   6.440   1.956 -0.0055 -0.2868  0.1339
29056WAT      O18028   3.887   7.015   3.427  0.5249 -0.0811 -0.4266
29056WAT     H118029   3.950   6.946   3.448  1.4652  1.0596  0.6872
29056WAT     H218030   3.933   7.072   3.365 -0.0126 -0.1129 -0.8646
29056WAT    EPW18031   3.901   7.014   3.422  0.5779  0.0651 -0.3375
29057WAT      O18032   8.725   8.899   2.755  0.8310 -0.3197  0.2143
29057WAT     H118033   8.693   8.904   2.845  2.7664  0.6886  0.9045
29057WAT     H218034   8.716   8.807   2.731 -0.7832 -0.3991  1.0036
29057WAT    EPW18035   8.720   8.887   2.764  0.8731 -0.1969  0.4095
29058WAT      O18036   3.419   4.167   8.568 -0.3938  0.6624  0.5034
29058WAT     H118037   3.365   4.146   8.644 -0.4331 -1.2707 -0.0098
29058WAT     H218038   3.395   4.258   8.546 -2.0867  0.4660  1.3768
29058WAT    EPW18039   3.409   4.177   8.575 -0.6222  0.3817  0.5517
29059WAT      O18040   3.414   2.479   8.625  0.1127  0.1959 -0.0783
29059WAT     H118041   3.503   2.499   8.595 -0.2939  2.5366  0.1080
29059WAT     H218042   3.367   2.452   8.546  0.6526  0.1613 -0.3946
29059WAT    EPW18043   3.420   2.478   8.611  0.1303  0.5002 -0.0958
29060WAT      O18044   6.178   0.338   8.144 -0.3941 -0.0025 -0.0528
29060WAT     H118045   6.233   0.415   8.162  0.3296 -0.5364  0.1032
29060WAT     H218046   6.120   0.366   8.074  0.8016  0.2738 -0.9733
29060WAT    EPW18047   6.178   0.352   8.137 -0.1411 -0.0365 -0.1540
29061WAT      O18048   4.290   0.484   8.056  0.8155  0.5826 -0.0457
29061WAT     H118049   4.317   0.562   8.008  2.0964  0.1195 -0.1274
29061WAT     H218050   4.360   0.420   8.039  0.3876 -0.1873  0.9593
29061WAT    EPW18051   4.303   0.486   8.048  0.9282  0.4200  0.0763
29062WAT      O18052   6.656   4.567   2.053  0.8765 -0.3621 -0.3140
29062WAT     H118053   6.743   4.576   2.092  1.0163 -0.5064 -0.5868
29062WAT     H218054   6.611   4.648   2.075  1.0552 -0.3174 -0.1094
29062WAT    EPW18055   6.662   4.579   2.061  0.9184 -0.3750 -0.3231
29063WAT      O18056   6.939   6.475   0.689 -0.3226 -0.2477  0.0389
29063WAT     H118057   6.932   6.430   0.605 -0.7575 -0.1225  0.0086
29063WAT     H218058   6.892   6.557   0.677  1.5001  0.7999 -0.2965
29063WAT    EPW18059   6.932   6.480   0.676 -0.1397 -0.0930 -0.0093
29064WAT      O18060   5.075   7.405   0.728  0.8588  0.7738 -0.1803
29064WAT     H118061   4.990   7.437   0.758  0.8676  1.8526 -1.2447
29064WAT     H218062   5.076   7.423   0.634  0.9314 -2.2531 -0.8626
29064WAT    EPW18063   5.064   7.412   0.720  0.8695  0.5167 -0.4107
29065WAT      O18064   8.342   0.223   0.005 -0.2190  0.3261 -0.4190
29065WAT     H118065   8.417   0.185   0.052 -2.0064 -0.7340  1.7681
29065WAT     H218066   8.281   0.150  -0.006 -1.7160  1.5481 -0.4863
29065WAT    EPW18067   8.344   0.208   0.010 -0.6523  0.3475 -0.1394
29066WAT      O18068   5.848   6.762   3.362  0.0180 -0.2393  0.3864
29066WAT     H118069   5.758   6.746   3.333  0.6889 -2.9975 -0.4686
29066WAT     H218070   5.839   6.784   3.455 -1.5356 -0.3755  0.2959
29066WAT    EPW18071   5.835   6.763   3.370 -0.0982 -0.6208  0.2617
29067WAT      O18072   9.877   7.099   2.029  0.1764 -1.5581 -0.2654
29067WAT     H118073   9.938   7.025   2.021  0.0798 -1.5548 -1.1344
29067WAT     H218074   9.819   7.090   1.954 -0.1216 -0.8524 -0.1253
29067WAT    EPW18075   9.878   7.088   2.018  0.1249 -1.4646 -0.3616
29068WAT      O18076   4.491   4.214   2.024 -0.4120  0.3682  1.1957
29068WAT     H118077   4.549   4.274   1.977 -2.2164  0.9263 -0.4308
29068WAT     H218078   4.471   4.145   1.960 -0.2891 -0.7032  2.2647
29068WAT    EPW18079   4.496   4.213   2.009 -0.6337  0.3004  1.1221
29069WAT      O18080   9.382   8.252   2.463  0.0613  0.5994  0.0294
29069WAT     H118081   9.345   8.185   2.520 -0.0309  0.9563  0.3949
29069WAT     H218082   9.448   8.206   2.411 -0.6799  0.0252 -0.4157
29069WAT    EPW18083   9.386   8.237   2.464 -0.0486  0.5703  0.0188
29070WAT      O18084   4.703  10.263   8.752 -0.3778  1.0712 -0.2229
29070WAT     H118085   4.692  10.242   8.845  1.1910 -2.1236 -0.6113
29070WAT     H218086   4.614  10.283   8.722 -1.0415  1.3658  1.7723
29070WAT    EPW18087   4.690  10.263   8.761 -0.2584  0.6886 -0.0105
29071WAT      O18088   7.636   9.689   1.214 -0.6251  0.4600 -0.0695
29071WAT     H118089   7.628   9.735   1.130 -0.1047 -0.4913 -0.6532
29071WAT     H218090   7.548   9.690   1.250 -0.4514  2.8583  0.4621
29071WAT    EPW18091   7.623   9.695   1.207 -0.5336  0.6509 -0.0764
29072WAT      O18092   4.243   8.250   2.786  0.8297 -0.4972  0.1750
29072WAT     H118093   4.332   8.277   2.763  0.3525  0.0921 -1.0583
29072WAT     H218094   4.187   8.321   2.754  0.0695  0.4087  3.1780
29072WAT    EPW18095   4.247   8.263   2.779  0.6666 -0.2999  0.4083
29073WAT      O18096   6.719   8.619   2.611 -0.4804 -0.3557 -0.2317
29073WAT     H118097   6.758   8.535   2.634  0.7981  0.3976  0.4844
29073WAT     H218098   6.671   8.602   2.530  0.0536 -1.6920 -0.2868
29073WAT    EPW18099   6.718   8.606   2.603 -0.2415 -0.4330 -0.1445
29074WAT      O18100   6.885   7.580   1.612  0.5978 -0.4931 -0.9474
29074WAT     H118101   6.889   7.493   1.653  3.8096 -1.6906 -3.3891
29074WAT     H218102   6.886   7.562   1.518  1.5174  2.1638 -1.5255
29074WAT    EPW18103   6.886   7.566   1.605  1.1427 -0.3009 -1.3458
29075WAT      O18104   4.930   8.462   4.281 -0.7198  0.0166 -0.0207
29075WAT     H118105   4.939   8.440   4.374 -0.9021  1.4229  0.3517
29075WAT     H218106   5.014   8.438   4.243  0.3584  1.8387  1.0511
29075WAT    EPW18107   4.942   8.456   4.289 -0.6015  0.4425  0.1700
29076WAT      O18108   8.389   1.305   0.487  0.1638 -0.2355 -0.2712
29076WAT     H118109   8.326   1.371   0.516  0.8910  0.8571 -1.0827
29076WAT     H218110   8.371   1.229   0.541 -0.9695  0.4976  0.4217
29076WAT    EPW18111   8.378   1.304   0.498  0.1101  0.0053 -0.2868
29077WAT      O18112   8.600   9.106   0.729  0.1061  0.0675  0.6874
29077WAT     H118113   8.659   9.180   0.746  0.6738 -0.0281 -0.7784
29077WAT     H218114   8.512   9.144   0.735  0.3233  0.4174  1.9189
29077WAT    EPW18115   8.596   9.121   0.732  0.2093  0.1006  0.6565
29078WAT      O18116   3.743   8.617   2.980  0.1845 -0.0210  0.1676
29078WAT     H118117   3.784   8.560   2.915 -0.6291  0.4104 -0.7530
29078WAT     H218118   3.740   8.703   2.938 -1.6091 -0.0236  0.1834
29078WAT    EPW18119   3.748   8.621   2.966 -0.1593  0.0358  0.0484
29079WAT      O18120   4.167   4.242   1.808 -0.6547  0.2645 -0.0607
29079WAT     H118121   4.170   4.331   1.842  0.9145  0.4609 -0.6166
29079WAT     H218122   4.249   4.202   1.837 -1.4300 -1.1013  0.3796
29079WAT    EPW18123   4.178   4.248   1.816 -0.5500  0.1101 -0.0760
29080WAT      O18124   4.096   7.569   2.611  0.0570  0.8595  0.0399
29080WAT     H118125   4.158   7.613   2.553  0.6786  1.2034  0.9391
29080WAT     H218126   4.018   7.624   2.609 -0.6684 -0.1577 -1.9611
29080WAT    EPW18127   4.094   7.582   2.603  0.0434  0.7708 -0.1054
29081WAT      O18128   6.394   7.729   3.712 -0.4339 -0.0874  1.0291
29081WAT     H118129   6.470   7.722   3.770 -0.6483 -0.0520  1.3160
29081WAT     H218130   6.323   7.687   3.760 -0.2751 -1.4207  0.1716
29081WAT    EPW18131   6.394   7.722   3.726 -0.4413 -0.2589  0.9538
29082WAT      O18132   8.397   0.384   2.714 -0.7433 -0.4551 -0.4210
29082WAT     H118133   8.448   0.315   2.756  1.3122  0.3680 -1.4475
29082WAT     H218134   8.342   0.338   2.650 -0.5348 -1.2741 -0.0176
29082WAT    EPW18135   8.396   0.369   2.711 -0.4449 -0.4546 -0.5032
29083WAT      O18136   6.255   8.881   1.264  0.0434 -0.4859  0.3214
29083WAT     H118137   6.292   8.834   1.189  2.9487 -0.0664  1.3577
29083WAT     H218138   6.211   8.957   1.226  0.2898 -0.9934 -1.0251
29083WAT    EPW18139   6.254   8.885   1.249  0.4592 -0.4978  0.2804
29084WAT      O18140   3.736   5.314   2.630  0.1096  0.2687  0.2472
29084WAT     H118141   3.729   5.366   2.550 -0.5815 -1.1457 -0.6512
29084WAT     H218142   3.650   5.325   2.673  0.9763  2.2512  1.6432
29084WAT    EPW18143   3.723   5.323   2.625  0.1329  0.3433  0.3128
29085WAT      O18144  10.978   2.089   6.955  0.1221  0.4097 -0.4307
29085WAT     H118145  10.898   2.059   6.911 -1.1368 -4.2506  4.0750
29085WAT     H218146  11.049   2.061   6.897 -1.4378 -2.0791 -1.3017
29085WAT    EPW18147  10.976   2.081   6.941 -0.2497 -0.5333  0.0484
29086WAT      O18148   9.979   8.030   4.330 -0.9507 -0.5850 -0.5632
29086WAT     H118149   9.926   7.954   4.307 -0.4903 -0.6655 -1.4026
29086WAT     H218150  10.025   8.053   4.249 -1.5727  0.9917 -0.5048
29086WAT    EPW18151   9.978   8.023   4.316 -0.9718 -0.3877 -0.6661
29087WAT      O18152   4.501   8.326   1.014  0.6868 -0.3288 -0.3591
29087WAT     H118153   4.584   8.365   0.986  2.6096  0.3971  5.1212
29087WAT     H218154   4.525   8.240   1.049 -0.6936  0.1154  1.8560
29087WAT    EPW18155   4.515   8.320   1.015  0.7586 -0.1745  0.6559
29088WAT      O18156   3.965   8.720   3.188 -0.4316  0.3978 -0.5538
29088WAT     H118157   4.006   8.690   3.270  2.5731  0.4755 -1.8803
29088WAT     H218158   3.943   8.640   3.141  0.5944  0.2831 -0.8756
29088WAT    EPW18159   3.968   8.706   3.193  0.1000  0.3929 -0.7710
29089WAT      O18160   3.807   5.074   4.577  0.4719 -0.2818  0.4206
29089WAT     H118161   3.821   4.980   4.566  0.3866 -0.1654 -0.8661
29089WAT     H218162   3.735   5.094   4.518  0.7299  0.6529  0.4079
29089WAT    EPW18163   3.799   5.064   4.567  0.4946 -0.1431  0.2496
29090WAT      O18164   3.248   7.203   0.373 -0.6175  0.2362  0.4204
29090WAT     H118165   3.273   7.256   0.298 -0.9787  1.8050  1.3702
29090WAT     H218166   3.156   7.181   0.357 -0.2085 -1.0237 -0.4558
29090WAT    EPW18167   3.239   7.207   0.361 -0.6112  0.2770  0.4301
29091WAT      O18168   4.908   6.894   3.128  0.6227 -0.0852 -0.2006
29091WAT     H118169   4.918   6.894   3.223 -3.1277  2.9688  0.4918
29091WAT     H218170   4.941   6.980   3.101 -0.1780 -0.1065 -1.3105
29091WAT    EPW18171   4.913   6.905   3.137  0.0224  0.3147 -0.2557
29092WAT      O18172   3.861   5.654   3.095 -0.0000  0.9277 -0.4286
29092WAT     H118173   3.825   5.586   3.152  1.5931 -1.3606 -1.9437
29092WAT     H218174   3.889   5.723   3.155  2.1599 -1.6074  1.7518
29092WAT    EPW18175   3.860   5.654   3.111  0.4951  0.2918 -0.3407
29093WAT      O18176   6.826   5.734   1.268  0.3114 -0.0403  0.6051
29093WAT     H118177   6.807   5.745   1.175  1.4874  0.7831  0.4421
29093WAT     H218178   6.881   5.656   1.272  0.5906  0.1538  0.5631
29093WAT    EPW18179   6.830   5.725   1.256  0.5035  0.0939  0.5780
29094WAT      O18180   6.077  10.303   2.090  0.4211  0.6586  0.0707
29094WAT     H118181   6.011  10.333   2.152 -0.1705  1.1612 -0.7681
29094WAT     H218182   6.098  10.380   2.038  1.0810  0.3092 -0.1905
29094WAT    EPW18183   6.071  10.317   2.091  0.4301  0.6785 -0.0745
29095WAT      O18184   7.998   4.578   1.528  0.4863  0.5672 -0.4881
29095WAT     H118185   8.071   4.567   1.589 -0.1254 -0.6251  0.0627
29095WAT     H218186   8.039   4.606   1.446  1.4967  0.4225 -0.0441
29095WAT    EPW18187   8.013   4.581   1.526  0.5388  0.3908 -0.3569
29096WAT      O18188   7.911   7.647   2.394  0.2189  0.0580  0.2867
29096WAT     H118189   7.822   7.639   2.360  0.9665 -0.2668 -1.7561
29096WAT     H218190   7.915   7.735   2.431 -0.7723  0.3101 -0.1797
29096WAT    EPW18191   7.900   7.657   2.394  0.1864  0.0486 -0.0443
29097WAT      O18192   5.971   4.606   1.225 -0.1725 -0.3686  0.3564
29097WAT     H118193   6.031   4.662   1.274 -1.4788 -0.0637  1.7117
29097WAT     H218194   5.959   4.529   1.282 -1.1276 -0.3623  0.1832
29097WAT    EPW18195   5.977   4.603   1.239 -0.4706 -0.3276  0.5123
29098WAT      O18196   6.994  10.067   2.989 -0.0793 -0.1370  0.4468
29098WAT     H118197   7.084  10.038   3.000  1.1698  3.1027 -0.0535
29098WAT     H218198   6.959  10.013   2.918  3.3250  1.8663 -3.1699
29098WAT    EPW18199   7.001  10.056   2.981  0.5348  0.5546 -0.0962
29099WAT      O18200   7.462   0.140   2.263  0.1603 -0.2977  0.0156
29099WAT     H118201   7.443   0.097   2.180  1.5429  0.6892 -0.8458
29099WAT     H218202   7.410   0.220   2.260  0.7873  0.1062 -0.2497
29099WAT    EPW18203   7.452   0.145   2.252  0.4256 -0.1143 -0.1332
29100WAT      O18204   6.088   7.299   1.791  0.2955  0.5911  0.1736
29100WAT     H118205   6.072   7.385   1.752 -1.7761  1.4297  2.6574
29100WAT     H218206   6.060   7.237   1.723  0.3726  1.8643 -1.0831
29100WAT    EPW18207   6.083   7.302   1.777  0.0327  0.8698  0.3356
29101WAT      O18208   7.719   8.495   6.792 -0.3041  0.3529  0.1709
29101WAT     H118209   7.724   8.412   6.744 -0.6025  0.3951  0.0654
29101WAT     H218210   7.787   8.550   6.752 -0.4546  0.3376 -0.1047
29101WAT    EPW18211   7.729   8.491   6.781 -0.3633  0.3562  0.1204
29102WAT      O18212   2.242   3.330   7.532 -0.1508  0.3143 -0.3851
29102WAT     H118213   2.238   3.293   7.444  0.4671 -1.7730  0.4046
29102WAT     H218214   2.169   3.289   7.578  0.6840 -0.1417  0.5801
29102WAT    EPW18215   2.232   3.320   7.527  0.0409 -0.0211 -0.1535
29103WAT      O18216   6.437   6.150   3.484 -0.0621 -0.3916  0.1475
29103WAT     H118217   6.361   6.178   3.433  0.2446 -0.9357 -0.6122
29103WAT     H218218   6.467   6.230   3.528 -0.8254 -0.0935  0.1340
29103WAT    EPW18219   6.431   6.164   3.483 -0.1221 -0.4239  0.0457
29104WAT      O18220   7.685   5.712   1.604 -0.6739 -1.1144  0.5489
29104WAT     H118221   7.751   5.676   1.665 -0.3950  0.6712  1.3621
29104WAT     H218222   7.601   5.692   1.646 -0.4886 -0.0239  1.4879
29104WAT    EPW18223   7.683   5.705   1.618 -0.6127 -0.7348  0.7800
29105WAT      O18224   6.177   7.317   0.218  0.8284  0.0298  0.1315
29105WAT     H118225   6.193   7.298   0.310  0.3057 -1.8296 -0.1262
29105WAT     H218226   6.240   7.386   0.196  1.6212 -0.1944  1.6200
29105WAT    EPW18227   6.187   7.324   0.227  0.8640 -0.2446  0.2938
29106WAT      O18228   5.844   5.164   2.753 -0.6238  0.1201  0.1900
29106WAT     H118229   5.824   5.159   2.847 -1.7023 -0.6712 -0.0673
29106WAT     H218230   5.915   5.228   2.748 -1.1427  0.8382  1.4542
29106WAT    EPW18231   5.851   5.171   2.765 -0.8347  0.1104  0.3227
29107WAT      O18232   7.716   9.478   5.879  0.4638 -0.0304 -0.0199
29107WAT     H118233   7.739   9.570   5.866  0.7391  0.3738  2.7221
29107WAT     H218234   7.789   9.430   5.840  0.3801  0.8822 -1.3662
29107WAT    EPW18235   7.729   9.484   5.872  0.4890  0.1431  0.1640
29108WAT      O18236   4.584   9.757   0.870 -0.4181  0.2049  0.4832
29108WAT     H118237   4.498   9.721   0.890 -1.4698  1.9631 -0.7087
29108WAT     H218238   4.644   9.706   0.925 -1.9095 -2.5841 -0.2848
29108WAT    EPW18239   4.581   9.745   0.880 -0.7532  0.0691  0.2247
29109WAT      O18240   5.654   9.391   3.663 -0.5591  0.0625  0.4716
29109WAT     H118241   5.619   9.340   3.590  1.4379 -1.1807  0.2890
29109WAT     H218242   5.698   9.465   3.621 -2.6260  1.4777  0.6837
29109WAT    EPW18243   5.655   9.394   3.648 -0.5684  0.0854  0.4754
29110WAT      O18244   4.682   1.321   8.876  0.2245 -0.6522 -0.1984
29110WAT     H118245   4.640   1.294   8.794 -0.9343  0.4917  0.0026
29110WAT     H218246   4.691   1.240   8.926 -0.4761 -1.1239 -0.8183
29110WAT    EPW18247   4.678   1.307   8.872 -0.0207 -0.5635 -0.2537
29111WAT      O18248   0.193   0.634   4.685  0.0680 -0.4659  0.3358
29111WAT     H118249   0.271   0.659   4.734 -0.8486 -0.0937  1.6478
29111WAT     H218250   0.120   0.653   4.744 -1.0484 -0.4384 -1.0005
29111WAT    EPW18251   0.194   0.640   4.699 -0.2001 -0.4132  0.3326
29112WAT      O18252   5.378   0.844   1.337 -0.0954  0.1381  0.2672
29112WAT     H118253   5.441   0.871   1.271  1.6433 -1.2181  1.2844
29112WAT     H218254   5.296   0.833   1.289  1.1743 -1.1528 -1.7521
29112WAT    EPW18255   5.375   0.846   1.322  0.3016 -0.2110  0.1350
29113WAT      O18256  10.246   7.149   0.551  0.1382 -0.2036 -0.1968
29113WAT     H118257  10.303   7.085   0.594  1.8171  0.5099 -1.2609
29113WAT     H218258  10.192   7.184   0.622 -0.2841 -2.2175  0.5346
29113WAT    EPW18259  10.247   7.145   0.566  0.3042 -0.3750 -0.2407
29114WAT      O18260   7.567   7.810   1.614 -0.3104  0.0440  0.4241
29114WAT     H118261   7.618   7.853   1.546 -0.4187 -1.2118 -0.4879
29114WAT     H218262   7.601   7.720   1.617 -1.6140 -0.4720  0.6458
29114WAT    EPW18263   7.578   7.803   1.606 -0.4966 -0.1898  0.3331
29115WAT      O18264   7.157   8.653   4.153 -0.0768  0.3256  0.9732
29115WAT     H118265   7.130   8.591   4.085  1.8102 -0.5237  0.9427
29115WAT     H218266   7.151   8.739   4.111 -1.9447  0.1354  0.7644
29115WAT    EPW18267   7.153   8.656   4.138 -0.0744  0.1884  0.9415
29116WAT      O18268   2.279   2.280   8.807 -0.2918 -0.1882  0.2310
29116WAT     H118269   2.281   2.367   8.768 -3.1657  0.1861  0.7303
29116WAT     H218270   2.261   2.295   8.899 -0.1835 -1.3008  0.4492
29116WAT    EPW18271   2.277   2.293   8.814 -0.6566 -0.2854  0.3257
29117WAT      O18272   1.641   0.214   3.920  0.2543 -0.1229  0.1526
29117WAT     H118273   1.588   0.161   3.861  1.4266 -0.6476 -0.4509
29117WAT     H218274   1.618   0.304   3.898 -2.2824 -0.3072  1.6691
29117WAT    EPW18275   1.631   0.219   3.909  0.0743 -0.2164  0.2730
29118WAT      O18276  10.684   0.396   1.813 -0.4112 -0.3307 -0.0767
29118WAT     H118277  10.708   0.417   1.722 -1.0045  0.2701 -0.1048
29118WAT     H218278  10.600   0.440   1.826  0.0503  0.2676  1.0229
29118WAT    EPW18279  10.676   0.405   1.803 -0.4282 -0.1726  0.0646
29119WAT      O18280   5.844   1.020   8.878 -0.4060  0.4277  0.8478
29119WAT     H118281   5.812   1.070   8.803 -1.5060 -1.2586  0.1270
29119WAT     H218282   5.773   0.959   8.898  0.6787 -0.5102  2.0074
29119WAT    EPW18283   5.830   1.019   8.871 -0.4079  0.0817  0.9060
29120WAT      O18284   9.779   1.924   2.464 -0.3922  0.5700 -0.3269
29120WAT     H118285   9.748   1.955   2.549  0.8194  3.1129 -0.7184
29120WAT     H218286   9.717   1.963   2.402 -2.3837 -2.7562 -0.6366
29120WAT    EPW18287   9.767   1.934   2.467 -0.4954  0.4667 -0.4193
29121WAT      O18288   8.872   9.989   4.237  0.8846 -0.6131  0.4366
29121WAT     H118289   8.936  10.003   4.307  2.2683 -1.3428 -0.6292
29121WAT     H218290   8.787  10.008   4.278  1.7632  0.4159  1.8865
29121WAT    EPW18291   8.869   9.994   4.252  1.1826 -0.5736  0.4873
29122WAT      O18292   5.181   7.397   3.475 -0.0660 -0.7937  0.2115
29122WAT     H118293   5.090   7.427   3.466  0.3595  1.7390  2.7480
29122WAT     H218294   5.221   7.419   3.390 -0.8222  2.4630  0.5408
29122WAT    EPW18295   5.174   7.404   3.462 -0.1097 -0.0298  0.5895
29123WAT      O18296   4.564   8.433   1.552 -0.1957 -0.7169 -0.0996
29123WAT     H118297   4.481   8.385   1.552 -1.9431  1.9907  1.6045
29123WAT     H218298   4.598   8.423   1.640 -0.9238  1.4538  0.5094
29123WAT    EPW18299   4.557   8.425   1.563 -0.5221 -0.0739  0.2055
29124WAT      O18300   2.700   4.449   5.466  0.3103 -0.2506  0.3948
29124WAT     H118301   2.788   4.431   5.431  1.8170 -0.8386  4.0688
29124WAT     H218302   2.652   4.368   5.452  0.6828 -0.3072 -0.6633
29124WAT    EPW18303   2.706   4.436   5.459  0.5581 -0.3355  0.7401
29125WAT      O18304   7.359   8.665   2.673 -0.9917  1.0447 -0.3858
29125WAT     H118305   7.448   8.690   2.647 -1.0554  2.2811  0.5055
29125WAT     H218306   7.339   8.589   2.617  1.9086 -1.5797  1.7439
29125WAT    EPW18307   7.368   8.658   2.662 -0.6175  0.8621  0.0128
29126WAT      O18308   8.214   8.689   2.413  0.3907  0.2823  0.2145
29126WAT     H118309   8.126   8.679   2.378  0.4281 -2.4984  0.7464
29126WAT     H218310   8.219   8.628   2.487  2.3871  1.2556  0.9767
29126WAT    EPW18311   8.203   8.680   2.418  0.6590  0.0443  0.3852
29127WAT      O18312   8.623   0.702   0.016 -0.3242 -0.1362 -0.3400
29127WAT     H118313   8.701   0.733   0.061  0.4660 -0.4061 -1.4988
29127WAT     H218314   8.551   0.747   0.060  0.3096 -1.1395  1.8480
29127WAT    EPW18315   8.623   0.712   0.028 -0.1364 -0.3042 -0.2043
29128WAT      O18316   7.156   6.673   1.799 -0.2038  0.0790 -0.1734
29128WAT     H118317   7.170   6.592   1.751  2.5689  0.0001  0.5796
29128WAT     H218318   7.110   6.646   1.879 -1.3544 -0.3665 -0.9729
29128WAT    EPW18319   7.152   6.659   1.803  0.0103  0.0095 -0.1795
29129WAT      O18320   0.440   5.280   7.970  0.1806 -0.7107 -0.7008
29129WAT     H118321   0.415   5.366   8.006  1.3530  0.1434 -1.8180
29129WAT     H218322   0.518   5.255   8.020  0.0312 -0.9624 -0.5957
29129WAT    EPW18323   0.447   5.288   7.981  0.3156 -0.6311 -0.8345
29130WAT      O18324   6.462  10.101   1.892  0.3934  0.0323  0.3028
29130WAT     H118325   6.386  10.052   1.923  0.5015  0.8473  1.9399
29130WAT     H218326   6.504  10.133   1.971  0.4629  2.5870 -0.6745
29130WAT    EPW18327   6.457  10.099   1.906  0.4165  0.4768  0.3899
29131WAT      O18328   9.145   7.396   1.335 -0.1866  0.2041 -0.8377
29131WAT     H118329   9.087   7.319   1.331 -1.4170  1.1153 -1.0483
29131WAT     H218330   9.233   7.360   1.322 -0.6431 -1.2706 -0.0883
29131WAT    EPW18331   9.149   7.381   1.332 -0.4091  0.1297 -0.7666
29132WAT      O18332  10.282   0.698   4.750 -0.4513  1.1440 -0.4970
29132WAT     H118333  10.353   0.635   4.744 -1.4970 -0.1620  0.3590
29132WAT     H218334  10.247   0.687   4.839 -0.6425  2.9687 -0.2911
29132WAT    EPW18335  10.287   0.688   4.761 -0.6151  1.2124 -0.3567
29133WAT      O18336   1.247   7.340   2.076  0.3327 -0.9856  0.6017
29133WAT     H118337   1.278   7.356   1.987 -2.0525  1.9363  0.1023
29133WAT     H218338   1.188   7.265   2.068 -1.0381  0.1498 -0.7162
29133WAT    EPW18339   1.243   7.332   2.064 -0.1627 -0.4506  0.3620
29134WAT      O18340   6.796   6.802   0.946  0.1225  0.7789 -0.1969
29134WAT     H118341   6.779   6.741   0.874  2.8895 -1.3162  0.7488
29134WAT     H218342   6.786   6.889   0.907  0.8626 -0.2814 -2.9398
29134WAT    EPW18343   6.792   6.806   0.931  0.5851  0.3626 -0.4339
29135WAT      O18344   7.984   6.284   5.407  0.1312 -0.3616 -0.6017
29135WAT     H118345   7.965   6.338   5.484  0.3883  0.0325 -0.8101
29135WAT     H218346   8.053   6.224   5.437  2.3677  1.7005 -1.2954
29135WAT    EPW18347   7.991   6.283   5.421  0.4601 -0.0374 -0.7205
29136WAT      O18348   4.159   3.090   8.523 -0.5930 -0.8787 -0.6942
29136WAT     H118349   4.131   3.004   8.554  0.3944 -0.4604  1.5156
29136WAT     H218350   4.192   3.074   8.434  0.6248 -2.9901  0.0829
29136WAT    EPW18351   4.160   3.077   8.515 -0.3021 -1.1020 -0.3004
29137WAT      O18352   8.405   7.728   3.557 -0.3408  0.1408  0.1012
29137WAT     H118353   8.365   7.804   3.514 -0.3014 -0.9755 -2.0678
29137WAT     H218354   8.330   7.673   3.581 -0.2992 -0.0724 -0.2435
29137WAT    EPW18355   8.390   7.731   3.554 -0.3300 -0.0348 -0.2303
29138WAT      O18356  10.048   2.360   5.783 -0.5923  0.1915  0.1873
29138WAT     H118357   9.953   2.359   5.787 -0.7000  1.3313 -1.2895
29138WAT     H218358  10.074   2.268   5.782 -1.8857 -0.2588 -3.0111
29138WAT    EPW18359  10.039   2.348   5.784 -0.7768  0.2823 -0.4296
29139WAT      O18360   2.318   1.742   6.117  0.0981 -0.1520 -0.1882
29139WAT     H118361   2.412   1.725   6.114  0.5202  1.8080  0.1440
29139WAT     H218362   2.281   1.668   6.165  1.6428 -0.3681  0.7229
29139WAT    EPW18363   2.325   1.730   6.123  0.3575  0.0780 -0.0241
29140WAT      O18364   9.472   6.775   1.498 -0.5593 -0.8229 -0.1082
29140WAT     H118365   9.503   6.865   1.506  1.1242 -1.4275  0.8512
29140WAT     H218366   9.530   6.736   1.432 -1.3122 -1.2023 -0.5611
29140WAT    EPW18367   9.484   6.781   1.490 -0.4363 -0.9525 -0.0414
29141WAT      O18368   7.474  10.265   3.453 -0.2940  0.4956 -0.1475
29141WAT     H118369   7.442  10.197   3.513 -0.2326 -0.4716 -1.1652
29141WAT     H218370   7.566  10.276   3.476 -0.3816  0.4562  0.2293
29141WAT    EPW18371   7.482  10.257   3.464 -0.2975  0.3624 -0.2321
29142WAT      O18372   7.477   8.690   3.926  0.3564 -0.2240 -0.0746
29142WAT     H118373   7.480   8.711   4.019 -0.7636  1.7735 -0.4227
29142WAT     H218374   7.459   8.596   3.923  2.9977 -0.8881  1.6668
29142WAT    EPW18375   7.475   8.680   3.938  0.5574 -0.0482  0.1092
29143WAT      O18376   4.101   5.871   1.220 -0.1433  0.6052 -0.1632
29143WAT     H118377   4.185   5.883   1.264  0.6201 -0.4641 -1.2648
29143WAT     H218378   4.047   5.826   1.285 -0.0093  1.6266  0.6814
29143WAT    EPW18379   4.105   5.866   1.235 -0.0250  0.5991 -0.1971
29144WAT      O18380   5.413   9.208   1.968  0.3950  0.0509 -0.1980
29144WAT     H118381   5.499   9.234   1.934 -0.1770 -0.2487 -2.0124
29144WAT     H218382   5.411   9.242   2.057  2.2694  0.3408 -0.2169
29144WAT    EPW18383   5.424   9.216   1.975  0.5667  0.0496 -0.4399
29145WAT      O18384   1.404   2.248   8.085 -0.5429 -0.2629  0.6835
29145WAT     H118385   1.497   2.246   8.059  0.1979  2.0640  2.7939
29145WAT     H218386   1.398   2.185   8.156 -0.7145 -0.7312  0.2625
29145WAT    EPW18387   1.415   2.239   8.091 -0.4679 -0.0178  0.9065
29146WAT      O18388   6.945   5.470   5.493  0.6441  0.3939 -0.0224
29146WAT     H118389   6.872   5.532   5.488  0.9647  1.3692  4.2724
29146WAT     H218390   7.017   5.520   5.531  1.5456 -2.0860  1.7619
29146WAT    EPW18391   6.945   5.484   5.497  0.8054  0.1955  0.7794
29147WAT      O18392   4.259   3.496   7.306 -0.4245  0.4715 -0.6475
29147WAT     H118393   4.353   3.509   7.312 -0.4478  0.5901 -0.5474
29147WAT     H218394   4.249   3.424   7.243 -0.2988  0.9360 -1.1991
29147WAT    EPW18395   4.270   3.488   7.298 -0.4110  0.5485 -0.7071
29148WAT      O18396   4.167   4.564   8.977 -0.1668  0.0695 -0.0474
29148WAT     H118397   4.252   4.547   9.017 -1.1115 -0.3606  1.8617
29148WAT     H218398   4.163   4.504   8.902  0.8501 -0.4940  0.3364
29148WAT    EPW18399   4.178   4.554   8.972 -0.1574 -0.0615  0.2551
29149WAT      O18400   8.096   8.418   2.887 -0.2752  0.0735 -0.6303
29149WAT     H118401   8.017   8.433   2.939 -0.2866 -1.4931 -0.1598
29149WAT     H218402   8.147   8.355   2.937  1.4492  1.3063 -0.7818
29149WAT    EPW18403   8.092   8.412   2.900 -0.0491  0.0300 -0.5883
29150WAT      O18404   4.523   7.888   2.643 -0.3818 -0.1847 -0.4907
29150WAT     H118405   4.489   7.849   2.724 -1.9851 -1.5460 -1.7561
29150WAT     H218406   4.617   7.898   2.660 -0.9878  2.1257  2.5156
29150WAT    EPW18407   4.531   7.884   2.656 -0.6731 -0.0596 -0.2609
29151WAT      O18408   8.264   9.994   2.539  0.2109 -0.5135 -0.2909
29151WAT     H118409   8.315   9.969   2.616  1.5255  0.9432 -0.6304
29151WAT     H218410   8.280   9.924   2.476  0.5150 -0.8513  0.1502
29151WAT    EPW18411   8.273   9.982   2.541  0.4239 -0.3662 -0.2775
29152WAT      O18412   3.914   1.306   1.580  0.1752 -0.4639  0.4779
29152WAT     H118413   3.932   1.394   1.549 -2.0402 -0.1908 -0.2065
29152WAT     H218414   4.000   1.267   1.592  1.1928  1.4791 -0.0730
29152WAT    EPW18415   3.928   1.312   1.578  0.0172 -0.1717  0.3150
29153WAT      O18416   0.822   2.344   1.910  0.5620  0.1728  0.8895
29153WAT     H118417   0.881   2.406   1.868  0.5908  0.0432  0.7338
29153WAT     H218418   0.785   2.293   1.837 -2.4993  2.5732  0.5420
29153WAT    EPW18419   0.825   2.345   1.895  0.1620  0.4723  0.8232
29154WAT      O18420   4.659   9.533   2.428 -0.9348  0.2191 -0.2283
29154WAT     H118421   4.698   9.614   2.395 -0.5817  0.2661  0.3072
29154WAT     H218422   4.597   9.562   2.496  1.5665 -0.1067  2.3594
29154WAT    EPW18423   4.656   9.548   2.432 -0.5584  0.1826  0.1837
29155WAT      O18424   8.462   0.788   0.626 -0.4792 -0.4737  0.0996
29155WAT     H118425   8.375   0.765   0.658  0.9717 -1.8583  3.4598
29155WAT     H218426   8.517   0.789   0.704  2.4091  1.1817 -1.7744
29155WAT    EPW18427   8.457   0.785   0.640  0.0925 -0.4380  0.2956
29156WAT      O18428   5.896   8.549   0.711 -0.1650 -0.1002  0.4210
29156WAT     H118429   5.972   8.497   0.738  0.4920  0.9314  0.6264
29156WAT     H218430   5.934   8.631   0.680 -1.2150  0.4857  0.6709
29156WAT    EPW18431   5.911   8.553   0.711 -0.2167  0.1130  0.4811
29157WAT      O18432   8.028   8.038   2.248 -0.0766 -0.0028 -0.3712
29157WAT     H118433   8.098   8.093   2.284  0.0887 -1.1984  1.2383
29157WAT     H218434   8.068   7.997   2.172  0.7524 -0.1111  0.1089
29157WAT    EPW18435   8.043   8.040   2.243  0.0548 -0.1750 -0.0956
29158WAT      O18436   5.736   8.398   2.011 -0.1453 -0.0805  0.4095
29158WAT     H118437   5.718   8.439   1.927  1.3057  0.6146  0.4051
29158WAT     H218438   5.680   8.320   2.012 -0.0671 -0.1965 -1.2531
29158WAT    EPW18439   5.726   8.393   2.000  0.0563 -0.0043  0.1895
29159WAT      O18440   8.328   2.293   2.102 -0.4844 -0.2747 -0.1425
29159WAT     H118441   8.350   2.348   2.177 -0.5857 -0.1916 -0.1751
29159WAT     H218442   8.235   2.275   2.112 -0.5708  0.0177 -0.4368
29159WAT    EPW18443   8.319   2.298   2.113 -0.5093 -0.2253 -0.1856
29160WAT      O18444   1.404   2.167   8.928 -0.0321  0.0806 -0.5910
29160WAT     H118445   1.344   2.225   8.976  1.2530 -1.6284  3.5491
29160WAT     H218446   1.349   2.094   8.899 -0.5992  0.3753 -0.2757
29160WAT    EPW18447   1.389   2.165   8.930  0.0626 -0.1057 -0.0033
29161WAT      O18448   2.247   1.074   2.803  0.4415 -0.6064 -0.1113
29161WAT     H118449   2.293   1.153   2.830  0.0266 -0.4591  0.1593
29161WAT     H218450   2.206   1.097   2.720  0.3795 -0.5630 -0.0680
29161WAT    EPW18451   2.248   1.087   2.795  0.3785 -0.5813 -0.0697
29162WAT      O18452   7.051   8.486   1.222  0.0355 -0.0482  0.1128
29162WAT     H118453   7.097   8.412   1.261  0.5717  0.7506  1.0764
29162WAT     H218454   7.111   8.560   1.235 -0.8535  0.7196 -0.0310
29162WAT    EPW18455   7.065   8.486   1.229 -0.0112  0.1588  0.2210
29163WAT      O18456   6.292   3.018   8.259 -0.3921 -0.1097 -0.0256
29163WAT     H118457   6.257   3.087   8.202  1.7396  0.7780 -0.3650
29163WAT     H218458   6.241   3.024   8.339 -1.4369  0.6531 -0.7284
29163WAT    EPW18459   6.281   3.028   8.262 -0.2487  0.1080 -0.1636
29164WAT      O18460   5.936   9.809   1.867  0.1075 -0.6688 -0.0658
29164WAT     H118461   5.878   9.885   1.861 -1.5213 -1.9862 -2.7903
29164WAT     H218462   5.906   9.761   1.944 -1.8549 -0.8046 -0.8688
29164WAT    EPW18463   5.925   9.813   1.876 -0.3662 -0.8602 -0.5310
29165WAT      O18464   6.329   8.291   0.666 -0.0266 -0.8398 -0.0903
29165WAT     H118465   6.364   8.261   0.750  3.1587 -0.2556 -1.0861
29165WAT     H218466   6.381   8.243   0.601 -3.0815 -2.0522 -1.8359
29165WAT    EPW18467   6.341   8.280   0.668 -0.0093 -0.9222 -0.4518
29166WAT      O18468   0.403   3.454   8.652 -0.1673  0.2646 -0.1353
29166WAT     H118469   0.399   3.520   8.583 -2.6931  2.2544  1.7106
29166WAT     H218470   0.463   3.490   8.716 -0.0542 -0.1813  0.0126
29166WAT    EPW18471   0.410   3.467   8.651 -0.4855  0.4681  0.1278
29167WAT      O18472   6.470   8.651   4.235  0.1301 -0.4915 -0.3092
29167WAT     H118473   6.422   8.572   4.260 -0.1930 -0.3830 -0.5748
29167WAT     H218474   6.474   8.703   4.315  1.8764 -1.5270  0.3515
29167WAT    EPW18475   6.464   8.647   4.249  0.3178 -0.6142 -0.2570
29168WAT      O18476   1.418   0.097   8.825  0.8170 -0.1115 -0.2953
29168WAT     H118477   1.455   0.091   8.914  3.1752  2.1282 -0.9957
29168WAT     H218478   1.484   0.054   8.770 -0.3019 -0.8583 -1.0852
29168WAT    EPW18479   1.432   0.090   8.830  0.9804  0.0854 -0.4916
29169WAT      O18480   7.579   8.214   2.390  0.1958  0.7462 -0.0275
29169WAT     H118481   7.537   8.133   2.421 -2.2058  2.3064  1.0877
29169WAT     H218482   7.561   8.278   2.458 -1.5981  3.2791 -2.6427
29169WAT    EPW18483   7.571   8.212   2.403 -0.3574  1.2856 -0.2253
29170WAT      O18484  10.702   0.100   5.613  0.5580  0.8935  0.2077
29170WAT     H118485  10.659   0.182   5.588 -0.4961  1.1648  2.6553
29170WAT     H218486  10.631   0.045   5.645  1.7363  0.7567  2.8611
29170WAT    EPW18487  10.687   0.104   5.614  0.5746  0.9112  0.8805
29171WAT      O18488   6.773   9.049   3.051 -0.2116  0.2051 -0.1762
29171WAT     H118489   6.779   8.953   3.058 -0.9936  0.2187  0.9392
29171WAT     H218490   6.839   9.072   2.986 -0.5723 -1.1691 -1.0724
29171WAT    EPW18491   6.783   9.039   3.044 -0.3624  0.0257 -0.1472
29172WAT      O18492   9.108  10.281   0.776  0.3823  0.2148  0.3331
29172WAT     H118493   9.085  10.373   0.762  0.1362 -0.1495 -2.2088
29172WAT     H218494   9.193  10.271   0.734 -0.5966 -1.1442 -1.4921
29172WAT    EPW18495   9.116  10.292   0.769  0.2208 -0.0129 -0.2429
29173WAT      O18496   2.601   0.642   4.248 -0.1018 -0.9891 -0.1975
29173WAT     H118497   2.556   0.725   4.232 -0.4120 -1.1503 -0.1713
29173WAT     H218498   2.666   0.637   4.179 -0.0361 -0.6904 -0.1585
29173WAT    EPW18499   2.603   0.653   4.237 -0.1342 -0.9709 -0.1891
29174WAT      O18500   9.714   3.001   1.854 -0.9353 -0.3249 -0.2209
29174WAT     H118501   9.655   2.928   1.837 -1.4545  0.1143 -0.3606
29174WAT     H218502   9.736   3.034   1.766 -1.0326 -0.0604 -0.1463
29174WAT    EPW18503   9.709   2.996   1.840 -1.0166 -0.2320 -0.2295
29175WAT      O18504   6.633   5.676   0.065  0.4863  0.1743  0.1047
29175WAT     H118505   6.709   5.636   0.108  0.3803 -0.9230 -0.6820
29175WAT     H218506   6.567   5.606   0.063 -0.6125  1.1555  0.9134
29175WAT    EPW18507   6.634   5.661   0.070  0.3273  0.1593  0.1076
29176WAT      O18508   5.970   7.765   2.498  0.6742 -0.8374  0.6791
29176WAT     H118509   5.885   7.740   2.463  0.5888  0.9826 -0.5768
29176WAT     H218510   5.971   7.861   2.490  2.6629 -0.7900  1.0717
29176WAT    EPW18511   5.959   7.775   2.493  0.9253 -0.5910  0.5652
29177WAT      O18512   3.236   3.183   7.171  0.6588 -0.4232  0.1076
29177WAT     H118513   3.277   3.227   7.097 -0.2255  0.4014  0.0846
29177WAT     H218514   3.257   3.091   7.160 -0.0010 -0.4105 -1.5400
29177WAT    EPW18515   3.244   3.177   7.160  0.4551 -0.3127 -0.1125
29178WAT      O18516   7.856   9.497   3.115  0.7444 -0.2902  0.0026
29178WAT     H118517   7.838   9.591   3.120 -1.1259 -0.6655  3.2015
29178WAT     H218518   7.942   9.491   3.073  1.2650  2.9003  0.3892
29178WAT    EPW18519   7.865   9.509   3.110  0.5665  0.0811  0.4756
29179WAT      O18520   4.520   9.493   1.181 -0.3161 -0.1394 -0.0153
29179WAT     H118521   4.589   9.457   1.237  0.5476 -0.7996 -1.4228
29179WAT     H218522   4.453   9.523   1.241  1.4354  1.0276  1.4633
29179WAT    EPW18523   4.520   9.492   1.196  0.0288 -0.0730 -0.0059
29180WAT      O18524   5.058   9.833   2.199 -0.0186  0.2813 -0.4762
29180WAT     H118525   5.003   9.910   2.186 -3.1550 -1.6322  0.4021
29180WAT     H218526   5.037   9.776   2.125 -2.3415 -2.0861  1.8120
29180WAT    EPW18527   5.048   9.836   2.187 -0.7389 -0.2832 -0.0584
29181WAT      O18528   5.719  10.180   2.915 -0.1023  0.3479 -0.2790
29181WAT     H118529   5.738  10.204   2.824  1.3712 -0.2503 -0.1571
29181WAT     H218530   5.804  10.184   2.959 -0.1777 -2.4593  0.3389
29181WAT    EPW18531   5.733  10.184   2.909  0.0823 -0.1016 -0.1813
29182WAT      O18532   0.846   2.086   8.754 -0.5697 -0.5653 -0.8009
29182WAT     H118533   0.825   2.005   8.801 -2.8591 -0.0451 -0.8144
29182WAT     H218534   0.932   2.111   8.788 -0.9853 -1.5807  1.2090
29182WAT    EPW18535   0.855   2.078   8.765 -0.9265 -0.6306 -0.5379
29183WAT      O18536   8.549   7.817   1.665  0.1828  0.1733  0.1485
29183WAT     H118537   8.573   7.731   1.632 -0.0089  0.3963 -0.5994
29183WAT     H218538   8.552   7.874   1.587 -1.9575  0.3720  0.1367
29183WAT    EPW18539   8.552   7.813   1.650 -0.1249  0.2289  0.0483
29184WAT      O18540   5.266   6.965   1.430 -0.8853  0.3648 -0.2110
29184WAT     H118541   5.245   7.015   1.509 -0.8285  0.6738 -0.3898
29184WAT     H218542   5.253   6.874   1.456 -0.5801  0.4446  0.2417
29184WAT    EPW18543   5.261   6.960   1.444 -0.8373  0.4160 -0.1748
29185WAT      O18544   6.799   7.366   6.166 -0.1374  0.2974 -0.3897
29185WAT     H118545   6.723   7.362   6.108 -0.9314  0.5901  0.6226
29185WAT     H218546   6.823   7.459   6.169 -2.1098  0.8293  2.2642
29185WAT    EPW18547   6.792   7.378   6.159 -0.5023  0.4063  0.0939
29186WAT      O18548   7.387   7.704   3.276  0.0144 -0.5269 -0.0449
29186WAT     H118549   7.333   7.746   3.210  1.3493 -2.1980 -2.3812
29186WAT     H218550   7.412   7.620   3.236  0.9793 -1.5961  2.5770
29186WAT    EPW18551   7.383   7.698   3.262  0.3181 -0.8883 -0.0073
29187WAT      O18552  10.025   2.349   3.123  0.5424  0.2077  0.0053
29187WAT     H118553  10.043   2.371   3.032  2.0614 -2.0230 -0.3138
29187WAT     H218554  10.076   2.412   3.174  1.0073  0.4346 -0.7203
29187WAT    EPW18555  10.034   2.360   3.118  0.8039 -0.0566 -0.1326
29188WAT      O18556   8.259   8.588   1.558 -0.0000 -0.6472  0.1245
29188WAT     H118557   8.248   8.503   1.516 -0.0061 -0.8916  0.6140
29188WAT     H218558   8.343   8.621   1.526  1.3609 -2.0710  2.0391
29188WAT    EPW18559   8.268   8.581   1.548  0.1783 -0.8669  0.4416
29189WAT      O18560   8.612   1.460   2.738 -0.4447  0.1301  0.4991
29189WAT     H118561   8.634   1.383   2.791  4.4185  1.0408  0.2866
29189WAT     H218562   8.602   1.427   2.649  1.5775 -0.3600  0.4148
29189WAT    EPW18563   8.613   1.446   2.734  0.4635  0.1855  0.4599
29190WAT      O18564   5.726   8.070   2.632  0.4747  0.3839  0.6452
29190WAT     H118565   5.701   8.145   2.577 -0.3346  1.5897  2.5506
29190WAT     H218566   5.699   7.993   2.582 -0.8895  1.4500 -0.3143
29190WAT    EPW18567   5.719   8.070   2.618  0.1879  0.6838  0.7700
29191WAT      O18568   1.340   6.057   8.780 -0.0647  0.8558  0.5608
29191WAT     H118569   1.380   6.036   8.864 -2.3918 -0.1977  1.4872
29191WAT     H218570   1.413   6.053   8.717  1.3138 -0.6664  2.1592
29191WAT    EPW18571   1.355   6.054   8.783 -0.1898  0.5159  0.8941
29192WAT      O18572   9.722   9.797   4.215 -0.2800 -0.2679 -0.8324
29192WAT     H118573   9.678   9.714   4.237 -2.0784  1.3095  2.1219
29192WAT     H218574   9.810   9.787   4.250 -0.6556 -0.7427  0.0065
29192WAT    EPW18575   9.728   9.784   4.223 -0.5670 -0.1225 -0.3319
29193WAT      O18576   6.731   7.011   0.781  0.2827 -0.2299  0.6536
29193WAT     H118577   6.736   6.985   0.689 -1.1195 -0.8416  0.7230
29193WAT     H218578   6.776   7.095   0.785 -0.2607  0.1478 -0.7396
29193WAT    EPW18579   6.737   7.019   0.770  0.0257 -0.2611  0.4790
29194WAT      O18580   6.890   0.724   2.977  0.6340  0.2152 -0.2283
29194WAT     H118581   6.858   0.648   2.930 -1.4022  1.7647 -1.5133
29194WAT     H218582   6.900   0.694   3.068 -0.2439 -1.5078 -0.6697
29194WAT    EPW18583   6.887   0.710   2.983  0.2496  0.1923 -0.4560
29195WAT      O18584   6.974   5.352   2.815 -0.5125  0.8851 -0.0337
29195WAT     H118585   7.061   5.344   2.855 -1.0925 -2.4112  0.8980
29195WAT     H218586   6.980   5.303   2.734 -1.7287 -0.3267  0.5686
29195WAT    EPW18587   6.987   5.345   2.810 -0.7496  0.2909  0.1686
29196WAT      O18588   8.377   5.791   2.287  0.3767 -0.0810  0.6555
29196WAT     H118589   8.343   5.712   2.329  0.7461 -2.6036 -3.1982
29196WAT     H218590   8.471   5.791   2.307  0.6953 -1.6871 -0.6158
29196WAT    EPW18591   8.385   5.780   2.295  0.4678 -0.6258 -0.0201
29197WAT      O18592   0.369   3.825   8.954 -0.0097  0.0953 -0.0648
29197WAT     H118593   0.295   3.766   8.966  0.9501 -0.8213  1.7473
29197WAT     H218594   0.388   3.858   9.042  0.9362  1.3254 -0.6934
29197WAT    EPW18595   0.362   3.822   8.967  0.2416  0.1366  0.0911
29198WAT      O18596   2.793   6.418   1.574  0.9652  0.0466 -0.2485
29198WAT     H118597   2.721   6.481   1.574  2.7785  2.2736  0.0138
29198WAT     H218598   2.814   6.406   1.667 -0.0316 -1.8357 -0.2294
29198WAT    EPW18599   2.787   6.425   1.587  1.0728  0.0920 -0.2113
29199WAT      O18600   4.687   7.126   5.119 -0.0341  0.2858  0.5128
29199WAT     H118601   4.723   7.153   5.034 -0.6324  1.2415  0.5459
29199WAT     H218602   4.629   7.052   5.098 -0.7019  0.9448 -0.0178
29199WAT    EPW18603   4.684   7.120   5.105 -0.2012  0.4988  0.4470
29200WAT      O18604   7.571   4.509   8.936  0.2967 -0.3374  0.5513
29200WAT     H118605   7.506   4.548   8.995  0.7639  1.8875 -0.2860
29200WAT     H218606   7.520   4.448   8.882 -0.5446 -0.7395  1.7466
29200WAT    EPW18607   7.555   4.506   8.937  0.2472 -0.0968  0.5989
29201WAT      O18608   1.986   4.560   8.917  0.6721  0.3027  0.2428
29201WAT     H118609   1.993   4.625   8.987  1.1880 -0.4404  0.8877
29201WAT     H218610   2.070   4.515   8.918  0.5240 -0.0071 -0.5794
29201WAT    EPW18611   1.998   4.563   8.926  0.7205  0.1636  0.2198
29202WAT      O18612   1.078   7.843   7.206 -0.2379  0.0756  0.2731
29202WAT     H118613   1.061   7.776   7.273  1.2832 -0.9464 -0.2887
29202WAT     H218614   0.998   7.846   7.153 -0.4127 -1.1622  0.4425
29202WAT    EPW18615   1.065   7.834   7.208 -0.0603 -0.2227  0.2215
29203WAT      O18616  10.174   9.780   2.311 -0.4411  0.3747  0.0593
29203WAT     H118617  10.116   9.857   2.316 -1.0790 -0.1237  0.4104
29203WAT     H218618  10.152   9.740   2.227 -1.0015 -0.1196  0.4360
29203WAT    EPW18619  10.163   9.785   2.301 -0.5989  0.2441  0.1553
29204WAT      O18620   6.360   9.846   3.497 -0.7383  0.5595 -0.2906
29204WAT     H118621   6.369   9.887   3.583  0.7155  0.6524 -0.4619
29204WAT     H218622   6.388   9.756   3.511  0.2263  0.7653 -0.8029
29204WAT    EPW18623   6.365   9.840   3.510 -0.4196  0.5989 -0.3809
29205WAT      O18624   8.874   7.713   2.666 -0.4774  0.4669 -0.1400
29205WAT     H118625   8.880   7.643   2.731 -0.7698  0.6001  0.0307
29205WAT     H218626   8.867   7.793   2.719  0.0567  0.6452 -0.3293
29205WAT    EPW18627   8.874   7.714   2.682 -0.4458  0.5078 -0.1423
29206WAT      O18628   7.217   8.783   4.869 -0.4963 -0.4390 -0.4737
29206WAT     H118629   7.152   8.822   4.928 -0.0960 -0.4461 -0.0240
29206WAT     H218630   7.275   8.855   4.846 -1.0109 -0.2918 -1.3711
29206WAT    EPW18631   7.216   8.797   4.874 -0.5114 -0.4201 -0.5326
29207WAT      O18632   2.295   5.555   8.439 -0.0541  0.7064 -0.3733
29207WAT     H118633   2.339   5.500   8.376 -0.3976  0.7349 -0.6373
29207WAT     H218634   2.239   5.612   8.387 -3.1194 -1.6385  0.0813
29207WAT    EPW18635   2.294   5.556   8.424 -0.5037  0.4010 -0.3476
29208WAT      O18636   5.233   5.017   1.133  0.0028 -0.0283  0.3147
29208WAT     H118637   5.255   5.036   1.042 -0.5591 -0.9184 -0.0171
29208WAT     H218638   5.178   5.091   1.160  1.4737  1.0664  0.4564
29208WAT    EPW18639   5.229   5.029   1.125  0.1225 -0.0014  0.2897
29209WAT      O18640   6.253   6.647   5.894  1.2463 -0.1998 -0.2857
29209WAT     H118641   6.284   6.583   5.830 -1.8367 -2.2269  0.0660
29209WAT     H218642   6.211   6.595   5.962 -4.7186  1.9719 -1.6855
29209WAT    EPW18643   6.252   6.632   5.895  0.0527 -0.1807 -0.4239
29210WAT      O18644   3.685   8.551   2.432  0.3665 -0.3271  0.0934
29210WAT     H118645   3.619   8.514   2.490  2.1821 -1.2933  1.6493
29210WAT     H218646   3.677   8.500   2.351 -1.2632  0.0942 -0.0352
29210WAT    EPW18647   3.675   8.539   2.429  0.3910 -0.3991  0.2816
29211WAT      O18648   9.055   0.181   0.266  0.0673  0.6117  0.0064
29211WAT     H118649   9.146   0.205   0.250  0.0303  0.7309 -0.0194
29211WAT     H218650   9.005   0.234   0.205  0.0322 -0.0160 -0.5254
29211WAT    EPW18651   9.060   0.191   0.256  0.0572  0.5446 -0.0671
29212WAT      O18652   2.612   1.478   4.829  0.0551  0.4258 -0.0146
29212WAT     H118653   2.520   1.451   4.828  0.0511  0.4471 -0.5323
29212WAT     H218654   2.652   1.420   4.893 -0.0164 -0.6458 -0.9023
29212WAT    EPW18655   2.605   1.467   4.837  0.0451  0.2873 -0.1996
29213WAT      O18656   8.086   8.792   5.093  0.0624  0.2316 -0.5453
29213WAT     H118657   8.065   8.710   5.138  0.7096 -0.3428 -1.2682
29213WAT     H218658   8.074   8.772   5.000 -1.6913  1.5292 -0.6364
29213WAT    EPW18659   8.082   8.778   5.086 -0.0834  0.3271 -0.6528
29214WAT      O18660   4.635   7.766   0.150 -0.5435 -0.1020 -0.1453
29214WAT     H118661   4.700   7.761   0.080  1.5045  0.5569  1.6021
29214WAT     H218662   4.580   7.689   0.137 -2.0187  1.3028 -4.0130
29214WAT    EPW18663   4.636   7.755   0.139 -0.4680  0.1698 -0.4249
29215WAT      O18664   8.632   0.283   1.119 -0.8505 -0.4033  0.1681
29215WAT     H118665   8.663   0.282   1.209 -2.8924 -0.1997  0.9149
29215WAT     H218666   8.631   0.375   1.094 -1.8626 -0.3025  0.5380
29215WAT    EPW18667   8.636   0.295   1.127 -1.2536 -0.3631  0.3154
29216WAT      O18668   5.598   9.950   0.145 -0.7052 -0.0579 -0.7406
29216WAT     H118669   5.615   9.867   0.191  0.0605  1.3456  1.7100
29216WAT     H218670   5.682   9.995   0.146 -1.5096  1.5058 -0.3534
29216WAT    EPW18671   5.611   9.945   0.152 -0.7102  0.3338 -0.3663
29217WAT      O18672   7.271   8.998   6.040  0.0045  0.2524  0.6408
29217WAT     H118673   7.197   9.035   6.087 -0.7825  1.5293 -1.4471
29217WAT     H218674   7.232   8.937   5.978  1.0013 -1.3658  1.5480
29217WAT    EPW18675   7.256   8.995   6.038  0.0319  0.2079  0.4852
29218WAT      O18676   5.146   2.582   0.021  0.2705  0.4047  0.5395
29218WAT     H118677   5.163   2.652  -0.041  1.2309 -1.5469 -1.5698
29218WAT     H218678   5.050   2.576   0.024  0.1939  0.3960 -1.0111
29218WAT    EPW18679   5.135   2.590   0.013  0.3872  0.1462  0.0567
29219WAT      O18680   6.107   8.119   1.563 -0.0432 -0.1234 -0.4504
29219WAT     H118681   6.060   8.179   1.621 -2.7546 -0.8082 -1.7818
29219WAT     H218682   6.102   8.034   1.607 -1.0743 -0.4076 -1.0742
29219WAT    EPW18683   6.100   8.116   1.576 -0.5369 -0.2508 -0.7083
29220WAT      O18684   6.212   6.238   8.878 -0.2215  0.0197  0.4965
29220WAT     H118685   6.129   6.285   8.864  0.0377  0.3174 -0.0785
29220WAT     H218686   6.253   6.236   8.791  0.3048 -0.2610  0.7484
29220WAT    EPW18687   6.206   6.244   8.864 -0.1178  0.0215  0.4539
29221WAT      O18688   7.639   1.098   0.892  0.1695  0.4373  0.4245
29221WAT     H118689   7.608   1.182   0.927 -1.7789 -0.6807  1.6014
29221WAT     H218690   7.599   1.093   0.805 -2.5681 -0.6246  1.6149
29221WAT    EPW18691   7.629   1.109   0.885 -0.4485  0.1498  0.7367
29222WAT      O18692   1.410   0.476   1.677 -0.5810 -0.4233 -0.8103
29222WAT     H118693   1.350   0.523   1.735  1.1765  2.1644 -0.8923
29222WAT     H218694   1.442   0.403   1.730 -0.0494  1.0791  1.0789
29222WAT    EPW18695   1.407   0.473   1.692 -0.2791  0.1162 -0.5719
29223WAT      O18696   8.127   7.094   3.762 -0.0589  0.3618 -0.3772
29223WAT     H118697   8.191   7.070   3.829 -0.6898 -0.0674  0.0961
29223WAT     H218698   8.178   7.131   3.691  0.6040  1.4353  0.6034
29223WAT    EPW18699   8.142   7.096   3.762 -0.0548  0.4466 -0.1854
29224WAT      O18700   1.834   0.787   4.537  0.1872  0.4436  0.2093
29224WAT     H118701   1.768   0.828   4.481  0.9486  1.8668  0.3045
29224WAT     H218702   1.827   0.832   4.621 -0.6816 -1.4182  1.1817
29224WAT    EPW18703   1.825   0.798   4.540  0.1730  0.3858  0.3502
29225WAT      O18704   8.778   1.061   0.666 -0.7612 -0.6909 -0.1597
29225WAT     H118705   8.776   1.049   0.571 -2.4567  0.6997 -0.3581
29225WAT     H218706   8.813   1.149   0.678 -0.2064 -1.0006  0.5346
29225WAT    EPW18707   8.782   1.071   0.655 -0.9112 -0.5484 -0.0943
29226WAT      O18708   2.446   0.255   2.775 -0.2380 -0.3125  0.2075
29226WAT     H118709   2.483   0.343   2.774 -0.7631 -0.0906 -0.8352
29226WAT     H218710   2.436   0.235   2.868 -2.4875  1.7711  0.5178
29226WAT    EPW18711   2.449   0.264   2.787 -0.6039 -0.0084  0.1109
29227WAT      O18712   7.281   8.177   1.767 -0.5444  0.2483  0.9549
29227WAT     H118713   7.303   8.090   1.802 -0.6248  0.8881  2.6615
29227WAT     H218714   7.210   8.160   1.705  0.8571 -1.1476 -0.3935
29227WAT    EPW18715   7.275   8.163   1.763 -0.3698  0.1488  1.0022
29228WAT      O18716   6.391   8.983   2.545 -0.5107  0.2387  0.6938
29228WAT     H118717   6.340   9.025   2.614 -0.5387  1.2301  0.0889
29228WAT     H218718   6.363   9.027   2.465 -0.6753 -1.0775  0.0097
29228WAT    EPW18719   6.381   8.994   2.544 -0.5357  0.1965  0.5238
29229WAT      O18720   8.851   9.287   3.407  0.0611  0.7170 -0.2767
29229WAT     H118721   8.855   9.381   3.389  1.4655  0.6940 -0.2150
29229WAT     H218722   8.912   9.275   3.479  0.3523 -0.3359 -0.6908
29229WAT    EPW18723   8.859   9.298   3.414  0.2847  0.5755 -0.3232
29230WAT      O18724   6.527   6.351   8.473 -0.8158 -0.1972  0.4456
29230WAT     H118725   6.473   6.301   8.412  0.5290 -0.2687 -0.7454
29230WAT     H218726   6.570   6.417   8.419  0.2691 -0.1462  1.3271
29230WAT    EPW18727   6.526   6.353   8.458 -0.4952 -0.2000  0.4048
29231WAT      O18728   4.617   6.800   2.206 -0.1694  0.2329  0.1566
29231WAT     H118729   4.695   6.778   2.257 -1.1869  0.6110  1.9213
29231WAT     H218730   4.618   6.895   2.201 -1.1150  0.3157  1.2058
29231WAT    EPW18731   4.627   6.809   2.212 -0.4284  0.2937  0.5276
29232WAT      O18732   5.568   9.572   7.386 -0.1660 -0.7968 -0.3103
29232WAT     H118733   5.475   9.551   7.375 -0.7241  1.7090 -1.1313
29232WAT     H218734   5.574   9.607   7.475 -0.2046 -0.1515 -0.5561
29232WAT    EPW18735   5.557   9.574   7.396 -0.2446 -0.3815 -0.4511
29233WAT      O18736   0.516   3.485   1.644  0.5374  0.0796 -0.2006
29233WAT     H118737   0.469   3.473   1.726  1.8624 -0.1656  0.5486
29233WAT     H218738   0.559   3.401   1.628  0.1969  0.0897 -1.2140
29233WAT    EPW18739   0.516   3.473   1.653  0.6673  0.0485 -0.2354
29234WAT      O18740   2.356   3.219   0.029  0.1064  0.3832 -0.0093
29234WAT     H118741   2.308   3.182   0.103  1.7099 -1.1265  0.3429
29234WAT     H218742   2.446   3.190   0.042  0.6363  0.9902 -1.9809
29234WAT    EPW18743   2.362   3.210   0.040  0.3878  0.2642 -0.2229
29235WAT      O18744   4.155   1.946   0.844 -0.1654 -0.0078  0.3208
29235WAT     H118745   4.162   2.041   0.850 -0.6550  0.3090 -2.5783
29235WAT     H218746   4.236   1.919   0.801 -0.9718 -0.5856 -0.9031
29235WAT    EPW18747   4.166   1.955   0.839 -0.3364 -0.0421 -0.2230
29236WAT      O18748   4.647   5.453   2.678 -0.4452 -0.3646 -0.3435
29236WAT     H118749   4.727   5.466   2.729  0.3960 -2.6306 -1.0032
29236WAT     H218750   4.602   5.538   2.683  0.1511 -0.1217  3.1225
29236WAT    EPW18751   4.651   5.466   2.685 -0.2556 -0.6316  0.0267
29237WAT      O18752   1.253   4.744   2.334  0.2995 -0.8451  0.6496
29237WAT     H118753   1.310   4.817   2.311  0.2709 -0.6513  1.1697
29237WAT     H218754   1.308   4.684   2.384  0.2021 -0.9474  0.6361
29237WAT    EPW18755   1.268   4.746   2.338  0.2828 -0.8330  0.7163
29238WAT      O18756   9.971   7.445   7.822  0.0656  0.2558  0.2025
29238WAT     H118757  10.062   7.431   7.850  0.4864 -0.4786 -1.3612
29238WAT     H218758   9.935   7.356   7.815 -1.2442  0.5752  2.1060
29238WAT    EPW18759   9.978   7.431   7.825 -0.0515  0.2010  0.2472
29239WAT      O18760  10.871   5.592   5.279  0.1969 -0.7198 -0.0607
29239WAT     H118761  10.943   5.534   5.303  2.0294  0.4681 -2.2556
29239WAT     H218762  10.909   5.680   5.283 -2.4758  0.4877  3.1075
29239WAT    EPW18763  10.886   5.596   5.283  0.0863 -0.4039  0.0679
29240WAT      O18764   3.806   4.263   3.046  0.3522  0.0598  0.3609
29240WAT     H118765   3.780   4.174   3.069 -0.0926  0.2589  0.6431
29240WAT     H218766   3.882   4.252   2.988  0.4631 -0.4910  0.6059
29240WAT    EPW18767   3.813   4.250   3.041  0.3082  0.0134  0.4306
29241WAT      O18768   5.524   5.946   2.647  0.1484  0.4910 -0.3380
29241WAT     H118769   5.557   6.014   2.706  1.8569  1.1958 -2.0197
29241WAT     H218770   5.575   5.868   2.669  0.7154  0.7280 -0.7859
29241WAT    EPW18771   5.535   5.945   2.658  0.4482  0.6154 -0.6187
29242WAT      O18772   1.579   0.312   7.876 -0.4538 -1.1454  0.5370
29242WAT     H118773   1.536   0.229   7.896 -0.5833 -0.5805  2.7855
29242WAT     H218774   1.573   0.363   7.956 -2.2282  1.9041 -1.3102
29242WAT    EPW18775   1.572   0.308   7.889 -0.7049 -0.6687  0.5898
29243WAT      O18776   5.985   3.919   2.009 -0.6824 -0.4809  0.6474
29243WAT     H118777   6.036   3.849   1.968  2.9314  2.7627 -0.9190
29243WAT     H218778   5.968   3.887   2.098  1.6491 -2.9456  0.3217
29243WAT    EPW18779   5.989   3.905   2.016  0.1020 -0.3781  0.3979
29244WAT      O18780   6.192   4.825   7.965  0.0858 -0.5526  0.2308
29244WAT     H118781   6.099   4.800   7.961  0.6113 -2.5234 -1.0103
29244WAT     H218782   6.216   4.841   7.874  0.8191  0.5951  0.6100
29244WAT    EPW18783   6.183   4.824   7.953  0.2518 -0.6609  0.1168
29245WAT      O18784   7.356   1.579   5.241 -0.4142 -0.2408  0.1119
29245WAT     H118785   7.376   1.593   5.148  0.5191 -0.7439  0.2217
29245WAT     H218786   7.262   1.595   5.248 -0.5753 -0.5924 -0.9965
29245WAT    EPW18787   7.346   1.583   5.230 -0.3123 -0.3535 -0.0196
29246WAT      O18788   7.162   8.463   6.773  0.4192  0.5734 -0.6391
29246WAT     H118789   7.207   8.547   6.768  2.8268 -0.1148  3.8968
29246WAT     H218790   7.094   8.476   6.839  0.7077 -0.9305  0.0082
29246WAT    EPW18791   7.159   8.476   6.781  0.7749  0.2842  0.0443
29247WAT      O18792   6.681   8.545   8.917 -0.0841 -0.2756 -0.3977
29247WAT     H118793   6.765   8.521   8.956  0.0897 -0.1543 -0.6949
29247WAT     H218794   6.683   8.641   8.915  0.6591 -0.2894 -2.3112
29247WAT    EPW18795   6.693   8.555   8.922  0.0367 -0.2623 -0.6895
29248WAT      O18796   4.296   3.619   0.895 -0.9661  0.0032  0.3346
29248WAT     H118797   4.236   3.549   0.871 -2.6031  2.0713 -2.1931
29248WAT     H218798   4.305   3.672   0.816  2.5322  1.0678  1.2521
29248WAT    EPW18799   4.289   3.617   0.882 -0.7210  0.4164  0.1222
29249WAT      O18800   5.813   7.146   7.288 -0.5455  0.6142 -0.1004
29249WAT     H118801   5.795   7.153   7.382 -0.3966  1.1502 -0.1074
29249WAT     H218802   5.908   7.156   7.282 -0.4308 -0.5014 -0.2143
29249WAT    EPW18803   5.823   7.149   7.300 -0.5105  0.5376 -0.1163
29250WAT      O18804   1.596   4.721   5.010  0.0045 -0.2969 -0.3425
29250WAT     H118805   1.534   4.794   5.017  0.9126  0.5030 -0.5845
29250WAT     H218806   1.606   4.689   5.099  0.0715  0.2639 -0.1502
29250WAT    EPW18807   1.589   4.726   5.022  0.1331 -0.1171 -0.3490
29251WAT      O18808   5.208   1.190   0.117 -0.3807  0.1441 -0.5899
29251WAT     H118809   5.159   1.210   0.038 -1.2277 -1.3148 -0.4711
29251WAT     H218810   5.162   1.237   0.187 -1.0356 -0.4384 -0.6253
29251WAT    EPW18811   5.196   1.199   0.116 -0.5784 -0.1251 -0.5789
29252WAT      O18812   1.953   3.737   0.333 -0.0322  0.4497  0.7491
29252WAT     H118813   1.975   3.648   0.361  0.0290  0.5133  0.9023
29252WAT     H218814   1.925   3.781   0.413 -1.0358  0.2773  0.5084
29252WAT    EPW18815   1.952   3.731   0.347 -0.1565  0.4354  0.7375
29253WAT      O18816   2.937   4.252   0.829 -0.0075  0.1942  0.9680
29253WAT     H118817   3.008   4.189   0.835 -0.9687 -0.8476  1.9139
29253WAT     H218818   2.963   4.323   0.887  1.0784  0.6868 -0.0943
29253WAT    EPW18819   2.950   4.253   0.838  0.0091  0.1214  0.9526
29254WAT      O18820   7.896   0.422   6.337 -0.8553  0.5216 -0.4764
29254WAT     H118821   7.849   0.463   6.265  2.9761 -0.5803 -3.9799
29254WAT     H218822   7.872   0.329   6.332 -1.5290  0.6217  0.5687
29254WAT    EPW18823   7.887   0.415   6.327 -0.4389  0.3895 -0.8006
29255WAT      O18824   8.014   9.658   7.714  0.3344  0.6602 -0.1269
29255WAT     H118825   8.064   9.707   7.780  1.8895 -0.5810 -0.3261
29255WAT     H218826   8.045   9.568   7.722 -1.7767 -0.1616 -0.4019
29255WAT    EPW18827   8.025   9.652   7.724  0.2613  0.3886 -0.1893
29256WAT      O18828   7.415   5.874   2.121 -0.4083 -0.6480  0.1792
29256WAT     H118829   7.489   5.905   2.173  1.1276 -1.9152 -1.1531
29256WAT     H218830   7.373   5.809   2.177  1.7142 -2.6013 -0.3285
29256WAT    EPW18831   7.419   5.869   2.135  0.0741 -1.0726 -0.0634
29257WAT      O18832   4.822   4.701   0.511 -0.2998 -0.3581 -0.1308
29257WAT     H118833   4.743   4.658   0.543  0.9802 -3.2476 -0.5877
29257WAT     H218834   4.844   4.654   0.431  0.2306  2.4149 -1.7529
29257WAT    EPW18835   4.815   4.689   0.505 -0.0610 -0.3731 -0.4050
29258WAT      O18836   3.812   6.695   3.955 -0.0528 -0.2186  0.1343
29258WAT     H118837   3.765   6.707   4.038  1.4122 -1.8790  1.2801
29258WAT     H218838   3.767   6.622   3.912 -0.3691  0.1726 -0.2044
29258WAT    EPW18839   3.800   6.687   3.960  0.0987 -0.3862  0.2409
29259WAT      O18840   8.136   0.572   4.304 -0.1343 -0.1370  0.6102
29259WAT     H118841   8.165   0.501   4.362  1.0028 -0.7038 -0.5930
29259WAT     H218842   8.176   0.551   4.219 -1.7902  0.6299 -0.4083
29259WAT    EPW18843   8.145   0.560   4.300 -0.2027 -0.1106  0.3171
29260WAT      O18844   5.803   4.242   2.170 -0.1045  0.8673  0.4976
29260WAT     H118845   5.897   4.230   2.161  0.0210  1.3065  1.1724
29260WAT     H218846   5.781   4.307   2.103 -0.1416 -0.1338 -0.4890
29260WAT    EPW18847   5.812   4.249   2.160 -0.0930  0.7930  0.4566
29261WAT      O18848   5.292   2.520   1.494  0.2325 -0.4276  0.3308
29261WAT     H118849   5.287   2.504   1.400  0.5521 -0.0969  0.2547
29261WAT     H218850   5.367   2.468   1.523  0.6437  0.1205  0.2580
29261WAT    EPW18851   5.301   2.511   1.485  0.3288 -0.3116  0.3111
29262WAT      O18852   5.245   0.808   1.601  0.1061  0.3449 -0.1809
29262WAT     H118853   5.155   0.825   1.629 -0.1988 -1.2935 -0.0787
29262WAT     H218854   5.242   0.816   1.506 -0.3300 -0.4343 -0.2404
29262WAT    EPW18855   5.233   0.812   1.593  0.0083  0.0260 -0.1753
29263WAT      O18856   6.556   1.605   3.298 -0.2710 -0.8637  0.2681
29263WAT     H118857   6.646   1.631   3.316 -0.7050 -0.6901  2.4376
29263WAT     H218858   6.563   1.545   3.224  1.6902 -1.3097  0.7615
29263WAT    EPW18859   6.569   1.601   3.291 -0.0696 -0.8997  0.6194
29264WAT      O18860   0.271   7.756   8.142  0.5275  0.6873  0.7233
29264WAT     H118861   0.337   7.699   8.103 -0.3958  0.9134 -1.2951
29264WAT     H218862   0.192   7.741   8.089 -0.4367  2.0121  1.7037
29264WAT    EPW18863   0.269   7.746   8.130  0.2786  0.8919  0.5856
29265WAT      O18864   6.411   9.642   7.838 -0.5588  0.0986 -0.4137
29265WAT     H118865   6.321   9.664   7.859 -0.2561  2.4711 -1.3124
29265WAT     H218866   6.406   9.604   7.750 -0.6644  0.2998 -0.4936
29265WAT    EPW18867   6.399   9.640   7.829 -0.5326  0.4382 -0.5429
29266WAT      O18868   2.466   6.216   2.283 -0.4504  0.0559 -0.2440
29266WAT     H118869   2.391   6.273   2.270 -1.1885 -0.4512  1.5126
29266WAT     H218870   2.431   6.140   2.329  1.2004  0.0648  1.1333
29266WAT    EPW18871   2.452   6.214   2.287 -0.3301 -0.0098  0.1693
29267WAT      O18872   1.334   3.408   0.923 -0.1458  0.3423  0.0463
29267WAT     H118873   1.273   3.428   0.994 -1.9923 -5.8711  0.8489
29267WAT     H218874   1.278   3.400   0.845  0.4736 -0.5016 -0.3320
29267WAT    EPW18875   1.318   3.409   0.922 -0.3076 -0.5884  0.1023
29268WAT      O18876   6.866   7.674   7.745 -0.2240  0.4787  0.2064
29268WAT     H118877   6.803   7.659   7.816  1.7342 -1.2037  1.7198
29268WAT     H218878   6.813   7.708   7.673 -2.6019  0.5441  1.8649
29268WAT    EPW18879   6.851   7.676   7.745 -0.2792  0.2654  0.6249
29269WAT      O18880   3.968   6.912   1.859 -0.5683  0.4835 -0.3544
29269WAT     H118881   3.957   7.004   1.838 -1.0840  0.1907 -1.4403
29269WAT     H218882   4.039   6.910   1.924 -0.6867  1.6447 -0.1798
29269WAT    EPW18883   3.976   6.924   1.865 -0.6518  0.5980 -0.4746
29270WAT      O18884   5.678   4.273   0.510  1.2383  0.7507  0.4222
29270WAT     H118885   5.725   4.280   0.592 -1.2872  0.7578  1.9691
29270WAT     H218886   5.628   4.354   0.504  1.3171  0.7211 -1.1205
29270WAT    EPW18887   5.678   4.285   0.520  0.9155  0.7477  0.4228
29271WAT      O18888   5.521   8.469   8.209  0.4167 -0.1622 -0.4226
29271WAT     H118889   5.595   8.498   8.155 -0.1343  1.5161 -0.3015
29271WAT     H218890   5.555   8.471   8.298  0.6221 -0.7159 -0.4816
29271WAT    EPW18891   5.536   8.473   8.214  0.3710 -0.0138 -0.4144
29272WAT      O18892   6.189   7.373   2.572  0.3316 -0.2179  0.1102
29272WAT     H118893   6.233   7.288   2.560  1.1000  0.3426 -1.2856
29272WAT     H218894   6.179   7.407   2.483 -2.3500  0.0134  0.4131
29272WAT    EPW18895   6.194   7.366   2.559  0.0789 -0.1137 -0.0341
29273WAT      O18896   3.133   2.738   2.138  0.2262 -0.0671 -0.2443
29273WAT     H118897   3.106   2.699   2.221 -0.1369  0.2498 -0.2150
29273WAT     H218898   3.197   2.675   2.102  1.9936  0.7677  1.2502
29273WAT    EPW18899   3.138   2.724   2.144  0.4115  0.0848 -0.0433
29274WAT      O18900   1.305   0.937   0.581 -0.3641  0.1902 -0.4738
29274WAT     H118901   1.255   0.897   0.510 -1.4904  0.6823  0.0211
29274WAT     H218902   1.240   0.962   0.645  0.5491  0.6463  0.3040
29274WAT    EPW18903   1.290   0.935   0.580 -0.3923  0.3152 -0.3060
29275WAT      O18904   9.382   6.316   8.270  0.1737  0.0700  0.0319
29275WAT     H118905   9.305   6.260   8.279 -0.7053  1.3904  1.0034
29275WAT     H218906   9.444   6.282   8.335 -0.3462  0.2105  0.6037
29275WAT    EPW18907   9.380   6.304   8.280 -0.0110  0.2630  0.2351
29276WAT      O18908   1.758   5.239   0.919  0.3603  0.4082 -0.0065
29276WAT     H118909   1.741   5.216   0.828  2.3088 -1.2211 -0.0198
29276WAT     H218910   1.806   5.322   0.915  1.1733 -0.0784 -0.5369
29276WAT    EPW18911   1.762   5.247   0.907  0.7246  0.1287 -0.0782
29277WAT      O18912   2.295   2.394   1.094 -0.3250 -0.8548  0.5077
29277WAT     H118913   2.371   2.441   1.059 -0.7852 -0.3237  0.2016
29277WAT     H218914   2.300   2.307   1.053  0.0580 -0.7884  0.4073
29277WAT    EPW18915   2.305   2.389   1.084 -0.3352 -0.7758  0.4541
29278WAT      O18916   6.801   9.483   7.576 -0.4035 -0.6703  0.5141
29278WAT     H118917   6.893   9.460   7.565 -0.6512 -0.5568 -2.8363
29278WAT     H218918   6.801   9.577   7.591  0.0437 -0.2974 -1.4896
29278WAT    EPW18919   6.813   9.492   7.576 -0.3772 -0.6061 -0.1922
29279WAT      O18920   9.358   7.487   7.724 -0.0849 -0.3052 -0.2949
29279WAT     H118921   9.366   7.392   7.724  0.4134 -0.2692 -0.0436
29279WAT     H218922   9.422   7.517   7.659  0.2343 -0.1148  0.0982
29279WAT    EPW18923   9.368   7.478   7.715  0.0234 -0.2754 -0.2098
29280WAT      O18924   9.382   8.522   7.072 -0.0182  0.2250  0.0860
29280WAT     H118925   9.427   8.542   7.154  1.9470 -3.2513  0.0991
29280WAT     H218926   9.400   8.597   7.016  2.7989  0.6325  1.3312
29280WAT    EPW18927   9.390   8.534   7.076  0.6127 -0.1802  0.2518
29281WAT      O18928   1.485   3.262   1.543 -0.4722  0.2675  0.0974
29281WAT     H118929   1.469   3.315   1.464  0.4872 -0.1073 -0.3604
29281WAT     H218930   1.458   3.174   1.519 -0.5315  0.2241  0.3185
29281WAT    EPW18931   1.479   3.258   1.529 -0.3535  0.2124  0.0662
29282WAT      O18932   6.571   8.991   6.319 -0.0801  0.0657 -0.4835
29282WAT     H118933   6.621   9.012   6.240 -0.6864 -1.9074 -1.4596
29282WAT     H218934   6.483   9.027   6.302  0.0815  0.5962 -0.2192
29282WAT    EPW18935   6.566   8.999   6.306 -0.1390 -0.1245 -0.5770
29283WAT      O18936   8.700   0.481   8.916  0.1885 -0.6333  0.0201
29283WAT     H118937   8.605   0.482   8.903  0.3313 -0.9341 -1.1692
29283WAT     H218938   8.728   0.397   8.879  0.7609 -1.1952  1.6637
29283WAT    EPW18939   8.691   0.470   8.909  0.2832 -0.7471  0.0801
29284WAT      O18940   5.086   8.130   0.801  0.8285  0.4678 -0.0469
29284WAT     H118941   5.024   8.063   0.833  0.2625  1.1752  0.3774
29284WAT     H218942   5.030   8.200   0.768  1.3314  1.8624  1.8538
29284WAT    EPW18943   5.070   8.130   0.801  0.8202  0.7443  0.2597
29285WAT      O18944  10.058   7.016   7.971  0.4845  0.2888 -0.1388
29285WAT     H118945   9.986   7.010   7.909  0.4046  1.8717 -0.2262
29285WAT     H218946  10.020   7.061   8.047  0.4443 -2.0133  1.3135
29285WAT    EPW18947  10.043   7.021   7.973  0.4687  0.1943  0.0412
29286WAT      O18948   1.686   4.522   0.897 -0.1742  0.3454 -0.0745
29286WAT     H118949   1.612   4.468   0.869 -0.2383  0.2672  0.2463
29286WAT     H218950   1.668   4.608   0.861 -0.5212  0.3780  0.1719
29286WAT    EPW18951   1.674   4.526   0.888 -0.2285  0.3395  0.0004
29287WAT      O18952   8.758   4.756   8.764 -0.6726  0.6601 -0.0760
29287WAT     H118953   8.751   4.850   8.751 -2.3408  0.4041 -1.3192
29287WAT     H218954   8.750   4.744   8.859 -1.6192  1.6818 -0.0121
29287WAT    EPW18955   8.756   4.767   8.775 -1.0171  0.7613 -0.2317
29288WAT      O18956   2.164   4.180   1.704  0.5739  0.0316 -0.8074
29288WAT     H118957   2.095   4.213   1.761  2.4253 -0.1613  1.7106
29288WAT     H218958   2.133   4.093   1.676 -1.1608  0.8731 -1.6796
29288WAT    EPW18959   2.151   4.173   1.708  0.5893  0.1168 -0.5903
29289WAT      O18960   4.963   6.559   1.394  0.1278 -0.1033  0.9141
29289WAT     H118961   4.898   6.613   1.349  1.7401  3.0219  2.0070
29289WAT     H218962   4.913   6.509   1.458 -1.2440  3.0426  2.5080
29289WAT    EPW18963   4.948   6.560   1.396  0.1597  0.7238  1.2684
29290WAT      O18964   1.264   3.213   1.148  0.2666 -0.0465 -1.2986
29290WAT     H118965   1.176   3.247   1.169  0.4138 -0.1214 -0.5223
29290WAT     H218966   1.263   3.203   1.053 -0.4479  0.2914 -1.3396
29290WAT    EPW18967   1.252   3.216   1.138  0.1918 -0.0118 -1.2017
29291WAT      O18968   3.779   5.803   1.216 -0.5691 -0.3365 -0.5259
29291WAT     H118969   3.848   5.738   1.200 -0.8285 -1.0434  1.0521
29291WAT     H218970   3.788   5.865   1.144  1.8528 -0.2803 -0.2758
29291WAT    EPW18971   3.789   5.802   1.204 -0.2840 -0.4222 -0.2848
29292WAT      O18972   6.658   3.723   1.195  0.1822  0.0854 -0.1754
29292WAT     H118973   6.748   3.694   1.209  0.4595  0.6194 -0.8071
29292WAT     H218974   6.661   3.817   1.211 -0.6601 -0.1388  1.6140
29292WAT    EPW18975   6.670   3.732   1.199  0.1078  0.1262 -0.0226
29293WAT      O18976   0.240   4.420   1.435 -0.6315 -0.0297 -0.0669
29293WAT     H118977   0.288   4.383   1.509 -1.3427  0.0400  0.4347
29293WAT     H218978   0.187   4.348   1.402 -3.1486  0.8370  1.8337
29293WAT    EPW18979   0.239   4.406   1.440 -1.0573  0.0937  0.2499
29294WAT      O18980   3.212   5.754   1.365 -0.5283  0.4484 -0.2043
29294WAT     H118981   3.177   5.666   1.350  0.9163 -0.7042  2.4781
29294WAT     H218982   3.225   5.790   1.277  1.9199 -3.2715 -1.6059
29294WAT    EPW18983   3.209   5.747   1.351 -0.0149 -0.1941 -0.0353
29295WAT      O18984   3.863   5.231   3.154 -0.3154 -0.3820 -0.3107
29295WAT     H118985   3.866   5.170   3.080  0.0618  0.4233 -0.9761
29295WAT     H218986   3.769   5.241   3.173 -0.3649 -1.8826  0.4431
29295WAT    EPW18987   3.851   5.224   3.147 -0.2723 -0.4737 -0.2991
29296WAT      O18988   7.168   2.241   1.484  0.2856 -0.2512  0.0560
29296WAT     H118989   7.107   2.240   1.558 -0.1677  0.2761 -0.3091
29296WAT     H218990   7.125   2.188   1.417  0.2345  0.0986 -0.1912
29296WAT    EPW18991   7.154   2.234   1.485  0.2191 -0.1355 -0.0247
29297WAT      O18992   3.934   1.477   0.326 -0.5595  0.1991 -0.1160
29297WAT     H118993   3.895   1.446   0.408 -0.8557 -0.3165 -0.4489
29297WAT     H218994   4.027   1.453   0.333 -0.4989  0.5296  0.2462
29297WAT    EPW18995   3.941   1.470   0.338 -0.5906  0.1746 -0.1121
29298WAT      O18996   5.087   0.849   1.102  0.5663 -0.0553  0.3568
29298WAT     H118997   5.017   0.859   1.166 -0.2428  1.4245 -0.6950
29298WAT     H218998   5.106   0.938   1.072  1.9397 -0.5607 -0.3974
29298WAT    EPW18999   5.081   0.862   1.107  0.6406  0.0732  0.1186
29299WAT      O19000   3.623   5.297   0.508 -0.4114 -0.6513 -0.1230
29299WAT     H119001   3.579   5.353   0.444 -0.7821 -1.5091 -0.6327
29299WAT     H219002   3.634   5.353   0.585  1.2525  0.8360 -1.3445
29299WAT    EPW19003   3.619   5.312   0.510 -0.2409 -0.5682 -0.3513
29300WAT      O19004   2.956   2.098   0.072  0.3832  0.0466  0.0798
29300WAT     H119005   2.873   2.142   0.094 -0.3305 -0.5066 -1.3788
29300WAT     H219006   3.019   2.170   0.065  0.2184  0.4142  1.9036
29300WAT    EPW19007   2.953   2.113   0.074  0.2675  0.0222  0.1280
29301WAT      O19008   9.433   2.005   8.204  0.3252 -0.0744 -0.0872
29301WAT     H119009   9.486   2.063   8.259 -0.1350  0.1629  0.1064
29301WAT     H219010   9.387   2.064   8.144 -1.0135 -0.1218  0.8468
29301WAT    EPW19011   9.434   2.021   8.203  0.0877 -0.0492  0.0620
29302WAT      O19012   7.244   9.305   6.804 -0.4289  0.3377 -0.4512
29302WAT     H119013   7.324   9.324   6.853 -0.7541 -0.7572  0.5589
29302WAT     H219014   7.240   9.210   6.802 -0.5766  0.3559 -2.4202
29302WAT    EPW19015   7.254   9.295   6.810 -0.4914  0.1955 -0.5774
29303WAT      O19016   9.461   0.615   8.411 -0.4894  0.1320  0.0877
29303WAT     H119017   9.392   0.570   8.363  0.5830 -2.1783  0.5554
29303WAT     H219018   9.520   0.648   8.344  0.9504 -2.9853 -0.3752
29303WAT    EPW19019   9.460   0.613   8.396 -0.1583 -0.5839  0.0882
29304WAT      O19020   4.400   5.055   1.440 -0.0720 -0.4410 -0.3177
29304WAT     H119021   4.370   5.135   1.483  3.8557  1.5893 -0.9195
29304WAT     H219022   4.395   5.074   1.347 -0.6148 -1.5517 -0.5298
29304WAT    EPW19023   4.395   5.068   1.434  0.3743 -0.3197 -0.4251
29305WAT      O19024   8.563   9.953   7.724  0.2205  0.2075 -0.1915
29305WAT     H119025   8.553   9.919   7.635 -3.9501 -1.7448  0.7527
29305WAT     H219026   8.497  10.022   7.731  0.2008  0.0577  1.4919
29305WAT    EPW19027   8.553   9.958   7.713 -0.3324 -0.0696  0.1550
29306WAT      O19028   3.736   6.484   1.661 -0.5205  0.4485 -0.3274
29306WAT     H119029   3.800   6.419   1.689  0.6359  0.2741 -3.0302
29306WAT     H219030   3.782   6.568   1.668 -0.2823  0.4196 -1.4128
29306WAT    EPW19031   3.750   6.486   1.665 -0.3365  0.4218 -0.8271
29307WAT      O19032   1.291   3.792   0.831 -0.4798  0.0227  0.1292
29307WAT     H119033   1.285   3.874   0.881 -1.4989 -1.0050  1.7766
29307WAT     H219034   1.359   3.809   0.767  0.0553  1.8234  1.0885
29307WAT    EPW19035   1.299   3.805   0.829 -0.5437  0.1246  0.4730
29308WAT      O19036   1.189   0.156   7.600  0.5456 -0.1831 -0.1757
29308WAT     H119037   1.157   0.243   7.580  2.5368  0.1435 -2.3423
29308WAT     H219038   1.208   0.158   7.694  0.5956  1.7136 -0.1985
29308WAT    EPW19039   1.187   0.167   7.610  0.8147  0.1101 -0.4644
29309WAT      O19040   2.660   7.324   2.973 -0.8689 -0.2094  0.3461
29309WAT     H119041   2.577   7.317   3.021 -1.3129  1.7801 -0.0517
29309WAT     H219042   2.670   7.417   2.956 -0.6667 -0.7765 -3.3663
29309WAT    EPW19043   2.650   7.335   2.977 -0.9007 -0.0215 -0.1960
29310WAT      O19044   8.605   4.796   6.537 -0.0968  0.6150  0.2754
29310WAT     H119045   8.642   4.759   6.617 -0.5528  0.2233  0.3058
29310WAT     H219046   8.580   4.720   6.485 -0.4579  0.8756  0.0682
29310WAT    EPW19047   8.607   4.781   6.541 -0.2046  0.5975  0.2520
29311WAT      O19048   5.751   2.783   1.651 -0.0286 -0.7914  0.4871
29311WAT     H119049   5.722   2.857   1.705 -0.5196 -0.3714 -0.3362
29311WAT     H219050   5.673   2.754   1.606  0.2170 -1.6688  0.6139
29311WAT    EPW19051   5.737   2.789   1.652 -0.0613 -0.8516  0.3953
29312WAT      O19052   9.133   7.094   8.705 -0.0156  0.0085 -0.2473
29312WAT     H119053   9.170   7.167   8.654  1.9505 -0.8197 -0.0994
29312WAT     H219054   9.175   7.017   8.669  0.0510 -0.7849  1.4428
29312WAT    EPW19055   9.144   7.094   8.693  0.2522 -0.2055 -0.0048
29313WAT      O19056   3.325   1.845   2.720 -0.3787 -0.1023 -0.3506
29313WAT     H119057   3.389   1.840   2.649  1.4584 -0.8544  1.2574
29313WAT     H219058   3.278   1.762   2.717 -2.1973  0.9022 -2.2558
29313WAT    EPW19059   3.327   1.833   2.711 -0.3762 -0.0691 -0.3897
29314WAT      O19060   9.665   8.953   7.636  0.2144 -0.1414  0.0882
29314WAT     H119061   9.728   9.024   7.638  0.2379 -0.1635  0.1521
29314WAT     H219062   9.592   8.986   7.584  0.1964 -0.0450  0.1722
29314WAT    EPW19063   9.663   8.967   7.630  0.2151 -0.1316  0.1080
29315WAT      O19064   1.982   4.142   0.482  0.4841 -0.9267 -0.0905
29315WAT     H119065   2.024   4.058   0.503  0.4259 -1.2834 -1.3292
29315WAT     H219066   1.974   4.141   0.387 -1.5006 -0.4540  0.0354
29315WAT    EPW19067   1.987   4.130   0.473  0.2145 -0.9115 -0.2373
29316WAT      O19068   7.100   6.051   7.968  0.1027  0.0997 -0.8254
29316WAT     H119069   7.179   5.997   7.966  1.4142  1.9117 -0.7899
29316WAT     H219070   7.053   6.029   7.888  0.8291 -0.7446 -1.0298
29316WAT    EPW19071   7.104   6.041   7.957  0.3712  0.2275 -0.8478
29317WAT      O19072   4.735   8.428   7.760 -0.1294 -0.3158 -0.1666
29317WAT     H119073   4.730   8.391   7.671  1.3858 -1.4750  0.1701
29317WAT     H219074   4.824   8.406   7.789 -0.9142 -0.8497  2.0201
29317WAT    EPW19075   4.746   8.420   7.752 -0.0329 -0.5393  0.1662
29318WAT      O19076   5.351   4.525   1.113 -0.1745  0.0613  0.3612
29318WAT     H119077   5.444   4.515   1.090 -0.0024  0.0331  1.0531
29318WAT     H219078   5.349   4.596   1.176 -0.5020 -0.5836  1.0949
29318WAT    EPW19079   5.363   4.533   1.118 -0.1948 -0.0277  0.5493
29319WAT      O19080  10.431   6.150   8.762 -0.4455 -1.0293  0.0623
29319WAT     H119081  10.339   6.159   8.735 -0.1705 -1.4640 -1.0550
29319WAT     H219082  10.478   6.131   8.681  0.8429  0.4930  0.4108
29319WAT    EPW19083  10.425   6.149   8.748 -0.2389 -0.8857 -0.0396
29320WAT      O19084   0.331   0.991   6.377  0.0390  0.3046  0.0593
29320WAT     H119085   0.379   0.930   6.320 -1.1499  1.0811 -1.8604
29320WAT     H219086   0.255   0.941   6.406  1.0810 -0.3860  1.7895
29320WAT    EPW19087   0.327   0.976   6.374  0.0196  0.3159  0.0343
29321WAT      O19088   1.592   0.960   8.676  0.7441  0.0825 -0.1198
29321WAT     H119089   1.520   0.896   8.678 -0.2602  0.9947 -2.6530
29321WAT     H219090   1.671   0.906   8.673  0.2566 -0.9460  2.7803
29321WAT    EPW19091   1.593   0.944   8.676  0.5473  0.0671 -0.0715
29322WAT      O19092   0.111   0.464   7.483  0.0463  0.8060 -0.4108
29322WAT     H119093   0.094   0.375   7.451 -1.3174  1.2227 -0.8870
29322WAT     H219094   0.078   0.464   7.573  0.8856  0.5895 -0.0867
29322WAT    EPW19095   0.104   0.452   7.491 -0.0229  0.8324 -0.4308
29323WAT      O19096   6.436   4.076   0.165 -0.5213  0.2055 -0.5480
29323WAT     H119097   6.394   4.134   0.102 -1.0841  0.3681 -0.0251
29323WAT     H219098   6.468   4.134   0.234  2.1288  0.3132 -1.7309
29323WAT    EPW19099   6.435   4.091   0.165 -0.2458  0.2410 -0.6350
29324WAT      O19100   6.538   7.470   7.697  0.2772  0.2394 -0.6353
29324WAT     H119101   6.517   7.561   7.721 -2.1459 -0.3815 -0.1388
29324WAT     H219102   6.525   7.466   7.603  3.2748  1.0420 -1.1926
29324WAT    EPW19103   6.534   7.482   7.688  0.3531  0.2632 -0.6430
29325WAT      O19104   0.996   0.256   7.916  0.9519 -0.3284  0.2780
29325WAT     H119105   1.076   0.207   7.895  0.9248  0.2945 -1.4043
29325WAT     H219106   1.027   0.344   7.936  0.8696 -0.6428  1.9457
29325WAT    EPW19107   1.011   0.261   7.916  0.9374 -0.2877  0.2759
29326WAT      O19108   2.241   8.804   1.555  0.2451 -0.2702  0.9551
29326WAT     H119109   2.290   8.884   1.575  0.4623 -0.5546  1.5886
29326WAT     H219110   2.156   8.835   1.525  1.3991  0.3345 -2.1662
29326WAT    EPW19111   2.237   8.818   1.554  0.4261 -0.2284  0.6269
29327WAT      O19112   2.518   0.642   7.147 -0.5780  0.0587  0.0281
29327WAT     H119113   2.539   0.563   7.197  1.3389  0.2673 -0.3581
29327WAT     H219114   2.425   0.657   7.164 -0.6925 -1.5605  1.1082
29327WAT    EPW19115   2.509   0.634   7.156 -0.3402 -0.1273  0.1197
29328WAT      O19116   5.020   3.793   1.196  0.5702 -0.0266 -0.2191
29328WAT     H119117   4.953   3.852   1.163  2.0348  0.8857 -1.7108
29328WAT     H219118   5.088   3.851   1.231  0.5817 -0.9284  1.3679
29328WAT    EPW19119   5.020   3.808   1.196  0.7651 -0.0253 -0.2065
29329WAT      O19120   5.759   4.987   8.612  0.0371  0.0077  0.1493
29329WAT     H119121   5.668   5.017   8.608 -0.0607 -0.1352  1.0252
29329WAT     H219122   5.808   5.051   8.561 -0.4090  0.6961  0.5719
29329WAT    EPW19123   5.754   4.999   8.605 -0.0346  0.0796  0.3209
29330WAT      O19124   0.412   4.639   2.088 -0.1745  0.2407 -0.0269
29330WAT     H119125   0.439   4.701   2.156 -0.1516  1.1737 -0.8640
29330WAT     H219126   0.409   4.554   2.133  1.8519  0.4797  0.6602
29330WAT    EPW19127   0.415   4.636   2.103  0.0958  0.3953 -0.0467
29331WAT      O19128   8.743   1.711   8.362  0.7578 -1.0991  0.1375
29331WAT     H119129   8.770   1.637   8.415  1.7636 -1.0120 -0.2347
29331WAT     H219130   8.755   1.787   8.419  2.2699 -0.9557 -0.3205
29331WAT    EPW19131   8.748   1.711   8.377  1.0900 -1.0687  0.0277
29332WAT      O19132   5.740   8.887   8.201  0.9122 -0.2669  1.1175
29332WAT     H119133   5.814   8.932   8.160  2.0549 -2.9847  0.0073
29332WAT     H219134   5.681   8.867   8.128  0.2754 -0.2988  1.6348
29332WAT    EPW19135   5.742   8.891   8.186  0.9789 -0.6294  1.0395
29333WAT      O19136   4.551   4.632   2.876  0.2042  0.0646  0.0710
29333WAT     H119137   4.576   4.619   2.785 -1.2927 -0.5267 -0.3014
29333WAT     H219138   4.553   4.544   2.914 -0.6583  0.0833  0.1801
29333WAT    EPW19139   4.554   4.618   2.869 -0.1070 -0.0110  0.0364
29334WAT      O19140   8.536   0.138   8.657  0.4886 -0.4468  0.4297
29334WAT     H119141   8.585   0.086   8.593  0.7216 -1.1105  1.1259
29334WAT     H219142   8.471   0.077   8.692 -1.4821  0.6848 -1.1447
29334WAT    EPW19143   8.534   0.123   8.653  0.2594 -0.3851  0.3138
29335WAT      O19144   9.355   0.591   8.134  0.2499 -0.0385  0.3175
29335WAT     H119145   9.281   0.592   8.195 -0.6242 -0.3651 -0.7149
29335WAT     H219146   9.350   0.676   8.090  0.5249 -0.0454  0.2735
29335WAT    EPW19147   9.345   0.603   8.136  0.1712 -0.0825  0.1755
29336WAT      O19148   0.593   5.621   1.416 -0.2440 -0.4077  0.2409
29336WAT     H119149   0.636   5.562   1.355 -3.1776  0.3537 -2.8521
29336WAT     H219150   0.594   5.706   1.372  0.1881  0.9999  2.7211
29336WAT    EPW19151   0.599   5.625   1.402 -0.5739 -0.1218  0.1601
29337WAT      O19152   3.723   4.513   0.123  0.1031  0.1682 -0.1509
29337WAT     H119153   3.751   4.485   0.035  0.4719 -2.0772  0.6109
29337WAT     H219154   3.784   4.582   0.147  0.7465 -0.0129 -1.1976
29337WAT    EPW19155   3.735   4.518   0.114  0.2366 -0.1519 -0.1885
29338WAT      O19156   2.397   6.860   3.031  0.7419 -0.5077 -0.0743
29338WAT     H119157   2.397   6.955   3.042  1.6004 -0.5220  0.0818
29338WAT     H219158   2.485   6.838   3.002  1.2337 -1.4892  1.9925
29338WAT    EPW19159   2.408   6.870   3.029  0.9199 -0.6390  0.2187
29339WAT      O19160   7.943   1.516   6.374  0.6464 -0.1148 -0.2409
29339WAT     H119161   8.019   1.504   6.317  0.3349  1.8958 -1.1689
29339WAT     H219162   7.887   1.441   6.356  2.8852 -2.3658  1.4081
29339WAT    EPW19163   7.946   1.505   6.364  0.9007 -0.1465 -0.1459
29340WAT      O19164   1.283   4.510   1.754  0.2215  0.9903 -0.0918
29340WAT     H119165   1.246   4.424   1.735 -1.6101  1.3252  1.6336
29340WAT     H219166   1.208   4.564   1.776  1.6514  1.8686  3.1500
29340WAT    EPW19167   1.269   4.506   1.754  0.1686  1.1504  0.5633
29341WAT      O19168   8.930   8.191   8.008  0.1299  0.0895 -1.1086
29341WAT     H119169   9.003   8.151   7.961  1.4039 -0.6875  1.3109
29341WAT     H219170   8.941   8.285   7.997  2.3672  0.0553  0.2662
29341WAT    EPW19171   8.941   8.198   8.001  0.5922 -0.0172 -0.6084
29342WAT      O19172   4.956   2.250   0.478 -0.5551  0.3536  0.2145
29342WAT     H119173   5.048   2.224   0.471 -0.5221 -0.1183  1.9868
29342WAT     H219174   4.957   2.332   0.526 -1.1147 -0.3891  1.5501
29342WAT    EPW19175   4.968   2.257   0.483 -0.6244  0.1935  0.6244
29343WAT      O19176   3.942   5.074   0.060  0.3042 -0.1293 -0.6116
29343WAT     H119177   3.900   5.075  -0.027 -0.9526 -1.7887 -0.0852
29343WAT     H219178   3.871   5.049   0.119  0.7246  2.5154  1.1884
29343WAT    EPW19179   3.927   5.071   0.056  0.1938  0.0005 -0.3047
29344WAT      O19180   9.715   1.004   6.825  0.0773  0.1724 -0.3806
29344WAT     H119181   9.685   1.058   6.898  1.3911  1.6247 -0.8563
29344WAT     H219182   9.694   0.915   6.851 -2.8181  0.9007  0.1433
29344WAT    EPW19183   9.709   0.999   6.838 -0.1316  0.4600 -0.3743
29345WAT      O19184   4.108   6.355   3.158  1.1019  0.5151  0.1011
29345WAT     H119185   4.061   6.347   3.076  0.9591 -0.8555  0.2975
29345WAT     H219186   4.059   6.421   3.208  0.5288  0.5138 -0.4594
29345WAT    EPW19187   4.095   6.363   3.154  1.0073  0.3343  0.0532
29346WAT      O19188   2.750   1.236   3.809  0.1236 -0.4725 -0.8581
29346WAT     H119189   2.782   1.181   3.738  1.4542 -0.6295 -0.1796
29346WAT     H219190   2.736   1.175   3.882 -2.1645 -0.4644 -1.2367
29346WAT    EPW19191   2.753   1.221   3.809 -0.0027 -0.4922 -0.8186
29347WAT      O19192   3.603   2.794   0.856 -0.4298 -0.3446 -0.4951
29347WAT     H119193   3.578   2.886   0.865 -2.4888 -0.7943 -0.8687
29347WAT     H219194   3.548   2.762   0.783  1.5728 -1.4333 -1.6103
29347WAT    EPW19195   3.592   2.802   0.847 -0.4373 -0.5475 -0.6914
29348WAT      O19196  10.174   6.561   8.523 -0.5215  0.0222 -0.3096
29348WAT     H119197  10.248   6.567   8.583 -1.1447 -2.0285  0.7251
29348WAT     H219198  10.160   6.651   8.493 -0.3357  1.1781  2.7944
29348WAT    EPW19199  10.182   6.574   8.527 -0.5798 -0.0961  0.2360
29349WAT      O19200   7.653   8.170   7.568  0.5355  0.0020  0.3212
29349WAT     H119201   7.564   8.161   7.534  0.5585  0.0501  0.2483
29349WAT     H219202   7.710   8.152   7.493  0.5936 -0.5756  0.5041
29349WAT    EPW19203   7.649   8.167   7.554  0.5465 -0.0677  0.3357
29350WAT      O19204  10.584   0.211   8.717  0.4088  0.5262 -0.2565
29350WAT     H119205  10.508   0.231   8.663  0.5820  0.8824 -0.3785
29350WAT     H219206  10.548   0.174   8.798  0.1886 -0.9716 -1.0147
29350WAT    EPW19207  10.570   0.209   8.721  0.4025  0.3756 -0.3729
29351WAT      O19208   7.348   5.712   0.139 -0.7993 -0.1020  0.9096
29351WAT     H119209   7.297   5.659   0.200 -2.5331  0.1622 -0.2596
29351WAT     H219210   7.343   5.666   0.056 -2.0094  1.6407 -0.0327
29351WAT    EPW19211   7.341   5.699   0.136 -1.1876  0.1626  0.6311
29352WAT      O19212   1.008   0.478   7.183  0.0797  0.2741 -0.6593
29352WAT     H119213   1.065   0.458   7.109  1.8071 -1.5789  1.0462
29352WAT     H219214   0.995   0.393   7.226 -2.6185  0.9373  0.0063
29352WAT    EPW19215   1.014   0.464   7.179 -0.0484  0.1172 -0.3467
29353WAT      O19216   8.711   6.019   3.533 -0.1202  0.9036 -0.4766
29353WAT     H119217   8.734   5.933   3.569  0.5387  0.5963 -1.6067
29353WAT     H219218   8.655   6.058   3.601  0.0484 -0.1676  0.3150
29353WAT    EPW19219   8.706   6.013   3.547 -0.0119  0.7219 -0.5212
29354WAT      O19220   0.681   6.123   7.118  1.1956 -0.1985  0.3681
29354WAT     H119221   0.615   6.106   7.052 -0.1721 -3.3145  2.3041
29354WAT     H219222   0.737   6.190   7.080 -2.8527  2.4946 -1.5089
29354WAT    EPW19223   0.680   6.129   7.104  0.4812 -0.2544  0.3760
29355WAT      O19224   3.890   6.416   1.025 -0.4229  0.6487 -0.0713
29355WAT     H119225   3.871   6.439   1.116  1.6416  3.3238 -0.1760
29355WAT     H219226   3.805   6.414   0.982 -1.2365  2.2255  1.3572
29355WAT    EPW19227   3.876   6.419   1.031 -0.2580  1.2095  0.1032
29356WAT      O19228   8.749   9.874   8.411  0.1555  0.0621  0.4738
29356WAT     H119229   8.800   9.874   8.330 -1.0235 -0.0164 -0.2941
29356WAT     H219230   8.685   9.804   8.399 -0.7123  0.7353  1.0235
29356WAT    EPW19231   8.747   9.865   8.399 -0.1144  0.1407  0.4444
29357WAT      O19232   2.458   3.050   6.859  0.8598  0.3553  0.3159
29357WAT     H119233   2.438   3.074   6.949 -0.0163 -0.3923  0.3331
29357WAT     H219234   2.422   3.122   6.807  2.1872  1.2451  0.5992
29357WAT    EPW19235   2.450   3.063   6.864  0.9192  0.3740  0.3555
29358WAT      O19236   8.969   7.460   4.704  0.4379  0.0297  0.1691
29358WAT     H119237   9.023   7.490   4.777 -3.3816  0.0839  3.3708
29358WAT     H219238   8.970   7.533   4.642 -0.9800  2.9432  3.2358
29358WAT    EPW19239   8.976   7.474   4.705 -0.2527  0.4213  0.9961
29359WAT      O19240   4.768   4.785   3.671  0.3491 -0.3416  0.3145
29359WAT     H119241   4.699   4.818   3.729  2.2090  1.6964  1.4963
29359WAT     H219242   4.748   4.692   3.662 -3.7531  0.4392 -1.1794
29359WAT    EPW19243   4.756   4.777   3.678  0.0532  0.0300  0.2733
29360WAT      O19244   5.003   7.134   1.744  0.4133  0.7812 -0.2947
29360WAT     H119245   5.056   7.058   1.769 -1.4614 -0.4039  0.2979
29360WAT     H219246   5.014   7.196   1.816  1.0132  0.5821 -0.2053
29360WAT    EPW19247   5.012   7.132   1.757  0.2451  0.5987 -0.2048
29361WAT      O19248   8.035   8.351   8.942  0.1613 -0.2223  0.1668
29361WAT     H119249   7.958   8.295   8.953  1.6645 -2.8344 -1.5317
29361WAT     H219250   8.046   8.359   8.847  0.3427  2.6483  0.3352
29361WAT    EPW19251   8.026   8.345   8.931  0.3834 -0.1879 -0.0348
29362WAT      O19252   1.037   9.249   7.534  0.9267 -0.5977 -0.3106
29362WAT     H119253   1.116   9.219   7.488  0.6880 -0.5166 -0.7829
29362WAT     H219254   1.037   9.200   7.616  2.8852  1.2875  0.9279
29362WAT    EPW19255   1.048   9.238   7.538  1.1535 -0.3381 -0.2096
29363WAT      O19256   7.082   9.138   1.687  0.5591 -0.1155 -0.5570
29363WAT     H119257   7.087   9.212   1.746 -0.0104  1.0075 -1.8525
29363WAT     H219258   7.017   9.164   1.621  1.8795 -0.8504 -2.2400
29363WAT    EPW19259   7.074   9.151   1.686  0.6583 -0.0644 -0.9499
29364WAT      O19260  10.106   7.434   8.647 -0.6509  0.0275  0.3514
29364WAT     H119261  10.062   7.389   8.719  1.1224 -1.5557  0.5155
29364WAT     H219262  10.043   7.500   8.618 -2.1426 -0.5480  2.1098
29364WAT    EPW19263  10.092   7.437   8.652 -0.6132 -0.2573  0.6051
29365WAT      O19264   6.933   5.493   1.215  0.0887  0.0038 -0.2716
29365WAT     H119265   6.926   5.483   1.120 -0.9965 -1.4292 -0.0818
29365WAT     H219266   6.848   5.462   1.248  0.4202  0.5652  1.1576
29365WAT    EPW19267   6.921   5.487   1.207 -0.0107 -0.1111 -0.0581
29366WAT      O19268  10.784   0.391   7.895 -0.2137  0.3891 -0.3010
29366WAT     H119269  10.735   0.449   7.953  2.6807  1.9779  0.7824
29366WAT     H219270  10.791   0.309   7.944 -1.1174  0.3933 -0.1528
29366WAT    EPW19271  10.779   0.388   7.909  0.0486  0.5993 -0.1385
29367WAT      O19272   7.714   8.359   0.563 -0.0722  0.0188  0.0281
29367WAT     H119273   7.622   8.383   0.553 -0.2675 -0.0375  1.4747
29367WAT     H219274   7.718   8.315   0.648  1.4142  0.6911  0.3432
29367WAT    EPW19275   7.702   8.357   0.573  0.0980  0.1001  0.2605
29368WAT      O19276   1.560   1.001   4.855  0.5700 -0.0137  0.4592
29368WAT     H119277   1.618   1.035   4.923  0.7362 -0.0359  0.3299
29368WAT     H219278   1.475   0.994   4.897  0.1876  1.9031  0.1293
29368WAT    EPW19279   1.556   1.005   4.869  0.5415  0.2362  0.3989
29369WAT      O19280   2.171   6.590   1.935  0.0777  0.2675 -0.1739
29369WAT     H119281   2.151   6.671   1.981 -0.2780 -0.6124  1.2850
29369WAT     H219282   2.234   6.545   1.992 -0.1413 -0.7208 -0.6865
29369WAT    EPW19283   2.177   6.595   1.948  0.0018  0.0212 -0.0491
29370WAT      O19284   6.384   4.059   1.616 -0.0693  0.4051  0.4524
29370WAT     H119285   6.395   4.064   1.521  0.3149 -3.7649  0.1036
29370WAT     H219286   6.289   4.068   1.629 -0.3359 -0.7433 -0.5429
29370WAT    EPW19287   6.373   4.061   1.605 -0.0536 -0.2964  0.2752
29371WAT      O19288   2.687   6.782   3.005 -0.1804 -0.1593 -0.4657
29371WAT     H119289   2.735   6.794   2.923 -0.2221 -3.8156 -1.1848
29371WAT     H219290   2.755   6.782   3.072 -0.0186  1.5554 -0.5670
29371WAT    EPW19291   2.702   6.784   3.003 -0.1645 -0.4156 -0.5740
29372WAT      O19292   7.649   0.681   1.325  0.6118 -0.2683 -0.2046
29372WAT     H119293   7.707   0.628   1.379  0.7948  0.0019 -0.1318
29372WAT     H219294   7.697   0.692   1.243  0.1979 -0.9434 -0.5445
29372WAT    EPW19295   7.663   0.676   1.321  0.5813 -0.3217 -0.2398
29373WAT      O19296   1.683   5.924   2.209 -0.0854 -0.0315  0.0654
29373WAT     H119297   1.690   5.908   2.115 -1.6055 -1.6388  0.1665
29373WAT     H219298   1.597   5.965   2.219 -0.1462 -0.3304  0.7970
29373WAT    EPW19299   1.672   5.927   2.198 -0.2938 -0.2828  0.1752
29374WAT      O19300   5.229   7.393   5.197 -0.0707 -0.1158  0.1189
29374WAT     H119301   5.206   7.412   5.288 -0.4772 -0.6590  0.1392
29374WAT     H219302   5.317   7.428   5.186  0.1195 -0.3618  0.8320
29374WAT    EPW19303   5.237   7.400   5.207 -0.0992 -0.2198  0.2155
29375WAT      O19304   4.808   5.454   3.696 -0.2215  0.3392  0.5864
29375WAT     H119305   4.878   5.456   3.762 -0.0881  1.0855  0.4241
29375WAT     H219306   4.779   5.545   3.688 -1.6415 -0.0345  1.0953
29375WAT    EPW19307   4.813   5.466   3.704 -0.3912  0.3884  0.6322
29376WAT      O19308   3.146   3.826   7.429  0.7266  0.3891  0.4371
29376WAT     H119309   3.151   3.855   7.337 -3.1719  0.3017  0.0611
29376WAT     H219310   3.182   3.900   7.478  2.1252  0.7809 -1.0541
29376WAT    EPW19311   3.152   3.840   7.423  0.3968  0.4292  0.1910
29377WAT      O19312   6.560   4.949   0.241  0.8028  0.7504 -0.0375
29377WAT     H119313   6.582   4.861   0.210  2.5156  1.1894 -0.1903
29377WAT     H219314   6.467   4.945   0.262  0.4300 -0.5839 -1.7571
29377WAT    EPW19315   6.551   4.937   0.239  0.9797  0.6323 -0.2845
29378WAT      O19316   8.593   2.692   2.176  0.1252  0.2712  0.2758
29378WAT     H119317   8.561   2.781   2.164 -0.7400 -0.2501 -1.5281
29378WAT     H219318   8.586   2.652   2.090  0.6503 -1.5127  1.0223
29378WAT    EPW19319   8.588   2.699   2.163  0.0811 -0.0329  0.1363
29379WAT      O19320  10.429   9.456   6.206  0.8038  0.4437  0.0978
29379WAT     H119321  10.507   9.485   6.158  0.7485  2.2819  1.0349
29379WAT     H219322  10.421   9.518   6.278 -1.0920 -0.1885  0.4890
29379WAT    EPW19323  10.439   9.468   6.209  0.5469  0.6027  0.2730
29380WAT      O19324   3.138   5.230   2.637  0.1207  0.4614 -0.3899
29380WAT     H119325   3.155   5.143   2.674  0.5271  0.1952 -1.1681
29380WAT     H219326   3.106   5.282   2.710 -0.5614 -0.4679 -0.0110
29380WAT    EPW19327   3.136   5.226   2.651  0.0843  0.3037 -0.4426
29381WAT      O19328   4.681   9.794   8.117 -1.2300 -0.1257  0.7064
29381WAT     H119329   4.714   9.818   8.203  1.0258  1.6396 -0.5248
29381WAT     H219330   4.655   9.877   8.077  2.4050 -0.0241 -2.0116
29381WAT    EPW19331   4.682   9.808   8.123 -0.4528  0.1211  0.1855
29382WAT      O19332   7.272   2.169   0.560  0.4532  0.2814 -0.3068
29382WAT     H119333   7.225   2.156   0.478  0.7362 -0.4489 -0.3657
29382WAT     H219334   7.348   2.222   0.536 -0.5064  1.8002 -0.1422
29382WAT    EPW19335   7.276   2.174   0.546  0.3641  0.3855 -0.2929
29383WAT      O19336   5.827   8.888   0.467  0.6259 -0.6892 -0.0930
29383WAT     H119337   5.750   8.851   0.425  0.9767  0.0209 -1.3976
29383WAT     H219338   5.888   8.906   0.395  1.0139  1.1023  0.6430
29383WAT    EPW19339   5.825   8.885   0.452  0.7234 -0.3591 -0.1680
29384WAT      O19340   7.753   5.603   2.483  0.4741 -0.7219  0.2884
29384WAT     H119341   7.822   5.629   2.545  1.8645 -0.8064 -1.1614
29384WAT     H219342   7.696   5.546   2.534  0.6474  0.4887  1.9277
29384WAT    EPW19343   7.755   5.599   2.498  0.6807 -0.5734  0.3135
29385WAT      O19344  10.960   4.649   2.911  0.0103 -0.3000 -0.1266
29385WAT     H119345  10.868   4.628   2.928 -0.9498  3.9657  1.1393
29385WAT     H219346  11.003   4.639   2.997 -0.3326  1.8095  0.3490
29385WAT    EPW19347  10.954   4.645   2.925 -0.1616  0.5410  0.1031
29386WAT      O19348   1.114   3.083   2.045 -0.9405 -0.2711  0.6022
29386WAT     H119349   1.132   2.990   2.054 -0.5641 -0.2812 -0.1501
29386WAT     H219350   1.134   3.121   2.130  0.6948 -0.5918  0.3802
29386WAT    EPW19351   1.119   3.076   2.057 -0.6751 -0.3147  0.4736
29387WAT      O19352   4.081   5.341   1.502  0.1341 -0.5922 -0.5873
29387WAT     H119353   4.077   5.258   1.548  0.2914  0.2332  0.9905
29387WAT     H219354   4.174   5.367   1.507 -0.5478  1.9735  3.4040
29387WAT    EPW19355   4.093   5.334   1.509  0.0648 -0.1450  0.1472
29388WAT      O19356   4.687   9.191   3.056 -0.7708 -0.3381 -0.2701
29388WAT     H119357   4.780   9.169   3.063 -0.9575 -1.3273 -0.6943
29388WAT     H219358   4.656   9.195   3.146  0.2099  2.4898  0.0110
29388WAT    EPW19359   4.695   9.188   3.069 -0.6661 -0.0954 -0.2890
29389WAT      O19360   2.958   3.613   3.943 -0.0458 -0.3111 -0.3791
29389WAT     H119361   2.922   3.702   3.948  0.0610 -0.3195  0.7480
29389WAT     H219362   2.893   3.559   3.987 -0.8460 -1.0564 -2.3716
29389WAT    EPW19363   2.944   3.618   3.949 -0.1372 -0.4104 -0.4933
29390WAT      O19364   3.610   6.079   1.860 -0.0034 -0.1708 -0.2702
29390WAT     H119365   3.602   6.130   1.779  0.9756 -0.4932 -0.5805
29390WAT     H219366   3.523   6.084   1.900 -0.7476 -0.6872 -1.7532
29390WAT    EPW19367   3.597   6.086   1.854  0.0277 -0.2813 -0.5068
29391WAT      O19368   5.115   9.557   8.743 -0.6507 -0.0544 -0.1027
29391WAT     H119369   5.021   9.554   8.756 -0.7278  0.8258 -0.4087
29391WAT     H219370   5.137   9.650   8.746  0.0741 -0.1852 -0.9286
29391WAT    EPW19371   5.106   9.569   8.745 -0.5653  0.0448 -0.2518
29392WAT      O19372   3.814   5.512   2.384  0.4522  0.5807  0.0193
29392WAT     H119373   3.876   5.444   2.357 -0.8740  0.4076 -3.0375
29392WAT     H219374   3.838   5.588   2.330  0.6522  1.9364  1.9292
29392WAT    EPW19375   3.826   5.513   2.373  0.3037  0.7365 -0.1320
29393WAT      O19376   6.110   5.360   1.350  0.4424 -0.2513 -0.2408
29393WAT     H119377   6.142   5.401   1.270 -0.6294  0.2489 -0.4266
29393WAT     H219378   6.126   5.266   1.337  1.8494 -0.0384 -0.2883
29393WAT    EPW19379   6.117   5.353   1.338  0.4866 -0.1571 -0.2715
29394WAT      O19380   6.490   6.056   0.971  0.0320 -0.0797  0.7179
29394WAT     H119381   6.431   6.045   1.045 -0.8759 -0.8706 -0.0919
29394WAT     H219382   6.576   6.031   1.004 -0.5793 -1.6727  1.1745
29394WAT    EPW19383   6.494   6.051   0.985 -0.1686 -0.3939  0.6713
29395WAT      O19384   3.243   0.559   8.851 -0.2561  0.4153 -0.2525
29395WAT     H119385   3.170   0.569   8.790  1.1571 -2.1389 -2.5675
29395WAT     H219386   3.226   0.476   8.896  0.6291  0.3711  0.0315
29395WAT    EPW19387   3.231   0.550   8.849  0.0470  0.0726 -0.5212
29396WAT      O19388   3.110   9.431   5.364 -0.6022  0.0947  0.5702
29396WAT     H119389   3.113   9.523   5.340 -1.0087 -0.0309  0.0113
29396WAT     H219390   3.128   9.429   5.458 -1.0447  0.7800  0.6718
29396WAT    EPW19391   3.113   9.443   5.373 -0.7141  0.1688  0.5097
29397WAT      O19392   4.356   1.778   6.759 -0.8167  0.2531  0.4276
29397WAT     H119393   4.388   1.865   6.784  2.7992 -0.4398 -1.0686
29397WAT     H219394   4.367   1.725   6.837  0.8068  0.3289  0.2908
29397WAT    EPW19395   4.362   1.782   6.772 -0.1259  0.1717  0.2122
29398WAT      O19396   0.074  10.184   7.701  0.1138  1.1527  0.0400
29398WAT     H119397   0.012  10.248   7.667 -0.3523  1.7903  1.9700
29398WAT     H219398   0.132  10.235   7.758 -0.5019 -0.1731  1.9255
29398WAT    EPW19399   0.074  10.199   7.704 -0.0289  1.0619  0.5431
29399WAT      O19400   6.143   8.632   7.011  0.3032  0.9330 -0.0627
29399WAT     H119401   6.070   8.688   6.985 -0.2028 -0.2894 -1.4500
29399WAT     H219402   6.128   8.550   6.963  1.9375  0.2251  0.5634
29399WAT    EPW19403   6.131   8.629   7.001  0.4523  0.6785 -0.1628
29400WAT      O19404   8.164   6.928   3.014  0.1298 -0.2444 -0.2111
29400WAT     H119405   8.110   7.006   3.025 -0.2346 -0.5901  0.5823
29400WAT     H219406   8.101   6.858   2.999  0.2789 -0.7693  1.3751
29400WAT    EPW19407   8.149   6.929   3.013  0.1006 -0.3591  0.1029
29401WAT      O19408  10.535   6.943   8.941 -0.0189  0.3878 -0.2744
29401WAT     H119409  10.562   6.988   9.021 -0.1290 -0.1841  0.0928
29401WAT     H219410  10.517   7.013   8.878 -1.2097  0.8987  0.6083
29401WAT    EPW19411  10.537   6.958   8.943 -0.1903  0.3798 -0.1097
29402WAT      O19412   4.702   6.032   2.222 -0.1956  0.0369  0.0994
29402WAT     H119413   4.678   5.941   2.208  0.6157  0.0880 -1.9505
29402WAT     H219414   4.679   6.076   2.140  1.6287  1.1630  0.1334
29402WAT    EPW19415   4.696   6.026   2.210  0.1519  0.1919 -0.1665
29403WAT      O19416   6.614   9.094   8.797 -0.3398 -0.1429  0.4330
29403WAT     H119417   6.588   9.110   8.707 -0.1821  1.7192  0.6797
29403WAT     H219418   6.549   9.139   8.850  0.6801  0.4930  1.1873
29403WAT    EPW19419   6.602   9.102   8.792 -0.1845  0.1864  0.5655
29404WAT      O19420   7.451   9.618   8.409 -0.1111 -0.0280 -0.4641
29404WAT     H119421   7.372   9.599   8.460 -0.7567  0.2633 -1.3421
29404WAT     H219422   7.518   9.636   8.475 -0.8771  0.1399  0.2819
29404WAT    EPW19423   7.449   9.618   8.425 -0.2973  0.0324 -0.4821
29405WAT      O19424   3.758   6.905   0.977 -0.2087 -0.2717  0.0404
29405WAT     H119425   3.773   6.987   1.024  1.2249  0.0381 -0.8949
29405WAT     H219426   3.814   6.841   1.021  0.3553 -0.2203 -0.5876
29405WAT    EPW19427   3.767   6.907   0.989  0.0548 -0.2239 -0.1658
29406WAT      O19428   4.952   1.240   7.725 -0.0821  0.2124 -0.0027
29406WAT     H119429   4.858   1.255   7.739 -0.0977  0.1659 -0.0566
29406WAT     H219430   4.977   1.306   7.661 -0.2069 -0.1471 -0.4282
29406WAT    EPW19431   4.943   1.250   7.718 -0.1006  0.1589 -0.0658
29407WAT      O19432   2.942   5.708   0.178 -0.1186  0.3892 -0.0146
29407WAT     H119433   2.978   5.621   0.197 -0.6709 -0.3689 -2.1296
29407WAT     H219434   2.874   5.692   0.113 -3.4716  1.9216  2.7936
29407WAT    EPW19435   2.938   5.695   0.172 -0.6337  0.4914  0.0768
29408WAT      O19436   0.297   5.420   0.723 -0.7502 -0.2354  0.6222
29408WAT     H119437   0.340   5.354   0.670 -2.1748 -1.4587  0.9245
29408WAT     H219438   0.312   5.392   0.813  1.6341  1.8133  0.9895
29408WAT    EPW19439   0.305   5.408   0.728 -0.6236 -0.1264  0.7106
29409WAT      O19440  10.182  10.064   7.374  0.3970 -0.1725  0.6462
29409WAT     H119441  10.120  10.079   7.304  1.4026  1.3716  0.0407
29409WAT     H219442  10.235   9.990   7.344 -1.0730 -1.4796  1.1586
29409WAT    EPW19443  10.181  10.056   7.361  0.3357 -0.1411  0.6340
29410WAT      O19444   5.347   7.145   2.422 -1.1898 -0.0520 -0.0632
29410WAT     H119445   5.269   7.159   2.368 -1.4157  1.3745  0.5923
29410WAT     H219446   5.365   7.051   2.414 -2.3373 -0.2106 -1.0770
29410WAT    EPW19447   5.339   7.134   2.414 -1.3709  0.1154 -0.1105
29411WAT      O19448   3.816   2.574   7.119 -0.3099 -0.5260  0.0617
29411WAT     H119449   3.763   2.653   7.133 -0.5202 -0.5263 -0.6883
29411WAT     H219450   3.774   2.530   7.046  0.3876 -0.8284 -0.1620
29411WAT    EPW19451   3.803   2.579   7.111 -0.2457 -0.5658 -0.0668
29412WAT      O19452   0.056   2.442   5.907  0.7322 -0.0229  0.8778
29412WAT     H119453   0.030   2.523   5.951  0.1516  0.3845 -0.1873
29412WAT     H219454  -0.026   2.394   5.895  0.7833  0.1499 -0.2926
29412WAT    EPW19455   0.042   2.446   5.911  0.6623  0.0534  0.5829
29413WAT      O19456   1.668   2.548   0.709 -0.0828 -0.2117 -0.2561
29413WAT     H119457   1.629   2.465   0.734  2.0717 -1.4166 -0.6397
29413WAT     H219458   1.726   2.571   0.782 -0.6185  0.9435 -0.1700
29413WAT    EPW19459   1.671   2.540   0.722  0.1308 -0.2182 -0.2953
29414WAT      O19460   4.266   2.933   5.217  0.2915 -0.7671 -0.0737
29414WAT     H119461   4.348   2.913   5.263  1.6005 -0.8735 -2.2982
29414WAT     H219462   4.278   3.022   5.185 -0.9380 -0.3845  0.5168
29414WAT    EPW19463   4.279   2.942   5.219  0.3018 -0.7306 -0.2894
29415WAT      O19464   9.065   7.314   6.824  0.1579  0.0893  0.4779
29415WAT     H119465   8.991   7.255   6.814 -0.6948  1.2366 -0.3039
29415WAT     H219466   9.072   7.358   6.739  2.1532 -0.4372  0.3129
29415WAT    EPW19467   9.056   7.312   6.812  0.3085  0.1712  0.3533
29416WAT      O19468   6.004   8.230   1.096  0.1509 -0.0514 -0.3435
29416WAT     H119469   5.934   8.169   1.076  0.0088 -0.3912  1.1097
29416WAT     H219470   6.067   8.218   1.025 -0.2454 -1.2891 -0.5061
29416WAT    EPW19471   6.003   8.221   1.084  0.0796 -0.2599 -0.1733
29417WAT      O19472   6.482   5.937   1.429  0.2560  0.9153 -0.2635
29417WAT     H119473   6.506   5.859   1.479  0.0542 -0.3235 -2.0426
29417WAT     H219474   6.553   5.999   1.447  2.1087 -0.8115 -1.2635
29417WAT    EPW19475   6.495   5.935   1.438  0.4740  0.5245 -0.6301
29418WAT      O19476   7.780   5.483   1.820  1.2647  0.2678  0.5021
29418WAT     H119477   7.740   5.461   1.736 -1.8524 -0.3901  1.9832
29418WAT     H219478   7.841   5.411   1.837  0.8504 -0.3510 -0.5470
29418WAT    EPW19479   7.782   5.470   1.811  0.7989  0.0994  0.5591
29419WAT      O19480   5.545   4.611   0.797  0.6903  0.0612 -0.2678
29419WAT     H119481   5.521   4.699   0.767 -0.6901  0.8089  2.6252
29419WAT     H219482   5.467   4.558   0.780  0.1438  0.3375  1.1887
29419WAT    EPW19483   5.531   4.616   0.791  0.4358  0.1962  0.3059
29420WAT      O19484   1.954   2.557   1.304 -0.3983  0.9739 -0.1227
29420WAT     H119485   1.889   2.497   1.339  1.1535 -0.7547 -0.0534
29420WAT     H219486   1.942   2.554   1.209 -0.1658  0.3245 -0.1362
29420WAT    EPW19487   1.944   2.549   1.296 -0.1630  0.6603 -0.1153
29421WAT      O19488   5.161   1.863   8.492 -0.2405 -0.6194 -0.0068
29421WAT     H119489   5.096   1.869   8.422 -0.1881  0.8691  0.0439
29421WAT     H219490   5.222   1.795   8.462  0.6959  1.0856 -2.2205
29421WAT    EPW19491   5.161   1.855   8.479 -0.1101 -0.1982 -0.2923
29422WAT      O19492   9.454   7.605   0.345 -0.4596 -0.1606  0.1882
29422WAT     H119493   9.375   7.646   0.381 -0.1975  0.4669  0.0603
29422WAT     H219494   9.494   7.562   0.420 -0.1887  0.7074  0.5586
29422WAT    EPW19495   9.449   7.605   0.360 -0.3896  0.0365  0.2202
29423WAT      O19496   5.087   0.020   5.569  0.0850 -0.0342  0.8257
29423WAT     H119497   5.036   0.082   5.621  0.5209 -0.6257  1.9888
29423WAT     H219498   5.166   0.068   5.544  0.2314  0.0198  1.3777
29423WAT    EPW19499   5.091   0.034   5.572  0.1619 -0.1051  1.0521
29424WAT      O19500   7.694   7.494   7.903 -0.6689  0.1323 -0.7109
29424WAT     H119501   7.750   7.553   7.853 -0.5262  1.6016  1.0356
29424WAT     H219502   7.629   7.463   7.840 -1.7623  3.4839 -1.4621
29424WAT    EPW19503   7.693   7.498   7.888 -0.7942  0.7679 -0.5801
29425WAT      O19504   7.286   6.195   1.118 -0.4775 -0.3903 -0.0457
29425WAT     H119505   7.342   6.150   1.055 -1.5358 -1.1927 -0.4393
29425WAT     H219506   7.200   6.197   1.077 -1.3369 -1.4933  1.6258
29425WAT    EPW19507   7.282   6.190   1.104 -0.7305 -0.6416  0.1228
29426WAT      O19508   3.944   4.815   2.136  0.0382  0.1324 -0.3116
29426WAT     H119509   3.866   4.760   2.130 -1.5423  2.2866 -0.7872
29426WAT     H219510   3.913   4.896   2.177  2.4339  0.4137  1.0978
29426WAT    EPW19511   3.929   4.818   2.141  0.1457  0.4535 -0.1882
29427WAT      O19512   6.814   5.358   2.364  0.5458  0.5413 -0.4893
29427WAT     H119513   6.822   5.348   2.269 -2.3922 -2.4785 -0.5810
29427WAT     H219514   6.886   5.305   2.400  1.2421  1.1278 -0.9750
29427WAT    EPW19515   6.825   5.350   2.356  0.2503  0.2203 -0.5653
29428WAT      O19516  10.895   2.223   8.331  0.3047 -0.5016  0.2920
29428WAT     H119517  10.946   2.279   8.273 -0.1460 -0.8318 -0.4379
29428WAT     H219518  10.935   2.235   8.417  0.9632  0.0188 -0.0772
29428WAT    EPW19519  10.907   2.232   8.335  0.3324 -0.4766  0.1469
29429WAT      O19520   6.392   2.764   2.776  0.5235 -0.7241  0.0984
29429WAT     H119521   6.299   2.778   2.758  1.0544  1.2908 -1.3935
29429WAT     H219522   6.424   2.712   2.702  0.2449 -3.3555  1.6668
29429WAT    EPW19523   6.384   2.759   2.764  0.5567 -0.8054  0.1084
29430WAT      O19524   0.277   8.877   8.525 -0.4740  0.5028  0.2589
29430WAT     H119525   0.240   8.789   8.521 -1.1915  0.7394  1.2324
29430WAT     H219526   0.367   8.864   8.556 -0.0030 -0.0046 -1.2531
29430WAT    EPW19527   0.284   8.864   8.529 -0.5065  0.4678  0.1884
29431WAT      O19528  10.823  10.305   7.415 -0.2023 -0.1833 -0.6817
29431WAT     H119529  10.836  10.267   7.328 -1.9944  1.2872 -1.6666
29431WAT     H219530  10.731  10.331   7.416  0.5998  3.1055  0.2815
29431WAT    EPW19531  10.813  10.303   7.404 -0.3333  0.4439 -0.6845
29432WAT      O19532   9.303   7.333   1.004 -0.1986 -0.0962  0.1494
29432WAT     H119533   9.245   7.268   0.964  1.4051 -1.1901 -0.5205
29432WAT     H219534   9.360   7.362   0.933  1.5099 -0.7129  1.2042
29432WAT    EPW19535   9.303   7.328   0.989  0.2384 -0.3219  0.2002
29433WAT      O19536   5.102   9.687   6.947 -0.1408  0.1424 -0.0894
29433WAT     H119537   5.114   9.593   6.956  0.0995  0.1446 -0.3825
29433WAT     H219538   5.012   9.697   6.917 -0.5423  0.0688  1.0402
29433WAT    EPW19539   5.092   9.676   6.945 -0.1621  0.1330  0.0212
29434WAT      O19540   1.513   1.795   8.770  0.0558  0.4005  0.2232
29434WAT     H119541   1.506   1.719   8.712  2.3019  0.9481 -0.8906
29434WAT     H219542   1.426   1.836   8.767  0.0514  0.3633 -2.7601
29434WAT    EPW19543   1.501   1.791   8.762  0.3515  0.4678 -0.3171
29435WAT      O19544   3.864   2.329   1.280 -0.7625 -0.7366 -0.6188
29435WAT     H119545   3.768   2.336   1.282 -0.6505  1.6076 -0.5566
29435WAT     H219546   3.892   2.361   1.366  0.0984 -0.8777 -0.8386
29435WAT    EPW19547   3.855   2.334   1.292 -0.6341 -0.4461 -0.6396
29436WAT      O19548   4.045   7.202   1.828 -0.5539 -0.9728 -0.4032
29436WAT     H119549   4.124   7.193   1.774 -0.0237 -0.8664  0.3492
29436WAT     H219550   4.009   7.287   1.803 -0.4247 -1.0100 -0.7321
29436WAT    EPW19551   4.050   7.212   1.818 -0.4671 -0.9634 -0.3473
29437WAT      O19552   5.872   4.549   2.854  0.0099 -0.1652 -0.0618
29437WAT     H119553   5.886   4.642   2.832  1.1945 -0.5321 -0.9933
29437WAT     H219554   5.959   4.509   2.842 -0.9532 -1.8614 -2.1154
29437WAT    EPW19555   5.886   4.556   2.849  0.0393 -0.4373 -0.4554
29438WAT      O19556   2.416   2.494   4.762  0.1380  0.1824  0.1480
29438WAT     H119557   2.491   2.492   4.821 -0.2510  1.7226  0.7494
29438WAT     H219558   2.392   2.587   4.756 -1.1863 -0.1752 -0.7095
29438WAT    EPW19559   2.423   2.506   4.769 -0.0879  0.3383  0.1142
29439WAT      O19560   5.504   7.497   3.113 -0.3067 -0.0770  0.2084
29439WAT     H119561   5.561   7.442   3.059  2.4837  0.1996  2.6573
29439WAT     H219562   5.480   7.441   3.187 -0.7455  0.7597  0.7117
29439WAT    EPW19563   5.508   7.482   3.116  0.0036  0.0699  0.5978
29440WAT      O19564   6.404   6.633   3.533 -0.2581  0.3676  0.1204
29440WAT     H119565   6.463   6.707   3.519 -0.1941 -0.0437 -2.3667
29440WAT     H219566   6.460   6.563   3.564  0.4858  0.2328 -1.4150
29440WAT    EPW19567   6.419   6.633   3.535 -0.1512  0.2954 -0.4102
29441WAT      O19568   8.212   6.525   1.970  0.2986  0.3467 -0.4230
29441WAT     H119569   8.256   6.575   2.039 -1.0792  0.2973  0.5275
29441WAT     H219570   8.283   6.479   1.925  1.1460 -0.8461  1.9475
29441WAT    EPW19571   8.227   6.525   1.973  0.2284  0.1829  0.0150
29442WAT      O19572   0.885   2.099   6.710  0.2385  0.4460  0.1666
29442WAT     H119573   0.886   2.121   6.802 -0.0647 -0.1947  0.3335
29442WAT     H219574   0.934   2.017   6.705 -1.3470 -0.5381  0.0532
29442WAT    EPW19575   0.891   2.091   6.721 -0.0106  0.2317  0.1738
29443WAT      O19576   6.778   5.926   3.360 -0.2863  0.2679 -0.2663
29443WAT     H119577   6.715   5.951   3.428 -0.0830  0.6513 -0.2161
29443WAT     H219578   6.724   5.903   3.285 -0.5502 -0.9075  0.2547
29443WAT    EPW19579   6.763   5.926   3.359 -0.2944  0.1636 -0.1910
29444WAT      O19580   4.855   6.292   2.613 -0.0240 -0.2658 -0.5197
29444WAT     H119581   4.777   6.344   2.591 -0.5582 -0.3618  1.0186
29444WAT     H219582   4.843   6.268   2.705  0.0244 -3.3942 -1.1932
29444WAT    EPW19583   4.843   6.295   2.623 -0.0882 -0.6914 -0.4055
29445WAT      O19584   6.040   5.683   1.238  0.7943 -0.1475  0.0657
29445WAT     H119585   6.037   5.759   1.296  0.8240  0.7239 -1.0321
29445WAT     H219586   5.962   5.691   1.184  0.7009 -1.0095  0.0644
29445WAT    EPW19587   6.029   5.694   1.239  0.7861 -0.1459 -0.0792
29446WAT      O19588   9.095   6.870   7.976 -0.1436  0.0325  0.8584
29446WAT     H119589   9.069   6.870   8.069 -2.0535 -1.6625  0.3897
29446WAT     H219590   9.063   6.954   7.943 -0.2616  0.2635  1.5266
29446WAT    EPW19591   9.087   6.881   7.984 -0.4110 -0.1605  0.8845
29447WAT      O19592   2.822   5.074   0.134  0.4231 -0.1193  0.7763
29447WAT     H119593   2.769   5.117   0.201 -0.6763 -0.9411  0.4754
29447WAT     H219594   2.848   4.990   0.173  0.5591 -0.1999  0.5168
29447WAT    EPW19595   2.818   5.068   0.148  0.2960 -0.2382  0.7024
29448WAT      O19596  10.627   8.681   7.228 -1.1886 -0.5306  0.0027
29448WAT     H119597  10.632   8.585   7.232 -2.7892 -0.6913 -0.8258
29448WAT     H219598  10.593   8.699   7.140 -3.0218  0.6610  0.8969
29448WAT    EPW19599  10.623   8.671   7.217 -1.6413 -0.3953  0.0114
29449WAT      O19600   9.130   3.455   0.250  0.5727 -0.1207  0.2053
29449WAT     H119601   9.120   3.421   0.339 -0.4217  1.2176  0.6338
29449WAT     H219602   9.042   3.484   0.225 -0.0911 -3.8588 -2.7130
29449WAT    EPW19603   9.117   3.455   0.258  0.3538 -0.4371 -0.1231
29450WAT      O19604   2.391   1.830   8.836  0.5868 -0.2072  0.2084
29450WAT     H119605   2.405   1.924   8.827 -0.2389  0.1497  2.0549
29450WAT     H219606   2.472   1.798   8.877  2.3141 -0.9867 -3.3914
29450WAT    EPW19607   2.404   1.838   8.840  0.7057 -0.2629 -0.0234
29451WAT      O19608   4.039   2.229   8.150  0.1236 -0.1920  0.1366
29451WAT     H119609   3.944   2.220   8.142  0.1712 -3.1010  1.6097
29451WAT     H219610   4.051   2.308   8.202 -1.5965 -0.5639  1.1737
29451WAT    EPW19611   4.028   2.238   8.156 -0.0970 -0.6247  0.4678
29452WAT      O19612   4.935   3.439   1.968 -0.2306  0.3465 -0.4828
29452WAT     H119613   4.927   3.436   1.872 -0.1372 -1.4941 -0.4704
29452WAT     H219614   4.851   3.474   1.998  0.2874  2.4170 -1.2635
29452WAT    EPW19615   4.923   3.443   1.959 -0.1497  0.3769 -0.5841
29453WAT      O19616   3.676   5.153   1.318  0.4683  0.0672 -0.1988
29453WAT     H119617   3.766   5.168   1.290  0.4138 -0.1959 -0.5270
29453WAT     H219618   3.632   5.236   1.301  1.0681  0.8354  1.7444
29453WAT    EPW19619   3.682   5.166   1.312  0.5401  0.1338  0.0142
29454WAT      O19620   6.593   4.180   3.700  0.0908 -0.3963  0.5812
29454WAT     H119621   6.643   4.108   3.662  1.1964  0.9063 -0.5507
29454WAT     H219622   6.547   4.219   3.625  0.5648  0.8732  0.9263
29454WAT    EPW19623   6.594   4.176   3.685  0.2995 -0.0572  0.4774
29455WAT      O19624   3.730   6.031   1.408 -0.1416 -0.3941  0.1106
29455WAT     H119625   3.753   5.959   1.350 -0.3783 -0.7393  0.4370
29455WAT     H219626   3.645   6.062   1.377  1.8797  2.8385 -2.9901
29455WAT    EPW19627   3.722   6.026   1.396  0.0938 -0.0131 -0.2553
29456WAT      O19628   5.870   4.501   0.136 -0.5451 -0.3999 -0.4462
29456WAT     H119629   5.921   4.581   0.126  2.8793 -2.6174 -2.2802
29456WAT     H219630   5.781   4.526   0.108 -0.0717  3.0733  0.6667
29456WAT    EPW19631   5.865   4.515   0.131 -0.0308 -0.2346 -0.5413
29457WAT      O19632   8.074   8.740   8.242  0.2835  0.2898  0.1793
29457WAT     H119633   8.135   8.812   8.260  2.7095 -1.4597 -0.4641
29457WAT     H219634   8.076   8.730   8.147  0.7479 -1.1860  0.3124
29457WAT    EPW19635   8.082   8.748   8.232  0.6647 -0.1354  0.1116
29458WAT      O19636   7.450   7.327   2.802  0.1680  0.6744  0.2685
29458WAT     H119637   7.359   7.329   2.831  1.0959  2.9098  3.5620
29458WAT     H219638   7.497   7.278   2.870  1.4500 -0.8368 -1.5845
29458WAT    EPW19639   7.444   7.321   2.814  0.4592  0.7701  0.4585
29459WAT      O19640   6.333   8.598   7.959  0.4523 -0.6577  0.1136
29459WAT     H119641   6.321   8.562   8.047 -0.0588 -0.5104  0.1030
29459WAT     H219642   6.357   8.689   7.974 -2.4905  0.2290  0.0740
29459WAT    EPW19643   6.335   8.605   7.973 -0.0031 -0.5212  0.1070
29460WAT      O19644   8.030   6.706   7.222  0.0168  0.2429 -0.1264
29460WAT     H119645   7.936   6.720   7.237  0.2848  2.5911 -0.3547
29460WAT     H219646   8.041   6.711   7.127  0.4342  0.3864 -0.0729
29460WAT    EPW19647   8.019   6.708   7.212  0.1068  0.5715 -0.1495
29461WAT      O19648   9.183   8.396   6.619  0.0581  0.1012  0.4959
29461WAT     H119649   9.210   8.444   6.540 -0.9821 -0.8106 -0.4659
29461WAT     H219650   9.093   8.425   6.635 -0.3977 -1.0763  0.2188
29461WAT    EPW19651   9.175   8.406   6.610 -0.1392 -0.1750  0.3326
29462WAT      O19652   5.591   4.666   1.670  0.2884  0.0198 -0.5608
29462WAT     H119653   5.645   4.704   1.600 -1.4832  1.7098 -1.0852
29462WAT     H219654   5.646   4.597   1.707  2.9903  1.8934 -0.7654
29462WAT    EPW19655   5.605   4.662   1.666  0.4110  0.4897 -0.6568
29463WAT      O19656   7.095   4.129   3.164  0.3161 -0.3037  0.1207
29463WAT     H119657   7.004   4.141   3.136  0.2811  0.5373  0.5609
29463WAT     H219658   7.096   4.043   3.205 -0.9159  0.7367  2.5306
29463WAT    EPW19659   7.083   4.119   3.166  0.1490 -0.0553  0.4966
29464WAT      O19660   9.782  10.017   8.291  0.2687 -0.7135  0.2595
29464WAT     H119661   9.816   9.944   8.342  0.4830 -0.5631  0.3339
29464WAT     H219662   9.794  10.094   8.347  0.8802 -0.4866 -0.1691
29464WAT    EPW19663   9.788  10.017   8.305  0.3777 -0.6633  0.2122
29465WAT      O19664   4.180   3.033   1.366 -0.3018  0.3379 -0.0245
29465WAT     H119665   4.223   3.109   1.329  1.6930 -0.0791  1.2897
29465WAT     H219666   4.249   2.967   1.373 -1.4384 -0.8021  1.0003
29465WAT    EPW19667   4.194   3.034   1.362 -0.1886  0.1327  0.2840
29466WAT      O19668  10.565  10.231   7.717 -0.1429  0.4322  0.4786
29466WAT     H119669  10.511  10.223   7.638 -2.2657  0.4374  1.8696
29466WAT     H219670  10.574  10.141   7.749  0.6602  0.4388  0.2965
29466WAT    EPW19671  10.559  10.218   7.711 -0.3171  0.4334  0.6380
29467WAT      O19672  10.758   1.559   8.857 -0.0331 -0.0007 -0.2782
29467WAT     H119673  10.678   1.546   8.908  1.0211 -1.1506  1.1723
29467WAT     H219674  10.751   1.496   8.784 -1.1836  1.0894 -1.1390
29467WAT    EPW19675  10.747   1.549   8.854 -0.0453 -0.0086 -0.2003
29468WAT      O19676   6.349   4.700   1.173 -0.0333 -0.0589 -0.1499
29468WAT     H119677   6.315   4.756   1.103 -3.0456 -2.3308 -0.7292
29468WAT     H219678   6.427   4.659   1.135 -0.7396 -0.0761 -1.6666
29468WAT    EPW19679   6.354   4.702   1.159 -0.5236 -0.3610 -0.4264
29469WAT      O19680   3.152   2.790   8.916  0.0359  0.0642  0.6029
29469WAT     H119681   3.120   2.845   8.845  1.6864  1.8368  1.1520
29469WAT     H219682   3.239   2.762   8.888  0.5484  0.4675  1.7126
29469WAT    EPW19683   3.159   2.793   8.903  0.3211  0.3512  0.8216
29470WAT      O19684   0.477   6.029   4.683 -0.6608 -0.0021 -0.0093
29470WAT     H119685   0.531   6.100   4.718  1.2736 -1.3009 -0.1777
29470WAT     H219686   0.521   6.003   4.602 -2.0764 -0.5325 -0.6379
29470WAT    EPW19687   0.490   6.035   4.677 -0.5924 -0.2434 -0.1144
29471WAT      O19688   4.449   5.157   3.140  0.0417 -0.4496  0.3118
29471WAT     H119689   4.405   5.241   3.124 -1.0317 -0.6823  1.8329
29471WAT     H219690   4.541   5.180   3.154 -0.2824  0.5120  0.9828
29471WAT    EPW19691   4.455   5.171   3.140 -0.1426 -0.3538  0.6008
29472WAT      O19692  10.621   7.127   5.179  0.0769 -0.4236 -0.0649
29472WAT     H119693  10.656   7.169   5.100 -1.5207  1.6496  0.2283
29472WAT     H219694  10.557   7.064   5.146 -0.3826  0.2299 -0.4418
29472WAT    EPW19695  10.617   7.124   5.164 -0.1945 -0.0641 -0.0758
29473WAT      O19696   5.221   6.476   4.201 -0.1642 -0.5049 -0.2047
29473WAT     H119697   5.273   6.410   4.154 -1.5677 -1.3954 -0.5740
29473WAT     H219698   5.268   6.558   4.186  0.6705 -1.1370 -1.2318
29473WAT    EPW19699   5.234   6.478   4.193 -0.2394 -0.7057 -0.3891
29474WAT      O19700   5.782   3.341   1.395 -0.2422  0.2696 -0.3991
29474WAT     H119701   5.820   3.420   1.356 -1.5237  0.6191 -0.9789
29474WAT     H219702   5.711   3.316   1.336 -2.0491  0.6166  1.4926
29474WAT    EPW19703   5.778   3.348   1.382 -0.6497  0.3616 -0.2261
29475WAT      O19704   6.821   6.523   0.077 -0.4929 -0.5966 -0.3534
29475WAT     H119705   6.841   6.430   0.089 -1.6572 -0.7227  0.7769
29475WAT     H219706   6.755   6.524   0.007 -1.1441 -0.6955  0.2588
29475WAT    EPW19707   6.815   6.511   0.069 -0.7322 -0.6266 -0.1236
29476WAT      O19708   4.634   7.310   0.435 -0.9357 -0.2239  0.4542
29476WAT     H119709   4.721   7.346   0.418 -1.2368 -0.3130 -1.5731
29476WAT     H219710   4.599   7.363   0.506 -0.1562  1.4558 -0.3647
29476WAT    EPW19711   4.641   7.322   0.442 -0.8726 -0.0138  0.0788
29477WAT      O19712   1.391   2.032   7.308  0.4388 -0.3157  0.5230
29477WAT     H119713   1.338   2.111   7.314  1.1998  0.2824 -0.4010
29477WAT     H219714   1.462   2.054   7.247  0.3511 -1.8797 -0.2062
29477WAT    EPW19715   1.394   2.045   7.301  0.5276 -0.4431  0.3047
29478WAT      O19716   7.177   6.344   0.296  0.2419 -0.4159 -0.2429
29478WAT     H119717   7.205   6.280   0.362  0.3845  0.8800  1.0040
29478WAT     H219718   7.127   6.409   0.346  2.3352  1.8889 -0.9757
29478WAT    EPW19719   7.174   6.344   0.311  0.5369  0.0589 -0.1751
29479WAT      O19720   7.488   8.065   0.185  0.3798  0.3939  0.0896
29479WAT     H119721   7.419   8.038   0.125  1.1873  1.3260 -1.3225
29479WAT     H219722   7.441   8.100   0.261 -0.6585 -1.9969  0.6312
29479WAT    EPW19723   7.473   8.066   0.187  0.3495  0.2012 -0.0252
29480WAT      O19724   2.623   5.848   1.871  0.3238  0.2376  0.0041
29480WAT     H119725   2.549   5.903   1.844  1.0537  1.3204  0.1701
29480WAT     H219726   2.583   5.762   1.887 -0.7395  0.5441 -0.8393
29480WAT    EPW19727   2.608   5.844   1.869  0.2798  0.4208 -0.0852
29481WAT      O19728   2.727   0.067   7.876  0.3999 -0.0649 -0.2733
29481WAT     H119729   2.749   0.043   7.786 -1.0320 -0.6777 -0.4857
29481WAT     H219730   2.656   0.130   7.868  0.7332  0.4105  0.4197
29481WAT    EPW19731   2.720   0.072   7.863  0.2550 -0.0830 -0.2100
29482WAT      O19732   9.700   1.049   8.738 -0.1456  0.4287  0.0474
29482WAT     H119733   9.613   1.009   8.750 -0.2174  1.0572  2.1021
29482WAT     H219734   9.706   1.113   8.809  0.0467  4.0195 -2.9322
29482WAT    EPW19735   9.689   1.052   8.749 -0.1297  0.9852 -0.0749
29483WAT      O19736   1.178   8.879   5.312 -1.0074  0.5270  0.4291
29483WAT     H119737   1.111   8.810   5.312  1.3516 -2.1134 -3.1937
29483WAT     H219738   1.226   8.866   5.394 -0.5076 -2.4400 -0.2131
29483WAT    EPW19739   1.175   8.868   5.323 -0.6303 -0.2122 -0.1335
29484WAT      O19740   1.938   2.994   6.891  0.4247 -0.2977 -0.1840
29484WAT     H119741   1.897   3.075   6.860 -1.3039 -2.0298 -2.7791
29484WAT     H219742   1.945   3.006   6.986 -2.8914  1.6063 -0.0050
29484WAT    EPW19743   1.933   3.006   6.900 -0.2406 -0.2750 -0.5026
29485WAT      O19744   4.580   5.581   1.047  0.5143  0.4459 -0.0681
29485WAT     H119745   4.523   5.551   1.118 -1.1089  2.3526 -0.4773
29485WAT     H219746   4.567   5.517   0.977  0.8243 -0.5157  0.7397
29485WAT    EPW19747   4.570   5.569   1.047  0.3414  0.5708 -0.0156
29486WAT      O19748   6.951   5.170   0.976  0.1353 -0.0700  0.3034
29486WAT     H119749   6.912   5.242   0.927 -1.1160 -1.3207 -0.6099
29486WAT     H219750   6.965   5.101   0.910  1.4815 -0.6175  1.1100
29486WAT    EPW19751   6.948   5.170   0.960  0.1478 -0.3073  0.2893
29487WAT      O19752   7.097   2.656   1.984  0.0777 -0.7306  0.9646
29487WAT     H119753   7.082   2.612   2.068  1.1367 -0.8173  1.1174
29487WAT     H219754   7.149   2.593   1.933  1.4194  0.2294  1.1068
29487WAT    EPW19755   7.102   2.642   1.988  0.3941 -0.6155  1.0035
29488WAT      O19756   5.324   4.426   1.477 -0.3720  0.1167  0.1200
29488WAT     H119757   5.385   4.422   1.551 -0.7403  2.1554  0.5968
29488WAT     H219758   5.344   4.509   1.434 -0.2532 -0.9702 -2.0609
29488WAT    EPW19759   5.335   4.436   1.481 -0.4053  0.2422 -0.1047
29489WAT      O19760   3.327   6.079   3.223 -0.1452  0.3642  0.4850
29489WAT     H119761   3.296   6.169   3.234  2.8850  2.2586 -3.7966
29489WAT     H219762   3.411   6.077   3.269  0.1351 -0.0233 -0.0307
29489WAT    EPW19763   3.334   6.090   3.230  0.2916  0.5627 -0.1477
29490WAT      O19764   4.242   2.376   1.368 -0.6475  0.2531 -0.1298
29490WAT     H119765   4.223   2.297   1.419  0.9444 -0.7729 -1.0490
29490WAT     H219766   4.177   2.440   1.398 -1.1552 -0.9882  1.5784
29490WAT    EPW19767   4.231   2.374   1.379 -0.5043 -0.0461 -0.0258
29491WAT      O19768   6.794   6.699   2.734 -0.1568 -0.4660  0.8958
29491WAT     H119769   6.772   6.792   2.739  2.4530  0.2782  0.3278
29491WAT     H219770   6.890   6.697   2.728 -0.1609 -3.1604  0.0475
29491WAT    EPW19771   6.804   6.711   2.734  0.1867 -0.7234  0.7088
29492WAT      O19772   9.936   7.372   1.097 -0.3614  0.2609 -0.2381
29492WAT     H119773   9.973   7.419   1.022 -0.9103 -1.5434 -1.7107
29492WAT     H219774   9.998   7.301   1.114 -0.2251  0.6686  1.0688
29492WAT    EPW19775   9.949   7.369   1.090 -0.4158  0.0768 -0.2599
29493WAT      O19776   6.280   2.343   4.120  0.0571 -0.2177  0.1043
29493WAT     H119777   6.264   2.266   4.175  1.3845 -0.6800 -0.1208
29493WAT     H219778   6.370   2.332   4.090 -0.8267 -0.4267 -2.8227
29493WAT    EPW19779   6.289   2.331   4.123  0.1156 -0.3061 -0.3116
29494WAT      O19780   4.076   3.960   1.452 -0.1682 -0.1950 -0.0916
29494WAT     H119781   3.998   3.978   1.503  0.3472 -0.4106  0.7855
29494WAT     H219782   4.132   3.908   1.509 -0.5523 -2.4956 -1.6904
29494WAT    EPW19783   4.073   3.956   1.466 -0.1507 -0.5269 -0.1867
29495WAT      O19784   3.585   3.771   2.303 -0.3807 -0.2631  0.0240
29495WAT     H119785   3.632   3.783   2.221  0.6461 -1.4799  0.4101
29495WAT     H219786   3.573   3.676   2.310  0.9176 -0.3241  2.0149
29495WAT    EPW19787   3.589   3.760   2.293 -0.0740 -0.4315  0.3374
29496WAT      O19788   6.287   7.374   8.650  0.1729 -0.8049  0.0513
29496WAT     H119789   6.222   7.414   8.707  2.2832  0.3224  1.8538
29496WAT     H219790   6.266   7.406   8.563 -0.7417  0.8092  0.8242
29496WAT    EPW19791   6.276   7.384   8.646  0.3307 -0.4435  0.3905
29497WAT      O19792   9.309   1.157   7.128 -0.0133 -0.3277 -0.3199
29497WAT     H119793   9.393   1.115   7.109  0.0143 -0.8789  0.9618
29497WAT     H219794   9.261   1.094   7.180 -0.3903  0.8107  0.7659
29497WAT    EPW19795   9.314   1.143   7.132 -0.0596 -0.2502 -0.0076
29498WAT      O19796   3.219   1.142   4.346 -0.0635 -0.5136 -0.3313
29498WAT     H119797   3.197   1.068   4.403  2.7852 -2.1407 -1.0982
29498WAT     H219798   3.203   1.109   4.258 -0.4848  0.4759 -0.6322
29498WAT    EPW19799   3.214   1.128   4.342  0.2567 -0.5977 -0.4721
29499WAT      O19800   5.844   6.172   3.532 -0.0808 -0.1572 -0.2232
29499WAT     H119801   5.877   6.089   3.567 -3.1633 -1.1321  0.6201
29499WAT     H219802   5.779   6.201   3.596 -1.9679  0.8291 -2.4644
29499WAT    EPW19803   5.840   6.165   3.545 -0.7362 -0.1554 -0.4077
29500WAT      O19804   3.798   1.032   6.941  0.5641 -0.3109 -0.1625
29500WAT     H119805   3.827   1.091   7.011  2.9657 -2.0099  0.4051
29500WAT     H219806   3.879   0.996   6.906 -0.6496 -0.5315 -2.9814
29500WAT    EPW19807   3.813   1.035   6.946  0.7209 -0.5640 -0.4594
29501WAT      O19808   7.115   7.267   4.758 -0.0491 -0.1302 -0.1086
29501WAT     H119809   7.107   7.180   4.798 -0.3457 -0.0203  0.0779
29501WAT     H219810   7.166   7.252   4.678 -1.4369 -0.7529 -0.9229
29501WAT    EPW19811   7.121   7.253   4.753 -0.2713 -0.1979 -0.1912
29502WAT      O19812   7.649   7.433   0.826  0.5041  0.0640  0.9153
29502WAT     H119813   7.597   7.510   0.850 -0.5522  0.2584 -1.6727
29502WAT     H219814   7.733   7.469   0.800  0.7687  0.0942  1.7729
29502WAT    EPW19815   7.653   7.448   0.826  0.3996  0.0937  0.6871
29503WAT      O19816   6.108   5.621   0.816 -0.0023  0.1834  0.1181
29503WAT     H119817   6.190   5.584   0.783  0.2177  0.0771  0.7739
29503WAT     H219818   6.046   5.608   0.744  0.2461 -0.8392  0.0626
29503WAT    EPW19819   6.110   5.614   0.802  0.0594  0.0343  0.1973
29504WAT      O19820   7.194   7.420   8.379 -0.1359  0.5975 -0.1109
29504WAT     H119821   7.241   7.349   8.335 -2.1017 -1.8636  1.4580
29504WAT     H219822   7.216   7.498   8.328  4.3821 -0.5359 -0.2897
29504WAT    EPW19823   7.203   7.421   8.366  0.2005  0.1235  0.0725
29505WAT      O19824   9.963   8.615   8.203  0.7382 -0.4763 -0.0411
29505WAT     H119825   9.888   8.661   8.240  0.7265  0.1240 -0.7983
29505WAT     H219826  10.039   8.649   8.251  0.7380  0.3986 -0.6400
29505WAT    EPW19827   9.963   8.625   8.214  0.7362 -0.2818 -0.2203
29506WAT      O19828   7.833   9.472   7.867 -0.2146 -0.1395  0.2118
29506WAT     H119829   7.748   9.460   7.910  0.7429 -1.3951  1.8525
29506WAT     H219830   7.855   9.564   7.882 -1.5219  0.3636 -0.7534
29506WAT    EPW19831   7.824   9.483   7.874 -0.2611 -0.2389  0.3009
29507WAT      O19832   2.370   6.687   1.745  0.1988  0.0316  0.5346
29507WAT     H119833   2.279   6.662   1.762  0.2721 -2.1390 -1.6656
29507WAT     H219834   2.421   6.628   1.801  0.3053  0.9702  1.4604
29507WAT    EPW19835   2.365   6.676   1.755  0.2226 -0.1311  0.3665
29508WAT      O19836   4.939   4.521   2.868  0.3520 -0.5423  0.4808
29508WAT     H119837   5.027   4.523   2.831 -0.1336  0.9060 -0.7193
29508WAT     H219838   4.881   4.509   2.792 -0.5949  0.9374  0.9177
29508WAT    EPW19839   4.943   4.519   2.853  0.1631 -0.1559  0.3802
29509WAT      O19840   3.926   4.028   1.780  0.2327  0.4557  0.3340
29509WAT     H119841   3.984   4.098   1.811  1.8969  0.5642 -2.6305
29509WAT     H219842   3.900   4.056   1.692 -1.8428 -1.1215  0.3741
29509WAT    EPW19843   3.930   4.041   1.772  0.1786  0.2618 -0.0516
29510WAT      O19844   5.528   5.198   1.062  0.2915  0.9018  0.2940
29510WAT     H119845   5.454   5.201   1.001  0.6933 -0.0157 -0.2630
29510WAT     H219846   5.489   5.211   1.148 -0.4793  0.7472 -0.0265
29510WAT    EPW19847   5.513   5.200   1.065  0.2427  0.7603  0.1783
29511WAT      O19848   6.793   5.048   0.597 -0.3122  0.4584 -0.1895
29511WAT     H119849   6.739   4.971   0.580 -2.6401  1.5400  1.6114
29511WAT     H219850   6.828   5.033   0.685 -2.0372  1.9889  0.8446
29511WAT    EPW19851   6.790   5.036   0.606 -0.8469  0.8030  0.1844
29512WAT      O19852   7.138   3.949   2.908 -0.0787 -0.0947  0.3366
29512WAT     H119853   7.077   4.011   2.947  0.3091  0.8850 -0.5934
29512WAT     H219854   7.083   3.889   2.858 -0.3425  0.4160  0.0069
29512WAT    EPW19855   7.123   3.949   2.907 -0.0625  0.1018  0.1704
29513WAT      O19856   8.796   7.318   3.674  0.0439  0.0121  0.4691
29513WAT     H119857   8.756   7.399   3.642  0.8745  0.6828  1.0702
29513WAT     H219858   8.777   7.319   3.768  0.5506 -0.2007  0.5735
29513WAT    EPW19859   8.788   7.329   3.682  0.2203  0.0725  0.5621
29514WAT      O19860   0.380   9.766   8.748 -0.7366  0.2760  0.7771
29514WAT     H119861   0.466   9.797   8.720 -0.2880  0.3168  2.1363
29514WAT     H219862   0.343   9.724   8.670 -0.2848  1.9245 -0.3688
29514WAT    EPW19863   0.386   9.764   8.734 -0.6179  0.4988  0.8044
29515WAT      O19864   5.665   6.714   7.452 -0.0330  0.1291 -0.2430
29515WAT     H119865   5.639   6.683   7.539 -0.2589 -1.9504 -1.0093
29515WAT     H219866   5.625   6.801   7.445  0.8357  0.7934  2.0986
29515WAT    EPW19867   5.656   6.722   7.463  0.0520 -0.0575 -0.0350
29516WAT      O19868   3.888   5.376   0.235  0.5724  0.3659 -0.3159
29516WAT     H119869   3.859   5.287   0.255  0.1460  0.3787 -0.8377
29516WAT     H219870   3.840   5.431   0.297  1.6206  0.1538  0.7016
29516WAT    EPW19871   3.878   5.371   0.246  0.6543  0.3395 -0.2505
29517WAT      O19872   0.570  10.204   6.915 -0.7295  0.5444  0.1183
29517WAT     H119873   0.607  10.156   6.989  1.2411 -1.2437 -1.9017
29517WAT     H219874   0.481  10.171   6.906 -1.0027  0.7939  1.6297
29517WAT    EPW19875   0.563  10.194   6.924 -0.5056  0.3414  0.0510
29518WAT      O19876  10.279   0.174   8.110 -0.6101 -0.5911 -0.3428
29518WAT     H119877  10.292   0.261   8.148  1.6958 -0.2140 -1.8315
29518WAT     H219878  10.192   0.179   8.069  0.2048  1.6858 -1.9776
29518WAT    EPW19879  10.269   0.186   8.110 -0.1979 -0.2410 -0.7553
29519WAT      O19880   8.230   9.748   8.349  0.9274  0.7425  0.0612
29519WAT     H119881   8.208   9.836   8.379  3.4560  1.0280  1.3646
29519WAT     H219882   8.311   9.759   8.298  1.8452 -0.8743  1.0457
29519WAT    EPW19883   8.238   9.761   8.346  1.3814  0.5670  0.3633
29520WAT      O19884   7.066   6.291   2.570  0.0670 -0.6827  0.1717
29520WAT     H119885   7.078   6.368   2.626 -1.7051  0.0169 -0.3339
29520WAT     H219886   7.112   6.313   2.489  0.6298 -0.6928  0.4850
29520WAT    EPW19887   7.074   6.304   2.567 -0.0927 -0.5918  0.1463
29521WAT      O19888   3.054   4.083   6.857  0.6548 -0.4152 -0.7492
29521WAT     H119889   3.105   4.087   6.776  0.9270  1.2452 -0.5297
29521WAT     H219890   2.963   4.097   6.829  0.7549  0.2146 -0.7814
29521WAT    EPW19891   3.049   4.085   6.843  0.7038 -0.1132 -0.7246
29522WAT      O19892   2.345   0.578   6.737 -0.0167 -0.9631  0.1681
29522WAT     H119893   2.342   0.663   6.780  1.3432 -0.4838 -0.6362
29522WAT     H219894   2.287   0.587   6.661 -0.2720 -0.9206  0.3683
29522WAT    EPW19895   2.337   0.590   6.733  0.1289 -0.8943  0.0885
29523WAT      O19896   6.085   9.024   6.338  0.0826  0.4898 -0.0284
29523WAT     H119897   6.158   8.981   6.382 -0.8547  1.4400  2.6522
29523WAT     H219898   6.126   9.080   6.272  1.5332 -1.1576 -0.5973
29523WAT    EPW19899   6.100   9.026   6.335  0.1504  0.3982  0.2503
29524WAT      O19900   4.202   7.866   0.314 -0.3811  0.1712 -0.7659
29524WAT     H119901   4.143   7.814   0.259 -0.0154 -1.1985  0.0802
29524WAT     H219902   4.166   7.858   0.402  1.4254 -1.3200 -0.1069
29524WAT    EPW19903   4.189   7.858   0.318 -0.0944 -0.2062 -0.5674
29525WAT      O19904   4.741   5.061   3.877 -0.4709 -0.3485  0.4509
29525WAT     H119905   4.823   5.012   3.874  0.1152  0.5894  0.7478
29525WAT     H219906   4.725   5.087   3.786 -1.2088 -1.7446  0.1599
29525WAT    EPW19907   4.750   5.058   3.865 -0.4909 -0.4086  0.4518
29526WAT      O19908   5.252   5.144   2.471  0.0645 -0.1252 -0.2279
29526WAT     H119909   5.268   5.204   2.544  1.1437 -1.0580  0.3413
29526WAT     H219910   5.309   5.175   2.401 -0.1527  0.1165 -0.3006
29526WAT    EPW19911   5.261   5.156   2.472  0.1783 -0.2165 -0.1625
29527WAT      O19912   8.153   9.740   7.943  0.7726  0.2679  0.5145
29527WAT     H119913   8.150   9.835   7.933 -0.0568  0.0866 -1.4007
29527WAT     H219914   8.110   9.723   8.027  2.4784  1.6484  1.7586
29527WAT    EPW19915   8.147   9.750   7.953  0.8888  0.4258  0.4258
29528WAT      O19916   5.661   9.277   8.514 -0.0341 -0.8434 -0.6375
29528WAT     H119917   5.597   9.246   8.578  1.8884 -0.2990  1.7227
29528WAT     H219918   5.614   9.341   8.461 -1.6067 -0.9783  0.5332
29528WAT    EPW19919   5.646   9.282   8.516  0.0119 -0.7892 -0.1717
29529WAT      O19920   2.737   4.807   1.362 -0.1684 -0.0234 -0.1713
29529WAT     H119921   2.770   4.767   1.443 -0.8972  1.3628  0.8620
29529WAT     H219922   2.662   4.859   1.391 -2.1539 -1.6117 -2.1661
29529WAT    EPW19923   2.732   4.808   1.377 -0.5264 -0.0501 -0.2981
29530WAT      O19924   1.937   2.477   2.147 -0.2508  0.2186  0.4205
29530WAT     H119925   1.869   2.537   2.175 -0.7484  0.8961 -1.9619
29530WAT     H219926   1.904   2.440   2.065  1.9892  0.2043 -0.5716
29530WAT    EPW19927   1.924   2.480   2.140 -0.0210  0.3061 -0.0246
29531WAT      O19928   5.127   5.448   2.272  0.6762 -0.1565  0.0978
29531WAT     H119929   5.192   5.404   2.218  0.7786 -0.8800  0.8030
29531WAT     H219930   5.078   5.377   2.314  0.7752  0.3868  1.1624
29531WAT    EPW19931   5.129   5.433   2.270  0.7029 -0.1805  0.3313
29532WAT      O19932   6.785   4.439   1.088 -0.1055  0.0636 -0.4159
29532WAT     H119933   6.880   4.432   1.077  0.1141 -0.5002  1.4211
29532WAT     H219934   6.774   4.490   1.169 -1.3505 -0.3936 -0.2683
29532WAT    EPW19935   6.796   4.445   1.098 -0.2408 -0.0713 -0.1541
29533WAT      O19936   9.750   1.352   7.347 -0.0057 -0.5070 -0.3517
29533WAT     H119937   9.786   1.274   7.305  0.4823 -0.7557  0.5005
29533WAT     H219938   9.656   1.347   7.331 -0.2401 -2.2305  1.1936
29533WAT    EPW19939   9.742   1.341   7.340  0.0277 -0.7672 -0.0355
29534WAT      O19940   4.134   1.599   8.068 -0.0221  0.3446  0.2139
29534WAT     H119941   4.186   1.672   8.102 -1.3609  0.7052  1.6270
29534WAT     H219942   4.118   1.622   7.976  2.9940 -0.2345 -0.5543
29534WAT    EPW19943   4.139   1.612   8.060  0.1988  0.3157  0.2985
29535WAT      O19944   3.369   5.454   3.185 -0.1166 -0.4955 -0.0555
29535WAT     H119945   3.403   5.430   3.099 -2.4052 -1.0709 -0.8723
29535WAT     H219946   3.344   5.371   3.225 -1.2817 -0.0568  0.1620
29535WAT    EPW19947   3.370   5.440   3.179 -0.5721 -0.5138 -0.1346
29536WAT      O19948   6.300   7.994   1.787 -0.6390  0.3720 -0.2367
29536WAT     H119949   6.241   8.069   1.781 -0.3203  0.6793  0.3030
29536WAT     H219950   6.388   8.033   1.780 -0.4899 -0.0280 -0.6119
29536WAT    EPW19951   6.304   8.009   1.785 -0.5772  0.3600 -0.2151
29537WAT      O19952   4.166   2.586   0.781 -0.5582 -0.0747 -1.1158
29537WAT     H119953   4.222   2.653   0.741  0.9049 -0.0789  0.7853
29537WAT     H219954   4.227   2.521   0.815 -1.4172  0.9672  2.9674
29537WAT    EPW19955   4.182   2.587   0.780 -0.4785  0.0622 -0.3265
29538WAT      O19956   2.820   0.934   6.263 -0.3664  0.0283 -0.6082
29538WAT     H119957   2.915   0.927   6.251 -0.1979  1.4016 -0.2209
29538WAT     H219958   2.798   1.021   6.231 -1.2289  0.4213  0.9372
29538WAT    EPW19959   2.829   0.944   6.257 -0.4579  0.2613 -0.3533
29539WAT      O19960   2.342   5.422   2.340  0.1406 -0.4369  0.6568
29539WAT     H119961   2.348   5.507   2.383  0.8097  0.6245 -1.4386
29539WAT     H219962   2.258   5.386   2.368  0.1435  0.5910  2.0832
29539WAT    EPW19963   2.332   5.428   2.350  0.2292 -0.1614  0.5686
29540WAT      O19964   7.357  10.346   8.721  0.0002  0.7694 -0.0620
29540WAT     H119965   7.274  10.365   8.677 -0.0115 -1.4345 -1.1620
29540WAT     H219966   7.337  10.270   8.776  1.0811  0.7582  0.3281
29540WAT    EPW19967   7.344  10.338   8.722  0.1409  0.4773 -0.1554
29541WAT      O19968   3.382   1.333   7.214 -0.4059  0.0552  0.3496
29541WAT     H119969   3.380   1.341   7.309  0.2734  2.8097  0.2283
29541WAT     H219970   3.291   1.315   7.190 -1.3783  2.9433  1.3977
29541WAT    EPW19971   3.370   1.332   7.223 -0.4444  0.7994  0.4718
29542WAT      O19972   3.749   9.241   3.153 -0.6532  0.4864 -0.5767
29542WAT     H119973   3.662   9.252   3.189 -0.1964  2.3661  0.0621
29542WAT     H219974   3.807   9.242   3.229  0.0635  1.2654 -1.1115
29542WAT    EPW19975   3.745   9.243   3.168 -0.4984  0.8373 -0.5629
29543WAT      O19976  10.094   0.386   8.975 -0.0730 -0.4585  0.1648
29543WAT     H119977  10.061   0.429   8.896 -1.6992 -2.0285 -0.0880
29543WAT     H219978  10.042   0.422   9.046  0.7373  0.2568  0.4155
29543WAT    EPW19979  10.083   0.396   8.974 -0.1807 -0.5712  0.1650
29544WAT      O19980   3.126   5.761   0.837 -0.1010  0.2928  0.1696
29544WAT     H119981   3.171   5.812   0.771  0.4875  0.2985  0.5701
29544WAT     H219982   3.158   5.795   0.921 -2.8429  2.1759  0.5846
29544WAT    EPW19983   3.136   5.772   0.840 -0.3850  0.5422  0.2771
29545WAT      O19984   5.813   4.960   3.509  0.7847  0.4043 -0.1096
29545WAT     H119985   5.824   5.010   3.590 -0.0402 -0.8256  0.8033
29545WAT     H219986   5.807   4.869   3.539  2.7062 -0.3235 -1.7423
29545WAT    EPW19987   5.814   4.954   3.524  0.9296  0.1459 -0.2046
29546WAT      O19988   4.890   1.325   1.575  0.0096 -0.0249  0.3069
29546WAT     H119989   4.907   1.305   1.667 -1.7299 -0.4091  0.5768
29546WAT     H219990   4.848   1.246   1.540 -0.1533  0.4390 -0.5854
29546WAT    EPW19991   4.887   1.312   1.582 -0.2410 -0.0144  0.2248
29547WAT      O19992   7.602   2.689   2.566  0.0994  0.2808 -0.0421
29547WAT     H119993   7.625   2.605   2.606  1.5259  0.8188  0.3349
29547WAT     H219994   7.515   2.675   2.527  0.8874 -1.7607 -1.1726
29547WAT    EPW19995   7.593   2.676   2.566  0.3915  0.0825 -0.1415
29548WAT      O19996   1.191   0.831   8.908  0.2644  0.2944  0.4867
29548WAT     H119997   1.177   0.770   8.835 -1.3320 -0.8580  1.6770
29548WAT     H219998   1.137   0.907   8.887  0.6232  0.4166 -0.0108
29548WAT    EPW19999   1.182   0.833   8.895  0.1012  0.1585  0.5784
29549WAT      O20000   9.444   8.489   7.677 -0.5155  0.6133 -0.0822
29549WAT     H120001   9.512   8.478   7.743  0.4891  0.6206 -1.0828
29549WAT     H220002   9.439   8.583   7.663  3.6058  0.5512 -4.2336
29549WAT    EPW20003   9.452   8.500   7.684  0.1602  0.6061 -0.7620
29550WAT      O20004   1.492   3.535   8.050 -0.0319 -0.0555  0.4997
29550WAT     H120005   1.447   3.475   7.990  0.8912 -0.2966  0.0313
29550WAT     H220006   1.524   3.479   8.121  0.7403 -0.1185  0.1144
29550WAT    EPW20007   1.490   3.520   8.051  0.1916 -0.0956  0.3867
29551WAT      O20008   5.761   6.641   0.763 -0.0340  0.7153  0.5482
29551WAT     H120009   5.786   6.661   0.853  0.0595  1.2171  0.4126
29551WAT     H220010   5.732   6.550   0.766  0.4509  0.5737  0.9856
29551WAT    EPW20011   5.760   6.631   0.775  0.0420  0.7632  0.5880
29552WAT      O20012   5.517   5.570   3.186 -0.6349 -0.2369 -0.0444
29552WAT     H120013   5.595   5.623   3.203 -1.3997  1.3136 -1.0532
29552WAT     H220014   5.544   5.508   3.119  0.5718 -1.9378  1.9024
29552WAT    EPW20015   5.531   5.569   3.179 -0.5767 -0.2568  0.0794
29553WAT      O20016   4.176   5.519   1.823 -0.0276  0.1877  0.1772
29553WAT     H120017   4.219   5.435   1.836  0.0350  0.1088 -0.5431
29553WAT     H220018   4.247   5.579   1.802 -0.1937  0.1904 -0.3828
29553WAT    EPW20019   4.191   5.516   1.822 -0.0415  0.1776  0.0083
29554WAT      O20020   1.005   8.717   7.067 -0.5077  0.2570 -0.4980
29554WAT     H120021   1.074   8.650   7.070  1.0292  1.8007  0.1937
29554WAT     H220022   1.030   8.781   7.134 -2.8909  0.6545  0.1135
29554WAT    EPW20023   1.018   8.717   7.076 -0.6194  0.5131 -0.3259
29555WAT      O20024   9.675   9.275   0.889  0.6465  0.2574  0.2438
29555WAT     H120025   9.742   9.225   0.842  0.4593 -1.5462  1.7247
29555WAT     H220026   9.592   9.239   0.858  0.4564  0.6320  0.3123
29555WAT    EPW20027   9.673   9.263   0.879  0.5965  0.0691  0.4481
29556WAT      O20028   8.553   5.160   1.327  0.2013 -0.1624  0.1320
29556WAT     H120029   8.492   5.213   1.274  1.2385  1.4954  0.5162
29556WAT     H220030   8.575   5.086   1.271 -0.0839  0.6319 -1.0769
29556WAT    EPW20031   8.548   5.158   1.313  0.3009  0.1612  0.0232
29557WAT      O20032   7.331   8.802   6.205  0.8097 -0.3276  0.4274
29557WAT     H120033   7.279   8.836   6.278  1.1983 -0.2448  0.6662
29557WAT     H220034   7.331   8.873   6.141  1.7558  0.1989  0.9940
29557WAT    EPW20035   7.324   8.816   6.206  0.9856 -0.2475  0.5333
29558WAT      O20036   8.524   9.183   8.022  0.1808 -0.3453  0.0420
29558WAT     H120037   8.473   9.224   7.951  0.5529 -0.0070 -0.0315
29558WAT     H220038   8.615   9.188   7.992  0.8503  3.1177  2.0824
29558WAT    EPW20039   8.529   9.189   8.008  0.3181  0.1564  0.3018
29559WAT      O20040   5.794   2.060   7.012  0.5801 -0.3598  0.1855
29559WAT     H120041   5.813   2.014   7.094 -2.3860 -2.1492  0.0018
29559WAT     H220042   5.860   2.029   6.951  0.1385 -2.5635  0.7477
29559WAT    EPW20043   5.805   2.050   7.015  0.1307 -0.8866  0.2353
29560WAT      O20044   6.836   8.439   0.034  0.0716 -0.2892  0.6838
29560WAT     H120045   6.847   8.495  -0.042 -2.7733 -1.9148 -1.0883
29560WAT     H220046   6.800   8.496   0.102 -2.3640  0.2004 -0.9303
29560WAT    EPW20047   6.833   8.454   0.033 -0.6248 -0.4393  0.2370
29561WAT      O20048   3.988   2.456   7.483  0.2816  0.2489  0.3818
29561WAT     H120049   3.958   2.508   7.409 -2.5483  1.9444  2.5323
29561WAT     H220050   4.063   2.504   7.518  1.8005 -0.6925 -1.3608
29561WAT    EPW20051   3.994   2.469   7.478  0.1086  0.3483  0.4356
29562WAT      O20052   7.233   5.345   0.172 -0.7050 -0.3554 -0.4532
29562WAT     H120053   7.167   5.278   0.156 -0.7363 -0.5094  0.2908
29562WAT     H220054   7.307   5.320   0.118 -0.4768 -1.3448  0.2975
29562WAT    EPW20055   7.234   5.333   0.163 -0.6793 -0.5062 -0.2561
29563WAT      O20056   2.839   0.467   7.733  0.5043  0.5920  0.2397
29563WAT     H120057   2.871   0.554   7.710  2.3719 -0.2362 -0.4901
29563WAT     H220058   2.896   0.407   7.686 -2.1972 -1.0507 -1.2159
29563WAT    EPW20059   2.851   0.471   7.724  0.3942  0.2661 -0.0489
29564WAT      O20060   5.727   0.292   8.060 -0.1851 -0.6060  0.4785
29564WAT     H120061   5.769   0.232   8.121 -0.7279 -0.3881  1.0802
29564WAT     H220062   5.798   0.349   8.029  0.9261 -3.1929 -2.1991
29564WAT    EPW20063   5.742   0.292   8.064 -0.1101 -0.9184  0.2050
29565WAT      O20064   2.714   4.608   8.938  0.5143  0.1099  0.3122
29565WAT     H120065   2.768   4.674   8.980  1.7160 -0.0014 -0.9846
29565WAT     H220066   2.755   4.525   8.961 -0.1591 -0.0984  0.7782
29565WAT    EPW20067   2.726   4.606   8.947  0.5839  0.0677  0.2027
29566WAT      O20068   6.615   4.838   0.500 -0.1035 -0.5272  0.0018
29566WAT     H120069   6.605   4.905   0.432 -1.5266 -0.4245  0.2680
29566WAT     H220070   6.525   4.810   0.518  0.3532 -1.4182  0.9837
29566WAT    EPW20071   6.602   4.843   0.493 -0.2310 -0.6311  0.1664
29567WAT      O20072   0.394   0.404   8.885  0.4405 -0.3062  0.4196
29567WAT     H120073   0.448   0.469   8.931  1.9834 -1.7380  0.7271
29567WAT     H220074   0.310   0.409   8.929  1.5621 -0.9014  2.8292
29567WAT    EPW20075   0.390   0.413   8.897  0.7920 -0.5736  0.7787
29568WAT      O20076   6.416   6.288   0.802  0.4131 -0.5161  0.0988
29568WAT     H120077   6.418   6.192   0.810  0.1727 -0.6806 -1.5503
29568WAT     H220078   6.493   6.309   0.748 -1.0355 -0.0638 -1.8789
29568WAT    EPW20079   6.427   6.278   0.796  0.1900 -0.4780 -0.3795
29569WAT      O20080   9.908   8.190   2.033  0.3886 -0.4550 -0.0458
29569WAT     H120081   9.917   8.127   2.105  0.2379 -0.0525  0.3252
29569WAT     H220082   9.814   8.199   2.021  0.3882  0.3674  0.4930
29569WAT    EPW20083   9.897   8.183   2.041  0.3691 -0.2937  0.0744
29570WAT      O20084   7.188  10.194   7.545  0.7269 -0.1482  0.5218
29570WAT     H120085   7.212  10.133   7.615  0.3189  1.9353  2.5899
29570WAT     H220086   7.094  10.179   7.531  1.1115 -1.6468 -0.7733
29570WAT    EPW20087   7.179  10.184   7.553  0.7238 -0.0710  0.6237
29571WAT      O20088   8.491   5.809   3.168 -0.0808 -0.4300 -0.4361
29571WAT     H120089   8.450   5.735   3.123 -0.2464  0.1880 -1.3367
29571WAT     H220090   8.584   5.802   3.146 -0.4413  1.1865 -2.9425
29571WAT    EPW20091   8.498   5.798   3.159 -0.1502 -0.1354 -0.8856
29572WAT      O20092   1.272   8.148   1.910 -1.2918  0.2110 -0.6710
29572WAT     H120093   1.278   8.227   1.856 -2.0316  0.4236 -0.4602
29572WAT     H220094   1.261   8.076   1.848 -1.1876  0.3418 -0.8401
29572WAT    EPW20095   1.271   8.149   1.895 -1.3757  0.2565 -0.6655
29573WAT      O20096   7.239   6.477   2.735 -0.2488  0.5415  0.1746
29573WAT     H120097   7.278   6.391   2.748 -0.0082  0.8200  1.3849
29573WAT     H220098   7.297   6.520   2.672  1.0157  0.6724  1.3808
29573WAT    EPW20099   7.252   6.471   2.728 -0.0503  0.5958  0.4935
29574WAT      O20100   5.701   1.895   7.882 -0.4529 -0.4135  0.3556
29574WAT     H120101   5.655   1.883   7.799 -1.8332  0.8487  0.8916
29574WAT     H220102   5.683   1.816   7.932  1.2821 -1.6734 -0.9014
29574WAT    EPW20103   5.692   1.883   7.878 -0.4060 -0.4132  0.2606
29575WAT      O20104   7.455   9.969   2.452 -0.2393  0.9789  0.3129
29575WAT     H120105   7.511   9.947   2.526  2.6047 -0.8075 -2.1704
29575WAT     H220106   7.389  10.028   2.489 -0.5249 -1.6631  4.7355
29575WAT    EPW20107   7.454   9.974   2.466  0.0982  0.3948  0.5686
29576WAT      O20108   8.311   5.984   3.348  0.3067 -0.3866  0.0473
29576WAT     H120109   8.276   5.911   3.296  2.1469 -1.0601 -0.3270
29576WAT     H220110   8.404   5.965   3.355  0.2327 -0.1883  3.3955
29576WAT    EPW20111   8.318   5.972   3.342  0.5393 -0.4494  0.4395
29577WAT      O20112   3.697   5.489   1.289  0.3142  0.2823 -0.2910
29577WAT     H120113   3.768   5.524   1.342  1.1109  0.4872 -1.4597
29577WAT     H220114   3.618   5.528   1.327  1.0184  1.8498 -0.3736
29577WAT    EPW20115   3.696   5.499   1.301  0.5122  0.5159 -0.4561
29578WAT      O20116   2.771   2.693   6.689  0.0676  0.4723  0.6528
29578WAT     H120117   2.789   2.625   6.754 -0.8585  0.0180  0.4632
29578WAT     H220118   2.857   2.716   6.654  0.5585  0.5902  1.8851
29578WAT    EPW20119   2.784   2.687   6.693  0.0103  0.4281  0.7906
29579WAT      O20120   3.369   3.952   2.280 -0.1375 -0.7444 -0.0851
29579WAT     H120121   3.443   3.892   2.286 -0.1014 -0.6747  0.1930
29579WAT     H220122   3.313   3.915   2.212 -0.7326 -1.7561  0.9419
29579WAT    EPW20123   3.372   3.940   2.272 -0.2111 -0.8686  0.0870
29580WAT      O20124   9.457   9.462   8.949 -0.4119 -0.5998 -0.1590
29580WAT     H120125   9.513   9.502   9.016 -1.1077  1.6020 -0.8058
29580WAT     H220126   9.500   9.483   8.866  0.0997 -2.7557 -0.5111
29580WAT    EPW20127   9.470   9.470   8.947 -0.4361 -0.5939 -0.2908
29581WAT      O20128   4.481   4.094   8.549  0.5888  0.3224 -0.1221
29581WAT     H120129   4.576   4.085   8.558  0.4603 -0.3780  0.5747
29581WAT     H220130   4.464   4.186   8.568  0.9882  0.1642  1.0818
29581WAT    EPW20131   4.491   4.105   8.552  0.6244  0.2093  0.1287
29582WAT      O20132   3.371   0.415   7.320  0.5044 -0.6973  0.2897
29582WAT     H120133   3.416   0.344   7.274  2.0992  0.7790 -0.5130
29582WAT     H220134   3.418   0.494   7.295 -1.4265  0.7158  0.9007
29582WAT    EPW20135   3.383   0.416   7.311  0.4600 -0.3162  0.2644
29583WAT      O20136   9.712   9.626   8.759 -0.4981  0.1271 -0.7863
29583WAT     H120137   9.656   9.654   8.686 -1.3666 -0.2291 -0.2680
29583WAT     H220138   9.711   9.699   8.820 -2.1433 -0.6597  0.2078
29583WAT    EPW20139   9.705   9.639   8.757 -0.8297 -0.0243 -0.5870
29584WAT      O20140   6.202   4.873   2.353 -0.0100 -0.3639 -0.0528
29584WAT     H120141   6.130   4.936   2.359  0.1886  0.2484 -2.8385
29584WAT     H220142   6.159   4.787   2.356 -0.5854 -0.0614  0.7963
29584WAT    EPW20143   6.187   4.870   2.354 -0.0596 -0.2432 -0.3083
29585WAT      O20144   4.415   6.641   1.863 -0.5824 -0.1996  0.2147
29585WAT     H120145   4.395   6.720   1.913  0.1780 -0.2311  0.5928
29585WAT     H220146   4.348   6.578   1.887  0.7743 -0.8307  2.6405
29585WAT    EPW20147   4.404   6.643   1.872 -0.3030 -0.2871  0.5845
29586WAT      O20148   9.627   4.165   3.555 -0.0488  0.4098 -0.5272
29586WAT     H120149   9.697   4.155   3.620 -1.2166 -0.9449  0.6116
29586WAT     H220150   9.644   4.249   3.513  2.6925 -0.2367 -0.8476
29586WAT    EPW20151   9.638   4.175   3.558  0.1588  0.1462 -0.4193
29587WAT      O20152  10.056   9.566   0.893  0.4300  0.3314  0.2992
29587WAT     H120153  10.104   9.565   0.810  0.6641  0.0959  0.4350
29587WAT     H220154  10.026   9.476   0.904 -1.2860  0.7743 -0.4970
29587WAT    EPW20155  10.059   9.554   0.884  0.2351  0.3586  0.2121
29588WAT      O20156   0.675   6.980   0.758  0.3188  0.2883  0.5674
29588WAT     H120157   0.679   7.069   0.795  2.1366  1.6767 -2.5410
29588WAT     H220158   0.731   6.928   0.815  0.1600  1.4196  1.8040
29588WAT    EPW20159   0.683   6.985   0.770  0.5376  0.6206  0.3206
29589WAT      O20160   0.946   2.168   6.993  0.0117  0.0630  0.3782
29589WAT     H120161   0.966   2.082   7.031 -0.9093 -0.7546 -0.9144
29589WAT     H220162   1.027   2.194   6.950 -0.1907 -0.9740 -0.6848
29589WAT    EPW20163   0.960   2.160   6.992 -0.1365 -0.1816  0.0675
29590WAT      O20164   3.667   8.586   1.662 -0.2862 -0.2426 -0.1230
29590WAT     H120165   3.714   8.604   1.581 -1.0271  1.0141 -0.3015
29590WAT     H220166   3.605   8.659   1.671 -2.6878 -2.1338 -0.2581
29590WAT    EPW20167   3.665   8.598   1.653 -0.7006 -0.3262 -0.1644
29591WAT      O20168   8.754   4.856   1.430  0.4526 -0.1450 -0.2677
29591WAT     H120169   8.756   4.763   1.449 -1.4607 -0.3485 -0.8092
29591WAT     H220170   8.758   4.862   1.334 -0.2931  0.2498 -0.2895
29591WAT    EPW20171   8.754   4.845   1.420  0.1020 -0.1197 -0.3420
29592WAT      O20172   7.624   6.545   2.550 -0.0695 -0.1886  0.2879
29592WAT     H120173   7.709   6.572   2.586  0.1784 -1.1554  0.4523
29592WAT     H220174   7.635   6.452   2.531 -0.6378  0.0020 -1.0400
29592WAT    EPW20175   7.637   6.537   2.552 -0.1121 -0.2906  0.1346
29593WAT      O20176   1.284   0.516   7.300 -0.8668 -0.4369  0.6123
29593WAT     H120177   1.343   0.440   7.296  0.5760  0.6773 -0.0668
29593WAT     H220178   1.204   0.486   7.256  0.4311 -0.9536 -1.5413
29593WAT    EPW20179   1.281   0.502   7.294 -0.5053 -0.3582  0.2387
29594WAT      O20180   8.325   5.592   1.769  0.6352 -0.5151  0.2393
29594WAT     H120181   8.379   5.573   1.692 -0.0508  1.1053 -0.7086
29594WAT     H220182   8.383   5.642   1.827  0.5437  0.1712 -0.2385
29594WAT    EPW20183   8.340   5.596   1.766  0.5331 -0.2112  0.0513
29595WAT      O20184   6.036   4.618   2.392  0.1217  0.0031 -0.1140
29595WAT     H120185   6.111   4.562   2.373  0.0741  0.4292 -1.6620
29595WAT     H220186   5.994   4.632   2.307 -2.2246 -0.9291  0.8243
29595WAT    EPW20187   6.041   4.612   2.378 -0.1941 -0.0637 -0.1944
29596WAT      O20188   9.033   5.137   4.590 -0.7157 -0.6144  0.5646
29596WAT     H120189   9.008   5.225   4.562 -0.0415 -0.8205 -0.8142
29596WAT     H220190   8.992   5.079   4.525  1.2283 -1.1070 -0.2973
29596WAT    EPW20191   9.025   5.141   4.577 -0.3700 -0.7064  0.2689
29597WAT      O20192   6.262   4.475   2.309  0.4872 -0.3388  0.3826
29597WAT     H120193   6.351   4.458   2.341  1.1663  1.1494 -0.6172
29597WAT     H220194   6.273   4.500   2.217 -0.5736  3.0034  1.0218
29597WAT    EPW20195   6.275   4.476   2.301  0.4365  0.2983  0.3350
29598WAT      O20196   3.274   0.697   8.162  0.0965 -1.2179 -0.2038
29598WAT     H120197   3.240   0.785   8.143 -1.6716 -1.8820 -0.2171
29598WAT     H220198   3.252   0.645   8.085 -0.6514 -2.1576  0.6224
29598WAT    EPW20199   3.267   0.702   8.150 -0.2354 -1.4294 -0.0968
29599WAT      O20200   7.001   5.156   0.186 -0.6548  0.3254 -0.0881
29599WAT     H120201   7.032   5.138   0.275 -2.7610 -0.8313  0.4838
29599WAT     H220202   7.001   5.071   0.143 -0.8954  0.6587 -0.7611
29599WAT    EPW20203   7.005   5.143   0.192 -0.9642  0.2167 -0.1015
29600WAT      O20204   3.880   1.594   8.210  0.3568 -0.0168 -0.5511
29600WAT     H120205   3.941   1.611   8.138  2.0230  3.2661  1.3773
29600WAT     H220206   3.870   1.679   8.252 -1.8467 -1.4623  2.1325
29600WAT    EPW20207   3.887   1.608   8.206  0.2860  0.2255  0.0572
29601WAT      O20208   0.266   0.763   7.689  0.1563 -0.9217  0.3043
29601WAT     H120209   0.270   0.856   7.712  0.9994 -1.1448  1.0873
29601WAT     H220210   0.357   0.734   7.690  0.0106 -1.5127 -1.0409
29601WAT    EPW20211   0.278   0.772   7.692  0.2483 -1.0291  0.2303
29602WAT      O20212   2.967   5.440   6.872 -0.4927  0.2728  0.6904
29602WAT     H120213   3.062   5.439   6.866 -0.4480  2.0787  0.5544
29602WAT     H220214   2.938   5.483   6.792 -1.3011  1.4146  1.5578
29602WAT    EPW20215   2.976   5.445   6.861 -0.5935  0.6616  0.7870
29603WAT      O20216   5.456   8.919   6.792  0.1039  0.2792 -0.0481
29603WAT     H120217   5.517   8.935   6.863 -0.2725 -0.2011  0.3888
29603WAT     H220218   5.512   8.900   6.716  0.4946  0.1963  0.2600
29603WAT    EPW20219   5.472   8.919   6.791  0.1056  0.2050  0.0501
29604WAT      O20220   6.118   8.423   1.259  0.7677  0.4062 -0.8019
29604WAT     H120221   6.047   8.383   1.208  0.8294 -0.2696 -0.3641
29604WAT     H220222   6.177   8.460   1.193 -0.5378  1.9681 -1.1603
29604WAT    EPW20223   6.117   8.423   1.243  0.6037  0.5236 -0.7914
29605WAT      O20224   2.031   9.098   6.240  0.0784  0.2481  0.0155
29605WAT     H120225   1.945   9.126   6.209  0.2502  1.5387  0.6410
29605WAT     H220226   2.055   9.162   6.306  0.5864 -1.3322  1.4352
29605WAT    EPW20227   2.023   9.110   6.245  0.1681  0.2098  0.2851
29606WAT      O20228   9.899  10.212   8.507  0.5804 -0.0889 -0.2126
29606WAT     H120229   9.943  10.281   8.556 -1.3052  1.0017  0.0518
29606WAT     H220230   9.897  10.137   8.567 -0.7947  0.9002  1.0321
29606WAT    EPW20231   9.905  10.211   8.521  0.1507  0.1855 -0.0134
29607WAT      O20232   6.639   6.283   2.438 -0.5346 -0.0207 -0.6731
29607WAT     H120233   6.643   6.189   2.454 -0.6232  0.0393 -0.2967
29607WAT     H220234   6.584   6.317   2.508 -1.6574  0.1372 -1.6152
29607WAT    EPW20235   6.633   6.275   2.449 -0.6943  0.0081 -0.7477
29608WAT      O20236   6.083   6.230   3.220 -0.2010 -0.0756 -0.5199
29608WAT     H120237   6.129   6.313   3.204 -0.5659  0.7319  2.1512
29608WAT     H220238   5.991   6.254   3.223 -0.3006 -0.5307  0.3655
29608WAT    EPW20239   6.077   6.244   3.218 -0.2623 -0.0293 -0.0508
29609WAT      O20240   2.153   4.290   8.100  0.9408  0.2159  0.0818
29609WAT     H120241   2.132   4.219   8.040  1.8615 -0.6283  0.7203
29609WAT     H220242   2.112   4.367   8.062 -0.2306 -0.6859 -0.5369
29609WAT    EPW20243   2.145   4.291   8.087  0.9077 -0.0145  0.0839
29610WAT      O20244   5.374   6.875   0.369 -0.0352  0.8601  0.9918
29610WAT     H120245   5.468   6.857   0.372 -0.2746 -0.5659  1.0938
29610WAT     H220246   5.335   6.806   0.424 -1.1938  0.8535  0.2117
29610WAT    EPW20247   5.381   6.863   0.376 -0.2196  0.6714  0.9024
29611WAT      O20248   8.613   6.535   0.117  0.0617  0.1277 -0.2535
29611WAT     H120249   8.590   6.617   0.161 -0.3771  1.1667 -2.3388
29611WAT     H220250   8.588   6.467   0.180 -0.6378  1.5383  1.0599
29611WAT    EPW20251   8.607   6.537   0.131 -0.0882  0.4511 -0.3553
29612WAT      O20252  10.857   9.256   2.175 -0.0378 -0.6232 -0.2295
29612WAT     H120253  10.810   9.292   2.100  0.4006 -1.1822 -0.7769
29612WAT     H220254  10.937   9.220   2.139  0.6256 -0.0652  0.6414
29612WAT    EPW20255  10.861   9.256   2.161  0.1073 -0.6237 -0.1868
29613WAT      O20256   5.486   6.587   2.244  0.4033  0.9318 -0.1870
29613WAT     H120257   5.406   6.575   2.194  0.2815  0.7216  0.0566
29613WAT     H220258   5.556   6.556   2.187  0.1941 -0.0274  0.0562
29613WAT    EPW20259   5.485   6.581   2.230  0.3600  0.7775 -0.1229
29614WAT      O20260   4.076   0.671   8.899 -0.1975  0.6558 -0.7976
29614WAT     H120261   4.154   0.633   8.938  0.3111  0.6349 -1.8092
29614WAT     H220262   4.012   0.600   8.899 -1.0065  1.2757  2.0805
29614WAT    EPW20263   4.078   0.657   8.904 -0.2370  0.7349 -0.5512
29615WAT      O20264   9.044   7.021   1.043  0.1831 -0.5629 -0.2178
29615WAT     H120265   9.020   7.054   1.130 -1.2431 -2.2114  0.0521
29615WAT     H220266   9.095   7.093   1.005 -1.7067  1.4616  0.8004
29615WAT    EPW20267   9.048   7.035   1.050 -0.2546 -0.5131 -0.0480
29616WAT      O20268   5.864   6.186   2.846 -0.1316 -0.0722  0.0680
29616WAT     H120269   5.868   6.281   2.834  0.8651  0.0040  0.8834
29616WAT     H220270   5.907   6.150   2.768  1.8169  0.2545  0.9304
29616WAT    EPW20271   5.870   6.194   2.834  0.2565 -0.0193  0.2892
29617WAT      O20272   3.380   8.698   7.901  0.0711 -0.2600 -0.0712
29617WAT     H120273   3.432   8.709   7.821  0.1793 -0.1546  0.0151
29617WAT     H220274   3.297   8.661   7.869 -0.5693  1.3955 -0.4643
29617WAT    EPW20275   3.376   8.695   7.886  0.0008 -0.0277 -0.1118
29618WAT      O20276   7.209   6.114   2.011  0.3600 -0.1199  0.1293
29618WAT     H120277   7.267   6.059   1.959 -1.3309 -2.1114  0.2520
29618WAT     H220278   7.241   6.105   2.101 -1.0626 -2.6036  0.4629
29618WAT    EPW20279   7.221   6.106   2.016 -0.0508 -0.7102  0.1893
29619WAT      O20280   7.165   7.039   2.619 -0.0325  0.2274  0.5385
29619WAT     H120281   7.143   7.035   2.712  2.6740 -3.5709  1.2608
29619WAT     H220282   7.171   6.948   2.592 -0.1205  1.1852 -3.2891
29619WAT    EPW20283   7.163   7.027   2.628  0.3128 -0.1473  0.1289
29620WAT      O20284   6.584   5.893   3.132  0.3128  0.6220  0.1666
29620WAT     H120285   6.638   5.939   3.067  0.9221  2.6522  1.9923
29620WAT     H220286   6.500   5.879   3.087  1.3889 -0.0597 -1.7684
29620WAT    EPW20287   6.580   5.897   3.117  0.5350  0.7999  0.1520
29621WAT      O20288   1.614   2.944   8.072 -0.1380 -0.0669  0.3370
29621WAT     H120289   1.646   2.942   7.982 -1.0505  0.6133 -0.0132
29621WAT     H220290   1.649   2.864   8.112  3.2494  1.2811  0.4159
29621WAT    EPW20291   1.623   2.933   8.065  0.1884  0.2007  0.3014
29622WAT      O20292   3.455   2.753   7.873 -0.2831  0.3978  0.3530
29622WAT     H120293   3.372   2.710   7.890  0.0699  0.2882  1.9544
29622WAT     H220294   3.465   2.815   7.946  0.6750  0.9508 -0.2289
29622WAT    EPW20295   3.445   2.756   7.885 -0.1101  0.4561  0.4876
29623WAT      O20296  10.869   9.677   8.571  0.0573  0.9493  0.4053
29623WAT     H120297  10.887   9.626   8.492  1.4393  3.9385 -1.3406
29623WAT     H220298  10.787   9.639   8.605  0.7891 -2.1137 -0.8997
29623WAT    EPW20299  10.860   9.665   8.565  0.3366  0.9398  0.0029
29624WAT      O20300   6.235   5.501   1.113 -1.1913 -0.0675 -0.8867
29624WAT     H120301   6.197   5.436   1.054 -1.0846  0.2227 -1.2813
29624WAT     H220302   6.161   5.557   1.137 -1.2342 -0.1837 -0.7422
29624WAT    EPW20303   6.220   5.500   1.108 -1.1830 -0.0446 -0.9197
29625WAT      O20304   7.734   7.611   3.058  0.3272  0.4986  0.4068
29625WAT     H120305   7.670   7.666   3.103 -0.3812  0.7454 -0.8326
29625WAT     H220306   7.684   7.569   2.988  1.2291 -0.4090  0.2785
29625WAT    EPW20307   7.719   7.613   3.055  0.3526  0.4117  0.2265
29626WAT      O20308   6.901   6.305   0.415  0.7832 -0.5798  0.7928
29626WAT     H120309   6.809   6.330   0.404  0.9667 -0.8591 -2.3999
29626WAT     H220310   6.899   6.211   0.431  0.4760 -0.7727 -0.2500
29626WAT    EPW20311   6.889   6.296   0.415  0.7668 -0.6423  0.2341
29627WAT      O20312   5.673   5.735   1.873  0.0470  0.2225 -0.4893
29627WAT     H120313   5.707   5.803   1.815 -1.0891 -1.0772 -2.8776
29627WAT     H220314   5.738   5.727   1.942  2.2219  0.9953 -2.3068
29627WAT    EPW20315   5.686   5.743   1.874  0.1841  0.1528 -1.0439
29628WAT      O20316   5.779   7.345   1.302  0.7016  0.8581  0.9973
29628WAT     H120317   5.864   7.327   1.264  0.9114  0.8487  1.4611
29628WAT     H220318   5.769   7.440   1.296 -0.5204  0.6525 -1.6916
29628WAT    EPW20319   5.789   7.356   1.296  0.5679  0.8297  0.7038
29629WAT      O20320   4.821   3.613   2.234 -0.2462  1.0278 -0.2613
29629WAT     H120321   4.909   3.635   2.203 -0.5185 -2.1745 -4.0326
29629WAT     H220322   4.762   3.655   2.171 -1.6021  2.8478  2.0130
29629WAT    EPW20323   4.825   3.622   2.222 -0.4606  0.8454 -0.4590
29630WAT      O20324  10.766   2.914   6.199  0.5499  0.5464  0.1826
29630WAT     H120325  10.765   2.858   6.277 -1.7429 -0.4737 -0.4913
29630WAT     H220326  10.725   2.995   6.227  0.3959  0.4558  0.2190
29630WAT    EPW20327  10.761   2.917   6.213  0.2275  0.3998  0.0982
29631WAT      O20328   7.112   7.768   1.427 -0.2650  0.8181 -0.6154
29631WAT     H120329   7.146   7.681   1.451  1.4385  1.9586  1.3975
29631WAT     H220330   7.181   7.807   1.374 -1.3991  0.6977 -2.2806
29631WAT    EPW20331   7.125   7.761   1.423 -0.1898  0.9527 -0.5695
29632WAT      O20332   6.558   5.298   0.957  0.0138 -0.0627  0.4801
29632WAT     H120333   6.568   5.381   0.911 -1.8413  0.2304  0.5606
29632WAT     H220334   6.526   5.237   0.890  3.3264 -1.3858 -0.1419
29632WAT    EPW20335   6.555   5.301   0.942  0.2058 -0.1984  0.4087
29633WAT      O20336   7.911   5.239   1.847 -0.2630 -0.5786  0.0146
29633WAT     H120337   7.995   5.273   1.816 -1.1381  1.1549 -0.5834
29633WAT     H220338   7.929   5.206   1.935  1.3663 -1.7164 -0.7037
29633WAT    EPW20339   7.925   5.239   1.855 -0.1636 -0.5000 -0.1590
29634WAT      O20340   8.010   8.701   6.240  0.2160 -0.2447 -0.4946
29634WAT     H120341   7.922   8.719   6.207 -1.1431 -1.2893  2.2498
29634WAT     H220342   8.025   8.768   6.306  0.9769 -0.8103 -0.0789
29634WAT    EPW20343   8.000   8.712   6.244  0.1371 -0.4573 -0.0780
29635WAT      O20344   8.549   8.188   2.326  0.1862 -0.3275  0.6417
29635WAT     H120345   8.606   8.260   2.298  1.1515 -1.2529  0.1554
29635WAT     H220346   8.498   8.167   2.248  1.0379 -1.2024  0.3046
29635WAT    EPW20347   8.550   8.195   2.312  0.4258 -0.5646  0.5331
29636WAT      O20348   3.766   6.078   2.102  0.3343 -0.2051 -0.7892
29636WAT     H120349   3.703   6.034   2.158  1.2666 -2.2798 -1.2902
29636WAT     H220350   3.737   6.058   2.013  3.2697 -3.9593 -1.1511
29636WAT    EPW20351   3.754   6.070   2.097  0.8445 -0.9742 -0.9030
29637WAT      O20352   7.812   5.515   0.878  0.4399 -0.2314  0.0159
29637WAT     H120353   7.759   5.451   0.926  2.1457 -1.3218  0.5336
29637WAT     H220354   7.810   5.484   0.787 -1.6445  1.0528 -0.4516
29637WAT    EPW20355   7.804   5.503   0.872  0.3898 -0.2058  0.0225
29638WAT      O20356   2.437   4.263   8.045 -0.6283  0.1555 -0.6344
29638WAT     H120357   2.342   4.248   8.044 -0.5844 -0.1051 -0.7353
29638WAT     H220358   2.475   4.177   8.032 -0.3722  0.2203 -0.3278
29638WAT    EPW20359   2.429   4.250   8.043 -0.5887  0.1297 -0.6075
29639WAT      O20360   9.605   9.670   8.239 -0.1453  0.3553  0.4173
29639WAT     H120361   9.559   9.642   8.160 -1.6894  0.1470  1.3542
29639WAT     H220362   9.653   9.592   8.268 -1.5993 -0.3392  1.0530
29639WAT    EPW20363   9.605   9.656   8.233 -0.5403  0.2360  0.6247
29640WAT      O20364   5.518   6.741   0.002  0.1302  0.3993  0.0160
29640WAT     H120365   5.423   6.742  -0.005  0.1052  0.7578  0.3350
29640WAT     H220366   5.549   6.738  -0.088 -0.1671  2.9534 -0.2515
29640WAT    EPW20367   5.509   6.741  -0.011  0.0873  0.7832  0.0228
29641WAT      O20368   8.394   5.043   0.788 -0.1115  0.3291 -0.2058
29641WAT     H120369   8.398   4.956   0.750  2.2900  0.1252  0.3883
29641WAT     H220370   8.339   5.093   0.728 -1.5076 -1.5329 -0.5790
29641WAT    EPW20371   8.387   5.038   0.775  0.0215  0.0565 -0.1767
29642WAT      O20372   5.668   8.155   3.366 -0.7306  0.4911  0.3377
29642WAT     H120373   5.730   8.212   3.321  0.7353 -0.5610  0.9089
29642WAT     H220374   5.632   8.098   3.298 -1.8479  1.7588 -0.1558
29642WAT    EPW20375   5.672   8.155   3.351 -0.6845  0.5198  0.3480
29643WAT      O20376   4.151   5.390   0.145 -0.4008  0.2110 -0.1725
29643WAT     H120377   4.160   5.351   0.058  1.6280  0.4360 -0.1079
29643WAT     H220378   4.063   5.365   0.173 -0.5134 -1.2188 -1.6227
29643WAT    EPW20379   4.140   5.381   0.137 -0.1483  0.0520 -0.3552
29644WAT      O20380   1.111   8.751   4.993  0.4521  0.0757  0.1385
29644WAT     H120381   1.158   8.714   5.068  0.0541 -0.7197  0.0034
29644WAT     H220382   1.020   8.726   5.007  0.4441 -0.4887 -0.8529
29644WAT    EPW20383   1.105   8.743   5.005  0.3985 -0.1035 -0.0103
29645WAT      O20384   2.119   2.909   8.854  1.0983  0.5348 -0.3677
29645WAT     H120385   2.040   2.963   8.860  0.1178 -0.6513 -1.8374
29645WAT     H220386   2.152   2.925   8.765  1.5382 -0.2788 -0.3610
29645WAT    EPW20387   2.113   2.919   8.843  1.0270  0.2711 -0.5612
29646WAT      O20388   7.862   7.694   1.340 -0.5271  0.0347 -0.1718
29646WAT     H120389   7.864   7.656   1.428 -2.8188 -3.1881 -1.3180
29646WAT     H220390   7.802   7.768   1.348  1.8903  1.9938  1.5539
29646WAT    EPW20391   7.855   7.699   1.353 -0.5105 -0.1318 -0.0953
29647WAT      O20392   4.962   8.811   3.626 -0.3285  0.0210  0.1765
29647WAT     H120393   4.872   8.812   3.594 -0.3690  0.2004  0.2933
29647WAT     H220394   5.001   8.734   3.585  0.2537  1.3954 -1.9861
29647WAT    EPW20395   4.955   8.801   3.617 -0.2573  0.2265 -0.0933
29648WAT      O20396   7.220   5.047   2.193  0.2372  0.2457  0.1958
29648WAT     H120397   7.242   4.983   2.260 -1.8396  0.5806  1.2808
29648WAT     H220398   7.302   5.094   2.177  1.4561 -1.7021  0.3949
29648WAT    EPW20399   7.233   5.045   2.200  0.1240  0.0329  0.3653
29649WAT      O20400   5.505   4.552   2.848 -0.4633 -0.2876 -0.0264
29649WAT     H120401   5.556   4.479   2.885  2.0509  0.8640 -0.9970
29649WAT     H220402   5.527   4.551   2.755  0.5708  2.3511  0.1127
29649WAT    EPW20403   5.515   4.542   2.841  0.0048  0.2124 -0.1361
29650WAT      O20404   2.716   5.078   0.897 -0.4970  0.6516 -0.1868
29650WAT     H120405   2.775   5.012   0.861  0.4475  0.8658  0.9169
29650WAT     H220406   2.642   5.027   0.931 -0.1768  0.2358 -0.1035
29650WAT    EPW20407   2.714   5.062   0.897 -0.3301  0.6251 -0.0302
29651WAT      O20408   5.459   5.406   2.448 -0.0675 -0.4837 -0.4219
29651WAT     H120409   5.527   5.443   2.391  1.5798  2.0496  2.8344
29651WAT     H220410   5.380   5.456   2.427  0.0289 -0.8382 -1.6719
29651WAT    EPW20411   5.458   5.418   2.438  0.1624 -0.1962 -0.1572
29652WAT      O20412   4.715   4.828   8.825  0.0661  0.7461  0.5039
29652WAT     H120413   4.786   4.826   8.760  0.8457  1.9054  1.2616
29652WAT     H220414   4.713   4.919   8.855 -2.1242  0.8636  0.1376
29652WAT    EPW20415   4.724   4.840   8.821 -0.1194  0.9143  0.5555
29653WAT      O20416   6.394   7.062   0.866 -0.1138 -0.2330 -0.2699
29653WAT     H120417   6.368   7.117   0.791 -1.2488 -0.1453  0.1615
29653WAT     H220418   6.478   7.098   0.894 -0.3680  0.6714 -0.6147
29653WAT    EPW20419   6.401   7.074   0.860 -0.2971 -0.1018 -0.2585
29654WAT      O20420   6.227   6.395   2.261 -0.1169 -0.1310  0.2542
29654WAT     H120421   6.154   6.442   2.300 -0.4362  2.0151 -2.5664
29654WAT     H220422   6.304   6.449   2.281  0.2882 -0.9158  0.8802
29654WAT    EPW20423   6.228   6.409   2.268 -0.1056  0.0486 -0.0352
29655WAT      O20424   6.339   7.210   0.641 -0.5059  0.0018 -0.2293
29655WAT     H120425   6.379   7.151   0.576  2.4424  1.7414 -0.1340
29655WAT     H220426   6.307   7.284   0.589  1.0974  1.0024  0.1548
29655WAT    EPW20427   6.340   7.212   0.625  0.0944  0.3631 -0.1661
29656WAT      O20428   7.301   7.126   1.048  0.6400  0.3243  0.2960
29656WAT     H120429   7.313   7.031   1.052  3.8224  0.5659 -0.8538
29656WAT     H220430   7.236   7.139   0.979  1.0509 -0.9791 -0.3714
29656WAT    EPW20431   7.294   7.115   1.039  1.1137  0.1843  0.0563
29657WAT      O20432   6.384   7.768   4.289 -0.1642 -0.0263  0.1823
29657WAT     H120433   6.371   7.737   4.199 -1.7730 -0.5771  0.5646
29657WAT     H220434   6.316   7.835   4.300  1.3130  1.5180  0.3622
29657WAT    EPW20435   6.373   7.773   4.279 -0.1817  0.1051  0.2565
29658WAT      O20436   8.082   5.505   0.020 -0.7512 -0.0332  0.1823
29658WAT     H120437   8.105   5.570   0.086 -1.4208  0.7313 -0.3125
29658WAT     H220438   8.112   5.543  -0.063  0.3460 -1.1072  0.0566
29658WAT    EPW20439   8.089   5.518   0.018 -0.6950 -0.0740  0.1011
29659WAT      O20440   4.886   8.203   0.143  0.2945  0.1361 -0.4098
29659WAT     H120441   4.827   8.158   0.203 -0.9265 -0.0974 -1.7379
29659WAT     H220442   4.829   8.259   0.090  1.5301  1.5919 -0.2804
29659WAT    EPW20443   4.871   8.205   0.143  0.2966  0.2971 -0.5679
29660WAT      O20444   3.650   0.357   5.477  0.3527 -0.3165 -0.2256
29660WAT     H120445   3.660   0.265   5.498 -0.0093  0.1835  2.5671
29660WAT     H220446   3.555   0.373   5.483  0.3379  0.0933 -1.4018
29660WAT    EPW20447   3.639   0.347   5.481  0.3030 -0.1965 -0.0122
29661WAT      O20448   1.205   2.971   7.711  0.3040 -0.5474 -0.8045
29661WAT     H120449   1.118   3.012   7.710  1.2152  1.6490 -3.5957
29661WAT     H220450   1.262   3.038   7.750  1.4877  0.2114 -3.5720
29661WAT    EPW20451   1.201   2.985   7.716  0.5803 -0.1577 -1.5380
29662WAT      O20452   4.064   5.951   2.343  0.5389  0.3976 -0.1491
29662WAT     H120453   4.015   5.941   2.425 -0.1304  0.2690 -0.5620
29662WAT     H220454   4.156   5.955   2.371  0.4570 -1.3418  0.4794
29662WAT    EPW20455   4.070   5.950   2.357  0.4399  0.1512 -0.1206
29663WAT      O20456   4.603   9.133   2.260 -0.5357 -0.2038  0.0405
29663WAT     H120457   4.678   9.076   2.271 -0.0685  0.0378 -1.5590
29663WAT     H220458   4.574   9.153   2.349 -0.5455 -2.6777  0.6680
29663WAT    EPW20459   4.609   9.128   2.273 -0.4754 -0.4978 -0.0877
29664WAT      O20460   7.868   5.836   1.213 -0.3127 -0.4397 -0.6194
29664WAT     H120461   7.867   5.931   1.202  0.8806 -0.4207 -0.6625
29664WAT     H220462   7.776   5.812   1.221 -0.5852  0.8397  0.4066
29664WAT    EPW20463   7.856   5.845   1.213 -0.1915 -0.2687 -0.4898
29665WAT      O20464   6.909   6.054   0.524  0.7726 -0.0472  0.5543
29665WAT     H120465   6.940   5.996   0.455 -0.6888 -2.3789  1.7261
29665WAT     H220466   6.887   5.995   0.597 -1.1591  1.9318  1.6945
29665WAT    EPW20467   6.910   6.039   0.524  0.3250 -0.0939  0.8592
29666WAT      O20468   6.145   3.719   1.862  0.2197  0.3540 -0.4288
29666WAT     H120469   6.172   3.726   1.770  1.4726  0.6716 -0.0521
29666WAT     H220470   6.225   3.696   1.909 -0.5964 -0.7401  0.4750
29666WAT    EPW20471   6.159   3.717   1.856  0.2773  0.2514 -0.2600
29667WAT      O20472   2.097   3.161   6.496 -0.6030 -0.0632  0.9285
29667WAT     H120473   2.119   3.096   6.562  0.2411 -0.1984  0.5251
29667WAT     H220474   2.036   3.116   6.437 -0.2985 -0.3761  0.8510
29667WAT    EPW20475   2.092   3.146   6.497 -0.4516 -0.1222  0.8650
29668WAT      O20476   8.051   9.330   1.645  0.7160 -0.1939  0.8767
29668WAT     H120477   8.040   9.238   1.667 -1.9992 -0.1130  0.2491
29668WAT     H220478   8.056   9.331   1.549 -0.7577  0.3624  0.7774
29668WAT    EPW20479   8.050   9.318   1.635  0.1640 -0.1101  0.7808
29669WAT      O20480   4.861   4.912   0.279 -0.1650 -0.1549  0.0244
29669WAT     H120481   4.780   4.909   0.228 -0.1374 -0.2095 -0.0156
29669WAT     H220482   4.850   4.845   0.347  0.0796 -0.5542 -0.3265
29669WAT    EPW20483   4.849   4.903   0.281 -0.1292 -0.2146 -0.0271
29670WAT      O20484   2.601   0.059   8.949  0.0104 -0.4840 -0.4344
29670WAT     H120485   2.535   0.107   9.000  1.2905 -0.1489  0.9763
29670WAT     H220486   2.573  -0.032   8.953 -0.8563 -0.2355 -0.6398
29670WAT    EPW20487   2.588   0.054   8.956  0.0648 -0.4070 -0.2751
29671WAT      O20488   5.627   4.631   0.078  0.6170 -0.3468 -0.2998
29671WAT     H120489   5.540   4.591   0.078  1.4217 -2.3047 -2.4395
29671WAT     H220490   5.636   4.668   0.166 -2.3415 -0.0448 -0.0009
29671WAT    EPW20491   5.617   4.631   0.090  0.3328 -0.5653 -0.5426
29672WAT      O20492   9.075   5.432   1.653 -0.1892  1.2573 -0.1232
29672WAT     H120493   9.003   5.438   1.716 -0.6434  2.2488 -0.7063
29672WAT     H220494   9.075   5.517   1.609  1.5514  1.3874  0.0785
29672WAT    EPW20495   9.065   5.444   1.655 -0.0191  1.4050 -0.1736
29673WAT      O20496  10.442   7.796   5.250  0.1186 -0.4698 -0.5176
29673WAT     H120497  10.397   7.810   5.333 -1.3118 -1.6924 -1.0451
29673WAT     H220498  10.530   7.832   5.264 -0.4181  0.2581  1.1713
29673WAT    EPW20499  10.448   7.802   5.263 -0.1407 -0.5352 -0.3643
29674WAT      O20500  10.599   0.019   2.299  0.4931  0.4331 -0.2037
29674WAT     H120501  10.687   0.026   2.261 -0.5412 -1.5060 -3.3542
29674WAT     H220502  10.597  -0.067   2.340 -0.2644 -0.1589 -1.3986
29674WAT    EPW20503  10.610   0.009   2.299  0.2568  0.0992 -0.7769
29675WAT      O20504   5.289   4.235   3.591 -0.5401 -0.7439 -0.6051
29675WAT     H120505   5.283   4.330   3.606  1.5560 -0.5467 -0.6602
29675WAT     H220506   5.199   4.204   3.595 -1.2893  1.2680 -0.6513
29675WAT    EPW20507   5.277   4.244   3.593 -0.3624 -0.4525 -0.6185
29676WAT      O20508   9.629  10.355   1.712  0.7403 -0.6793  0.2738
29676WAT     H120509   9.596  10.436   1.674  3.2617  0.9351  1.2673
29676WAT     H220510   9.604  10.358   1.804 -1.2205 -2.2709 -0.1358
29676WAT    EPW20511   9.622  10.366   1.719  0.8142 -0.6763  0.3508
29677WAT      O20512   2.958   4.903   5.452 -0.2115  0.3727 -0.2435
29677WAT     H120513   3.032   4.959   5.428 -0.5656 -0.4106 -3.6224
29677WAT     H220514   2.881   4.951   5.422 -1.2297  1.0570  2.9940
29677WAT    EPW20515   2.958   4.917   5.445 -0.3924  0.3600 -0.2623
29678WAT      O20516   6.705   6.922   0.468  0.0341 -0.3614 -0.0371
29678WAT     H120517   6.779   6.875   0.506  0.1235 -0.5200 -0.4154
29678WAT     H220518   6.676   6.868   0.395  2.1545  1.6255 -2.5727
29678WAT    EPW20519   6.711   6.909   0.464  0.3257 -0.1204 -0.4214
29679WAT      O20520   5.932   7.548   1.999  0.1492 -0.2677  0.1338
29679WAT     H120521   5.838   7.545   1.979  0.0140 -1.9506  0.9061
29679WAT     H220522   5.963   7.625   1.951 -1.9463  1.4459  1.3002
29679WAT    EPW20523   5.924   7.558   1.990 -0.1450 -0.2637  0.3895
29680WAT      O20524   0.379   5.215   2.871  0.1292 -0.2820 -0.2458
29680WAT     H120525   0.432   5.277   2.823 -0.4544  1.1527  0.8676
29680WAT     H220526   0.306   5.194   2.812 -0.2439  0.9557 -0.2554
29680WAT    EPW20527   0.376   5.220   2.857  0.0030  0.0708 -0.1001
29681WAT      O20528   1.714   8.807   0.265 -0.2890 -0.0558 -0.5924
29681WAT     H120529   1.803   8.826   0.235  0.0247 -2.9607 -1.8744
29681WAT     H220530   1.661   8.880   0.231  1.3525  0.9488 -1.1149
29681WAT    EPW20531   1.719   8.819   0.256 -0.0311 -0.3061 -0.8304
29682WAT      O20532  10.988   1.815   5.528 -0.1003  0.0614  0.4191
29682WAT     H120533  10.952   1.771   5.451  2.0572 -1.4624  0.1837
29682WAT     H220534  10.943   1.899   5.531 -0.3570  0.1199 -2.4198
29682WAT    EPW20535  10.977   1.820   5.519  0.1504 -0.1318  0.0138
29683WAT      O20536   9.433   0.347   8.495  0.2172  0.1879  0.1203
29683WAT     H120537   9.506   0.367   8.436 -0.9880  1.3814 -1.0394
29683WAT     H220538   9.411   0.431   8.535  0.9130 -0.5741  2.2396
29683WAT    EPW20539   9.440   0.361   8.493  0.1497  0.2448  0.2475
29684WAT      O20540   1.308   7.541   8.157  0.7756  0.3097 -0.0782
29684WAT     H120541   1.391   7.530   8.111 -0.2350 -1.1612 -1.6972
29684WAT     H220542   1.268   7.454   8.155 -0.5218  0.8322  1.2409
29684WAT    EPW20543   1.314   7.528   8.151  0.4712  0.1845 -0.1178
29685WAT      O20544   6.133   4.341   0.739 -0.0230  0.6969 -0.2638
29685WAT     H120545   6.135   4.332   0.644  3.4644 -2.0846 -0.1580
29685WAT     H220546   6.063   4.281   0.767  0.6864 -0.5633 -1.0610
29685WAT    EPW20547   6.124   4.332   0.730  0.5307  0.1638 -0.3550
29686WAT      O20548   6.941  10.098   6.822 -0.7292  0.4367 -0.5577
29686WAT     H120549   6.978  10.022   6.777  0.2214  1.0044 -0.7635
29686WAT     H220550   6.979  10.173   6.777 -2.0794  1.0514 -0.7065
29686WAT    EPW20551   6.951  10.098   6.810 -0.7820  0.5932 -0.6046
29687WAT      O20552   1.202   1.582   8.769  0.3259  1.2558 -0.5921
29687WAT     H120553   1.125   1.609   8.719 -0.5251 -0.2385 -0.1407
29687WAT     H220554   1.177   1.500   8.810  1.9942  0.9954 -0.0022
29687WAT    EPW20555   1.189   1.575   8.768  0.4337  1.0243 -0.4544
29688WAT      O20556   9.098   9.550   6.408  0.3028 -0.4642 -0.3215
29688WAT     H120557   9.153   9.503   6.345  0.5728 -1.2977  0.5226
29688WAT     H220558   9.065   9.483   6.466  2.9222  0.5772  2.6835
29688WAT    EPW20559   9.101   9.535   6.407  0.6838 -0.4363  0.1860
29689WAT      O20560   5.113   4.853   0.932 -0.5394  0.1604  0.1250
29689WAT     H120561   5.124   4.902   1.014 -0.8349  0.1713  0.1625
29689WAT     H220562   5.050   4.906   0.882 -0.0626  0.3539 -0.2714
29689WAT    EPW20563   5.106   4.866   0.936 -0.5152  0.1874  0.0776
29690WAT      O20564   2.251   0.681   7.271 -0.9363 -0.7026 -0.3271
29690WAT     H120565   2.287   0.712   7.354 -0.2145  0.4536 -1.0343
29690WAT     H220566   2.234   0.761   7.221 -2.3650 -1.3265 -0.9029
29690WAT    EPW20567   2.254   0.696   7.275 -1.0296 -0.6323 -0.4964
29691WAT      O20568   3.733   9.456   8.734 -0.0712  0.8459 -0.2821
29691WAT     H120569   3.677   9.534   8.732 -1.0466  0.2389  1.5719
29691WAT     H220570   3.773   9.456   8.820  0.5669 -0.2707 -0.5518
29691WAT    EPW20571   3.731   9.466   8.745 -0.1158  0.6180 -0.0734
29692WAT      O20572  10.373   7.960   7.949  0.6587  0.4872  0.1632
29692WAT     H120573  10.370   7.992   8.039  1.1771  0.5588  0.1595
29692WAT     H220574  10.293   7.908   7.939  1.2663 -0.6908  1.1085
29692WAT    EPW20575  10.362   7.957   7.960  0.8073  0.3412  0.2873
29693WAT      O20576   1.334   5.353   2.252  0.2907  0.8697  0.0681
29693WAT     H120577   1.268   5.287   2.231  1.9888 -1.7044  2.1105
29693WAT     H220578   1.312   5.382   2.340  0.6479  1.6356 -0.0879
29693WAT    EPW20579   1.323   5.348   2.261  0.5618  0.6313  0.3169
29694WAT      O20580   4.433   5.541   0.095  0.1578  0.0254  0.6498
29694WAT     H120581   4.437   5.635   0.078  3.0670 -0.5470 -3.0486
29694WAT     H220582   4.350   5.513   0.056  0.1603  0.8037  0.0734
29694WAT    EPW20583   4.423   5.549   0.088  0.5414  0.0525  0.0860
29695WAT      O20584   8.558   8.445   8.458 -0.1364 -0.3064  0.0483
29695WAT     H120585   8.495   8.504   8.416 -0.6271  0.2997  1.5854
29695WAT     H220586   8.547   8.362   8.412 -2.5110 -0.3891  0.6801
29695WAT    EPW20587   8.549   8.442   8.446 -0.5140 -0.2375  0.3343
29696WAT      O20588   4.563   6.862   4.990 -0.6303  0.4062 -0.3423
29696WAT     H120589   4.523   6.776   5.006  0.4004  0.4939  3.6131
29696WAT     H220590   4.644   6.842   4.942 -0.2730 -0.9052  0.7467
29696WAT    EPW20591   4.569   6.848   4.986 -0.4470  0.2449  0.3231
29697WAT      O20592   1.402   6.283   6.235 -0.2858 -0.2805 -0.3050
29697WAT     H120593   1.387   6.367   6.278 -2.3205 -1.6388  1.8943
29697WAT     H220594   1.484   6.251   6.273  0.0363  0.2952 -0.4952
29697WAT    EPW20595   1.411   6.290   6.246 -0.5116 -0.3836 -0.0398
29698WAT      O20596   1.466   5.506   1.373  0.4385 -0.3258 -0.3547
29698WAT     H120597   1.530   5.435   1.380  0.9554  0.2847  2.3908
29698WAT     H220598   1.507   5.580   1.417 -1.6324  0.4573  0.4078
29698WAT    EPW20599   1.480   5.506   1.380  0.2335 -0.1421  0.1080
29699WAT      O20600   0.841   7.736   4.001 -0.0447 -0.0689  0.1712
29699WAT     H120601   0.878   7.651   3.974  0.9963  1.1072 -2.4186
29699WAT     H220602   0.746   7.722   4.001 -0.0070 -0.7862 -2.2144
29699WAT    EPW20603   0.833   7.723   3.998  0.0976 -0.0086 -0.4851
29700WAT      O20604   7.180   2.719   0.454 -0.6752  0.0363  0.2594
29700WAT     H120605   7.194   2.696   0.362  0.0960 -2.2010  0.8750
29700WAT     H220606   7.251   2.781   0.474 -1.4973  1.4270 -0.8811
29700WAT    EPW20607   7.191   2.724   0.444 -0.6819 -0.0755  0.1902
29701WAT      O20608   4.703   5.733   3.687 -0.0697  0.0389  0.0591
29701WAT     H120609   4.785   5.748   3.735  0.1819 -2.4452  0.4973
29701WAT     H220610   4.729   5.738   3.595  0.6206 -0.7810  0.1914
29701WAT    EPW20611   4.718   5.736   3.681  0.0546 -0.3970  0.1342
29702WAT      O20612   6.595   0.635   8.892  0.5925  0.7848  0.1237
29702WAT     H120613   6.515   0.584   8.905  0.5510  1.1025  1.2462
29702WAT     H220614   6.624   0.613   8.803 -0.4219  0.2296 -0.0821
29702WAT    EPW20615   6.588   0.626   8.882  0.4532  0.7534  0.2451
29703WAT      O20616   8.211   6.220   8.044  0.1676  0.0844  0.0185
29703WAT     H120617   8.236   6.137   8.085 -0.3327  0.3321  0.8406
29703WAT     H220618   8.290   6.246   7.996  1.5721  0.8424  2.5493
29703WAT    EPW20619   8.225   6.212   8.043  0.2871  0.2172  0.4601
29704WAT      O20620   0.147  10.301   7.383  0.8934 -0.4551 -0.7825
29704WAT     H120621   0.058  10.302   7.417  0.2337 -1.1006 -2.3716
29704WAT     H220622   0.192  10.370   7.431 -1.1304  1.6095 -1.6535
29704WAT    EPW20623   0.141  10.310   7.394  0.5394 -0.2680 -1.1072
29705WAT      O20624  10.409   9.661   3.220  0.6848 -0.3671 -0.5306
29705WAT     H120625  10.494   9.681   3.260  0.2279 -0.0404  0.2902
29705WAT     H220626  10.374   9.589   3.273 -0.6635  1.1642  0.7404
29705WAT    EPW20627  10.416   9.654   3.232  0.4468 -0.1216 -0.2546
29706WAT      O20628   5.672   6.584   0.152  0.4457 -0.5692 -0.1863
29706WAT     H120629   5.703   6.615   0.238 -1.4798  0.4888  0.1895
29706WAT     H220630   5.621   6.657   0.118 -0.5585 -1.7531 -1.3015
29706WAT    EPW20631   5.669   6.598   0.159  0.0594 -0.5858 -0.2838
29707WAT      O20632  10.321   8.653   7.538  0.3509  0.0415  0.3983
29707WAT     H120633  10.254   8.643   7.471 -1.4897 -0.7702  2.2598
29707WAT     H220634  10.375   8.726   7.508 -0.2511 -0.4226 -2.0327
29707WAT    EPW20635  10.319   8.661   7.525  0.0291 -0.1264  0.3231
29708WAT      O20636   6.756   6.390   1.525 -0.9774 -0.0363  0.8612
29708WAT     H120637   6.780   6.481   1.509  0.1692 -0.1221  1.9373
29708WAT     H220638   6.807   6.340   1.462  1.3049 -0.1663  2.6977
29708WAT    EPW20639   6.766   6.395   1.515 -0.5250 -0.0646  1.2454
29709WAT      O20640   0.535   8.564   6.767  0.0873 -0.3197  0.0255
29709WAT     H120641   0.517   8.599   6.854 -2.7094  0.9374 -0.9221
29709WAT     H220642   0.478   8.488   6.759 -1.7462  1.1347 -1.5651
29709WAT    EPW20643   0.525   8.559   6.777 -0.5234  0.0386 -0.3092
29710WAT      O20644   4.214   0.021   7.599 -0.1866 -0.2829 -0.4626
29710WAT     H120645   4.280   0.061   7.543 -0.5015  0.5512 -0.2509
29710WAT     H220646   4.178  -0.050   7.546 -0.0874  0.1389 -1.1085
29710WAT    EPW20647   4.218   0.017   7.585 -0.2151 -0.1173 -0.5200
29711WAT      O20648   4.029   0.507   8.363 -0.2340  0.0366 -0.1062
29711WAT     H120649   3.988   0.425   8.391 -0.3531 -0.2655 -1.1272
29711WAT     H220650   4.023   0.506   8.267 -1.2712  1.7625 -0.1129
29711WAT    EPW20651   4.023   0.496   8.354 -0.3865  0.2244 -0.2418
29712WAT      O20652   5.899   1.339   0.745 -0.6329 -0.2347 -0.1997
29712WAT     H120653   5.838   1.372   0.679 -1.2177  0.6591  0.7461
29712WAT     H220654   5.904   1.409   0.810 -0.5296 -1.3056  0.9943
29712WAT    EPW20655   5.891   1.353   0.745 -0.6967 -0.2580  0.0826
29713WAT      O20656   5.408   4.323   2.591  0.2957 -0.4551 -0.6049
29713WAT     H120657   5.486   4.326   2.647  0.5070 -0.5239 -0.8944
29713WAT     H220658   5.440   4.294   2.506  0.3219  1.5399 -1.3420
29713WAT    EPW20659   5.422   4.320   2.587  0.3266 -0.2010 -0.7402
29714WAT      O20660   8.277   7.980   5.931 -0.3272 -0.2673  0.0128
29714WAT     H120661   8.274   7.884   5.933 -4.0746 -0.3237  0.1446
29714WAT     H220662   8.201   8.007   5.984  1.4684  2.8628  1.2564
29714WAT    EPW20663   8.267   7.971   5.938 -0.5851  0.1383  0.1945
29715WAT      O20664   6.593   9.439   7.247 -0.6366 -0.0801 -0.7531
29715WAT     H120665   6.657   9.454   7.178  0.3094  2.6217  0.5820
29715WAT     H220666   6.603   9.346   7.270  1.1772 -0.2581 -2.1058
29715WAT    EPW20667   6.603   9.429   7.241 -0.2728  0.2527 -0.7555
29716WAT      O20668   0.524   9.295   6.534 -0.4530 -0.1103 -0.1649
29716WAT     H120669   0.589   9.266   6.471 -1.8891 -2.4340 -0.6648
29716WAT     H220670   0.497   9.381   6.502 -0.2621 -0.7066 -2.0293
29716WAT    EPW20671   0.529   9.303   6.521 -0.6172 -0.4954 -0.4768
29717WAT      O20672   7.944   5.109   0.017 -0.3330  0.0053 -0.3074
29717WAT     H120673   8.022   5.106   0.073 -1.7827  2.0540  2.0358
29717WAT     H220674   7.932   5.018  -0.010  5.2136 -0.0065 -4.5946
29717WAT    EPW20675   7.953   5.096   0.021  0.2077  0.2742 -0.5638
29718WAT      O20676   4.493   7.937   1.358 -0.4751 -0.5948  0.3536
29718WAT     H120677   4.427   7.893   1.305  1.8050 -3.6866 -0.1790
29718WAT     H220678   4.485   8.030   1.335 -0.7564 -1.5448 -4.1371
29718WAT    EPW20679   4.483   7.944   1.348 -0.2117 -1.1277 -0.3089
29719WAT      O20680   7.329   6.025   6.151 -0.2336 -0.3232  0.6598
29719WAT     H120681   7.362   6.052   6.065  0.7507  1.5963  1.5682
29719WAT     H220682   7.236   6.047   6.149 -0.2114 -0.2638  0.1021
29719WAT    EPW20683   7.321   6.031   6.139 -0.1011 -0.0622  0.7060
29720WAT      O20684   1.278   0.611   7.684  0.5126 -0.0568 -0.5453
29720WAT     H120685   1.252   0.701   7.703  1.5026  0.4087 -1.2945
29720WAT     H220686   1.278   0.567   7.769  1.7950  1.1289  0.0999
29720WAT    EPW20687   1.275   0.617   7.697  0.8122  0.1610 -0.5591
29721WAT      O20688   5.972   2.964   0.362  0.2482  0.3044  0.2362
29721WAT     H120689   5.888   3.006   0.345  0.1616 -0.0756 -0.3037
29721WAT     H220690   5.981   2.965   0.457 -1.9879 -2.7496  0.6279
29721WAT    EPW20691   5.962   2.970   0.372 -0.0582 -0.1484  0.2166
29722WAT      O20692   6.303   6.610   8.447 -0.3621 -0.0728 -0.0150
29722WAT     H120693   6.299   6.671   8.521  0.1915 -1.0107  0.8143
29722WAT     H220694   6.348   6.659   8.378  0.9805  0.1495  0.9820
29722WAT    EPW20695   6.309   6.624   8.447 -0.1118 -0.1671  0.2255
29723WAT      O20696   0.852  10.128   8.702 -0.5030 -0.2828  0.7350
29723WAT     H120697   0.853  10.125   8.607 -2.7612  1.4053  0.5700
29723WAT     H220698   0.901  10.208   8.724  2.2742 -1.9941  1.2217
29723WAT    EPW20699   0.859  10.138   8.692 -0.4345 -0.2861  0.7772
29724WAT      O20700   2.542   0.804   8.857 -0.0714 -0.0417  0.0934
29724WAT     H120701   2.457   0.761   8.847 -0.9546  1.4999  0.6497
29724WAT     H220702   2.526   0.876   8.919  1.1283  1.5785 -1.3692
29724WAT    EPW20703   2.529   0.808   8.864 -0.0298  0.3753 -0.0267
29725WAT      O20704  10.279   9.243   0.158 -0.8156 -0.4422 -0.3705
29725WAT     H120705  10.346   9.180   0.133  0.9411  1.5236 -0.9094
29725WAT     H220706  10.327   9.312   0.204 -2.8958 -0.2278  1.6605
29725WAT    EPW20707  10.294   9.244   0.161 -0.8588 -0.1550 -0.1737
29726WAT      O20708   0.105   7.311   8.229 -0.1147  0.5294  0.3621
29726WAT     H120709   0.047   7.288   8.302  1.3527 -1.0336  1.0899
29726WAT     H220710   0.166   7.374   8.266  0.2679  0.1850  0.3186
29726WAT    EPW20711   0.105   7.317   8.244  0.1293  0.2780  0.4520
29727WAT      O20712   2.191   9.609   7.685 -0.0563  0.8350  0.0542
29727WAT     H120713   2.175   9.558   7.764 -0.4390  1.4343  0.3651
29727WAT     H220714   2.109   9.605   7.636  0.2043  0.3984 -0.3586
29727WAT    EPW20715   2.178   9.602   7.689 -0.0725  0.8564  0.0405
29728WAT      O20716   3.466   4.879   0.457 -0.2169  0.1728  0.5327
29728WAT     H120717   3.406   4.945   0.492  0.1023  0.2831  0.8849
29728WAT     H220718   3.505   4.921   0.381 -2.2274 -0.7090 -1.0768
29728WAT    EPW20719   3.463   4.893   0.452 -0.4399  0.0710  0.3669
29729WAT      O20720   5.836   6.324   6.980  0.6168  0.1848  0.0877
29729WAT     H120721   5.913   6.336   7.036 -0.9369 -0.2208  2.5051
29729WAT     H220722   5.849   6.239   6.940 -0.2735 -1.8913  3.7068
29729WAT    EPW20723   5.848   6.314   6.982  0.2947 -0.1423  0.8841
29730WAT      O20724   8.034   7.146   3.133 -0.2019  0.2751 -0.5299
29730WAT     H120725   7.956   7.090   3.125 -0.9995  1.0638  1.1806
29730WAT     H220726   8.019   7.217   3.071 -1.5525  1.1399  0.7106
29730WAT    EPW20727   8.021   7.148   3.124 -0.4854  0.4933 -0.1407
29731WAT      O20728   6.079   5.424   0.094 -0.9234 -0.0774 -0.2566
29731WAT     H120729   6.116   5.447   0.179 -0.5470  0.4220 -0.5488
29731WAT     H220730   6.099   5.500   0.039 -0.2841 -0.8177 -1.0615
29731WAT    EPW20731   6.086   5.437   0.098 -0.7892 -0.1094 -0.4013
29732WAT      O20732   2.321   7.054   0.395  0.0700  0.3891 -0.0432
29732WAT     H120733   2.270   6.984   0.437  3.1528 -1.2310  1.3415
29732WAT     H220734   2.345   7.112   0.467 -0.1561  1.3626 -0.7373
29732WAT    EPW20735   2.318   7.052   0.410  0.4469  0.3035  0.0479
29733WAT      O20736   6.087   3.315   2.552 -0.8081  0.3420 -0.5463
29733WAT     H120737   6.057   3.319   2.643  0.9806 -1.2438  0.1968
29733WAT     H220738   6.043   3.238   2.516  1.9765 -1.9715  0.5368
29733WAT    EPW20739   6.077   3.305   2.560 -0.2050 -0.1724 -0.3054
29734WAT      O20740   4.026   0.511   7.545  0.1514 -0.6369 -0.2102
29734WAT     H120741   4.114   0.474   7.556  1.5668  2.3457 -0.5686
29734WAT     H220742   4.041   0.599   7.510 -2.9955  0.0459 -0.1225
29734WAT    EPW20743   4.039   0.518   7.542 -0.0770 -0.1535 -0.2456
29735WAT      O20744   5.579   3.963   1.073  0.9102 -0.0658 -0.2044
29735WAT     H120745   5.539   4.045   1.104  1.6188 -0.4794  1.8970
29735WAT     H220746   5.599   3.981   0.981  3.2528  3.0516  0.7333
29735WAT    EPW20747   5.576   3.977   1.065  1.3125  0.2906  0.1965
29736WAT      O20748   9.117   3.800   0.575  0.0863  0.4420 -0.7405
29736WAT     H120749   9.162   3.861   0.517 -1.4464  0.6739 -1.7435
29736WAT     H220750   9.027   3.832   0.579 -0.4469 -1.0156 -0.2534
29736WAT    EPW20751   9.111   3.812   0.568 -0.1864  0.2804 -0.8086
29737WAT      O20752   7.470   6.159   1.695  0.6413  0.1109  0.2822
29737WAT     H120753   7.459   6.249   1.665  0.3769 -0.7303 -2.3908
29737WAT     H220754   7.561   6.154   1.722  0.6213  1.1859  0.6123
29737WAT    EPW20755   7.480   6.170   1.695  0.6039  0.1416 -0.0268
29738WAT      O20756   5.870   4.884   0.122  0.3221  0.0895  0.0815
29738WAT     H120757   5.776   4.901   0.121  0.2721  0.4385  3.0675
29738WAT     H220758   5.901   4.923   0.040 -2.1174 -0.3103 -1.1453
29738WAT    EPW20759   5.862   4.892   0.111 -0.0060  0.0827  0.3135
29739WAT      O20760  10.938   9.265   7.871  1.2454 -1.0345  0.0258
29739WAT     H120761  10.885   9.262   7.951  1.0525 -0.0563 -0.0604
29739WAT     H220762  10.985   9.348   7.876  4.1105 -2.5765  0.9371
29739WAT    EPW20763  10.937   9.275   7.882  1.5974 -1.1086  0.1345
29740WAT      O20764   5.450   2.153   2.379  0.1876  0.8071  0.1957
29740WAT     H120765   5.494   2.173   2.462  2.5795  2.3623 -1.3172
29740WAT     H220766   5.394   2.229   2.362 -0.3982  0.4332  0.4048
29740WAT    EPW20767   5.448   2.165   2.388  0.4261  0.9627  0.0236
29741WAT      O20768   5.839   5.259   3.459 -0.8145  0.1243  0.7811
29741WAT     H120769   5.893   5.184   3.483  1.5471  0.4861 -2.6613
29741WAT     H220770   5.754   5.240   3.497 -0.6412 -4.7987 -0.5514
29741WAT    EPW20771   5.835   5.246   3.467 -0.4799 -0.4771  0.1514
29742WAT      O20772   4.929   1.700   0.575 -0.3353  0.3391 -0.4987
29742WAT     H120773   4.948   1.792   0.555 -1.7069  0.9170  0.6840
29742WAT     H220774   4.877   1.669   0.501 -0.1637  0.6192 -0.7361
29742WAT    EPW20775   4.924   1.708   0.563 -0.4933  0.4522 -0.3741
29743WAT      O20776   2.988   0.986   3.857  0.0015 -0.5838 -0.2743
29743WAT     H120777   3.032   1.043   3.794  1.6378 -1.7040 -0.2071
29743WAT     H220778   2.967   1.044   3.930  0.5832  0.1711 -0.6814
29743WAT    EPW20779   2.991   1.001   3.858  0.2941 -0.6320 -0.3190
29744WAT      O20780   5.177   5.621   0.166  0.1895 -0.5139 -0.5897
29744WAT     H120781   5.244   5.688   0.181  0.7772 -1.2552  0.2199
29744WAT     H220782   5.102   5.650   0.218  1.0818 -1.3908  1.2586
29744WAT    EPW20783   5.176   5.633   0.175  0.3846 -0.7272 -0.2392
29745WAT      O20784   5.892   5.251   0.911 -0.2182  0.2822  0.0109
29745WAT     H120785   5.853   5.171   0.946 -3.1864  0.0260 -3.3635
29745WAT     H220786   5.872   5.318   0.977 -0.5799 -1.1301  1.3943
29745WAT    EPW20787   5.884   5.249   0.925 -0.6573  0.0622 -0.2518
29746WAT      O20788   4.360   0.347   5.915  0.2258  0.3862  0.3231
29746WAT     H120789   4.364   0.367   6.008  0.2020 -0.9887  0.6346
29746WAT     H220790   4.353   0.433   5.872  2.1747  1.1746  1.4558
29746WAT    EPW20791   4.360   0.361   5.921  0.4797  0.3088  0.5136
29747WAT      O20792   2.499   5.071   2.248 -0.2878 -0.3199 -0.4791
29747WAT     H120793   2.523   5.136   2.314  0.3174 -0.8952 -0.1156
29747WAT     H220794   2.574   5.011   2.246 -1.8956 -2.5916  1.1975
29747WAT    EPW20795   2.512   5.072   2.257 -0.4200 -0.6952 -0.2100
29748WAT      O20796  10.207   7.011   8.644 -0.4297 -0.7472 -0.5024
29748WAT     H120797  10.131   6.954   8.659 -1.1641 -0.2441 -2.0732
29748WAT     H220798  10.183   7.062   8.567  0.5714  1.0756  0.3339
29748WAT    EPW20799  10.194   7.010   8.636 -0.3939 -0.4404 -0.5999
29749WAT      O20800   1.657   0.715   8.895 -0.4042 -0.7934 -0.4945
29749WAT     H120801   1.720   0.786   8.885  0.3642 -1.3433  0.3812
29749WAT     H220802   1.678   0.675   8.979 -2.3975 -0.5241  0.1846
29749WAT    EPW20803   1.668   0.719   8.905 -0.5656 -0.8304 -0.2894
29750WAT      O20804   7.428   7.514   8.535  0.2000 -0.2440 -0.2141
29750WAT     H120805   7.465   7.543   8.452 -2.3606  1.2167 -0.9531
29750WAT     H220806   7.346   7.471   8.511 -0.0258 -0.8547  1.4957
29750WAT    EPW20807   7.422   7.512   8.521 -0.1676 -0.1318 -0.0858
29751WAT      O20808  10.761  10.075   8.212  0.3234 -0.3854 -0.4085
29751WAT     H120809  10.810  10.033   8.283  2.2712  1.3053 -0.6370
29751WAT     H220810  10.681  10.106   8.253  0.3317 -1.4572  0.4798
29751WAT    EPW20811  10.757  10.073   8.226  0.5817 -0.3042 -0.3214
29752WAT      O20812   7.939   3.988   1.058  0.2447  0.0140 -0.2753
29752WAT     H120813   7.895   3.958   0.978 -0.5291 -1.0698  0.5184
29752WAT     H220814   7.954   3.908   1.108  1.7071  0.5583  0.1939
29752WAT    EPW20815   7.935   3.973   1.054  0.3357 -0.0572 -0.1087
29753WAT      O20816   1.241   7.600   6.825 -0.6893  0.1471 -0.1732
29753WAT     H120817   1.225   7.533   6.759 -1.8599  0.1169  0.1163
29753WAT     H220818   1.262   7.550   6.904  0.2859  0.1741 -0.4051
29753WAT    EPW20819   1.242   7.584   6.827 -0.7150  0.1469 -0.1657
29754WAT      O20820   3.623   5.693   1.954  0.0809  0.8141 -0.3674
29754WAT     H120821   3.550   5.717   2.011  0.5300  0.3819  0.3945
29754WAT     H220822   3.581   5.644   1.883 -0.2337 -0.6835  0.8035
29754WAT    EPW20823   3.608   5.690   1.952  0.0986  0.5598 -0.1124
29755WAT      O20824   8.349   6.734   8.832 -0.1080  0.4692  0.0891
29755WAT     H120825   8.414   6.719   8.763  0.9079 -0.1754  1.1446
29755WAT     H220826   8.281   6.787   8.790 -0.7498 -1.9175 -2.0823
29755WAT    EPW20827   8.349   6.739   8.817 -0.0591  0.0696 -0.0582
29756WAT      O20828   8.221   8.967   8.236 -0.3780  0.1100 -0.2762
29756WAT     H120829   8.241   8.984   8.144  0.8942 -0.4045 -0.1216
29756WAT     H220830   8.207   9.054   8.275  1.2381  0.5164 -0.5124
29756WAT    EPW20831   8.222   8.981   8.229  0.0029  0.0954 -0.2866
29757WAT      O20832   4.511   0.479   5.520  0.5119  0.6455  0.4807
29757WAT     H120833   4.487   0.401   5.570  1.4102  0.0179 -0.0334
29757WAT     H220834   4.427   0.516   5.492  0.0713 -0.2714  0.5461
29757WAT    EPW20835   4.497   0.473   5.523  0.5722  0.4417  0.4215
29758WAT      O20836   5.412   2.947   0.936  0.2243  0.3298  0.0919
29758WAT     H120837   5.499   2.977   0.964  0.5585  2.5133 -2.8292
29758WAT     H220838   5.372   2.912   1.016  3.3890  0.1235  1.7471
29758WAT    EPW20839   5.418   2.946   0.951  0.6855  0.5906 -0.0750
29759WAT      O20840   5.461   5.198   1.342  0.0105  0.1714 -0.4413
29759WAT     H120841   5.383   5.253   1.341 -1.1890 -1.3331  1.8490
29759WAT     H220842   5.528   5.252   1.386 -0.6898  0.3781  0.3990
29759WAT    EPW20843   5.460   5.213   1.348 -0.2401  0.0005 -0.0284
29760WAT      O20844   5.484   2.869   0.220  0.0413 -0.1630  0.0647
29760WAT     H120845   5.451   2.848   0.133 -1.3347 -1.4872  0.8629
29760WAT     H220846   5.428   2.820   0.280  0.9847  0.6668  1.7112
29760WAT    EPW20847   5.472   2.860   0.217 -0.0157 -0.2283  0.3871
29761WAT      O20848   9.861   7.638   6.210 -0.2546 -0.3237 -0.6856
29761WAT     H120849   9.934   7.675   6.260 -2.3541  0.5965  1.9418
29761WAT     H220850   9.812   7.715   6.179 -0.1567 -0.9200 -2.3667
29761WAT    EPW20851   9.864   7.653   6.213 -0.5188 -0.2811 -0.5610
29762WAT      O20852   1.054   6.532   4.092 -0.2868 -0.0564 -0.4346
29762WAT     H120853   1.136   6.488   4.069 -0.7491 -0.9198 -0.4794
29762WAT     H220854   1.002   6.529   4.011 -0.2195  0.8376 -0.5208
29762WAT    EPW20855   1.058   6.525   4.078 -0.3389 -0.0522 -0.4518
29763WAT      O20856   0.161   5.790   5.732  0.8429 -0.0480  0.0565
29763WAT     H120857   0.246   5.802   5.689  0.0888  0.6851 -1.3085
29763WAT     H220858   0.167   5.843   5.811  1.4225  0.6062 -0.4050
29763WAT    EPW20859   0.173   5.799   5.736  0.8199  0.1347 -0.1843
29764WAT      O20860  10.548   8.345   5.801  0.0328 -0.6957  0.7649
29764WAT     H120861  10.620   8.327   5.862 -0.7818 -1.4792  1.5173
29764WAT     H220862  10.572   8.428   5.760  1.9444 -1.4978  0.1379
29764WAT    EPW20863  10.561   8.354   5.804  0.1764 -0.9046  0.7813
29765WAT      O20864   3.126   9.344   4.727 -0.0166  0.2956  0.7486
29765WAT     H120865   3.219   9.347   4.703  0.2258  0.0918  1.6507
29765WAT     H220866   3.115   9.416   4.789  0.5995 -2.3590  4.2304
29765WAT    EPW20867   3.137   9.354   4.732  0.0964 -0.0820  1.3268
29766WAT      O20868  10.924   7.575   3.168 -0.2177 -0.6614  0.0916
29766WAT     H120869  10.937   7.589   3.262  1.8829 -2.1445  0.0992
29766WAT     H220870  10.850   7.631   3.145 -1.0214 -0.5332  2.6864
29766WAT    EPW20871  10.916   7.584   3.177 -0.0463 -0.8402  0.4349
29767WAT      O20872   9.748   6.269   4.218  0.0444  0.3072  0.1845
29767WAT     H120873   9.804   6.331   4.171 -1.0726  1.0208 -0.2566
29767WAT     H220874   9.673   6.256   4.160  0.5832 -2.0853 -0.0874
29767WAT    EPW20875   9.746   6.276   4.204 -0.0315  0.0861  0.0904
29768WAT      O20876  10.693   9.757   3.316 -0.1812  0.2259  0.0479
29768WAT     H120877  10.752   9.683   3.307  1.9175  1.8811 -0.5518
29768WAT     H220878  10.710   9.791   3.404  2.1655  2.5494 -1.1858
29768WAT    EPW20879  10.703   9.752   3.326  0.4058  0.7510 -0.1940
29769WAT      O20880   9.666   9.566   2.367  0.5509 -0.0922 -0.7055
29769WAT     H120881   9.696   9.475   2.356  1.6617  0.3790 -1.7553
29769WAT     H220882   9.579   9.557   2.406  0.3982 -1.6377 -1.3083
29769WAT    EPW20883   9.659   9.553   2.371  0.6771 -0.2341 -0.9234
29770WAT      O20884   1.060   9.674   4.969  0.0066 -0.1133 -0.4227
29770WAT     H120885   1.090   9.707   5.054 -0.4690  0.6012 -0.5266
29770WAT     H220886   0.978   9.628   4.988  1.2603 -2.4015 -0.0785
29770WAT    EPW20887   1.053   9.672   4.983  0.1092 -0.3214 -0.3912
29771WAT      O20888   3.917   6.409   2.769  0.7922 -0.1535  0.5278
29771WAT     H120889   3.968   6.406   2.689 -0.7903  0.3001 -0.5340
29771WAT     H220890   3.962   6.473   2.824  1.4709  0.0907 -0.2962
29771WAT    EPW20891   3.930   6.417   2.766  0.6731 -0.0618  0.2791
29772WAT      O20892   2.065   6.282   3.523  0.7255 -0.0492 -0.4309
29772WAT     H120893   1.970   6.278   3.540  0.4289  0.6807 -1.8236
29772WAT     H220894   2.090   6.370   3.552  0.7887  0.0988 -0.9269
29772WAT    EPW20895   2.056   6.293   3.529  0.6946  0.0668 -0.6801
29773WAT      O20896   5.514   1.776   1.688  0.0084  0.0733 -0.1289
29773WAT     H120897   5.555   1.713   1.628  0.3934 -0.1099  0.3227
29773WAT     H220898   5.535   1.861   1.650  1.3499  0.0107  0.4225
29773WAT    EPW20899   5.522   1.779   1.675  0.2360  0.0409  0.0034
29774WAT      O20900   1.193   8.246   0.317 -0.1838  0.0516  0.1183
29774WAT     H120901   1.111   8.212   0.353  0.5787 -1.0494  0.8987
29774WAT     H220902   1.189   8.222   0.224 -0.3348 -0.8720  0.3459
29774WAT    EPW20903   1.181   8.238   0.309 -0.1031 -0.2151  0.2512
29775WAT      O20904   2.948   8.280   2.756  0.6320  0.0809  0.1055
29775WAT     H120905   2.934   8.190   2.785 -1.1475  0.0796 -0.6155
29775WAT     H220906   3.004   8.319   2.824  2.3940 -1.8546 -0.1714
29775WAT    EPW20907   2.953   8.274   2.769  0.6299 -0.1740 -0.0261
29776WAT      O20908   8.620   9.865   0.037 -0.1313 -0.2338 -0.3841
29776WAT     H120909   8.680   9.824   0.099  1.1930  2.2884  0.1350
29776WAT     H220910   8.676   9.893  -0.036 -1.0632  0.1408 -0.9800
29776WAT    EPW20911   8.635   9.863   0.035 -0.0801  0.1483 -0.3942
29777WAT      O20912   3.449   3.829   4.768  0.0003 -0.1390 -0.3926
29777WAT     H120913   3.356   3.846   4.751  0.1922  1.3523 -0.1262
29777WAT     H220914   3.483   3.913   4.800  1.0202 -1.1558  1.3860
29777WAT    EPW20915   3.441   3.842   4.770  0.1600 -0.0764 -0.1228
29778WAT      O20916  10.412   9.646   4.364 -0.4204 -0.4721 -0.0696
29778WAT     H120917  10.451   9.667   4.279 -3.1055  2.6107 -0.7746
29778WAT     H220918  10.417   9.728   4.414 -0.9679 -1.5498  1.8524
29778WAT    EPW20919  10.418   9.660   4.359 -0.8469 -0.2074  0.0906
29779WAT      O20920   1.049   7.552   0.466 -0.4750  0.4963  0.0472
29779WAT     H120921   1.069   7.475   0.413  1.3212 -0.1025  1.4958
29779WAT     H220922   0.974   7.592   0.422 -0.9342 -1.5929 -1.2271
29779WAT    EPW20923   1.041   7.547   0.453 -0.2987  0.1416  0.0702
29780WAT      O20924   5.513   0.311   4.804 -0.1762  0.3617  0.2534
29780WAT     H120925   5.475   0.230   4.838 -0.8657  0.0983 -1.0837
29780WAT     H220926   5.442   0.374   4.807 -1.4507 -0.5886 -3.9218
29780WAT    EPW20927   5.499   0.309   4.809 -0.4351  0.2016 -0.4737
29781WAT      O20928   1.428   8.408   5.820 -0.0464  0.6267 -0.4957
29781WAT     H120929   1.403   8.496   5.849  2.5028  1.3973 -0.4362
29781WAT     H220930   1.466   8.367   5.898 -1.5089 -0.7211 -0.4303
29781WAT    EPW20931   1.430   8.414   5.834  0.0969  0.5507 -0.4792
29782WAT      O20932   1.179   6.034   4.936 -0.4408  0.3621 -0.2848
29782WAT     H120933   1.229   6.081   5.003  0.2557 -0.1073 -0.4626
29782WAT     H220934   1.141   5.959   4.982  0.3642 -0.1801 -0.4921
29782WAT    EPW20935   1.180   6.030   4.951 -0.2428  0.2286 -0.3357
29783WAT      O20936   9.273   8.812   4.900  0.2243  0.3952  0.1079
29783WAT     H120937   9.348   8.803   4.842  0.2698 -0.1206  0.2484
29783WAT     H220938   9.311   8.828   4.986  0.1986  4.0943 -0.3708
29783WAT    EPW20939   9.288   8.813   4.903  0.2270  0.8154  0.0632
29784WAT      O20940   2.986   9.642   5.666 -0.2985 -0.1009  0.2719
29784WAT     H120941   3.069   9.690   5.674  0.0107 -0.8479  1.7471
29784WAT     H220942   2.965   9.614   5.755 -3.4429  2.1694  0.4139
29784WAT    EPW20943   2.994   9.645   5.678 -0.6726  0.1001  0.4854
29785WAT      O20944   1.217   8.691   2.953 -0.3294  0.5279 -1.2558
29785WAT     H120945   1.279   8.674   3.024  0.6872  1.0528 -1.9916
29785WAT     H220946   1.136   8.714   2.998 -0.0813 -0.4468 -0.2711
29785WAT    EPW20947   1.215   8.692   2.969 -0.1625  0.4683 -1.2228
29786WAT      O20948   1.564   8.088   3.782 -0.2151 -0.1269 -0.0780
29786WAT     H120949   1.597   8.029   3.850  1.3077  0.6502 -0.1115
29786WAT     H220950   1.626   8.080   3.710 -0.3728  0.9930 -0.3512
29786WAT    EPW20951   1.576   8.079   3.782 -0.0350  0.1230 -0.1185
29787WAT      O20952   4.885   0.686   2.591 -0.3282 -0.3396 -0.1058
29787WAT     H120953   4.863   0.670   2.499  2.6928 -1.4836 -0.7469
29787WAT     H220954   4.929   0.771   2.591 -2.1616  0.6918  0.7272
29787WAT    EPW20955   4.888   0.695   2.579 -0.1714 -0.3544 -0.0806
29788WAT      O20956   0.107   6.688   4.954 -0.2422  0.1017  0.2992
29788WAT     H120957   0.038   6.748   4.927 -0.1715 -0.9795 -2.6256
29788WAT     H220958   0.187   6.725   4.917  0.1066 -0.7403  0.1712
29788WAT    EPW20959   0.109   6.701   4.946 -0.1868 -0.1523 -0.1035
29789WAT      O20960   1.694   8.435   5.123  1.1056 -0.3357 -0.3203
29789WAT     H120961   1.689   8.380   5.200  2.4140  1.6020  1.2622
29789WAT     H220962   1.632   8.396   5.061 -2.4907 -0.1934  2.8197
29789WAT    EPW20963   1.685   8.423   5.125  0.8038 -0.0615  0.3028
29790WAT      O20964   9.987  10.230   0.482  0.1200  0.1906 -0.1519
29790WAT     H120965   9.993  10.309   0.427 -3.9302  0.9077  0.1205
29790WAT     H220966   9.921  10.176   0.438 -0.6363 -0.8472  2.1261
29790WAT    EPW20967   9.979  10.234   0.469 -0.5136  0.1483  0.1845
29791WAT      O20968  10.466   8.448   2.259 -0.4887  0.4428  0.2284
29791WAT     H120969  10.465   8.541   2.283 -0.0896  1.0439 -1.8844
29791WAT     H220970  10.510   8.446   2.174 -1.4558 -1.5638 -0.2714
29791WAT    EPW20971  10.472   8.460   2.251 -0.5636  0.2570 -0.1162
29792WAT      O20972   2.436   8.404   4.531 -0.3016  0.6244 -0.4237
29792WAT     H120973   2.521   8.446   4.520  0.2502 -0.4957 -0.6073
29792WAT     H220974   2.381   8.442   4.462 -0.2131  1.9356  0.1874
29792WAT    EPW20975   2.440   8.415   4.521 -0.2173  0.6490 -0.3674
29793WAT      O20976   4.873   1.180   4.501  0.4606  0.0643  0.0212
29793WAT     H120977   4.866   1.086   4.485 -1.1435  0.0155  0.7969
29793WAT     H220978   4.866   1.220   4.414 -1.3245 -0.4553 -0.1097
29793WAT    EPW20979   4.871   1.173   4.488  0.0138 -0.0106  0.1063
29794WAT      O20980   4.806   8.935   2.296  0.6711  0.4397  0.1860
29794WAT     H120981   4.834   8.924   2.387  0.9716 -0.1020  0.0349
29794WAT     H220982   4.888   8.938   2.247  0.6123  2.9603  0.1377
29794WAT    EPW20983   4.820   8.934   2.302  0.7029  0.7005  0.1596
29795WAT      O20984   1.286   8.753   3.950 -0.4029  0.1634  0.0922
29795WAT     H120985   1.360   8.777   3.895  0.3216  0.3917  1.1427
29795WAT     H220986   1.294   8.658   3.961 -0.1912  0.2117  0.3315
29795WAT    EPW20987   1.297   8.744   3.944 -0.2794  0.1998  0.2624
29796WAT      O20988   1.236   9.392   5.018 -0.0999 -1.0053 -0.4615
29796WAT     H120989   1.275   9.320   4.969 -0.9084  0.6914 -3.9213
29796WAT     H220990   1.255   9.470   4.966 -1.1424  1.0168  1.9547
29796WAT    EPW20991   1.244   9.393   5.005 -0.3441 -0.5150 -0.5991
29797WAT      O20992  10.950   8.251   2.876 -0.3745 -0.2309 -0.4657
29797WAT     H120993  10.989   8.295   2.801  0.5420 -1.6597 -0.8641
29797WAT     H220994  10.920   8.167   2.842 -1.4681 -0.2269  0.4208
29797WAT    EPW20995  10.951   8.246   2.862 -0.3977 -0.4187 -0.4013
29798WAT      O20996   4.633   1.683   2.848 -0.0487  0.2550 -0.4731
29798WAT     H120997   4.728   1.690   2.837 -0.1803 -0.7483 -2.8651
29798WAT     H220998   4.599   1.767   2.818  0.0080  0.1133 -0.9348
29798WAT    EPW20999   4.641   1.695   2.843 -0.0587  0.1040 -0.8495
29799WAT      O21000   6.785   3.820   6.043 -0.2708 -0.1706 -0.5644
29799WAT     H121001   6.830   3.808   6.127 -2.0553  3.0362  1.0183
29799WAT     H221002   6.852   3.860   5.987  0.0033  0.9444  0.5040
29799WAT    EPW21003   6.800   3.824   6.047 -0.4699  0.3994 -0.2148
29800WAT      O21004   0.326   7.900   4.980 -1.1279 -1.1568 -0.2663
29800WAT     H121005   0.416   7.868   4.972 -0.8722 -0.1599 -1.8564
29800WAT     H221006   0.298   7.915   4.890 -2.7054 -0.9249  0.2347
29800WAT    EPW21007   0.334   7.898   4.967 -1.3023 -0.9949 -0.4101
29801WAT      O21008   1.803   1.959   4.815 -0.2768 -0.2837 -0.3615
29801WAT     H121009   1.824   2.038   4.765  0.0404  0.5011  0.9590
29801WAT     H221010   1.707   1.955   4.815 -0.2767 -0.6801 -1.5806
29801WAT    EPW21011   1.793   1.969   4.809 -0.2350 -0.2325 -0.3481
29802WAT      O21012  10.240   6.524   5.076  0.5000 -0.3807  0.7900
29802WAT     H121013  10.181   6.576   5.131  0.1908 -0.7445  0.8056
29802WAT     H221014  10.316   6.581   5.063  1.0127 -0.6312  2.3929
29802WAT    EPW21015  10.242   6.538   5.082  0.5264 -0.4618  1.0037
29803WAT      O21016   2.038   9.137   2.881  0.3716  0.0229 -0.0893
29803WAT     H121017   1.991   9.151   2.798 -1.9084  2.3311  1.4280
29803WAT     H221018   2.108   9.075   2.859  1.3458  2.2389 -4.2484
29803WAT    EPW21019   2.041   9.131   2.867  0.1994  0.6199 -0.4379
29804WAT      O21020   9.247   9.833   5.726 -0.2309 -0.2550  0.3468
29804WAT     H121021   9.281   9.744   5.719 -0.0522 -0.1836  0.3223
29804WAT     H221022   9.153   9.820   5.742  0.1072 -0.4788  2.3035
29804WAT    EPW21023   9.239   9.819   5.727 -0.1626 -0.2751  0.6018
29805WAT      O21024   7.873   7.625   1.632 -0.4991 -0.4461 -0.5589
29805WAT     H121025   7.883   7.667   1.717  3.8022 -1.7652 -0.1899
29805WAT     H221026   7.820   7.547   1.650 -1.4562  0.3896  0.3841
29805WAT    EPW21027   7.867   7.620   1.645 -0.0579 -0.5100 -0.3858
29806WAT      O21028   1.915   9.941   3.149 -0.3884 -0.0271 -0.1377
29806WAT     H121029   1.962   9.978   3.074  0.7616 -0.4087  0.3760
29806WAT     H221030   1.931  10.003   3.220  2.4185 -1.8584  1.0231
29806WAT    EPW21031   1.924   9.954   3.148  0.1335 -0.3190  0.0831
29807WAT      O21032   1.512   8.349   0.159 -0.7641 -0.8950  0.3165
29807WAT     H121033   1.461   8.427   0.183  0.3463 -0.4733  1.4421
29807WAT     H221034   1.558   8.325   0.240  1.3172 -0.8404 -0.7810
29807WAT    EPW21035   1.511   8.356   0.173 -0.3432 -0.8321  0.3202
29808WAT      O21036   2.107   7.576   2.784  0.6409  0.4852 -0.6887
29808WAT     H121037   2.053   7.565   2.706 -0.7184 -0.5404  0.3553
29808WAT     H221038   2.045   7.598   2.854  1.6859  0.2316  0.3614
29808WAT    EPW21039   2.092   7.578   2.783  0.5995  0.3166 -0.4126
29809WAT      O21040   7.425   8.160   1.081 -0.6910  0.6692 -0.0141
29809WAT     H121041   7.403   8.253   1.067  1.7960  1.1573 -1.3529
29809WAT     H221042   7.375   8.114   1.014  0.6010  1.4930 -1.6320
29809WAT    EPW21043   7.415   8.166   1.070 -0.1926  0.8421 -0.4041
29810WAT      O21044   9.090   5.524   3.709 -0.1680 -0.1086  0.2007
29810WAT     H121045   9.048   5.542   3.625  1.7036  1.8721 -0.4089
29810WAT     H221046   9.146   5.449   3.692 -0.3783 -0.1991 -0.1061
29810WAT    EPW21047   9.092   5.517   3.696  0.0515  0.1407  0.0796
29811WAT      O21048   1.315   6.591   3.334  0.0992  0.1038 -0.0148
29811WAT     H121049   1.386   6.585   3.270  0.0815 -1.7443  0.0776
29811WAT     H221050   1.316   6.682   3.364  3.1957 -0.0973  0.8349
29811WAT    EPW21051   1.324   6.602   3.330  0.5053 -0.1669  0.1094
29812WAT      O21052   5.254   8.041   2.853 -0.2973 -0.3359  0.7186
29812WAT     H121053   5.287   8.129   2.839 -1.0347 -0.0678  0.6295
29812WAT     H221054   5.193   8.026   2.781 -0.5073 -0.7526  0.9787
29812WAT    EPW21055   5.250   8.050   2.842 -0.4220 -0.3552  0.7412
29813WAT      O21056   4.901   0.989   1.902  0.3239 -0.3090  0.3526
29813WAT     H121057   4.906   1.081   1.927  2.5033 -0.2445 -0.1948
29813WAT     H221058   4.938   0.942   1.977  0.6611 -0.6161 -0.0069
29813WAT    EPW21059   4.906   0.995   1.915  0.6561 -0.3410  0.2330
29814WAT      O21060  10.609   7.141   1.016 -0.0168  0.1897  0.5688
29814WAT     H121061  10.689   7.170   1.060  0.2803  0.7989 -0.3372
29814WAT     H221062  10.591   7.211   0.953 -1.1013 -0.0863  0.5571
29814WAT    EPW21063  10.617   7.154   1.014 -0.1206  0.2334  0.4478
29815WAT      O21064   3.774   1.027   3.149  0.1550 -0.0606 -0.1493
29815WAT     H121065   3.697   1.047   3.094 -0.0149 -0.4211 -0.0473
29815WAT     H221066   3.736   0.998   3.232  0.2894 -3.0566 -1.0070
29815WAT    EPW21067   3.759   1.025   3.153  0.1503 -0.5032 -0.2489
29816WAT      O21068   0.911   8.750   4.772 -0.3421  0.7602  0.2175
29816WAT     H121069   0.878   8.702   4.848 -1.9882  1.4019 -0.0677
29816WAT     H221070   0.990   8.794   4.804  0.6817 -1.3165  0.7412
29816WAT    EPW21071   0.917   8.749   4.786 -0.4242  0.5703  0.2489
29817WAT      O21072   2.313   7.679   4.802  0.3362  0.1745 -0.5109
29817WAT     H121073   2.323   7.671   4.707  0.0031  0.2414 -0.5536
29817WAT     H221074   2.398   7.656   4.838  0.2388 -0.6310 -0.7882
29817WAT    EPW21075   2.325   7.675   4.794  0.2794  0.0772 -0.5531
29818WAT      O21076   3.988   6.850   2.241  0.5905  0.5726  0.5570
29818WAT     H121077   4.071   6.824   2.203  0.2057 -2.3088  1.4344
29818WAT     H221078   3.957   6.922   2.186  3.4969  1.5564  0.0808
29818WAT    EPW21079   3.995   6.856   2.229  0.9229  0.3226  0.6098
29819WAT      O21080   0.110   8.691   6.807  0.6010 -0.3335  0.5759
29819WAT     H121081   0.199   8.680   6.773  0.0321  0.4275 -1.2976
29819WAT     H221082   0.106   8.784   6.831  0.1699 -0.2658  0.2322
29819WAT    EPW21083   0.122   8.702   6.806  0.4691 -0.2246  0.2835
29820WAT      O21084   0.532   6.485   5.124  0.6692  0.0892 -0.0288
29820WAT     H121085   0.460   6.475   5.061 -1.8277 -0.3562  2.6929
29820WAT     H221086   0.594   6.543   5.079 -0.5059 -0.8531 -3.1939
29820WAT    EPW21087   0.531   6.491   5.109  0.1849 -0.0937 -0.0873
29821WAT      O21088  10.364   9.379   2.294 -0.6495  0.5776 -0.8550
29821WAT     H121089  10.374   9.473   2.303 -2.8866  0.7074  1.4146
29821WAT     H221090  10.444   9.342   2.334 -1.2837  1.5377  1.4381
29821WAT    EPW21091  10.376   9.386   2.301 -1.0281  0.7219 -0.2531
29822WAT      O21092   3.967   0.756   4.132  0.4284  0.7500  0.6975
29822WAT     H121093   3.947   0.762   4.038  1.2536  1.7003  0.5620
29822WAT     H221094   4.062   0.765   4.136  0.3765  0.9916  1.6474
29822WAT    EPW21095   3.977   0.758   4.120  0.5305  0.9072  0.8049
29823WAT      O21096  10.932   9.750   6.896  0.7091 -0.1070 -0.9534
29823WAT     H121097  10.870   9.716   6.960  2.0785 -0.5057  0.2083
29823WAT     H221098  10.877   9.782   6.825 -0.7978 -0.9403 -0.2189
29823WAT    EPW21099  10.916   9.750   6.895  0.6909 -0.2699 -0.7031
29824WAT      O21100   7.328   0.704   1.710 -0.1513  0.1453 -0.0422
29824WAT     H121101   7.334   0.658   1.626  0.3719  3.5663 -2.0351
29824WAT     H221102   7.416   0.739   1.725 -0.8730  1.8036  0.5368
29824WAT    EPW21103   7.340   0.702   1.701 -0.1774  0.8152 -0.2288
29825WAT      O21104   5.165   1.139   4.548 -0.1333  0.3133 -0.3981
29825WAT     H121105   5.255   1.110   4.529 -0.4751 -0.3040 -1.1127
29825WAT     H221106   5.110   1.082   4.495 -1.2009 -1.8063  2.7599
29825WAT    EPW21107   5.170   1.128   4.538 -0.3192 -0.0476 -0.0758
29826WAT      O21108   6.040   4.855   0.349  0.4186 -0.0781  0.4866
29826WAT     H121109   5.983   4.878   0.276  0.2797 -1.7523  0.0259
29826WAT     H221110   6.025   4.924   0.414 -0.4005  0.7483 -0.5472
29826WAT    EPW21111   6.030   4.867   0.348  0.2921 -0.1898  0.2895
29827WAT      O21112   4.018   7.145   5.509 -0.2710 -0.1332  0.5143
29827WAT     H121113   3.954   7.074   5.497  1.3961 -1.4486 -1.2211
29827WAT     H221114   4.012   7.167   5.602 -1.0260 -2.3945  1.0653
29827WAT    EPW21115   4.009   7.138   5.520 -0.1509 -0.6051  0.3581
29828WAT      O21116   9.373  10.062   1.838  0.1588  0.1864  0.3176
29828WAT     H121117   9.436  10.125   1.871  1.8700 -0.6396 -1.1989
29828WAT     H221118   9.421  10.012   1.771 -1.7457 -1.2887 -0.0512
29828WAT    EPW21119   9.387  10.064   1.833  0.1340 -0.1178  0.0690
29829WAT      O21120   1.490   6.305   3.345  1.0992  0.1905  0.2195
29829WAT     H121121   1.546   6.351   3.408  0.6075  2.3495 -0.8123
29829WAT     H221122   1.488   6.363   3.269  0.6852 -1.7589 -1.3256
29829WAT    EPW21123   1.497   6.319   3.343  0.9797  0.2182 -0.1204
29830WAT      O21124   9.561   8.354   1.741  0.2128  0.2472 -0.4677
29830WAT     H121125   9.636   8.412   1.757 -0.2010  0.6878 -0.0965
29830WAT     H221126   9.516   8.393   1.667 -0.3282  0.6785  0.0726
29830WAT    EPW21127   9.565   8.367   1.734  0.0868  0.3624 -0.3475
29831WAT      O21128   4.547   7.305   1.806  0.0799 -0.0409  0.5653
29831WAT     H121129   4.635   7.282   1.836  0.5305 -0.3919 -0.9172
29831WAT     H221130   4.560   7.383   1.752 -0.6721  0.5077  1.1628
29831WAT    EPW21131   4.560   7.312   1.803  0.0403 -0.0150  0.4486
29832WAT      O21132   9.241   9.832   1.256 -0.6269  0.1330 -0.4117
29832WAT     H121133   9.326   9.792   1.271  0.2892  1.7816 -0.9141
29832WAT     H221134   9.184   9.760   1.230  0.8938 -0.8424 -1.1531
29832WAT    EPW21135   9.245   9.818   1.254 -0.3057  0.2222 -0.5758
29833WAT      O21136   2.094   8.267   2.788  0.3316 -0.6353  0.3235
29833WAT     H121137   2.049   8.327   2.730  0.5513 -0.6833  0.0980
29833WAT     H221138   2.115   8.319   2.866 -0.6112 -0.7649  0.6751
29833WAT    EPW21139   2.091   8.282   2.791  0.2364 -0.6590  0.3401
29834WAT      O21140   1.193   8.309   4.454  0.1884  0.8081  0.2755
29834WAT     H121141   1.278   8.305   4.498  0.1342 -2.0633  0.3275
29834WAT     H221142   1.209   8.268   4.369 -1.0543  0.6418  0.1080
29834WAT    EPW21143   1.206   8.303   4.448  0.0173  0.4072  0.2604
29835WAT      O21144   2.555   9.937   4.812 -0.1472 -0.2116 -0.1629
29835WAT     H121145   2.553   9.855   4.763  0.9167 -0.8308  0.7689
29835WAT     H221146   2.635   9.931   4.865  1.6332  2.6761 -2.2015
29835WAT    EPW21147   2.566   9.925   4.812  0.2279  0.0877 -0.3088
29836WAT      O21148   9.768   2.729   8.967  0.4897  0.4860  0.7149
29836WAT     H121149   9.848   2.765   9.005  0.5476 -0.5098  1.5884
29836WAT     H221150   9.712   2.806   8.953  1.8797  1.3046 -0.7239
29836WAT    EPW21151   9.771   2.744   8.970  0.6804  0.4627  0.6399
29837WAT      O21152  10.413   4.359   8.949 -0.1133  0.5975  0.1334
29837WAT     H121153  10.355   4.303   8.897  0.0383  0.1220  0.4770
29837WAT     H221154  10.496   4.358   8.901 -0.7173  2.2928 -1.0564
29837WAT    EPW21155  10.417   4.352   8.936 -0.1731  0.7584  0.0219
29838WAT      O21156   6.483   0.590   6.636 -0.0482  0.0227  0.6907
29838WAT     H121157   6.477   0.519   6.701  0.4536  1.3952  2.2996
29838WAT     H221158   6.492   0.669   6.688 -0.4288  1.2797 -1.0797
29838WAT    EPW21159   6.484   0.591   6.651 -0.0324  0.3695  0.6692
29839WAT      O21160   4.295   7.852   1.201 -0.0591 -0.2005  0.5101
29839WAT     H121161   4.310   7.841   1.107 -0.6163  2.7248 -0.0412
29839WAT     H221162   4.274   7.765   1.233  2.8634 -1.7798 -1.5119
29839WAT    EPW21163   4.294   7.839   1.193  0.2530 -0.0229  0.1706
29840WAT      O21164   8.074   0.842   0.340  0.2035 -0.2315 -0.4628
29840WAT     H121165   8.061   0.837   0.435  0.1022 -1.3404 -0.5128
29840WAT     H221166   8.109   0.929   0.325 -1.7005  0.7241  0.3419
29840WAT    EPW21167   8.077   0.853   0.351 -0.0610 -0.2517 -0.3633
29841WAT      O21168   0.555   3.225   0.059 -0.0321 -0.7953 -0.3739
29841WAT     H121169   0.464   3.252   0.048 -0.4170 -2.2514 -0.9991
29841WAT     H221170   0.554   3.132   0.040  1.7055 -0.7156 -0.9571
29841WAT    EPW21171   0.543   3.217   0.055  0.1463 -0.9768 -0.5333
29842WAT      O21172   9.259   6.753   3.431  0.6814 -0.6531 -0.5113
29842WAT     H121173   9.304   6.747   3.346  1.6600  0.4511 -0.1014
29842WAT     H221174   9.166   6.762   3.408  0.8642 -1.0436 -1.4426
29842WAT    EPW21175   9.253   6.754   3.417  0.8340 -0.5589 -0.5802
29843WAT      O21176   2.879   0.540   0.073 -0.7455 -0.3689  0.0935
29843WAT     H121177   2.922   0.462   0.036 -1.1910 -0.0929 -1.0266
29843WAT     H221178   2.786   0.522   0.065 -0.9056 -1.0289  2.6596
29843WAT    EPW21179   2.873   0.527   0.067 -0.8259 -0.4196  0.2837
29844WAT      O21180   3.494   5.818   3.144 -0.2637  0.0156 -0.7280
29844WAT     H121181   3.563   5.774   3.094  0.2252  0.4647 -0.4657
29844WAT     H221182   3.434   5.852   3.078 -0.5371 -0.8516 -0.9412
29844WAT    EPW21183   3.495   5.816   3.129 -0.2351 -0.0393 -0.7216
29845WAT      O21184   3.228   5.755   5.602  0.0822 -0.9919 -0.3682
29845WAT     H121185   3.262   5.843   5.617  0.3267 -0.5845 -2.8948
29845WAT     H221186   3.155   5.747   5.665  1.7681 -0.1148  1.8460
29845WAT    EPW21187   3.223   5.766   5.613  0.3368 -0.8225 -0.4094
29846WAT      O21188   1.388   6.857   8.707 -0.0237 -0.2108  0.0921
29846WAT     H121189   1.359   6.780   8.756 -0.4619 -0.7970 -1.0517
29846WAT     H221190   1.310   6.913   8.702  0.0065 -0.1729  0.0410
29846WAT    EPW21191   1.374   6.854   8.713 -0.0775 -0.2830 -0.0658
29847WAT      O21192   2.186   6.684   2.468  0.6094 -0.1389  0.0544
29847WAT     H121193   2.148   6.692   2.556 -1.1099  2.3008 -0.8051
29847WAT     H221194   2.253   6.752   2.466  1.4281 -0.9343 -0.1953
29847WAT    EPW21195   2.190   6.694   2.480  0.4905  0.0780 -0.0920
29848WAT      O21196   1.450   6.185   3.750  0.6534 -0.3205 -0.0333
29848WAT     H121197   1.394   6.192   3.672  0.5445  2.7929  0.1979
29848WAT     H221198   1.396   6.139   3.814 -1.2926  1.5828 -0.1877
29848WAT    EPW21199   1.436   6.179   3.748  0.3823  0.3414 -0.0232
29849WAT      O21200   0.488   8.075   2.624  0.1228 -0.0367  0.0802
29849WAT     H121201   0.574   8.117   2.619  0.3844 -0.5373  0.2568
29849WAT     H221202   0.462   8.083   2.715  0.5139 -0.8989  0.2813
29849WAT    EPW21203   0.496   8.082   2.635  0.2089 -0.2170  0.1299
29850WAT      O21204   0.002   6.632   2.701 -0.0337  0.7321  0.3869
29850WAT     H121205   0.036   6.718   2.726  0.0382  0.4760  1.1882
29850WAT     H221206  -0.080   6.652   2.655 -1.3205  1.1501  2.7250
29850WAT    EPW21207  -0.005   6.646   2.698 -0.1936  0.7534  0.8011
29851WAT      O21208   4.098   0.531   4.239 -0.0133 -0.0911  0.0526
29851WAT     H121209   4.184   0.531   4.197 -0.6096 -2.5657 -1.4328
29851WAT     H221210   4.041   0.577   4.177 -0.0185  0.3771  0.4014
29851WAT    EPW21211   4.102   0.537   4.225 -0.0927 -0.3557 -0.0973
29852WAT      O21212   3.435   9.537   0.486 -0.4666  0.0109  0.6351
29852WAT     H121213   3.417   9.618   0.438  0.5630 -0.1793 -0.1098
29852WAT     H221214   3.529   9.540   0.502 -0.8411  0.4482  3.3761
29852WAT    EPW21215   3.445   9.548   0.482 -0.3802  0.0434  0.8984
29853WAT      O21216   1.234   4.150   3.249  0.3322 -0.2713 -0.1858
29853WAT     H121217   1.313   4.153   3.303  0.1804  3.5827  0.0711
29853WAT     H221218   1.162   4.146   3.313  0.2556  0.4388 -0.2163
29853WAT    EPW21219   1.235   4.150   3.265  0.3021  0.3307 -0.1559
29854WAT      O21220   0.983   8.418   0.643  0.0904 -0.1019  0.1319
29854WAT     H121221   0.965   8.390   0.733 -0.8841  0.0564  0.0024
29854WAT     H221222   0.940   8.352   0.588 -0.8528  0.7543 -0.1908
29854WAT    EPW21223   0.975   8.406   0.648 -0.1625  0.0315  0.0722
29855WAT      O21224  10.975   5.007   0.928 -0.0244 -0.7543 -0.0598
29855WAT     H121225  11.036   5.074   0.961 -1.4217  1.6980 -2.1045
29855WAT     H221226  10.963   4.948   1.002  2.2324  0.5441  1.4851
29855WAT    EPW21227  10.981   5.008   0.942  0.0890 -0.2599 -0.1257
29856WAT      O21228   4.933   1.657   2.420  1.4743 -0.2732  0.5346
29856WAT     H121229   4.973   1.584   2.467 -0.5354 -0.1433  2.6428
29856WAT     H221230   4.843   1.628   2.404  0.6983  1.6270  1.2312
29856WAT    EPW21231   4.927   1.643   2.424  1.1067 -0.0055  0.9046
29857WAT      O21232   1.696   7.528   4.261 -0.3755 -0.3953 -0.2364
29857WAT     H121233   1.635   7.470   4.307 -0.9709  1.1694  1.0495
29857WAT     H221234   1.783   7.496   4.285 -0.6820 -1.3898 -0.4120
29857WAT    EPW21235   1.699   7.517   4.270 -0.4945 -0.3202 -0.0899
29858WAT      O21236   2.186   8.514   1.263 -0.2121  0.1090 -0.2387
29858WAT     H121237   2.222   8.426   1.270 -0.0612  0.3008  1.9112
29858WAT     H221238   2.256   8.571   1.292  0.0333  1.0785 -2.5185
29858WAT    EPW21239   2.200   8.510   1.267 -0.1599  0.2623 -0.2558
29859WAT      O21240  10.226   1.198   8.703 -0.2170 -0.6760 -0.0828
29859WAT     H121241  10.247   1.278   8.655  1.1450  0.1709  1.8320
29859WAT     H221242  10.304   1.143   8.693 -0.6777 -1.2960 -0.3863
29859WAT    EPW21243  10.239   1.201   8.695 -0.0978 -0.6460  0.1297
29860WAT      O21244   0.374   6.609   5.695  0.8109  0.2421  0.4714
29860WAT     H121245   0.283   6.638   5.702  1.0453  0.9670  0.6676
29860WAT     H221246   0.418   6.653   5.768  1.3511  0.0198  0.2848
29860WAT    EPW21247   0.368   6.619   5.706  0.9131  0.3083  0.4728
29861WAT      O21248   0.257   9.025   2.725 -0.6381 -0.0856 -0.1237
29861WAT     H121249   0.177   9.073   2.704 -0.9262 -0.6978 -0.4425
29861WAT     H221250   0.294   9.072   2.799 -0.5468  1.0528 -0.8719
29861WAT    EPW21251   0.251   9.037   2.732 -0.6641 -0.0162 -0.2646
29862WAT      O21252   9.087   6.324   2.792 -0.0360 -0.3158 -0.0828
29862WAT     H121253   9.066   6.400   2.738  0.1365 -0.2611 -0.0740
29862WAT     H221254   9.171   6.346   2.832 -0.0845 -0.4252  0.0786
29862WAT    EPW21255   9.096   6.337   2.790 -0.0196 -0.3228 -0.0604
29863WAT      O21256  10.031   8.617   2.936  0.4848  0.0501 -0.0406
29863WAT     H121257  10.050   8.696   2.987 -0.2924 -0.1057  0.5205
29863WAT     H221258   9.965   8.646   2.872 -0.7121 -0.3839  0.9496
29863WAT    EPW21259  10.024   8.631   2.934  0.2246 -0.0277  0.1639
29864WAT      O21260   7.974   6.403   4.588 -0.2036 -1.0247 -0.3820
29864WAT     H121261   8.028   6.350   4.529 -1.2510 -1.0166 -1.3860
29864WAT     H221262   8.034   6.432   4.656  0.2199 -4.4493  0.8778
29864WAT    EPW21263   7.989   6.400   4.589 -0.2859 -1.4753 -0.3483
29865WAT      O21264   0.634   6.232   5.226  0.3162 -0.3524  0.3839
29865WAT     H121265   0.651   6.311   5.176  4.9197 -2.1787 -1.4450
29865WAT     H221266   0.572   6.183   5.173  0.2587  0.4651 -0.3289
29865WAT    EPW21267   0.628   6.236   5.213  0.9158 -0.4854  0.0486
29866WAT      O21268   3.296   7.228   3.463  0.3566 -0.4482  0.4906
29866WAT     H121269   3.374   7.173   3.459  1.5458  1.2146 -0.9128
29866WAT     H221270   3.227   7.171   3.497  1.8557 -2.3505  0.4695
29866WAT    EPW21271   3.297   7.213   3.467  0.7112 -0.4795  0.3027
29867WAT      O21272   3.942   5.978   2.621 -0.6096  0.7312  0.3835
29867WAT     H121273   3.874   6.031   2.663 -0.3851 -0.5927  2.5885
29867WAT     H221274   3.977   5.924   2.692  1.1447 -0.3002 -1.1783
29867WAT    EPW21275   3.937   5.978   2.636 -0.3486  0.4203  0.4684
29868WAT      O21276   2.773   3.831   3.997 -0.0191 -0.2446 -0.1355
29868WAT     H121277   2.819   3.816   4.079 -0.9111  1.1382  0.6575
29868WAT     H221278   2.806   3.915   3.966  1.1303 -1.2524 -1.8079
29868WAT    EPW21279   2.783   3.840   4.003  0.0149 -0.1950 -0.2513
29869WAT      O21280   0.050   8.435   2.668 -0.0138 -0.4985 -0.3073
29869WAT     H121281   0.075   8.510   2.614  2.0457 -0.6560  0.3132
29869WAT     H221282  -0.010   8.384   2.613 -0.6066  1.0430 -1.1344
29869WAT    EPW21283   0.046   8.438   2.654  0.1797 -0.3161 -0.3346
29870WAT      O21284   0.709   7.591   4.768  0.2049 -0.1722 -0.3600
29870WAT     H121285   0.743   7.649   4.836  2.5269  0.1254 -1.6760
29870WAT     H221286   0.662   7.649   4.708  1.4249  0.2117 -0.9860
29870WAT    EPW21287   0.707   7.607   4.769  0.6720 -0.0820 -0.6158
29871WAT      O21288   0.865   3.696   2.252  1.0057 -1.2183 -0.4617
29871WAT     H121289   0.836   3.617   2.299 -3.5560  0.9653  1.0345
29871WAT     H221290   0.885   3.758   2.322  0.8423  0.0560 -1.5291
29871WAT    EPW21291   0.864   3.693   2.267  0.3825 -0.7622 -0.4051
29872WAT      O21292  10.903   7.155   1.435 -0.1761 -0.7841  0.7324
29872WAT     H121293  10.997   7.151   1.417 -0.3808 -2.3015 -0.2393
29872WAT     H221294  10.882   7.067   1.466 -1.2700 -0.4517  0.9543
29872WAT    EPW21295  10.913   7.143   1.437 -0.3476 -0.9403  0.6335
29873WAT      O21296   3.832   5.871   5.864 -0.8681 -0.4209 -0.0546
29873WAT     H121297   3.847   5.794   5.919 -1.4019 -0.6767 -0.2622
29873WAT     H221298   3.809   5.836   5.779  1.1485 -0.0399 -0.8289
29873WAT    EPW21299   3.831   5.857   5.860 -0.6725 -0.4044 -0.1843
29874WAT      O21300   1.964   7.504   4.613 -0.0961 -0.2763  0.5552
29874WAT     H121301   1.868   7.504   4.618 -0.0848 -1.8855  1.1922
29874WAT     H221302   1.992   7.436   4.674  1.4133 -0.6667 -0.5075
29874WAT    EPW21303   1.955   7.495   4.622  0.1045 -0.5403  0.4990
29875WAT      O21304   0.613   1.041   2.389 -0.2353 -0.0668 -0.1485
29875WAT     H121305   0.655   1.078   2.466 -1.1100 -0.1776  0.3934
29875WAT     H221306   0.678   1.050   2.319  0.2789  0.7224  0.4216
29875WAT    EPW21307   0.627   1.047   2.390 -0.2828  0.0227 -0.0018
29876WAT      O21308   9.526   5.734   4.895  0.1642 -0.2014 -0.1996
29876WAT     H121309   9.474   5.790   4.953 -0.1453 -0.7983  0.1086
29876WAT     H221310   9.598   5.704   4.950 -1.1629 -2.3093  0.4803
29876WAT    EPW21311   9.528   5.738   4.910 -0.0520 -0.5581 -0.0694
29877WAT      O21312   1.440   6.416   4.489 -0.7327 -0.2216 -0.2592
29877WAT     H121313   1.459   6.508   4.471  0.1533 -0.6705 -1.8048
29877WAT     H221314   1.423   6.378   4.403  1.3373 -2.0177  0.0351
29877WAT    EPW21315   1.440   6.423   4.475 -0.3428 -0.5178 -0.4244
29878WAT      O21316   2.744   6.759   1.749 -0.1642 -0.7443  0.6038
29878WAT     H121317   2.738   6.745   1.655  0.8339 -1.0280  0.5757
29878WAT     H221318   2.713   6.849   1.762  3.1695  0.7201 -0.4763
29878WAT    EPW21319   2.739   6.769   1.738  0.4073 -0.5887  0.4575
29879WAT      O21320   0.902   7.980   3.269 -0.5026  0.1807  0.2581
29879WAT     H121321   0.967   7.933   3.321 -0.3520 -0.2474 -0.3046
29879WAT     H221322   0.825   7.984   3.325  0.3748  1.7907  1.4299
29879WAT    EPW21323   0.900   7.974   3.284 -0.3670  0.3366  0.3384
29880WAT      O21324   2.674   4.957   6.606  0.0207 -0.2072  0.2970
29880WAT     H121325   2.687   4.946   6.512 -2.5955 -1.3819 -0.0026
29880WAT     H221326   2.628   5.041   6.615  1.1078  0.3763  0.6656
29880WAT    EPW21327   2.670   4.967   6.595 -0.1810 -0.2851  0.3059
29881WAT      O21328   2.289   8.694   0.610  0.0947  0.5939  0.1070
29881WAT     H121329   2.242   8.757   0.665 -0.2073 -0.3225  0.9406
29881WAT     H221330   2.362   8.743   0.573 -0.5021  1.5882  0.2205
29881WAT    EPW21331   2.292   8.709   0.612 -0.0241  0.6042  0.2319
29882WAT      O21332  10.025   6.164   4.132  0.5632 -0.0918 -0.0746
29882WAT     H121333  10.094   6.218   4.172 -3.3215  2.7544  3.7713
29882WAT     H221334   9.988   6.218   4.063 -1.4493  1.1584  1.8503
29882WAT    EPW21335  10.029   6.178   4.128 -0.2141  0.4487  0.6864
29883WAT      O21336   6.359   1.390   4.795 -0.3549 -0.5133  0.5866
29883WAT     H121337   6.295   1.328   4.761 -0.1023 -0.3322 -0.2349
29883WAT     H221338   6.442   1.343   4.795  0.0697  0.1652 -1.1694
29883WAT    EPW21339   6.361   1.376   4.790 -0.2654 -0.3999  0.2468
29884WAT      O21340   9.901   6.083   3.068  0.1193 -0.0383 -0.0057
29884WAT     H121341   9.882   6.125   3.152  0.3941 -1.4158  0.7762
29884WAT     H221342   9.822   6.098   3.016 -0.4306  0.0352  0.8282
29884WAT    EPW21343   9.888   6.091   3.073  0.0830 -0.2100  0.2073
29885WAT      O21344   0.418   8.268   4.007  0.1852  0.0751  0.1127
29885WAT     H121345   0.508   8.238   4.012  0.0709 -0.4502 -0.7814
29885WAT     H221346   0.419   8.338   3.941  0.0680  0.5799  0.6385
29885WAT    EPW21347   0.430   8.273   3.999  0.1547  0.0725  0.0641
29886WAT      O21348  10.389   9.194   0.568  0.4301 -0.3600  0.2660
29886WAT     H121349  10.327   9.265   0.549  1.1502  0.7429  1.8075
29886WAT     H221350  10.447   9.191   0.492 -0.8298 -0.7016 -0.7257
29886WAT    EPW21351  10.388   9.203   0.556  0.3591 -0.2589  0.3385
29887WAT      O21352   7.087   1.537   5.314 -0.2631  0.3130 -0.7585
29887WAT     H121353   7.103   1.445   5.293 -1.0608  0.3106 -1.4368
29887WAT     H221354   7.072   1.537   5.409 -0.3083 -0.2639 -0.7576
29887WAT    EPW21355   7.087   1.525   5.324 -0.3743  0.2366 -0.8478
29888WAT      O21356  10.665   8.713   4.434  0.6025  0.5573  0.4341
29888WAT     H121357  10.650   8.619   4.433  1.0165  0.4009  2.9418
29888WAT     H221358  10.578   8.752   4.427  0.3782 -0.0175 -0.0131
29888WAT    EPW21359  10.652   8.706   4.433  0.6270  0.4611  0.7055
29889WAT      O21360   7.107   4.433   8.792  0.4134  0.5847 -0.5175
29889WAT     H121361   7.084   4.421   8.884  2.1174  1.6975  0.1014
29889WAT     H221362   7.081   4.523   8.772 -0.6396  0.1249 -1.3912
29889WAT    EPW21363   7.101   4.443   8.801  0.4992  0.6707 -0.5503
29890WAT      O21364   3.952   7.998   2.576 -0.2023 -0.3874  0.8885
29890WAT     H121365   3.950   7.999   2.481  0.7085  3.2228  0.7586
29890WAT     H221366   4.044   7.980   2.598 -0.3706 -1.0141  1.0967
29890WAT    EPW21367   3.964   7.996   2.567 -0.1045  0.0062  0.8988
29891WAT      O21368   7.894   3.068   8.401 -0.1877  0.6968  0.7157
29891WAT     H121369   7.947   2.989   8.401 -1.1326 -0.0288  3.1487
29891WAT     H221370   7.932   3.122   8.470 -1.2278  1.1465  0.9561
29891WAT    EPW21371   7.906   3.065   8.410 -0.4499  0.6604  1.0681
29892WAT      O21372   3.410  10.224   8.728 -0.3740  0.3075 -0.2081
29892WAT     H121373   3.396  10.269   8.811 -0.6432 -0.6982  0.3083
29892WAT     H221374   3.339  10.255   8.671 -0.6141  0.4654  0.1739
29892WAT    EPW21375   3.399  10.234   8.732 -0.4411  0.1960 -0.0901
29893WAT      O21376   8.613   6.000   7.148 -0.7756  0.0414 -0.2977
29893WAT     H121377   8.682   5.965   7.205 -0.1597 -0.8609 -1.5384
29893WAT     H221378   8.602   5.933   7.081  0.0074  1.9321 -2.4422
29893WAT    EPW21379   8.621   5.987   7.147 -0.5908  0.1717 -0.7441
29894WAT      O21380   8.545   8.602   2.503  0.3743  0.0465 -0.0655
29894WAT     H121381   8.539   8.547   2.425  1.2923 -0.7716  0.4082
29894WAT     H221382   8.550   8.692   2.469 -1.2114 -0.1280 -0.8463
29894WAT    EPW21383   8.545   8.607   2.488  0.2866 -0.0839 -0.1060
29895WAT      O21384   2.880   4.638   2.867 -0.8397 -0.7387  0.5050
29895WAT     H121385   2.801   4.618   2.816 -0.5598  1.1738 -0.7748
29895WAT     H221386   2.886   4.566   2.930 -1.2163 -3.2600 -2.1211
29895WAT    EPW21387   2.870   4.625   2.868 -0.8523 -0.8187 -0.0103
29896WAT      O21388   3.896   9.026   3.046 -0.5226  0.4927  0.3527
29896WAT     H121389   3.815   9.058   3.086 -1.4831 -2.1153  0.6942
29896WAT     H221390   3.958   9.022   3.119 -1.1231 -0.6240  0.8297
29896WAT    EPW21391   3.894   9.030   3.061 -0.7285  0.0014  0.4607
29897WAT      O21392   1.565   7.132   4.325  0.2760  0.2289  0.2032
29897WAT     H121393   1.518   7.060   4.367  0.5798 -0.1629 -0.1263
29897WAT     H221394   1.510   7.209   4.343 -0.5875 -0.2454 -0.3131
29897WAT    EPW21395   1.551   7.133   4.333  0.2021  0.1144  0.0918
29898WAT      O21396   0.517   6.784   1.015 -0.2936  0.0811  0.1040
29898WAT     H121397   0.426   6.804   1.038  0.0608  0.4611  1.2152
29898WAT     H221398   0.561   6.868   1.013  0.0022 -0.0815 -0.6556
29898WAT    EPW21399   0.511   6.797   1.018 -0.2079  0.1099  0.1504
29899WAT      O21400   2.990   6.661   4.580 -0.2990  0.9998 -0.8608
29899WAT     H121401   2.947   6.690   4.500  1.0646  2.1877 -1.2057
29899WAT     H221402   3.082   6.650   4.555  0.4522  2.7989  0.8269
29899WAT    EPW21403   2.997   6.663   4.567 -0.0200  1.3938 -0.6838
29900WAT      O21404   0.852   6.521   0.875 -0.5000 -0.4899  0.1830
29900WAT     H121405   0.873   6.464   0.949  1.7434 -2.0436 -1.4925
29900WAT     H221406   0.756   6.520   0.871 -0.7326  0.0100  3.2270
29900WAT    EPW21407   0.842   6.513   0.884 -0.2348 -0.6287  0.3635
29901WAT      O21408   0.505   6.862   5.085  0.0320 -0.7518 -0.0312
29901WAT     H121409   0.581   6.804   5.092  0.1569 -0.6231 -0.2911
29901WAT     H221410   0.429   6.803   5.085  0.0695 -0.8247  1.2497
29901WAT    EPW21411   0.505   6.846   5.086  0.0534 -0.7443  0.1035
29902WAT      O21412   7.405   7.565   1.967  0.9315  0.3339 -0.2228
29902WAT     H121413   7.310   7.577   1.973  0.7174 -1.0596 -0.4218
29902WAT     H221414   7.439   7.652   1.947 -0.0911  1.3230  1.9465
29902WAT    EPW21415   7.397   7.578   1.965  0.7682  0.2806  0.0371
29903WAT      O21416   3.380   6.890   4.482  0.1406  0.5306  0.0562
29903WAT     H121417   3.367   6.836   4.560  2.2887  0.7012  0.5863
29903WAT     H221418   3.457   6.853   4.439 -0.1000  1.3770 -1.1735
29903WAT    EPW21419   3.389   6.878   4.486  0.3922  0.6645 -0.0362
29904WAT      O21420   8.395   1.318   7.277  0.7182 -0.7757  0.5491
29904WAT     H121421   8.346   1.388   7.321  3.2633  1.0227  0.7805
29904WAT     H221422   8.354   1.310   7.191 -0.9754 -0.5296  1.3067
29904WAT    EPW21423   8.383   1.326   7.271  0.8307 -0.5061  0.6795
29905WAT      O21424   3.046   8.884   3.135 -0.1247  0.0657  0.3394
29905WAT     H121425   2.951   8.883   3.126 -0.0864  0.4550 -0.1630
29905WAT     H221426   3.079   8.894   3.046  0.3874 -0.0146  0.5126
29905WAT    EPW21427   3.038   8.885   3.122 -0.0522  0.1068  0.2961
29906WAT      O21428   4.414   7.530   3.972 -0.3969  0.1052  0.4244
29906WAT     H121429   4.485   7.592   3.993 -1.5199  0.2754  4.6268
29906WAT     H221430   4.357   7.579   3.913  1.3760  1.0712 -0.5835
29906WAT    EPW21431   4.416   7.545   3.967 -0.3111  0.2551  0.8459
29907WAT      O21432   2.414   7.933   2.675  0.5351  0.4002 -0.0091
29907WAT     H121433   2.328   7.939   2.717 -0.4630 -0.1032 -1.8636
29907WAT     H221434   2.428   8.019   2.636 -1.2377 -0.6918 -3.4337
29907WAT    EPW21435   2.405   7.945   2.676  0.1698  0.1900 -0.7052
29908WAT      O21436   1.224   5.075   5.431 -0.1768 -0.1155  0.5141
29908WAT     H121437   1.137   5.098   5.398 -0.4557 -1.7719  0.0014
29908WAT     H221438   1.209   5.055   5.524 -0.1086  0.7078  0.7151
29908WAT    EPW21439   1.211   5.075   5.439 -0.2046 -0.2253  0.4728
29909WAT      O21440   2.506   6.291   1.189 -0.7968  0.0976  0.2938
29909WAT     H121441   2.487   6.279   1.282 -3.3884 -0.5548 -0.2537
29909WAT     H221442   2.532   6.204   1.159 -1.7249 -0.1113  0.0658
29909WAT    EPW21443   2.507   6.278   1.198 -1.2612 -0.0160  0.1916
29910WAT      O21444   6.180   1.693   2.737  0.0919  0.2805 -0.0810
29910WAT     H121445   6.121   1.713   2.810  0.9240  0.2814  0.6037
29910WAT     H221446   6.124   1.701   2.659 -0.5375  1.4741  0.4534
29910WAT    EPW21447   6.165   1.697   2.737  0.1185  0.4381  0.0799
29911WAT      O21448  10.928   9.457   3.645  0.1036 -0.4477  0.3011
29911WAT     H121449  11.012   9.483   3.683 -0.4250 -0.4705  1.5526
29911WAT     H221450  10.864   9.478   3.713 -0.8447 -0.9278 -0.4186
29911WAT    EPW21451  10.931   9.463   3.659 -0.0916 -0.5136  0.3711
29912WAT      O21452   2.613   8.590   1.895 -0.1297 -0.1666 -0.2343
29912WAT     H121453   2.535   8.555   1.939  1.0355  0.8105  2.8439
29912WAT     H221454   2.686   8.556   1.946  1.2853  2.1779 -0.5794
29912WAT    EPW21455   2.612   8.581   1.907  0.2105  0.2718  0.1261
29913WAT      O21456   1.975   5.478   4.902  0.2600  0.1195  0.0558
29913WAT     H121457   1.934   5.418   4.964 -1.4353  1.3619  0.2225
29913WAT     H221458   1.990   5.425   4.823  2.1971 -1.4072  1.3466
29913WAT    EPW21459   1.972   5.463   4.900  0.2919  0.0820  0.2480
29914WAT      O21460   4.756   5.800   4.190  0.5040  0.1096  0.7469
29914WAT     H121461   4.698   5.740   4.143  0.6516  0.2195  0.4199
29914WAT     H221462   4.804   5.846   4.121 -0.5896  1.6026  0.9177
29914WAT    EPW21463   4.754   5.798   4.174  0.3788  0.3209  0.7265
29915WAT      O21464  10.605   7.787   2.592  0.4039 -0.9935  0.4193
29915WAT     H121465  10.686   7.762   2.635  0.5339 -2.4771 -0.6340
29915WAT     H221466  10.569   7.857   2.647  0.8062 -2.4574  2.6513
29915WAT    EPW21467  10.611   7.793   2.605  0.4740 -1.3821  0.5747
29916WAT      O21468   4.904  10.188   1.838 -0.1115 -0.6116 -0.2270
29916WAT     H121469   4.981  10.216   1.788 -1.3980 -0.7945 -2.4265
29916WAT     H221470   4.923  10.216   1.928  1.8662  0.6532 -0.9582
29916WAT    EPW21471   4.917  10.195   1.843 -0.0203 -0.4687 -0.6136
29917WAT      O21472  10.420   9.932   0.301  0.2867  0.1081  0.4558
29917WAT     H121473  10.335   9.974   0.287  0.8324  1.1818  0.1721
29917WAT     H221474  10.403   9.839   0.292 -0.6846  0.3584 -0.6332
29917WAT    EPW21475  10.407   9.925   0.298  0.2298  0.2828  0.2748
29918WAT      O21476  10.601   5.321   5.766  0.4789 -0.3696 -0.2450
29918WAT     H121477  10.665   5.267   5.814  0.0235 -0.9136 -0.2389
29918WAT     H221478  10.586   5.397   5.822  0.6059 -0.5753  0.0707
29918WAT    EPW21479  10.608   5.324   5.780  0.4358 -0.4685 -0.2024
29919WAT      O21480   7.479   1.870   7.399  0.0237  0.1542 -0.4433
29919WAT     H121481   7.502   1.908   7.484 -0.0570  0.3015 -0.4874
29919WAT     H221482   7.432   1.789   7.421 -0.6358  0.5596 -0.3388
29919WAT    EPW21483   7.476   1.864   7.413 -0.0741  0.2272 -0.4354
29920WAT      O21484   1.112   1.649   3.742  0.2712  0.0840 -0.3276
29920WAT     H121485   1.152   1.720   3.793  0.1063 -0.4001  0.4974
29920WAT     H221486   1.018   1.655   3.762  0.3892 -1.0745  0.6712
29920WAT    EPW21487   1.105   1.659   3.751  0.2649 -0.1327 -0.0871
29921WAT      O21488   0.540   6.731   3.239  0.2915 -0.4440  0.4003
29921WAT     H121489   0.570   6.693   3.322 -2.0422 -1.9438  0.6302
29921WAT     H221490   0.607   6.705   3.176 -0.6089 -4.2205  0.7682
29921WAT    EPW21491   0.553   6.722   3.242 -0.1351 -1.1399  0.4792
29922WAT      O21492  10.849   5.200   3.990  0.3098  0.1848 -0.9582
29922WAT     H121493  10.935   5.238   4.007  0.4648 -0.4025 -0.3837
29922WAT     H221494  10.823   5.235   3.905 -0.1025  2.5231  0.0706
29922WAT    EPW21495  10.857   5.209   3.981  0.2761  0.4156 -0.7467
29923WAT      O21496  10.089   7.161   0.800  0.2747  0.2242 -0.3255
29923WAT     H121497  10.025   7.127   0.738 -2.5538  2.8742  0.8738
29923WAT     H221498  10.081   7.105   0.877  0.1174 -0.0649 -0.5528
29923WAT    EPW21499  10.080   7.149   0.802 -0.1192  0.5357 -0.1973
29924WAT      O21500   9.382   4.651   4.302  0.2375 -0.1390 -0.1098
29924WAT     H121501   9.327   4.638   4.379  1.3033 -1.6864  0.4315
29924WAT     H221502   9.320   4.654   4.229 -0.7735  1.2241  0.7494
29924WAT    EPW21503   9.366   4.650   4.303  0.2446 -0.1636  0.0751
29925WAT      O21504   9.174   1.850   6.498  0.1301  0.0862  0.6334
29925WAT     H121505   9.161   1.775   6.556 -0.1986 -1.2718 -1.1220
29925WAT     H221506   9.100   1.846   6.437  0.0791  1.8874  0.5405
29925WAT    EPW21507   9.162   1.839   6.498  0.0801  0.1447  0.3893
29926WAT      O21508   2.421   8.907   5.437 -0.1428  0.8332 -0.1736
29926WAT     H121509   2.511   8.878   5.419 -0.4061 -1.2562  1.5255
29926WAT     H221510   2.366   8.838   5.400 -0.8867  0.0718  2.2258
29926WAT    EPW21511   2.426   8.894   5.429 -0.2756  0.4568  0.3669
29927WAT      O21512   8.043   6.606   2.291  0.5162  0.3043 -0.3650
29927WAT     H121513   8.055   6.625   2.384 -1.1038  0.3436 -0.1186
29927WAT     H221514   8.077   6.517   2.280 -0.1747 -0.0967  0.5165
29927WAT    EPW21515   8.049   6.597   2.302  0.2117  0.2565 -0.2164
29928WAT      O21516   0.002   4.112   3.592 -0.5809 -0.0041 -0.9848
29928WAT     H121517   0.064   4.043   3.617 -0.1823  0.9046  0.6885
29928WAT     H221518  -0.083   4.078   3.620 -0.5393 -0.2787 -1.1821
29928WAT    EPW21519  -0.001   4.098   3.599 -0.5228  0.0796 -0.7902
29929WAT      O21520   4.766   1.838   3.427  0.6499 -0.6518 -0.1452
29929WAT     H121521   4.727   1.863   3.343  1.7462 -1.5808 -0.9622
29929WAT     H221522   4.818   1.915   3.452 -2.0607  0.8467  1.2689
29929WAT    EPW21523   4.768   1.852   3.419  0.4370 -0.5766 -0.0665
29930WAT      O21524   0.919   8.400   1.695 -0.3451 -0.0270 -0.1213
29930WAT     H121525   0.849   8.445   1.649  1.2384  1.7206 -0.9827
29930WAT     H221526   0.993   8.403   1.635  1.0153 -0.1084  1.4560
29930WAT    EPW21527   0.920   8.406   1.681  0.0432  0.1926 -0.0268
29931WAT      O21528   2.804   7.368   1.559 -0.3337 -0.3240  0.4235
29931WAT     H121529   2.741   7.352   1.488  0.4850 -1.0021 -0.1763
29931WAT     H221530   2.761   7.333   1.637 -2.0100  2.0523  0.6469
29931WAT    EPW21531   2.790   7.361   1.560 -0.4468 -0.0999  0.3738
29932WAT      O21532   6.442   1.880   7.736  0.6142  0.1403 -0.2562
29932WAT     H121533   6.484   1.875   7.650  1.0961 -0.3652  0.0024
29932WAT     H221534   6.492   1.819   7.791 -0.1371 -0.0769  0.1949
29932WAT    EPW21535   6.454   1.872   7.732  0.5789  0.0450 -0.1624
29933WAT      O21536   0.913   8.901   2.819  0.5442  0.5915  0.1794
29933WAT     H121537   0.990   8.887   2.764 -0.9150  1.4888 -2.2074
29933WAT     H221538   0.892   8.814   2.853  1.7908  0.1110 -0.2243
29933WAT    EPW21539   0.920   8.887   2.816  0.5162  0.6466 -0.1887
29934WAT      O21540   2.894   8.524   3.080  0.8317 -0.0900 -0.1378
29934WAT     H121541   2.850   8.584   3.141  0.6623 -0.8192  0.4712
29934WAT     H221542   2.910   8.577   3.002  0.9702  0.8427  0.5069
29934WAT    EPW21543   2.890   8.539   3.078  0.8277 -0.0634  0.0275
29935WAT      O21544   2.153   6.721   4.088  0.1705  0.5144 -0.3446
29935WAT     H121545   2.065   6.690   4.108  1.0599 -0.7007  2.0816
29935WAT     H221546   2.157   6.808   4.125  0.4211 -0.0086  0.8930
29935WAT    EPW21547   2.142   6.728   4.095  0.3208  0.2854  0.1385
29936WAT      O21548   0.789   9.538   1.702 -0.5329 -0.0134 -0.1619
29936WAT     H121549   0.734   9.516   1.627 -0.0558  0.3871 -0.6436
29936WAT     H221550   0.852   9.466   1.709  0.2561  0.5791 -0.9769
29936WAT    EPW21551   0.790   9.526   1.693 -0.3659  0.1173 -0.3329
29937WAT      O21552   9.882   7.976   1.826  0.1327 -0.0953  0.2580
29937WAT     H121553   9.862   8.047   1.887  1.8822 -1.7995  3.0015
29937WAT     H221554   9.975   7.959   1.837  0.3364 -1.1358 -2.2835
29937WAT    EPW21555   9.891   7.983   1.835  0.3910 -0.4573  0.2846
29938WAT      O21556  10.223   5.242   1.707  0.7759  0.2637 -0.6974
29938WAT     H121557  10.304   5.293   1.706  1.4043 -0.6813 -3.1643
29938WAT     H221558  10.250   5.153   1.686 -0.6091 -0.6752  1.2099
29938WAT    EPW21559  10.237   5.237   1.704  0.6757  0.0153 -0.7712
29939WAT      O21560   2.002   9.382   4.703  0.3273  0.1022  0.1738
29939WAT     H121561   1.923   9.374   4.651  0.4262 -1.4555  0.2197
29939WAT     H221562   1.971   9.404   4.791  0.0551  0.9277 -0.1204
29939WAT    EPW21563   1.988   9.384   4.708  0.3045  0.0052  0.1409
29940WAT      O21564   0.719   9.875   2.220 -0.2614 -0.4529  0.2007
29940WAT     H121565   0.703   9.883   2.314  3.7465  0.2063  0.9827
29940WAT     H221566   0.776   9.799   2.212 -0.1383 -0.2044 -1.6798
29940WAT    EPW21567   0.724   9.866   2.231  0.2834 -0.3338  0.0559
29941WAT      O21568  10.848   8.359   2.506  0.0784  0.5577 -0.4608
29941WAT     H121569  10.813   8.402   2.427  1.9521  0.8042 -1.2152
29941WAT     H221570  10.778   8.300   2.534 -1.5314  2.1273 -0.9604
29941WAT    EPW21571  10.834   8.357   2.499  0.1130  0.7973 -0.6261
29942WAT      O21572  10.028   4.462   6.532 -0.0313  0.1647 -0.4234
29942WAT     H121573   9.976   4.502   6.462  0.7033  1.7995 -0.0927
29942WAT     H221574  10.112   4.442   6.492  0.1042  0.3240 -0.2224
29942WAT    EPW21575  10.032   4.465   6.518  0.0834  0.4013 -0.3531
29943WAT      O21576   9.378   4.890   3.372  0.5519 -0.0188  0.0190
29943WAT     H121577   9.353   4.885   3.279 -0.5634 -2.1902  0.3757
29943WAT     H221578   9.468   4.858   3.374  0.7420  0.4896 -0.3755
29943WAT    EPW21579   9.386   4.885   3.360  0.4296 -0.2382  0.0141
29944WAT      O21580   2.631   6.358   5.128 -0.0188 -0.0092  0.2972
29944WAT     H121581   2.553   6.310   5.099 -2.0329  2.2881  1.4357
29944WAT     H221582   2.668   6.395   5.048  0.1518 -1.4472 -0.3051
29944WAT    EPW21583   2.625   6.357   5.114 -0.2619  0.1040  0.3676
29945WAT      O21584   2.102   4.690   6.630  0.0509  0.5810  0.5414
29945WAT     H121585   2.166   4.645   6.575 -1.3670 -1.2399  0.2801
29945WAT     H221586   2.095   4.635   6.708 -0.9920  0.8803  0.6736
29945WAT    EPW21587   2.109   4.677   6.633 -0.2737  0.3805  0.5243
29946WAT      O21588  10.854   6.526   3.974 -0.0639  0.3733 -0.9297
29946WAT     H121589  10.789   6.525   3.903  0.1185 -3.9659 -1.3085
29946WAT     H221590  10.804   6.551   4.051 -2.0257 -1.6602 -1.4368
29946WAT    EPW21591  10.839   6.529   3.974 -0.2990 -0.4673 -1.0465
29947WAT      O21592   1.554   4.590   6.380 -0.2871 -0.4463  0.1975
29947WAT     H121593   1.496   4.520   6.408 -0.2491  0.0717  1.6617
29947WAT     H221594   1.571   4.641   6.460 -2.0464  2.5138 -1.1394
29947WAT    EPW21595   1.549   4.588   6.394 -0.5141  0.0122  0.2141
29948WAT      O21596   4.353   1.867   7.391 -0.3720  0.6056  0.3031
29948WAT     H121597   4.373   1.909   7.308 -0.7156 -0.5353 -0.3810
29948WAT     H221598   4.325   1.939   7.448  1.0799  1.5749 -0.1503
29948WAT    EPW21599   4.352   1.882   7.388 -0.2258  0.5829  0.1528
29949WAT      O21600   0.343   8.026   1.556 -0.2761 -0.2286 -0.1810
29949WAT     H121601   0.321   8.088   1.486 -1.2051 -0.9813 -0.5692
29949WAT     H221602   0.275   7.959   1.551 -0.9284  0.1770  2.0332
29949WAT    EPW21603   0.331   8.026   1.546 -0.4847 -0.2742  0.0598
29950WAT      O21604   7.308   0.194   3.214  0.2158  0.0033 -0.2087
29950WAT     H121605   7.241   0.261   3.227  0.2917  0.9749 -3.6484
29950WAT     H221606   7.274   0.116   3.257 -1.3207  1.4222  1.2826
29950WAT    EPW21607   7.295   0.193   3.221  0.0231  0.3186 -0.4656
29951WAT      O21608   7.350   2.393   7.759 -0.1062 -0.2753  0.2449
29951WAT     H121609   7.331   2.307   7.795  0.0439  0.1503  1.3793
29951WAT     H221610   7.372   2.447   7.835  0.9903  0.4625 -0.5623
29951WAT    EPW21611   7.350   2.389   7.774  0.0582 -0.1218  0.2878
29952WAT      O21612   8.605   6.337   3.513  0.1456 -0.3672  0.0400
29952WAT     H121613   8.538   6.392   3.472 -0.6908  0.2957  2.1697
29952WAT     H221614   8.641   6.286   3.441 -3.8478 -2.0775 -1.0368
29952WAT    EPW21615   8.601   6.338   3.498 -0.4911 -0.5052  0.1787
29953WAT      O21616   4.291   3.409   4.132 -0.0297 -0.3247 -0.2252
29953WAT     H121617   4.356   3.477   4.116  1.6776 -1.0139  2.8993
29953WAT     H221618   4.281   3.365   4.048  2.5619  0.6367 -1.1393
29953WAT    EPW21619   4.298   3.413   4.119  0.5372 -0.2888  0.0663
29954WAT      O21620   0.770   6.713   3.711  0.4269 -0.1393  0.3604
29954WAT     H121621   0.859   6.744   3.728 -0.7283  2.1747  2.7983
29954WAT     H221622   0.714   6.789   3.724 -1.9129 -1.1846 -2.3463
29954WAT    EPW21623   0.774   6.727   3.715 -0.0340  0.0279  0.3248
29955WAT      O21624  10.431   3.809   2.225  0.0824 -0.3602  0.5347
29955WAT     H121625  10.417   3.731   2.172 -1.5754 -0.3603  0.8938
29955WAT     H221626  10.525   3.811   2.242  0.2576 -1.8604 -0.1051
29955WAT    EPW21627  10.441   3.799   2.221 -0.1135 -0.5581  0.4977
29956WAT      O21628   0.528   4.557   3.276 -0.0320 -0.1346  0.2460
29956WAT     H121629   0.612   4.510   3.280 -0.8437 -1.9247 -1.9450
29956WAT     H221630   0.500   4.563   3.367  3.5024  2.6697  1.4248
29956WAT    EPW21631   0.536   4.552   3.288  0.3271 -0.0005  0.1125
29957WAT      O21632   8.369   9.047   1.012 -0.7202 -0.2463  0.3122
29957WAT     H121633   8.365   9.123   1.070 -2.1654 -0.6497  0.7607
29957WAT     H221634   8.395   8.975   1.068 -1.5654 -0.5269  0.3453
29957WAT    EPW21635   8.372   9.048   1.027 -1.0219 -0.3366  0.3757
29958WAT      O21636   9.431   8.548   0.309  0.3952  0.0626 -0.3378
29958WAT     H121637   9.377   8.627   0.316 -3.0107 -1.9445 -1.1757
29958WAT     H221638   9.398   8.490   0.378  3.1093 -0.5594  0.5566
29958WAT    EPW21639   9.419   8.551   0.319  0.3042 -0.2837 -0.3304
29959WAT      O21640   3.001  10.331   7.863 -0.1707  0.0301 -0.1658
29959WAT     H121641   3.042  10.251   7.897 -0.4384 -0.2278 -0.4349
29959WAT     H221642   2.984  10.311   7.771 -0.1446  0.4385 -0.2602
29959WAT    EPW21643   3.004  10.318   7.855 -0.2027  0.0501 -0.2136
29960WAT      O21644   8.521   3.935   8.641 -0.0308  0.5223 -0.3314
29960WAT     H121645   8.512   3.852   8.596  0.7833  0.7915 -1.0172
29960WAT     H221646   8.591   3.920   8.706  0.1317  0.6755 -0.4699
29960WAT    EPW21647   8.529   3.922   8.644  0.0982  0.5780 -0.4401
29961WAT      O21648   0.330   9.684   4.199 -0.6580  0.5118 -0.2048
29961WAT     H121649   0.395   9.644   4.142 -0.9045 -1.0845  0.5762
29961WAT     H221650   0.371   9.765   4.229  0.1582  0.5074 -1.2561
29961WAT    EPW21651   0.344   9.689   4.195 -0.5828  0.3009 -0.2401
29962WAT      O21652   3.077   2.197   5.282 -0.2056  0.2650 -0.3073
29962WAT     H121653   3.060   2.172   5.373 -1.1788 -0.2070 -0.5972
29962WAT     H221654   3.124   2.280   5.287 -1.0669  0.7128  0.6155
29962WAT    EPW21655   3.081   2.205   5.294 -0.4476  0.2617 -0.2236
29963WAT      O21656   2.079   8.026   3.518  0.5877 -0.2888  0.7579
29963WAT     H121657   2.077   7.930   3.509  1.1764 -0.1531 -1.1313
29963WAT     H221658   2.019   8.057   3.450  0.7224  0.7177  1.0885
29963WAT    EPW21659   2.071   8.017   3.508  0.6832 -0.1378  0.5523
29964WAT      O21660  10.326   0.919   8.941 -0.5194 -0.5085  0.4335
29964WAT     H121661  10.375   0.894   9.019 -2.1710 -0.4757  1.5307
29964WAT     H221662  10.260   0.851   8.930 -1.7133  0.5953  0.3912
29964WAT    EPW21663  10.323   0.907   8.950 -0.8945 -0.3586  0.5727
29965WAT      O21664   3.463   8.554   3.021  0.4776 -0.1394  0.2420
29965WAT     H121665   3.558   8.563   3.024  0.4615  0.1426 -0.0437
29965WAT     H221666   3.446   8.469   3.062  0.9390 -0.7404 -0.7738
29965WAT    EPW21667   3.473   8.544   3.027  0.5362 -0.1812  0.0703
29966WAT      O21668   4.431   6.495   4.228  0.2461 -0.2915 -0.5320
29966WAT     H121669   4.502   6.498   4.164 -0.0360  1.9857 -0.8011
29966WAT     H221670   4.363   6.442   4.185  1.0021 -0.8477 -1.0764
29966WAT    EPW21671   4.431   6.488   4.214  0.3085 -0.0646 -0.6394
29967WAT      O21672   5.623   3.318   2.728  0.4160  0.0519 -0.0996
29967WAT     H121673   5.594   3.308   2.819  1.1533 -2.0415 -0.0388
29967WAT     H221674   5.625   3.412   2.714 -2.6093  0.4304  1.0917
29967WAT    EPW21675   5.619   3.329   2.738  0.1142 -0.1743  0.0656
29968WAT      O21676   4.880   1.237   5.416  0.3378 -0.0759 -0.3453
29968WAT     H121677   4.941   1.284   5.474  1.4161  0.1326 -1.6152
29968WAT     H221678   4.793   1.268   5.444  0.8608  0.5197  0.7103
29968WAT    EPW21679   4.877   1.248   5.428  0.5486  0.0302 -0.3734
29969WAT      O21680   3.950   9.961   4.040 -0.6992 -0.1521  0.8662
29969WAT     H121681   3.883   9.895   4.022  1.6470 -2.2223 -1.1201
29969WAT     H221682   3.923  10.037   3.989 -1.7450 -0.7947  0.4295
29969WAT    EPW21683   3.938   9.962   4.031 -0.5277 -0.5097  0.5467
29970WAT      O21684   0.893   7.592   1.302 -0.1002 -0.0159  0.7206
29970WAT     H121685   0.912   7.655   1.232  0.6297 -0.0932  0.8465
29970WAT     H221686   0.905   7.506   1.262  1.6959 -0.0713  1.2757
29970WAT    EPW21687   0.897   7.589   1.287  0.2329 -0.0336  0.8104
29971WAT      O21688   3.492   9.179   1.361  0.1674 -1.0522  1.0200
29971WAT     H121689   3.517   9.187   1.453  1.2818 -1.6965  0.7922
29971WAT     H221690   3.572   9.149   1.317 -0.6768 -1.9717  0.0480
29971WAT    EPW21691   3.506   9.176   1.367  0.2031 -1.2584  0.8618
29972WAT      O21692   3.462   7.242   3.171  0.4952 -0.6970 -0.3126
29972WAT     H121693   3.403   7.208   3.104 -0.8321 -1.1714  1.0414
29972WAT     H221694   3.424   7.327   3.194  0.7854 -0.6620  0.0335
29972WAT    EPW21695   3.449   7.249   3.165  0.3585 -0.7551 -0.0883
29973WAT      O21696   5.711   6.645   2.019  0.2793  0.4398 -0.1660
29973WAT     H121697   5.710   6.740   2.032  0.4714  0.4443 -0.1824
29973WAT     H221698   5.752   6.610   2.098 -1.9144  0.1908  0.9327
29973WAT    EPW21699   5.717   6.653   2.031  0.0155  0.4077 -0.0232
29974WAT      O21700   1.983   7.113   1.854  0.4979 -0.1910 -0.7633
29974WAT     H121701   2.050   7.047   1.872  0.8586  0.0536 -1.1666
29974WAT     H221702   2.008   7.188   1.908  0.5065 -0.1262 -0.8571
29974WAT    EPW21703   1.995   7.114   1.863  0.5467 -0.1500 -0.8289
29975WAT      O21704   2.365  10.061   3.118  0.4651  0.1983  0.5589
29975WAT     H121705   2.369  10.152   3.150 -1.5319  0.0525  1.3807
29975WAT     H221706   2.285  10.058   3.065  0.4910 -1.0889  0.5616
29975WAT    EPW21707   2.355  10.073   3.115  0.2052  0.0091  0.6676
29976WAT      O21708   1.640   6.425   2.729 -0.2770 -0.0577  0.1799
29976WAT     H121709   1.645   6.368   2.652 -0.7968  0.0682  0.0496
29976WAT     H221710   1.732   6.439   2.754 -0.1427 -0.9947  0.2538
29976WAT    EPW21711   1.653   6.419   2.722 -0.3278 -0.1643  0.1725
29977WAT      O21712   5.802  10.009   1.599  0.0441 -0.2018  0.5498
29977WAT     H121713   5.775  10.009   1.691  2.6825  1.4454  1.4184
29977WAT     H221714   5.806   9.917   1.575 -2.6479 -0.6331  1.3864
29977WAT    EPW21715   5.799   9.997   1.608  0.0370 -0.0410  0.7747
29978WAT      O21716   5.951   0.768   5.626  0.0686 -0.1573 -0.6553
29978WAT     H121717   6.011   0.740   5.695  0.2752 -0.2469 -0.8704
29978WAT     H221718   5.948   0.695   5.565  0.6895  0.3195 -1.2708
29978WAT    EPW21719   5.959   0.755   5.627  0.1781 -0.1062 -0.7648
29979WAT      O21720   5.804   0.029   1.730  0.0673  0.7873 -0.2846
29979WAT     H121721   5.829   0.034   1.823  1.1435  3.0585 -0.6242
29979WAT     H221722   5.851  -0.048   1.697  0.0672  0.2375  0.9296
29979WAT    EPW21723   5.814   0.019   1.738  0.2093  1.0152 -0.1693
29980WAT      O21724   3.141   9.730   0.946  0.4698  0.2446  0.1755
29980WAT     H121725   3.227   9.721   0.987  0.8404 -0.3944 -0.7026
29980WAT     H221726   3.134   9.653   0.889  0.6329  1.8416 -2.1233
29980WAT    EPW21727   3.152   9.719   0.943  0.5403  0.3710 -0.2435
29981WAT      O21728   0.065  10.151   3.624  0.2422  0.2668  0.2031
29981WAT     H121729   0.149  10.127   3.584  0.8126  0.7061  1.1030
29981WAT     H221730   0.012  10.072   3.616  0.2686  0.3823 -1.5329
29981WAT    EPW21731   0.069  10.137   3.617  0.3209  0.3400  0.0929
29982WAT      O21732   8.339   1.047   2.823  0.1525  0.3103  0.7197
29982WAT     H121733   8.318   1.139   2.806  0.1260 -0.0735 -1.5791
29982WAT     H221734   8.433   1.047   2.841  0.1559  0.7754  0.7203
29982WAT    EPW21735   8.349   1.059   2.824  0.1497  0.3210  0.4166
29983WAT      O21736   0.990   9.008   2.075 -1.0901  0.0130  0.2028
29983WAT     H121737   0.926   8.971   2.136 -1.5473 -0.5113 -0.5771
29983WAT     H221738   1.075   8.989   2.115 -1.3753 -0.3728  0.6402
29983WAT    EPW21739   0.992   9.001   2.089 -1.1881 -0.1068  0.1575
29984WAT      O21740   0.996  10.264   3.983  0.0785  0.2238  0.1578
29984WAT     H121741   1.043  10.312   3.915 -0.1018  0.1335 -0.0327
29984WAT     H221742   1.049  10.276   4.062 -0.2604  1.2052  0.2482
29984WAT    EPW21743   1.009  10.272   3.984  0.0100  0.3414  0.1445
29985WAT      O21744   6.067   2.307   3.927 -0.7235 -0.0768 -0.1050
29985WAT     H121745   6.139   2.317   3.989 -1.8021 -1.5163  1.4812
29985WAT     H221746   6.084   2.371   3.859  0.7089  1.3529  1.5162
29985WAT    EPW21747   6.078   2.317   3.927 -0.6766 -0.0781  0.3179
29986WAT      O21748   3.147  10.151   0.337  0.6404  0.0425 -0.1388
29986WAT     H121749   3.188  10.075   0.294  1.2186  1.4241 -2.1805
29986WAT     H221750   3.186  10.153   0.424 -0.7900 -3.0606  0.7152
29986WAT    EPW21751   3.158  10.141   0.342  0.5280 -0.1845 -0.2954
29987WAT      O21752   0.568   7.847   4.898  0.4917 -0.5108 -0.1936
29987WAT     H121753   0.644   7.901   4.877  0.1835  0.0745  0.1624
29987WAT     H221754   0.597   7.792   4.971 -0.3390  1.9544  2.1424
29987WAT    EPW21755   0.582   7.847   4.905  0.3415 -0.1085  0.1614
29988WAT      O21756   9.865   8.466   4.647 -0.3596 -0.0913 -0.3667
29988WAT     H121757   9.886   8.422   4.729 -0.1385  1.9433  0.7393
29988WAT     H221758   9.934   8.438   4.586  0.1480 -0.7301  0.4820
29988WAT    EPW21759   9.877   8.457   4.650 -0.2637  0.0925 -0.1090
29989WAT      O21760   7.091   1.864   3.921 -0.1565 -0.3985 -0.1895
29989WAT     H121761   7.068   1.829   3.835  0.4367  0.5144 -0.7399
29989WAT     H221762   7.184   1.844   3.932  0.5465  1.9811 -1.0746
29989WAT    EPW21763   7.100   1.857   3.911  0.0145  0.0358 -0.3787
29990WAT      O21764   8.789   1.022   3.851 -0.4016 -0.2168  0.0444
29990WAT     H121765   8.794   1.028   3.947 -0.3772 -0.2442  0.0445
29990WAT     H221766   8.879   1.008   3.823 -0.8055 -5.5345  0.3607
29990WAT    EPW21767   8.801   1.021   3.860 -0.4516 -0.9218  0.0861
29991WAT      O21768   1.053   7.632   1.721 -0.7426  0.1254  0.3753
29991WAT     H121769   0.984   7.683   1.678  0.4200  0.6174 -1.0076
29991WAT     H221770   1.067   7.677   1.804 -0.3283  1.6137 -0.4536
29991WAT    EPW21771   1.046   7.645   1.726 -0.5345  0.3865  0.0836
29992WAT      O21772   2.979   0.245   8.273 -0.1337 -0.4256  0.1117
29992WAT     H121773   2.951   0.237   8.365 -2.0759  1.1767 -0.2430
29992WAT     H221774   2.941   0.169   8.229  0.4560 -0.9803  0.5425
29992WAT    EPW21775   2.970   0.234   8.280 -0.3121 -0.2875  0.1216
29993WAT      O21776   0.732   9.898   4.557 -0.1308 -0.3657 -0.3085
29993WAT     H121777   0.826   9.884   4.566  0.5038  0.9865 -3.4173
29993WAT     H221778   0.705   9.840   4.486 -0.8642  1.6719 -1.7909
29993WAT    EPW21779   0.741   9.889   4.549 -0.1439  0.0811 -0.9139
29994WAT      O21780   2.828   7.503   1.872  0.5195 -0.4411 -0.3407
29994WAT     H121781   2.766   7.437   1.904  0.2638  0.6743  1.6031
29994WAT     H221782   2.841   7.562   1.946  0.8712  1.6140 -1.9500
29994WAT    EPW21783   2.821   7.502   1.886  0.5323 -0.0229 -0.2965
29995WAT      O21784   2.562   8.404   3.307 -0.1947  0.3449  0.2913
29995WAT     H121785   2.518   8.428   3.389 -1.5115  0.8028 -0.5118
29995WAT     H221786   2.588   8.488   3.269  2.2423  0.0474  1.1633
29995WAT    EPW21787   2.560   8.418   3.313 -0.0468  0.3662  0.3003
29996WAT      O21788   4.380   0.184   1.746  0.5912  0.3905 -0.5668
29996WAT     H121789   4.425   0.258   1.787  2.8218 -0.2569 -1.6551
29996WAT     H221790   4.356   0.127   1.819 -2.3130  2.6265  0.4365
29996WAT    EPW21791   4.383   0.186   1.761  0.5023  0.6000 -0.5780
29997WAT      O21792   4.657   0.727   2.007 -0.4520 -0.5250  0.4207
29997WAT     H121793   4.671   0.650   1.953  1.2442 -0.3194  0.5057
29997WAT     H221794   4.665   0.801   1.946 -1.8570 -0.3959  0.3754
29997WAT    EPW21795   4.660   0.727   1.992 -0.4137 -0.4808  0.4259
29998WAT      O21796   1.149   9.420   1.883 -1.0348 -0.2679 -0.7274
29998WAT     H121797   1.190   9.466   1.810 -2.4032 -0.1982 -1.4818
29998WAT     H221798   1.171   9.473   1.960  0.5996 -0.4623 -1.0265
29998WAT    EPW21799   1.158   9.433   1.883 -0.9997 -0.2847 -0.8664
29999WAT      O21800   1.257   7.894   1.793  0.6788  0.0856 -0.5515
29999WAT     H121801   1.261   7.838   1.871  2.0543  1.1539  0.1864
29999WAT     H221802   1.168   7.881   1.759  0.8606 -2.3188 -0.2722
29999WAT    EPW21803   1.246   7.885   1.799  0.8842 -0.0906 -0.4174
30000WAT      O21804   2.335   6.804   6.053 -0.4713  0.3106  0.3154
30000WAT     H121805   2.350   6.716   6.087  1.1935  0.5490  0.2829
30000WAT     H221806   2.392   6.860   6.105 -0.7566  1.2335 -0.3390
30000WAT    EPW21807   2.344   6.800   6.064 -0.2893  0.4637  0.2248
30001WAT      O21808   7.469   0.441   0.778  0.0753  0.2040  1.1451
30001WAT     H121809   7.397   0.505   0.776  0.6489  0.8316 -1.0768
30001WAT     H221810   7.543   0.489   0.815 -0.1319  0.0842  1.7348
30001WAT    EPW21811   7.469   0.456   0.783  0.1237  0.2710  0.9299
30002WAT      O21812   2.096  10.207   5.061  0.1040  0.9024  0.1070
30002WAT     H121813   2.044  10.140   5.017 -1.2085  1.1308  1.2023
30002WAT     H221814   2.173  10.218   5.007  0.8178 -2.1046  0.3361
30002WAT    EPW21815   2.099  10.200   5.048  0.0249  0.5360  0.2818
30003WAT      O21816   5.657   7.926   2.197  0.2232 -0.5295 -0.4253
30003WAT     H121817   5.664   8.018   2.224  0.7698 -0.8556  0.6225
30003WAT     H221818   5.578   7.923   2.144  0.0214  0.4911 -0.2185
30003WAT    EPW21819   5.647   7.938   2.194  0.2687 -0.4377 -0.2598
30004WAT      O21820   2.581   9.051   5.160 -0.0368  0.3643  0.8902
30004WAT     H121821   2.552   9.013   5.077 -1.2019  2.1792  0.3888
30004WAT     H221822   2.503   9.050   5.216  0.0651  1.3287  1.0821
30004WAT    EPW21823   2.567   9.046   5.156 -0.1770  0.7310  0.8492
30005WAT      O21824   3.393   8.308   2.394  0.7485  0.1637 -0.1772
30005WAT     H121825   3.421   8.337   2.481  1.5208 -0.7602 -0.1038
30005WAT     H221826   3.467   8.256   2.361 -0.3815 -1.2636 -0.5166
30005WAT    EPW21827   3.407   8.305   2.401  0.7014 -0.1459 -0.2123
30006WAT      O21828  10.123   6.980   2.151  0.1949  0.7652  0.6216
30006WAT     H121829  10.213   6.951   2.134 -0.0743  0.2037  0.0988
30006WAT     H221830  10.133   7.054   2.210  1.1268  2.1684 -1.1986
30006WAT    EPW21831  10.136   6.986   2.157  0.2828  0.8759  0.3127
30007WAT      O21832   3.430   7.921   4.131 -0.2042 -0.1820 -0.6874
30007WAT     H121833   3.509   7.974   4.139 -0.5295  0.0597  2.1892
30007WAT     H221834   3.358   7.985   4.130 -0.4830 -0.4557  0.3435
30007WAT    EPW21835   3.431   7.937   4.132 -0.2840 -0.1864 -0.1721
30008WAT      O21836   5.464   7.267   0.109  0.1996 -0.2072 -0.5462
30008WAT     H121837   5.524   7.206   0.067 -1.5231 -1.9113 -0.6727
30008WAT     H221838   5.387   7.214   0.131 -1.1367  1.7966 -0.1019
30008WAT    EPW21839   5.462   7.252   0.106 -0.2038 -0.1676 -0.5043
30009WAT      O21840  10.992   3.569   8.509  0.4624  0.2092  0.2722
30009WAT     H121841  10.980   3.500   8.574  0.6139  0.6477  0.7828
30009WAT     H221842  11.072   3.615   8.538  0.6447  0.2883 -0.3377
30009WAT    EPW21843  11.001   3.566   8.522  0.5064  0.2774  0.2594
30010WAT      O21844   8.717   1.370   8.143 -0.0297 -0.7810 -0.0640
30010WAT     H121845   8.807   1.353   8.117 -0.3880 -2.4424 -0.3374
30010WAT     H221846   8.722   1.391   8.237  0.9655  2.6291 -0.7378
30010WAT    EPW21847   8.729   1.371   8.152  0.0548 -0.5503 -0.1888
30011WAT      O21848  10.631  10.203   4.926  0.2259  0.5716 -0.3879
30011WAT     H121849  10.690  10.278   4.914  0.9635  0.5717  2.3482
30011WAT     H221850  10.553  10.241   4.968  0.3743 -0.0588  0.4928
30011WAT    EPW21851  10.629  10.218   4.930  0.3428  0.4883  0.0894
30012WAT      O21852   7.723   5.202   6.835  0.5148 -0.3429  0.9880
30012WAT     H121853   7.662   5.172   6.768 -1.6690  1.0838  2.2018
30012WAT     H221854   7.760   5.283   6.801 -0.0554  0.0105  1.2058
30012WAT    EPW21855   7.720   5.209   6.822  0.1514 -0.1082  1.1768
30013WAT      O21856  10.544   9.320   2.504  0.7213 -0.1918 -0.6761
30013WAT     H121857  10.621   9.370   2.475 -0.4401  0.8045 -2.1316
30013WAT     H221858  10.506   9.374   2.574  1.6521 -0.9912  0.4910
30013WAT    EPW21859  10.549   9.334   2.510  0.6905 -0.1659 -0.7142
30014WAT      O21860   2.474   4.510   3.738  0.0018 -0.3406 -0.5884
30014WAT     H121861   2.384   4.477   3.747  0.0210 -0.1116  0.5906
30014WAT     H221862   2.529   4.432   3.744 -0.0911 -0.4413 -0.9747
30014WAT    EPW21863   2.469   4.495   3.740 -0.0080 -0.3238 -0.4839
30015WAT      O21864   8.097   3.224   2.211  1.0071  0.2069 -0.1793
30015WAT     H121865   8.028   3.207   2.275 -0.2213  1.3697 -1.1558
30015WAT     H221866   8.150   3.293   2.251  0.1355  1.0595 -0.4496
30015WAT    EPW21867   8.095   3.231   2.225  0.7300  0.4728 -0.3437
30016WAT      O21868   3.587   9.386   2.446 -0.3843  0.2049  0.3079
30016WAT     H121869   3.671   9.376   2.401 -0.7938 -1.2614 -0.2089
30016WAT     H221870   3.531   9.430   2.382 -0.1910  0.6015  0.4118
30016WAT    EPW21871   3.591   9.390   2.432 -0.4128  0.0639  0.2534
30017WAT      O21872   3.679   7.510   3.114  0.5555 -0.0226  0.2621
30017WAT     H121873   3.655   7.436   3.058 -1.2278  1.0402 -0.4953
30017WAT     H221874   3.752   7.551   3.068  1.5832 -1.2938  0.7069
30017WAT    EPW21875   3.686   7.506   3.100  0.4557 -0.0501  0.2209
30018WAT      O21876   0.931   8.230   4.772 -0.7486  0.1495 -0.7581
30018WAT     H121877   0.922   8.269   4.685  1.3747 -3.6308 -2.9579
30018WAT     H221878   0.879   8.150   4.767 -0.2253 -0.3719  1.3150
30018WAT    EPW21879   0.923   8.224   4.760 -0.3995 -0.4177 -0.7749
30019WAT      O21880   1.731   0.696   7.776  0.0824  0.2907 -0.1863
30019WAT     H121881   1.671   0.631   7.739  0.0296 -0.4198  1.0914
30019WAT     H221882   1.677   0.747   7.836  0.9737 -1.3613  2.2025
30019WAT    EPW21883   1.716   0.694   7.779  0.1930 -0.0209  0.2973
30020WAT      O21884   3.140   8.089   2.172  0.0267 -0.3240 -0.7704
30020WAT     H121885   3.181   8.102   2.086 -0.3586 -0.1293 -0.9251
30020WAT     H221886   3.091   8.008   2.163  0.2268 -0.4606 -0.6409
30020WAT    EPW21887   3.139   8.080   2.160  0.0021 -0.3166 -0.7737
30021WAT      O21888   3.855   8.495   1.420  0.2668 -1.0082  0.0046
30021WAT     H121889   3.939   8.494   1.466  0.1268  0.5972  0.3435
30021WAT     H221890   3.810   8.417   1.452  0.3882 -0.2387  2.2382
30021WAT    EPW21891   3.860   8.485   1.430  0.2644 -0.6952  0.3439
30022WAT      O21892   9.372   3.339   3.167 -0.5585 -0.0980  0.2133
30022WAT     H121893   9.382   3.244   3.164 -1.7921 -0.2914  1.2837
30022WAT     H221894   9.284   3.355   3.132  0.4357  0.8628 -2.0150
30022WAT    EPW21895   9.362   3.328   3.162 -0.5903  0.0032  0.0607
30023WAT      O21896  10.960   9.863   3.078 -0.2758  0.5571  0.4043
30023WAT     H121897  10.911   9.900   3.005  2.9693  1.1860 -1.6638
30023WAT     H221898  10.958   9.768   3.063 -0.6370  0.5979  0.1954
30023WAT    EPW21899  10.954   9.855   3.067  0.1049  0.6452  0.1040
30024WAT      O21900   2.474   5.679   3.489  0.0931  0.8503 -0.4968
30024WAT     H121901   2.463   5.774   3.481  0.7967  1.1722  1.8263
30024WAT     H221902   2.533   5.656   3.417  1.4551  2.4926  0.0327
30024WAT    EPW21903   2.480   5.688   3.478  0.3656  1.1094 -0.1206
30025WAT      O21904   4.291   9.635   3.240  0.2046  0.6213  0.0813
30025WAT     H121905   4.259   9.633   3.150 -0.8472 -1.6015  0.4440
30025WAT     H221906   4.230   9.692   3.286 -1.9720 -1.6564  0.2436
30025WAT    EPW21907   4.279   9.642   3.234 -0.2213  0.0281  0.1506
30026WAT      O21908   0.871   9.514   5.972  0.6398  0.1133 -0.1311
30026WAT     H121909   0.950   9.464   5.957 -0.8103 -2.7809  1.1345
30026WAT     H221910   0.888   9.599   5.931  2.9408 -1.6429 -3.2258
30026WAT    EPW21911   0.883   9.519   5.965  0.7520 -0.4997 -0.3724
30027WAT      O21912   0.698   8.554   1.587 -1.0206  0.4110  0.0630
30027WAT     H121913   0.673   8.496   1.515  1.6993  0.7216 -1.2705
30027WAT     H221914   0.643   8.631   1.576 -2.7935 -0.7551  0.2450
30027WAT    EPW21915   0.688   8.556   1.576 -0.8957  0.2980 -0.0888
30028WAT      O21916   1.601   3.842   1.955 -0.5650  0.9532 -1.1627
30028WAT     H121917   1.581   3.749   1.949  0.4690  0.6608 -0.4104
30028WAT     H221918   1.688   3.845   1.996 -0.8232  2.2592 -0.6651
30028WAT    EPW21919   1.610   3.830   1.960 -0.4627  1.0868 -0.9978
30029WAT      O21920   2.202   8.279   3.934  0.0980 -0.4662  0.0575
30029WAT     H121921   2.165   8.199   3.896  1.5690 -1.1930  0.0438
30029WAT     H221922   2.151   8.294   4.013  0.1010 -1.7273  0.3217
30029WAT    EPW21923   2.191   8.270   3.940  0.2924 -0.7281  0.0906
30030WAT      O21924   9.603   5.513   7.814 -0.1528  0.7396  0.2761
30030WAT     H121925   9.627   5.480   7.901  1.2317 -0.3984 -0.5151
30030WAT     H221926   9.683   5.554   7.781 -0.9362  2.0354 -0.1078
30030WAT    EPW21927   9.617   5.514   7.821 -0.0739  0.7606  0.1214
30031WAT      O21928   4.682   0.042   8.529  0.2702  0.0330 -0.0268
30031WAT     H121929   4.722   0.129   8.535  1.1541 -0.3918  0.4945
30031WAT     H221930   4.755  -0.016   8.507 -0.3043 -0.5850 -0.3332
30031WAT    EPW21931   4.697   0.046   8.527  0.3109 -0.1045  0.0014
30032WAT      O21932  10.936   7.100   3.162  0.2069  0.1989  0.0068
30032WAT     H121933  10.907   7.078   3.073 -1.1708  2.1208 -0.0713
30032WAT     H221934  10.894   7.184   3.181  0.5801 -0.0941  2.4360
30032WAT    EPW21935  10.926   7.108   3.153  0.0749  0.4134  0.3170
30033WAT      O21936   9.871   8.548   1.465 -0.2993 -0.4687  0.2448
30033WAT     H121937   9.778   8.566   1.474 -0.0167  1.5639 -0.4193
30033WAT     H221938   9.913   8.606   1.529  0.4536 -2.9295  2.1313
30033WAT    EPW21939   9.864   8.558   1.475 -0.1626 -0.5255  0.4061
30034WAT      O21940   4.570   0.328   2.808  0.0318  0.4315 -0.2690
30034WAT     H121941   4.490   0.381   2.808 -1.1374 -1.2039  1.2029
30034WAT     H221942   4.585   0.309   2.901  2.0005  0.4794 -0.5456
30034WAT    EPW21943   4.561   0.333   2.820  0.1371  0.2221 -0.1112
30035WAT      O21944   0.242   8.621   3.238 -0.1538 -0.6691  0.1675
30035WAT     H121945   0.172   8.611   3.174 -0.4961  1.1590  0.2211
30035WAT     H221946   0.313   8.566   3.204  0.0314  0.9745 -2.3165
30035WAT    EPW21947   0.242   8.612   3.225 -0.1745 -0.2117 -0.1529
30036WAT      O21948  10.763   6.920   2.668 -0.8913  0.2466  0.1911
30036WAT     H121949  10.668   6.931   2.665 -0.9229 -0.1974 -0.8408
30036WAT     H221950  10.786   6.936   2.759 -2.0181 -0.1107  0.5558
30036WAT    EPW21951  10.753   6.923   2.679 -1.0443  0.1411  0.1031
30037WAT      O21952   3.504   9.142   2.477 -0.1111  0.7581 -0.1118
30037WAT     H121953   3.475   9.153   2.568  1.9063 -0.2293  0.7368
30037WAT     H221954   3.543   9.226   2.454  1.4383  0.3309  0.8071
30037WAT    EPW21955   3.506   9.154   2.486  0.3594  0.5717  0.1214
30038WAT      O21956   7.616   1.577   3.888  0.2271  0.3308  0.4146
30038WAT     H121957   7.554   1.510   3.918 -0.8393  1.2744  0.3924
30038WAT     H221958   7.649   1.543   3.805 -0.1812 -0.2390  0.4742
30038WAT    EPW21959   7.612   1.563   3.881  0.0327  0.3801  0.4195
30039WAT      O21960   0.061  10.359   0.737 -0.6092 -0.4748 -0.5311
30039WAT     H121961   0.147  10.341   0.773 -1.2296 -1.8126  0.3773
30039WAT     H221962   0.065  10.450   0.709  0.4028  0.2122  1.6066
30039WAT    EPW21963   0.073  10.369   0.738 -0.5575 -0.5606 -0.1293
30040WAT      O21964   8.173   0.803   4.056  0.5809 -0.2671  0.2711
30040WAT     H121965   8.193   0.865   3.985 -0.9840 -0.4368 -0.3624
30040WAT     H221966   8.258   0.778   4.091  1.4192 -0.4464 -1.7919
30040WAT    EPW21967   8.187   0.808   4.051  0.4849 -0.3131 -0.0842
30041WAT      O21968   2.843   1.528   1.252  0.4628 -0.4128  0.4193
30041WAT     H121969   2.826   1.434   1.245  1.4086 -0.6647  1.2348
30041WAT     H221970   2.856   1.556   1.162  0.2638 -1.0796  0.1717
30041WAT    EPW21971   2.842   1.519   1.240  0.5614 -0.5339  0.4942
30042WAT      O21972   3.792   9.075   4.503  0.2481  0.3526 -0.6764
30042WAT     H121973   3.875   9.115   4.478 -1.0570  3.5047 -0.4294
30042WAT     H221974   3.733   9.096   4.431 -1.0384  0.8020  0.4599
30042WAT    EPW21975   3.795   9.083   4.490 -0.0937  0.8278 -0.4935
30043WAT      O21976   9.909   9.846   1.794 -0.8778  0.0304  0.1655
30043WAT     H121977   9.848   9.785   1.752 -1.4913  1.9147 -1.9038
30043WAT     H221978   9.858   9.888   1.863 -1.8047  1.1146 -1.1218
30043WAT    EPW21979   9.894   9.844   1.797 -1.0815  0.4215 -0.2772
30044WAT      O21980   2.744   4.580   2.177 -0.5322 -0.2640 -0.7058
30044WAT     H121981   2.714   4.570   2.086 -0.3762  0.9320 -0.9177
30044WAT     H221982   2.663   4.581   2.229 -0.8114  1.3211 -1.1018
30044WAT    EPW21983   2.729   4.579   2.172 -0.5482  0.1028 -0.7859
30045WAT      O21984   4.352   1.938   8.435  0.7242  0.8182  1.2169
30045WAT     H121985   4.270   1.986   8.443  0.7612  0.7258  2.3890
30045WAT     H221986   4.326   1.846   8.430  0.5215  0.8943 -3.0805
30045WAT    EPW21987   4.338   1.932   8.435  0.7021  0.8160  0.8044
30046WAT      O21988   9.866   9.734   2.775 -0.3885  0.2912  0.7834
30046WAT     H121989   9.873   9.639   2.779  0.8437  0.2964 -0.6048
30046WAT     H221990   9.828   9.758   2.859  0.0096 -1.3668  1.4828
30046WAT    EPW21991   9.862   9.725   2.787 -0.1731  0.0730  0.6925
30047WAT      O21992   6.136   2.034   0.742 -0.0844  0.6294  0.1098
30047WAT     H121993   6.174   2.059   0.658 -1.8403 -0.1910 -1.0044
30047WAT     H221994   6.042   2.048   0.731 -0.6966 -2.2380  0.8882
30047WAT    EPW21995   6.129   2.039   0.730 -0.3965  0.1429  0.0656
30048WAT      O21996   2.310   6.615   0.544 -0.1842 -0.0762 -0.0273
30048WAT     H121997   2.280   6.592   0.632 -1.4442 -0.9075 -0.6432
30048WAT     H221998   2.301   6.534   0.494  1.3872  0.1414 -0.7152
30048WAT    EPW21999   2.305   6.601   0.549 -0.1432 -0.1574 -0.1992
30049WAT      O22000   7.431   2.327   8.498 -0.3006  0.3381 -0.3955
30049WAT     H122001   7.387   2.412   8.494 -0.1899  0.5033  1.1503
30049WAT     H222002   7.511   2.344   8.548  0.5473 -0.3563 -1.4931
30049WAT    EPW22003   7.436   2.340   8.504 -0.1743  0.2682 -0.3366
30050WAT      O22004   6.066   0.653   3.167  0.4909 -0.3956  0.6206
30050WAT     H122005   6.156   0.620   3.179  1.6165  0.8615 -2.8944
30050WAT     H222006   6.019   0.578   3.130 -0.1170 -1.1644  2.7896
30050WAT    EPW22007   6.072   0.639   3.163  0.5591 -0.3312  0.4431
30051WAT      O22008   3.656   9.924   6.005  0.1061 -0.1567  0.2043
30051WAT     H122009   3.585   9.987   5.991 -2.0662 -2.1964  1.3723
30051WAT     H222010   3.625   9.844   5.964  2.3482 -0.8041 -0.3591
30051WAT    EPW22011   3.643   9.922   5.998  0.1154 -0.5116  0.2837
30052WAT      O22012  10.213   8.718   5.065 -0.3072 -1.3435 -0.8782
30052WAT     H122013  10.136   8.662   5.053  0.1814 -1.8296 -1.7891
30052WAT     H222014  10.262   8.710   4.984  0.1244 -0.1168 -0.7580
30052WAT    EPW22015  10.209   8.709   5.053 -0.1860 -1.2455 -0.9825
30053WAT      O22016   1.693   8.236   2.889 -0.1405 -0.4456  0.0712
30053WAT     H122017   1.692   8.319   2.936 -0.1171 -0.9314  0.9682
30053WAT     H222018   1.607   8.231   2.847 -1.9999 -1.8799  3.5919
30053WAT    EPW22019   1.681   8.246   2.890 -0.3827 -0.6986  0.6539
30054WAT      O22020   4.500   3.679   3.418 -0.6824  0.0803  0.1887
30054WAT     H122021   4.500   3.637   3.504 -0.3256 -1.1261 -0.3739
30054WAT     H222022   4.592   3.675   3.390 -0.5908  1.4634  0.1978
30054WAT    EPW22023   4.512   3.673   3.426 -0.6237  0.1036  0.1159
30055WAT      O22024   0.356   9.775   4.683 -1.4283 -0.1605 -0.0646
30055WAT     H122025   0.411   9.716   4.629 -0.5938 -1.4593  2.0811
30055WAT     H222026   0.268   9.738   4.675 -1.3493 -0.2483 -0.6285
30055WAT    EPW22027   0.352   9.762   4.675 -1.3078 -0.3433  0.1442
30056WAT      O22028   9.794   4.360   8.910  0.1109 -0.1418  0.2949
30056WAT     H122029   9.837   4.320   8.986 -0.3913  1.6144  1.5703
30056WAT     H222030   9.848   4.436   8.890  0.4674 -0.8059 -1.4275
30056WAT    EPW22031   9.807   4.364   8.918  0.0920  0.0024  0.2365
30057WAT      O22032   3.157  10.282   1.530 -0.0441  0.4918 -0.0276
30057WAT     H122033   3.157  10.213   1.596 -2.0395 -0.1810 -0.6590
30057WAT     H222034   3.208  10.353   1.570  0.4157 -0.5933  1.4223
30057WAT    EPW22035   3.164  10.283   1.544 -0.2469  0.2604  0.0805
30058WAT      O22036   4.316   7.165   1.716 -0.1097  0.5964 -0.2447
30058WAT     H122037   4.387   7.225   1.738  0.8863 -0.6735  0.1417
30058WAT     H222038   4.360   7.093   1.669 -1.1449 -0.1960 -0.0258
30058WAT    EPW22039   4.331   7.163   1.713 -0.1149  0.3245 -0.1648
30059WAT      O22040   3.260   5.716   2.629  0.3603 -0.3711  0.0710
30059WAT     H122041   3.349   5.743   2.605 -0.0733  0.5853 -0.4979
30059WAT     H222042   3.206   5.744   2.556 -0.3612 -1.3668  0.1960
30059WAT    EPW22043   3.265   5.723   2.616  0.2079 -0.3762  0.0124
30060WAT      O22044   9.773   6.546   4.358 -0.3769 -0.2373 -0.1189
30060WAT     H122045   9.842   6.532   4.294 -0.4092 -1.8522  0.1447
30060WAT     H222046   9.692   6.527   4.311 -0.4428 -0.8251  0.2102
30060WAT    EPW22047   9.771   6.541   4.344 -0.3896 -0.5276 -0.0408
30061WAT      O22048   3.709   5.868   3.545 -0.4266  0.7260 -0.2544
30061WAT     H122049   3.789   5.869   3.598  0.6029 -1.5016 -1.6535
30061WAT     H222050   3.650   5.927   3.592  1.2436  0.7366  2.0437
30061WAT    EPW22051   3.712   5.876   3.558 -0.0705  0.4337 -0.1358
30062WAT      O22052   2.262   7.536   0.807  1.0451 -0.1838  0.3163
30062WAT     H122053   2.289   7.495   0.725  0.1915 -1.4248  0.6304
30062WAT     H222054   2.264   7.630   0.788 -1.3763 -0.4487 -1.9001
30062WAT    EPW22055   2.266   7.543   0.793  0.6132 -0.3824  0.0654
30063WAT      O22056   2.567   0.375   4.724 -0.0832  0.2250 -0.1994
30063WAT     H122057   2.552   0.288   4.687  1.5333 -0.5607  0.8457
30063WAT     H222058   2.634   0.360   4.792  0.2687  2.2928 -0.0419
30063WAT    EPW22059   2.574   0.361   4.728  0.1765  0.3941 -0.0408
30064WAT      O22060   1.339   6.041   0.430  0.1864 -0.2959  0.1672
30064WAT     H122061   1.258   6.091   0.442 -1.0293 -2.1438  0.0301
30064WAT     H222062   1.408   6.107   0.430 -1.3095  1.3352  0.3215
30064WAT    EPW22063   1.338   6.056   0.432 -0.1712 -0.3247  0.1694
30065WAT      O22064   2.705   9.069   2.011  1.1432  0.7435  0.2804
30065WAT     H122065   2.674   8.987   1.972  3.7680 -0.0090 -0.4431
30065WAT     H222066   2.762   9.041   2.083  0.1227  2.0463  1.6660
30065WAT    EPW22067   2.709   9.054   2.015  1.3548  0.8163  0.3676
30066WAT      O22068   1.099   7.776   1.458  0.6683 -0.9136 -0.1902
30066WAT     H122069   1.071   7.711   1.394 -0.5243 -3.1672  2.3697
30066WAT     H222070   1.038   7.848   1.448 -2.9833 -3.4258  1.6344
30066WAT    EPW22071   1.088   7.777   1.448  0.0294 -1.5423  0.3881
30067WAT      O22072   2.434   5.091   1.915 -0.0138  0.5968 -0.2786
30067WAT     H122073   2.461   5.163   1.971  2.6493  0.3926 -1.1409
30067WAT     H222074   2.341   5.107   1.898  0.0020  2.6521  1.2004
30067WAT    EPW22075   2.426   5.102   1.920  0.3395  0.8411 -0.1972
30068WAT      O22076   1.797   9.822   3.462 -0.1031 -0.5675  0.0583
30068WAT     H122077   1.783   9.811   3.368 -1.6491 -0.4522  0.2641
30068WAT     H222078   1.744   9.754   3.503 -2.1381  1.4481  0.9609
30068WAT    EPW22079   1.788   9.812   3.455 -0.5753 -0.2866  0.2046
30069WAT      O22080  10.729   7.326   2.087 -0.6198  0.0977  0.1532
30069WAT     H122081  10.655   7.306   2.029 -0.3642 -0.3654 -0.0136
30069WAT     H222082  10.767   7.241   2.107  0.1536  0.3702 -0.1360
30069WAT    EPW22083  10.724   7.312   2.082 -0.4845  0.0727  0.0931
30070WAT      O22084   9.789   9.127   2.715 -0.0855 -0.0399 -0.1986
30070WAT     H122085   9.701   9.093   2.697 -0.2321  1.4119 -2.7785
30070WAT     H222086   9.775   9.206   2.766 -0.4192  0.8913 -1.6886
30070WAT    EPW22087   9.776   9.133   2.719 -0.1483  0.2742 -0.7354
30071WAT      O22088   1.742   7.038   0.336  0.3780  0.0689 -0.0105
30071WAT     H122089   1.705   7.014   0.421  1.3228 -0.9442  0.1351
30071WAT     H222090   1.703   6.975   0.275 -1.3082  1.5840 -0.6089
30071WAT    EPW22091   1.732   7.026   0.339  0.2802  0.1352 -0.0702
30072WAT      O22092   5.519   0.702   2.455  0.0864 -0.0740 -0.1077
30072WAT     H122093   5.613   0.694   2.475 -0.4381 -0.2295  2.8074
30072WAT     H222094   5.481   0.622   2.490 -1.2020  0.2573 -0.7271
30072WAT    EPW22095   5.527   0.690   2.462 -0.1528 -0.0508  0.1951
30073WAT      O22096   9.249   8.600   0.003  0.3411  0.0580  0.4928
30073WAT     H122097   9.248   8.507   0.022  0.1665 -0.2602 -0.9778
30073WAT     H222098   9.163   8.617  -0.037  0.8446  0.5837 -0.3944
30073WAT    EPW22099   9.237   8.590   0.001  0.3843  0.0858  0.1818
30074WAT      O22100  10.320   4.567   3.044 -0.4957 -0.5300 -0.3646
30074WAT     H122101  10.394   4.610   3.001 -0.7301  0.4114  0.1704
30074WAT     H222102  10.331   4.474   3.021 -0.0120 -0.1978 -1.5532
30074WAT    EPW22103  10.332   4.560   3.035 -0.4630 -0.3622 -0.4508
30075WAT      O22104   3.728   7.467   1.250 -0.2279 -0.4145  0.3883
30075WAT     H122105   3.772   7.392   1.212  1.6405  1.0019 -0.3950
30075WAT     H222106   3.754   7.467   1.342  0.6862 -0.1097  0.1352
30075WAT    EPW22107   3.737   7.457   1.257  0.1390 -0.1876  0.2517
30076WAT      O22108   3.584   8.157   2.264 -0.1506  0.2902 -0.1839
30076WAT     H122109   3.668   8.173   2.306 -1.3046  0.5290  2.2257
30076WAT     H222110   3.569   8.062   2.274 -1.0691  0.5569  1.3794
30076WAT    EPW22111   3.593   8.146   2.271 -0.4239  0.3567  0.3401
30077WAT      O22112   3.979   6.474   1.903 -0.4622 -0.2605  0.7898
30077WAT     H122113   4.033   6.521   1.967 -0.0753 -1.3166  1.2512
30077WAT     H222114   3.995   6.519   1.820 -0.3380  0.6114  1.2780
30077WAT    EPW22115   3.988   6.486   1.901 -0.3947 -0.2849  0.9150
30078WAT      O22116  10.210   8.509   3.826  0.6560  0.0493  0.4538
30078WAT     H122117  10.125   8.515   3.870  0.4773 -0.3728  0.1739
30078WAT     H222118  10.271   8.551   3.886 -0.1931  3.0416 -0.6271
30078WAT    EPW22119  10.207   8.515   3.840  0.5198  0.3886  0.2742
30079WAT      O22120   2.354  10.202   6.280 -0.1590  0.0422  0.3118
30079WAT     H122121   2.381  10.169   6.194  0.5752  0.6304  0.3030
30079WAT     H222122   2.265  10.235   6.266 -0.4995 -0.9430  0.0744
30079WAT    EPW22123   2.346  10.202   6.266 -0.1070 -0.0100  0.2792
30080WAT      O22124   2.090   8.652   2.787 -0.4342 -0.2297 -0.7186
30080WAT     H122125   2.082   8.611   2.873 -0.9586 -0.5810 -0.9353
30080WAT     H222126   2.059   8.742   2.801  0.9823  0.2036 -0.1812
30080WAT    EPW22127   2.085   8.659   2.800 -0.3164 -0.2189 -0.6764
30081WAT      O22128   8.492  10.148   2.209  0.0718  0.0084  0.3554
30081WAT     H122129   8.445  10.130   2.127  0.2069  1.3743 -0.0514
30081WAT     H222130   8.582  10.163   2.182  1.2504 -4.2009  1.3052
30081WAT    EPW22131   8.498  10.148   2.194  0.2451 -0.3667  0.4270
30082WAT      O22132   0.864   6.501   1.827  0.1442 -0.5908 -0.0572
30082WAT     H122133   0.896   6.415   1.803 -2.2859 -1.3251 -1.0140
30082WAT     H222134   0.800   6.485   1.897  0.4422  0.5551  0.5134
30082WAT    EPW22135   0.860   6.488   1.833 -0.1371 -0.5367 -0.1081
30083WAT      O22136   2.670   7.916   0.201  0.1246 -0.3856 -0.5317
30083WAT     H122137   2.666   8.003   0.241 -1.1613 -0.3354 -0.7254
30083WAT     H222138   2.758   7.911   0.163  0.0983  0.9729 -0.8302
30083WAT    EPW22139   2.681   7.927   0.201 -0.0485 -0.1998 -0.5966
30084WAT      O22140   1.342   8.786   5.622  0.6582 -0.0705 -0.1870
30084WAT     H122141   1.375   8.710   5.575 -0.4500 -0.5949 -0.1662
30084WAT     H222142   1.407   8.854   5.607 -0.0118  0.0379 -3.1757
30084WAT    EPW22143   1.355   8.785   5.614  0.4236 -0.1254 -0.5786
30085WAT      O22144   3.779   6.993   3.912 -0.6380  0.0815  0.5195
30085WAT     H122145   3.751   6.902   3.902  0.7820 -0.5450  1.7115
30085WAT     H222146   3.870   6.986   3.943 -0.1252  1.9261 -0.4317
30085WAT    EPW22147   3.787   6.980   3.915 -0.3831  0.2420  0.5513
30086WAT      O22148   2.514   9.762   0.983  0.4378 -0.3062 -0.2726
30086WAT     H122149   2.505   9.723   1.070 -0.5971  0.2183 -0.1261
30086WAT     H222150   2.537   9.689   0.926 -1.2797 -1.1423  0.0237
30086WAT    EPW22151   2.516   9.747   0.987  0.0747 -0.3476 -0.2142
30087WAT      O22152   3.059   8.100   3.517 -0.0106 -0.2540  0.1300
30087WAT     H122153   3.134   8.129   3.569 -1.6522  1.0036  1.9700
30087WAT     H222154   3.071   8.005   3.509  0.8898 -0.3392  1.9241
30087WAT    EPW22155   3.070   8.091   3.523 -0.1082 -0.0992  0.6093
30088WAT      O22156   7.895   0.359   2.871  0.0708  0.3979  0.1841
30088WAT     H122157   7.836   0.420   2.828  0.7832 -0.3932 -2.0600
30088WAT     H222158   7.855   0.273   2.858  0.5632  0.0849  0.6722
30088WAT    EPW22159   7.882   0.356   2.863  0.2298  0.2523 -0.0476
30089WAT      O22160   3.049   7.728   1.264  0.0703  0.1712  0.2964
30089WAT     H122161   3.002   7.660   1.217  2.2203 -1.1879 -0.0016
30089WAT     H222162   3.066   7.690   1.350  0.5803  0.6557  0.4124
30089WAT    EPW22163   3.045   7.714   1.269  0.4210  0.0558  0.2723
30090WAT      O22164   7.180   1.133   3.637  0.0245  0.2340  1.0157
30090WAT     H122165   7.105   1.130   3.577 -0.6037 -0.5617  1.8091
30090WAT     H222166   7.205   1.225   3.640  0.0402  0.2945 -0.4243
30090WAT    EPW22167   7.173   1.145   3.630 -0.0563  0.1370  0.9304
30091WAT      O22168   1.640   8.469   3.962  0.6903  0.5867 -0.0091
30091WAT     H122169   1.617   8.385   4.002 -0.9728  1.4954  1.0406
30091WAT     H222170   1.635   8.532   4.034  1.8951  1.6144 -0.7788
30091WAT    EPW22171   1.636   8.466   3.977  0.6298  0.8421  0.0280
30092WAT      O22172  10.402   3.531   8.032  0.3560 -0.6983  0.8446
30092WAT     H122173  10.309   3.510   8.019  0.3455 -0.0508 -0.2925
30092WAT     H222174  10.404   3.585   8.110 -0.5358  1.0793 -0.2905
30092WAT    EPW22175  10.390   3.536   8.040  0.2370 -0.3784  0.5450
30093WAT      O22176   3.763   9.054   1.218 -0.0121  0.4205 -0.1288
30093WAT     H122177   3.738   9.051   1.125 -1.6102 -0.6855  0.3009
30093WAT     H222178   3.788   9.145   1.232  2.2157  0.2226 -2.0926
30093WAT    EPW22179   3.763   9.065   1.207  0.0709  0.2489 -0.3312
30094WAT      O22180   3.244   9.045   2.383 -0.4152 -0.9556 -0.1430
30094WAT     H122181   3.239   8.954   2.411 -2.9375 -0.4720  1.3118
30094WAT     H222182   3.334   9.072   2.401  0.1564 -2.9221  0.1054
30094WAT    EPW22183   3.255   9.037   2.389 -0.6727 -1.1511  0.0815
30095WAT      O22184   3.558   0.071   2.783  0.0808 -0.1184 -0.0097
30095WAT     H122185   3.575   0.004   2.850  0.6843  0.1534  0.1168
30095WAT     H222186   3.533   0.021   2.705 -1.2847 -0.4081  0.5970
30095WAT    EPW22187   3.557   0.055   2.781 -0.0199 -0.1208  0.0869
30096WAT      O22188   7.345   0.675   1.384  0.1189  0.9153 -0.4522
30096WAT     H122189   7.427   0.693   1.337 -0.1127  1.1495 -0.7666
30096WAT     H222190   7.342   0.580   1.392  0.3153  0.8951 -0.6283
30096WAT    EPW22191   7.356   0.665   1.379  0.1142  0.9435 -0.5168
30097WAT      O22192   1.920   8.701   1.901  0.5750  0.5854  0.1488
30097WAT     H122193   1.920   8.714   1.995  0.5774  0.7962  0.1212
30097WAT     H222194   1.880   8.782   1.866 -1.1172 -0.2287  0.0758
30097WAT    EPW22195   1.914   8.714   1.908  0.3522  0.5064  0.1355
30098WAT      O22196  10.616   4.335   5.122 -0.0019  0.5550 -0.0389
30098WAT     H122197  10.685   4.391   5.157  1.6151 -0.7797 -0.9672
30098WAT     H222198  10.554   4.326   5.194  1.7869  0.1797  1.5260
30098WAT    EPW22199  10.617   4.342   5.136  0.4473  0.3295  0.0453
30099WAT      O22200   2.048   7.124   2.783 -0.0200 -1.0866 -0.2928
30099WAT     H122201   1.983   7.162   2.723 -0.4456 -1.6632 -0.2006
30099WAT     H222202   1.999   7.064   2.838 -0.0794  1.0384  2.1754
30099WAT    EPW22203   2.033   7.121   2.782 -0.0839 -0.8824  0.0448
30100WAT      O22204   6.331   0.716   0.621 -0.8561 -0.1625  0.2808
30100WAT     H122205   6.283   0.633   0.626 -2.0187  0.4545 -0.1036
30100WAT     H222206   6.378   0.722   0.703 -0.3636 -1.4303  0.1150
30100WAT    EPW22207   6.331   0.705   0.632 -0.9446 -0.2483  0.2082
30101WAT      O22208   1.868   6.703   1.641  0.1121 -0.3453  0.3395
30101WAT     H122209   1.808   6.776   1.628 -0.5644 -0.3695  2.9360
30101WAT     H222210   1.938   6.719   1.577 -1.4558  0.9207 -1.1752
30101WAT    EPW22211   1.870   6.715   1.631 -0.1839 -0.1812  0.4822
30102WAT      O22212  10.168   7.360   4.518 -0.6989  0.5664 -0.5960
30102WAT     H122213  10.156   7.450   4.548  0.8039  0.4301  0.5400
30102WAT     H222214  10.157   7.306   4.596 -0.1827 -0.1086 -0.9696
30102WAT    EPW22215  10.165   7.365   4.532 -0.4320  0.4597 -0.4952
30103WAT      O22216   3.287  10.193   4.600  0.8566 -0.3284 -1.2325
30103WAT     H122217   3.348  10.245   4.653  0.6842 -1.4177  0.0641
30103WAT     H222218   3.339  10.118   4.571 -0.0387 -1.7074  0.5807
30103WAT    EPW22219   3.302  10.190   4.603  0.7159 -0.6537 -0.8225
30104WAT      O22220   1.563   5.404   0.112 -0.3639 -0.0168 -0.1248
30104WAT     H122221   1.488   5.419   0.055 -0.0206  1.4893 -0.2146
30104WAT     H222222   1.636   5.447   0.068  0.2269 -0.1123  0.7316
30104WAT    EPW22223   1.563   5.411   0.099 -0.2407  0.1693 -0.0237
30105WAT      O22224   3.398   0.461   1.994 -0.2888  0.2825 -0.1098
30105WAT     H122225   3.306   0.438   1.984 -0.5675 -0.0175  2.4463
30105WAT     H222226   3.426   0.413   2.072  1.8232  1.0028 -0.3606
30105WAT    EPW22227   3.390   0.451   2.003 -0.0470  0.3379  0.1943
30106WAT      O22228   6.985   1.909   5.660 -0.1609 -0.6796  0.4479
30106WAT     H122229   7.041   1.845   5.619 -1.4176 -2.7390  1.7639
30106WAT     H222230   6.908   1.914   5.603 -0.5058 -1.1143  0.8724
30106WAT    EPW22231   6.982   1.901   5.647 -0.3722 -1.0086  0.6773
30107WAT      O22232   0.859   9.481   0.692 -0.8895 -0.4307  0.4802
30107WAT     H122233   0.914   9.404   0.677 -1.0175 -0.3544 -0.4167
30107WAT     H222234   0.894   9.548   0.634  0.6759  0.9686  2.8706
30107WAT    EPW22235   0.871   9.480   0.682 -0.7000 -0.2365  0.6773
30108WAT      O22236   2.201   8.082   5.157 -0.0887  0.1111  0.1872
30108WAT     H122237   2.136   8.111   5.221  1.4064  1.3953  1.1805
30108WAT     H222238   2.200   7.986   5.165 -1.6551  0.1049  0.3373
30108WAT    EPW22239   2.192   8.073   5.166 -0.0981  0.2794  0.3378
30109WAT      O22240   6.963   0.781   3.246  0.2374 -0.3238  0.0187
30109WAT     H122241   7.028   0.849   3.227  0.0843  0.6537  2.6348
30109WAT     H222242   6.960   0.776   3.341 -2.8885 -0.9500 -0.0054
30109WAT    EPW22243   6.971   0.789   3.256 -0.1950 -0.2775  0.3606
30110WAT      O22244   4.090   7.885   0.594  0.0090 -0.2285  0.5471
30110WAT     H122245   4.002   7.894   0.557 -0.0189 -0.4184  0.5643
30110WAT     H222246   4.106   7.968   0.639 -0.4723 -0.4871  1.2121
30110WAT    EPW22247   4.080   7.897   0.595 -0.0582 -0.2878  0.6370
30111WAT      O22248   1.670  10.063   2.222 -0.4324 -0.1451  0.0915
30111WAT     H122249   1.625  10.140   2.187  0.1367  0.7238  1.1907
30111WAT     H222250   1.732  10.038   2.154 -2.2054 -1.0981 -1.2700
30111WAT    EPW22251   1.672  10.070   2.209 -0.5912 -0.1564  0.0569
30112WAT      O22252   0.684   2.545   8.315  0.2431  0.1199 -0.4039
30112WAT     H122253   0.634   2.584   8.387 -0.4301  1.1280 -1.3842
30112WAT     H222254   0.769   2.525   8.354  0.0082  0.9435  0.5933
30112WAT    EPW22255   0.688   2.548   8.330  0.1233  0.3614 -0.4015
30113WAT      O22256   0.263   9.027   6.060  1.2445  0.3609  0.9403
30113WAT     H122257   0.175   9.010   6.095  1.0522  0.8991  0.7431
30113WAT     H222258   0.304   9.083   6.126  1.7314 -0.5375  1.4080
30113WAT    EPW22259   0.257   9.032   6.073  1.2834  0.3133  0.9758
30114WAT      O22260   0.792  10.213   5.015 -0.5006  0.1974 -0.4331
30114WAT     H122261   0.734  10.137   5.021  1.7391 -1.6794 -1.1625
30114WAT     H222262   0.866  10.183   4.962  1.6860  2.0860  1.3208
30114WAT    EPW22263   0.794  10.199   5.009  0.0832  0.1993 -0.2983
30115WAT      O22264   9.180   0.415   2.121  0.4113 -0.0696 -0.2222
30115WAT     H122265   9.219   0.477   2.058  1.2400 -0.2464  0.1004
30115WAT     H222266   9.201   0.452   2.207 -3.5358  1.9469  0.0725
30115WAT    EPW22267   9.188   0.428   2.124  0.0000  0.1731 -0.1409
30116WAT      O22268   8.146   6.355   8.281  0.3527  0.1813 -0.4117
30116WAT     H122269   8.149   6.313   8.195 -2.9147 -0.5798 -0.2605
30116WAT     H222270   8.159   6.448   8.262  3.1510 -0.2760 -1.2401
30116WAT    EPW22271   8.148   6.362   8.267  0.2909  0.0205 -0.5012
30117WAT      O22272   3.623  10.041   0.880 -0.5089 -0.2110 -0.3748
30117WAT     H122273   3.548  10.012   0.828 -2.2708  1.6505  0.9533
30117WAT     H222274   3.589  10.047   0.969  1.1820  0.8252  0.2465
30117WAT    EPW22275   3.608  10.038   0.885 -0.5182  0.1707 -0.1177
30118WAT      O22276   0.167   8.251   2.259 -0.1553  0.7083 -0.6337
30118WAT     H122277   0.200   8.190   2.325  1.7750 -0.2031 -2.3409
30118WAT     H222278   0.223   8.237   2.183 -0.4082  3.7891 -1.5202
30118WAT    EPW22279   0.178   8.241   2.258  0.0659  0.9942 -0.9758
30119WAT      O22280   0.445   7.295   3.307 -0.2367 -0.7520 -0.0134
30119WAT     H122281   0.481   7.271   3.221 -0.3554  1.4984 -0.7499
30119WAT     H222282   0.352   7.272   3.302  0.3757 -3.9760  0.8936
30119WAT    EPW22283   0.438   7.288   3.295 -0.1716 -0.8802  0.0091
30120WAT      O22284   1.613   6.074   5.837 -0.3334  0.1931  0.1424
30120WAT     H122285   1.602   6.116   5.751  0.0551 -1.2447 -0.6489
30120WAT     H222286   1.644   6.144   5.894 -0.2470  1.1055 -0.9822
30120WAT    EPW22287   1.615   6.089   5.833 -0.2708  0.1240 -0.1104
30121WAT      O22288   8.834   9.658   4.604 -0.1334 -0.3606 -0.4908
30121WAT     H122289   8.798   9.569   4.604  0.9027 -0.8573  2.2431
30121WAT     H222290   8.861   9.672   4.513  0.3234 -3.1275 -0.8883
30121WAT    EPW22291   8.833   9.648   4.592  0.0639 -0.7911 -0.1826
30122WAT      O22292   9.398   9.914   3.845 -0.6180 -0.0104  0.7206
30122WAT     H122293   9.438   9.925   3.758 -0.2211 -0.3687  0.8551
30122WAT     H222294   9.307   9.890   3.827 -0.4959 -0.2401  0.4002
30122WAT    EPW22295   9.392   9.912   3.831 -0.5493 -0.0882  0.6961
30123WAT      O22296  10.332   5.654   4.020 -0.2057  0.9108  0.4060
30123WAT     H122297  10.418   5.671   3.981 -0.7304  0.5907 -0.9687
30123WAT     H222298  10.350   5.639   4.113  1.1209  1.6233  0.2849
30123WAT    EPW22299  10.346   5.654   4.027 -0.1001  0.9625  0.2089
30124WAT      O22300   9.739   6.768   5.696 -0.0179 -0.0004  0.7490
30124WAT     H122301   9.714   6.848   5.743 -0.7503  0.8756 -1.0088
30124WAT     H222302   9.658   6.741   5.652  0.5414 -0.9932  0.3032
30124WAT    EPW22303   9.725   6.775   5.697 -0.0415 -0.0160  0.4585
30125WAT      O22304   2.324   9.312   1.232 -0.0553  0.6419 -0.6186
30125WAT     H122305   2.392   9.299   1.165 -0.0645  0.2734 -0.5607
30125WAT     H222306   2.357   9.383   1.286  0.1527  0.6568 -0.7615
30125WAT    EPW22307   2.338   9.319   1.230 -0.0290  0.5956 -0.6298
30126WAT      O22308   1.020   9.908   3.739  0.3331  0.0582 -0.4735
30126WAT     H122309   1.092   9.968   3.720  0.1927  0.3613 -0.0694
30126WAT     H222310   0.999   9.869   3.654 -0.3158  1.4056 -0.9651
30126WAT    EPW22311   1.027   9.911   3.725  0.2289  0.2756 -0.4852
30127WAT      O22312   5.580   8.896   2.320  0.2583 -0.2805 -0.2647
30127WAT     H122313   5.542   8.859   2.399 -1.2819 -3.1676 -2.1913
30127WAT     H222314   5.520   8.871   2.250  3.5374 -1.5044 -2.9437
30127WAT    EPW22315   5.567   8.888   2.321  0.4876 -0.8221 -0.8720
30128WAT      O22316   1.911   9.904   2.697 -0.5127  0.0855  1.2298
30128WAT     H122317   1.904   9.988   2.743 -2.0643  0.4419  0.4014
30128WAT     H222318   1.979   9.918   2.631 -1.1350  0.8719  0.7474
30128WAT    EPW22319   1.919   9.917   2.694 -0.7995  0.2360  1.0570
30129WAT      O22320   1.230   8.243   5.748  0.5679  0.8700 -0.3722
30129WAT     H122321   1.161   8.252   5.814 -0.1791 -1.7266 -0.6856
30129WAT     H222322   1.304   8.293   5.784  0.1562 -0.3325  2.4328
30129WAT    EPW22323   1.231   8.251   5.761  0.4150  0.3681 -0.0434
30130WAT      O22324   2.879   8.382   2.276 -0.4936  0.0397  0.2650
30130WAT     H122325   2.904   8.308   2.330  0.1733 -0.1436 -0.2806
30130WAT     H222326   2.922   8.366   2.192 -2.6775 -0.4448 -0.8422
30130WAT    EPW22327   2.888   8.370   2.272 -0.6936 -0.0486  0.0471
30131WAT      O22328   7.042   1.295   3.886 -0.2637 -0.7603 -0.9271
30131WAT     H122329   6.997   1.373   3.921  0.5025 -0.0615 -1.4502
30131WAT     H222330   7.089   1.328   3.809  1.8608 -1.2524  0.0792
30131WAT    EPW22331   7.042   1.310   3.880  0.1173 -0.7330 -0.8634
30132WAT      O22332   3.126   6.598   3.494 -0.3549  0.6924  0.2397
30132WAT     H122333   3.146   6.677   3.444  0.0773  0.5213  0.1367
30132WAT     H222334   3.081   6.630   3.572 -1.3156  0.9439 -0.3940
30132WAT    EPW22335   3.123   6.613   3.497 -0.4247  0.7031  0.1426
30133WAT      O22336   3.796   5.575   0.440 -0.2230 -0.3727 -0.0878
30133WAT     H122337   3.724   5.613   0.490 -0.6285 -0.8253 -0.3097
30133WAT     H222338   3.844   5.522   0.503 -0.5294 -0.6661 -0.0990
30133WAT    EPW22339   3.792   5.573   0.455 -0.3169 -0.4714 -0.1185
30134WAT      O22340   9.238   4.719   1.759  0.1449 -0.1136  0.3228
30134WAT     H122341   9.156   4.766   1.742 -0.5138 -1.3053  0.0594
30134WAT     H222342   9.278   4.767   1.832 -0.9564  0.2992  0.6817
30134WAT    EPW22343   9.232   4.731   1.767 -0.0873 -0.2162  0.3353
30135WAT      O22344   2.051   9.531   2.259 -0.4162  0.1069  0.7596
30135WAT     H122345   2.027   9.527   2.352  0.6245  0.0500  1.0399
30135WAT     H222346   2.058   9.440   2.232 -0.4978  0.1219  0.6894
30135WAT    EPW22347   2.049   9.519   2.268 -0.2896  0.1011  0.7873
30136WAT      O22348   1.507   7.441   6.529 -0.3199 -0.4029 -0.4111
30136WAT     H122349   1.515   7.513   6.593 -3.9753  1.0834 -1.3939
30136WAT     H222350   1.505   7.485   6.444  3.0224 -2.2472 -1.6219
30136WAT    EPW22351   1.508   7.457   6.527 -0.3613 -0.4501 -0.7002
30137WAT      O22352   1.199   8.781   4.551  0.9456 -0.3202 -0.2272
30137WAT     H122353   1.164   8.835   4.623 -0.1524 -0.4434 -0.6550
30137WAT     H222354   1.164   8.694   4.568  0.2482 -0.2438 -1.1774
30137WAT    EPW22355   1.190   8.777   4.563  0.7088 -0.3266 -0.4089
30138WAT      O22356   1.389   9.258   1.947  0.0081 -0.3330  0.2371
30138WAT     H122357   1.309   9.296   1.911  0.6893 -0.2927 -1.3289
30138WAT     H222358   1.402   9.177   1.896  1.6983  0.3752 -0.5437
30138WAT    EPW22359   1.380   9.252   1.935  0.3208 -0.2341 -0.0724
30139WAT      O22360   1.434   7.369   1.842  0.0076 -0.4434 -0.0381
30139WAT     H122361   1.426   7.464   1.835 -1.3978 -0.5882 -0.8289
30139WAT     H222362   1.476   7.342   1.760  0.9115 -0.4658  0.4240
30139WAT    EPW22363   1.439   7.378   1.830 -0.0585 -0.4654 -0.0814
30140WAT      O22364   0.810   6.633   2.180  0.2997 -0.9751  0.1259
30140WAT     H122365   0.841   6.709   2.131  1.6737 -2.9272 -2.2889
30140WAT     H222366   0.838   6.649   2.270 -0.3965  1.7764 -0.0546
30140WAT    EPW22367   0.818   6.645   2.185  0.3891 -0.8698 -0.2164
30141WAT      O22368   3.344   9.707   1.754 -0.3934  0.0335 -0.2252
30141WAT     H122369   3.350   9.631   1.695 -2.4931  0.1359 -0.6659
30141WAT     H222370   3.288   9.769   1.706 -0.0268  1.1908  0.8060
30141WAT    EPW22371   3.337   9.705   1.740 -0.6219  0.1998 -0.1473
30142WAT      O22372   4.961   5.708   2.443  0.3378 -0.3263 -0.0799
30142WAT     H122373   5.003   5.643   2.499 -0.6931  0.1726  1.3193
30142WAT     H222374   4.890   5.744   2.496 -1.6695 -0.8756 -2.2338
30142WAT    EPW22375   4.957   5.704   2.457 -0.0627 -0.3328 -0.1794
30143WAT      O22376   1.048   5.708   3.284 -0.5241 -0.0370 -0.1797
30143WAT     H122377   1.115   5.738   3.223  1.4284 -0.4269  1.6363
30143WAT     H222378   0.984   5.662   3.230  1.1138 -0.3824 -1.9114
30143WAT    EPW22379   1.048   5.706   3.269 -0.0507 -0.1338 -0.1687
30144WAT      O22380   9.092   5.058   7.758  0.0398  0.9759 -0.4594
30144WAT     H122381   9.113   5.065   7.851  1.0609  1.5027 -0.7156
30144WAT     H222382   9.145   4.985   7.727 -0.3175  0.7868 -0.6285
30144WAT    EPW22383   9.102   5.050   7.766  0.1273  1.0202 -0.5155
30145WAT      O22384   0.690   7.296   7.867  0.6228 -0.1303  0.1280
30145WAT     H122385   0.722   7.279   7.955 -0.2138 -1.1727  0.2402
30145WAT     H222386   0.681   7.210   7.827 -0.9435  0.2000 -0.2847
30145WAT    EPW22387   0.693   7.283   7.873  0.3059 -0.2241  0.0885
30146WAT      O22388   7.903   1.385   1.436 -0.6509  0.6502 -0.2680
30146WAT     H122389   7.869   1.381   1.526  0.0327  0.4502 -0.0097
30146WAT     H222390   7.990   1.423   1.446  0.7194 -2.1684 -0.4515
30146WAT    EPW22391   7.910   1.389   1.449 -0.3800  0.2521 -0.2581
30147WAT      O22392   2.915   8.476   0.190  0.2782  0.3742  0.0218
30147WAT     H122393   2.866   8.486   0.271 -1.2312  2.4547 -1.0394
30147WAT     H222394   2.853   8.434   0.130  0.5335  1.0579 -0.7307
30147WAT    EPW22395   2.900   8.472   0.193  0.1129  0.7381 -0.2175
30148WAT      O22396   3.308   9.334   1.831  0.2285 -0.2580  0.4203
30148WAT     H122397   3.290   9.245   1.861 -2.9338  0.5509  1.3022
30148WAT     H222398   3.244   9.349   1.761  2.7906  0.3399 -1.9830
30148WAT    EPW22399   3.297   9.325   1.825  0.1494 -0.0720  0.2196
30149WAT      O22400   2.595   7.042   1.031  0.2767 -0.1469  0.4132
30149WAT     H122401   2.516   7.095   1.045  0.3317 -0.4769  2.3402
30149WAT     H222402   2.578   6.993   0.950 -1.8900 -0.8389  1.2127
30149WAT    EPW22403   2.582   7.042   1.022 -0.0020 -0.2818  0.7728
30150WAT      O22404   4.198   8.117   6.536  0.1904  0.4307  0.5497
30150WAT     H122405   4.237   8.049   6.590  1.1246  1.5983  1.3913
30150WAT     H222406   4.273   8.159   6.493 -0.3898  0.7742 -0.1465
30150WAT    EPW22407   4.213   8.114   6.537  0.2372  0.6304  0.5689
30151WAT      O22408   5.317   0.004   2.332  0.4370 -0.1352  0.2934
30151WAT     H122409   5.382  -0.066   2.337 -0.7725 -1.1617  4.0683
30151WAT     H222410   5.356   0.076   2.382 -0.3623  0.1008  0.5843
30151WAT    EPW22411   5.331   0.004   2.339  0.1719 -0.2394  0.8296
30152WAT      O22412   6.254   2.055   0.495 -0.3417  0.3620 -0.1812
30152WAT     H122413   6.204   2.071   0.415 -1.3239 -0.0103  0.3453
30152WAT     H222414   6.335   2.014   0.464 -1.4406 -1.4054 -0.8943
30152WAT    EPW22415   6.258   2.052   0.480 -0.6166  0.0796 -0.2058
30153WAT      O22416   7.071   3.046   0.266  0.1547  0.0361 -0.3637
30153WAT     H122417   7.040   3.136   0.256  0.0365  0.0293 -0.0702
30153WAT     H222418   7.131   3.033   0.193 -0.2011  0.1953 -0.6860
30153WAT    EPW22419   7.075   3.056   0.255  0.0923  0.0561 -0.3675
30154WAT      O22420   9.466   4.508   7.836 -0.2519 -0.5051  0.3538
30154WAT     H122421   9.520   4.534   7.761  1.3561 -0.8349  1.3340
30154WAT     H222422   9.412   4.585   7.855  0.9638  0.4022  0.2411
30154WAT    EPW22423   9.466   4.521   7.829  0.1206 -0.4292  0.4685
30155WAT      O22424   5.617   9.661   2.510  0.4241  0.2576 -0.2114
30155WAT     H122425   5.558   9.591   2.481  2.3533 -0.8754 -1.5697
30155WAT     H222426   5.608   9.729   2.443  0.6248  0.1121 -0.3851
30155WAT    EPW22427   5.608   9.661   2.497  0.7050  0.0887 -0.4135
30156WAT      O22428   3.441   9.697   5.316  0.6208  0.2079 -0.3185
30156WAT     H122429   3.450   9.616   5.367 -1.8477  0.1645  0.1543
30156WAT     H222430   3.351   9.725   5.331  0.8094  1.9806 -2.0878
30156WAT    EPW22431   3.431   9.690   5.325  0.3200  0.4358 -0.4897
30157WAT      O22432   7.803   1.759   1.494  0.0453 -0.1146  0.1138
30157WAT     H122433   7.893   1.729   1.497 -0.6413 -2.2204  1.4840
30157WAT     H222434   7.763   1.709   1.422 -0.5285 -0.7644  0.8686
30157WAT    EPW22435   7.809   1.749   1.485 -0.1211 -0.4781  0.3942
30158WAT      O22436   2.806  10.218   4.470 -0.1882  0.5312 -0.0986
30158WAT     H122437   2.818  10.136   4.519  1.2487 -0.5420 -2.0973
30158WAT     H222438   2.877  10.274   4.501 -0.3584  0.5225  0.3119
30158WAT    EPW22439   2.817  10.214   4.481 -0.0211  0.3886 -0.3078
30159WAT      O22440   6.214   1.152   4.415 -0.5586  0.1201  0.5005
30159WAT     H122441   6.290   1.101   4.444  1.2187  1.7682 -0.9560
30159WAT     H222442   6.144   1.088   4.404  1.7731 -2.2044 -2.1106
30159WAT    EPW22443   6.215   1.137   4.418 -0.0167  0.0309 -0.0360
30160WAT      O22444   1.176   4.529   6.278  0.2560 -0.0692 -0.0747
30160WAT     H122445   1.185   4.502   6.369  1.7990  1.1631  0.1743
30160WAT     H222446   1.174   4.625   6.281  0.5283 -0.0036 -1.3497
30160WAT    EPW22447   1.177   4.538   6.290  0.4955  0.1018 -0.2098
30161WAT      O22448   3.072   8.658   2.894  0.1248 -0.3237  0.4035
30161WAT     H122449   3.131   8.700   2.957 -0.5903  0.9713  0.2415
30161WAT     H222450   3.073   8.717   2.818 -0.9532 -0.5736  0.1892
30161WAT    EPW22451   3.080   8.671   2.892 -0.1117 -0.1855  0.3539
30162WAT      O22452   9.894   0.422   8.049  0.3021 -0.5557 -0.4606
30162WAT     H122453   9.855   0.334   8.045  0.2429 -0.4922 -1.7689
30162WAT     H222454   9.829   0.475   8.095 -0.4077 -0.8354 -1.1240
30162WAT    EPW22455   9.880   0.417   8.055  0.1998 -0.5842 -0.7205
30163WAT      O22456   0.254   4.965   8.555  0.2410  0.2648  0.1249
30163WAT     H122457   0.163   4.996   8.561  0.5736  1.2089  0.5870
30163WAT     H222458   0.273   4.964   8.461  0.0812  1.1146  0.0710
30163WAT    EPW22459   0.244   4.969   8.543  0.2638  0.5012  0.1788
30164WAT      O22460   5.785   0.946   1.413 -0.2746  1.1979 -0.4787
30164WAT     H122461   5.853   0.891   1.375  0.3429  1.2970  0.4438
30164WAT     H222462   5.823   1.034   1.415 -0.4274  1.2558  0.0338
30164WAT    EPW22463   5.799   0.950   1.409 -0.2131  1.2186 -0.2894
30165WAT      O22464   3.847   8.628   1.012 -0.2333  0.7834  0.1626
30165WAT     H122465   3.785   8.668   1.073 -0.3396  1.1328 -0.1765
30165WAT     H222466   3.909   8.698   0.992 -0.4659  0.8060 -0.4961
30165WAT    EPW22467   3.847   8.642   1.018 -0.2781  0.8326  0.0309
30166WAT      O22468  10.928  10.239   2.952 -0.2883  0.0868 -0.4901
30166WAT     H122469  10.920  10.189   3.033 -0.1274  0.3568 -0.3036
30166WAT     H222470  10.992  10.191   2.900  0.8787  0.8000  0.2366
30166WAT    EPW22471  10.936  10.226   2.956 -0.1135  0.2160 -0.3697
30167WAT      O22472   4.941   1.277   3.370  0.0657  0.0652 -0.0933
30167WAT     H122473   4.957   1.243   3.282  2.0387  1.2588 -0.2609
30167WAT     H222474   5.024   1.263   3.416 -0.1825  1.5039  0.8668
30167WAT    EPW22475   4.954   1.270   3.364  0.2930  0.4124  0.0113
30168WAT      O22476   9.947   0.839   4.103  0.0767  0.2600 -0.2070
30168WAT     H122477   9.886   0.850   4.177 -1.3663  1.6298 -1.5219
30168WAT     H222478   9.998   0.761   4.125  0.2397  1.0351  2.5876
30168WAT    EPW22479   9.946   0.830   4.116 -0.0925  0.5429 -0.0122
30169WAT      O22480   4.232   8.970   1.475  0.5113  0.4099 -0.1799
30169WAT     H122481   4.161   8.985   1.536 -0.1040 -1.4933 -0.3466
30169WAT     H222482   4.191   8.970   1.389  0.6615 -0.8093 -0.2709
30169WAT    EPW22483   4.217   8.972   1.471  0.4499 -0.0024 -0.2138
30170WAT      O22484   4.465   0.246   2.022  0.8865  0.7041  0.6045
30170WAT     H122485   4.379   0.215   2.049 -0.3843  1.3156 -2.3696
30170WAT     H222486   4.517   0.247   2.103 -2.0389  0.9280  2.6234
30170WAT    EPW22487   4.461   0.242   2.036  0.3331  0.8143  0.4784
30171WAT      O22488   7.908   8.382   1.890  0.0661 -0.3330 -0.1586
30171WAT     H122489   7.898   8.477   1.888 -0.4325 -0.3963 -1.0378
30171WAT     H222490   7.893   8.354   1.800  1.1717 -1.1544 -0.1054
30171WAT    EPW22491   7.905   8.391   1.878  0.1462 -0.4492 -0.2676
30172WAT      O22492   6.103   9.109   1.185 -0.0193 -0.6251  0.5251
30172WAT     H122493   6.015   9.089   1.218 -0.4933  0.2448 -0.1928
30172WAT     H222494   6.120   9.198   1.215 -0.6426  0.3710 -1.9140
30172WAT    EPW22495   6.094   9.118   1.193 -0.1640 -0.3791  0.1088
30173WAT      O22496   6.686   0.921   6.320  0.4249 -0.0317  0.4089
30173WAT     H122497   6.632   0.952   6.248 -2.0155 -4.4574 -0.0236
30173WAT     H222498   6.750   0.862   6.278  0.0616 -1.3521  1.6186
30173WAT    EPW22499   6.688   0.917   6.305  0.0551 -0.7896  0.5114
30174WAT      O22500   1.880   9.378   0.568 -0.1579 -0.6116 -0.4682
30174WAT     H122501   1.881   9.326   0.648 -0.3433  1.5215  0.9926
30174WAT     H222502   1.879   9.469   0.598 -4.8949  0.4001 -2.7208
30174WAT    EPW22503   1.880   9.383   0.582 -0.8071 -0.1969 -0.5726
30175WAT      O22504   2.236   9.052   3.217  0.0925  0.2855 -0.4730
30175WAT     H122505   2.243   9.142   3.188 -0.0317  0.4912  0.1199
30175WAT     H222506   2.152   9.047   3.262 -0.4578 -0.4314 -1.5463
30175WAT    EPW22507   2.226   9.063   3.219  0.0037  0.2184 -0.5363
30176WAT      O22508  10.012   8.261   3.596  0.4161 -0.4750  0.7750
30176WAT     H122509  10.035   8.352   3.614  0.0527  1.0020 -4.4633
30176WAT     H222510  10.091   8.224   3.556 -1.0747 -0.3880 -2.6013
30176WAT    EPW22511  10.026   8.268   3.593  0.1712 -0.2689 -0.3612
30177WAT      O22512  10.810   7.431   7.713 -0.2382  0.2794 -0.0421
30177WAT     H122513  10.808   7.522   7.682  0.4358 -0.0188 -1.0331
30177WAT     H222514  10.876   7.389   7.658 -1.8485 -1.2672 -0.9330
30177WAT    EPW22515  10.818   7.437   7.701 -0.3614  0.0360 -0.2904
30178WAT      O22516   4.993   6.505   0.956 -0.4089  0.1072 -0.2689
30178WAT     H122517   5.002   6.595   0.924  0.1726  0.2115  0.1673
30178WAT     H222518   5.074   6.462   0.929  0.0379  0.1632  0.9334
30178WAT    EPW22519   5.005   6.511   0.948 -0.2732  0.1285 -0.0528
30179WAT      O22520   3.003   9.616   3.756 -1.0318  0.0138  0.5259
30179WAT     H122521   2.949   9.681   3.802 -1.3399 -0.3034  0.6176
30179WAT     H222522   2.940   9.552   3.723 -0.7540 -0.0909  0.1942
30179WAT    EPW22523   2.987   9.616   3.758 -1.0358 -0.0420  0.4942
30180WAT      O22524   8.151   0.415   1.841  0.0973 -0.0492 -0.4535
30180WAT     H122525   8.215   0.345   1.827  1.4553  0.9799  0.3291
30180WAT     H222526   8.202   0.495   1.834 -0.9570  0.7846  0.9901
30180WAT    EPW22527   8.167   0.416   1.838  0.1378  0.1965 -0.1599
30181WAT      O22528   0.862   8.911   4.541  0.2546 -1.1967 -0.3021
30181WAT     H122529   0.774   8.894   4.508 -0.1121 -0.8787  0.4789
30181WAT     H222530   0.869   8.856   4.619 -0.9817  2.0017  2.3281
30181WAT    EPW22531   0.851   8.902   4.547  0.0432 -0.7324  0.1478
30182WAT      O22532   4.976   3.864   2.061 -0.0103 -0.0327  0.3739
30182WAT     H122533   4.974   3.955   2.033 -0.9437  0.3883  1.7248
30182WAT     H222534   5.056   3.829   2.022  0.1951  1.2695 -0.4264
30182WAT    EPW22535   4.986   3.871   2.052 -0.1063  0.1947  0.4464
30183WAT      O22536   3.562   9.650   2.606 -0.1693  0.6632  0.9310
30183WAT     H122537   3.652   9.640   2.636  0.2577  0.2441 -0.4434
30183WAT     H222538   3.556   9.596   2.527 -2.2321 -1.1129  2.1822
30183WAT    EPW22539   3.573   9.641   2.600 -0.3850  0.3734  0.9147
30184WAT      O22540   0.768   4.921   7.818  0.0099 -0.0208  0.5040
30184WAT     H122541   0.757   4.878   7.903 -0.1501  0.2665  0.6299
30184WAT     H222542   0.826   4.862   7.769 -1.2198 -1.0455  0.2061
30184WAT    EPW22543   0.774   4.907   7.823 -0.1734 -0.1180  0.4814
30185WAT      O22544   6.918   2.162   4.392 -0.1258 -0.0174 -0.2561
30185WAT     H122545   6.941   2.242   4.438 -1.9491 -0.5759  1.7908
30185WAT     H222546   6.878   2.191   4.310  0.3301  1.1236 -0.0813
30185WAT    EPW22547   6.916   2.176   4.387 -0.3061  0.0595  0.0372
30186WAT      O22548   5.571  10.119   1.459 -0.5247  0.7831  0.2950
30186WAT     H122549   5.585  10.111   1.365 -1.0132 -0.5852  0.3230
30186WAT     H222550   5.621  10.048   1.498  0.1868  1.7111  1.1443
30186WAT    EPW22551   5.579  10.109   1.452 -0.4952  0.7253  0.4107
30187WAT      O22552   6.320   2.278   2.605  0.0373  0.7102  0.0561
30187WAT     H122553   6.318   2.345   2.536 -1.2197  1.0131  0.3634
30187WAT     H222554   6.301   2.196   2.559  1.8705  0.4734 -0.3710
30187WAT    EPW22555   6.317   2.276   2.590  0.1132  0.7190  0.0403
30188WAT      O22556   1.943   9.111   4.720  0.5862  0.3745 -0.3081
30188WAT     H122557   1.999   9.059   4.662  1.3820  0.7278  0.1182
30188WAT     H222558   1.980   9.199   4.717  0.3496  0.5046  0.3539
30188WAT    EPW22559   1.955   9.116   4.712  0.6599  0.4382 -0.1645
30189WAT      O22560   7.742   0.265   8.168  0.3356  0.8155 -0.2849
30189WAT     H122561   7.749   0.264   8.263  0.2445  3.0126 -0.2008
30189WAT     H222562   7.748   0.173   8.142 -1.4606 -0.0312  1.9520
30189WAT    EPW22563   7.743   0.253   8.177  0.0865  0.9936  0.0215
30190WAT      O22564   5.289   0.168   2.101 -0.6252 -0.0255  0.6875
30190WAT     H122565   5.384   0.152   2.103 -0.5771  0.1528  0.0039
30190WAT     H222566   5.259   0.140   2.188  0.2847  1.4035  1.4960
30190WAT    EPW22567   5.298   0.162   2.113 -0.4990  0.1865  0.7038
30191WAT      O22568   6.759   2.275   0.823 -0.6951  0.0134  0.2142
30191WAT     H122569   6.747   2.187   0.860  0.5410  0.1169  0.9316
30191WAT     H222570   6.827   2.264   0.757 -0.0299  0.5488  0.7996
30191WAT    EPW22571   6.766   2.262   0.819 -0.4447  0.0979  0.3860
30192WAT      O22572   4.830   8.155   1.214 -0.1370 -0.1766  0.6886
30192WAT     H122573   4.831   8.245   1.183 -1.2681 -0.2393  0.4101
30192WAT     H222574   4.899   8.151   1.280  0.6145  0.6125 -0.0256
30192WAT    EPW22575   4.839   8.166   1.219 -0.1869 -0.0811  0.5577
30193WAT      O22576   4.698   8.649   0.090 -0.2339  0.3755  0.1991
30193WAT     H122577   4.650   8.730   0.107  1.9134  1.3543  2.1091
30193WAT     H222578   4.736   8.625   0.174 -0.9666 -2.8030 -0.2442
30193WAT    EPW22579   4.697   8.657   0.103 -0.0474  0.0858  0.3925
30194WAT      O22580   8.297   2.938   3.336  0.1549  1.0122 -0.0369
30194WAT     H122581   8.391   2.943   3.316 -0.1430  0.5423 -1.7131
30194WAT     H222582   8.255   2.959   3.253 -1.2301 -0.0334  0.3798
30194WAT    EPW22583   8.304   2.942   3.322 -0.0668  0.8124 -0.2029
30195WAT      O22584   6.885   2.037   0.543  1.2808 -0.4411 -0.1771
30195WAT     H122585   6.805   2.053   0.492  1.3893 -1.2154 -0.6028
30195WAT     H222586   6.922   2.124   0.558  0.3088 -0.0621  0.1060
30195WAT    EPW22587   6.879   2.050   0.538  1.1671 -0.4932 -0.1959
30196WAT      O22588   3.713   9.957   1.823 -0.0806  0.3634  0.2491
30196WAT     H122589   3.786   9.912   1.780 -1.3595  0.3822 -2.1268
30196WAT     H222590   3.635   9.926   1.777 -1.4106  1.7770  1.4222
30196WAT    EPW22591   3.712   9.947   1.811 -0.4247  0.5517  0.0905
30197WAT      O22592   3.562   8.958   2.129  0.5355 -0.5261 -0.3561
30197WAT     H122593   3.613   8.906   2.068 -0.4979 -3.3554  1.0107
30197WAT     H222594   3.484   8.983   2.080  0.9152 -0.5105 -0.9598
30197WAT    EPW22595   3.558   8.954   2.114  0.4493 -0.8969 -0.2553
30198WAT      O22596   8.269   0.293   4.100  0.6594 -0.0915 -0.0782
30198WAT     H122597   8.334   0.236   4.060  1.1744  0.9012 -0.7087
30198WAT     H222598   8.209   0.234   4.145  1.0466 -1.1289 -0.8909
30198WAT    EPW22599   8.270   0.278   4.101  0.7787 -0.0974 -0.2685
30199WAT      O22600   5.705   0.839   4.223  0.0029  0.1799 -0.1755
30199WAT     H122601   5.779   0.799   4.268 -2.1683 -0.5442  3.1750
30199WAT     H222602   5.744   0.904   4.165  3.2612 -0.6433  0.8913
30199WAT    EPW22603   5.720   0.843   4.221  0.1464 -0.0242  0.4070
30200WAT      O22604   5.397   1.937   6.341 -0.8149 -0.1155  0.4773
30200WAT     H122605   5.422   1.907   6.253 -0.6284 -0.0799  0.5181
30200WAT     H222606   5.343   2.015   6.325 -1.8295 -0.8252  0.3425
30200WAT    EPW22607   5.393   1.943   6.327 -0.9241 -0.2044  0.4649
30201WAT      O22608   5.399   7.371   4.861 -0.0089 -0.2150 -0.0166
30201WAT     H122609   5.405   7.459   4.825  2.0973  0.7899  2.5129
30201WAT     H222610   5.320   7.371   4.915 -0.2658 -0.0500 -0.3897
30201WAT    EPW22611   5.389   7.382   4.863  0.2351 -0.0608  0.2682
30202WAT      O22612   6.796   2.251   1.538  0.1752 -0.1719  0.4909
30202WAT     H122613   6.800   2.271   1.445  0.6537  1.7743  0.8777
30202WAT     H222614   6.869   2.300   1.576 -0.4550 -0.3289  1.9849
30202WAT    EPW22615   6.806   2.260   1.531  0.1552  0.0641  0.7389
30203WAT      O22616   5.886   9.432   2.627 -0.0118  0.5972  0.9220
30203WAT     H122617   5.919   9.364   2.686 -0.0026 -0.6151 -0.4240
30203WAT     H222618   5.960   9.493   2.618  0.0240  0.7471  2.0427
30203WAT    EPW22619   5.900   9.431   2.634 -0.0060  0.4568  0.8924
30204WAT      O22620   0.634   5.462   8.417  0.0381 -1.1373 -0.6388
30204WAT     H122621   0.561   5.400   8.409 -1.7597  0.3741  2.3907
30204WAT     H222622   0.626   5.517   8.339 -0.6313 -2.3593 -1.4774
30204WAT    EPW22623   0.623   5.461   8.405 -0.2873 -1.0991 -0.3500
30205WAT      O22624  10.634   7.099   8.415  0.2404  0.3954 -0.5769
30205WAT     H122625  10.651   7.183   8.459  0.4822  1.3279 -2.3604
30205WAT     H222626  10.547   7.074   8.444  0.7046  0.5475  1.0477
30205WAT    EPW22627  10.625   7.107   8.425  0.3333  0.5383 -0.5980
30206WAT      O22628   7.377   2.673   2.401 -0.4335 -0.0128 -0.0482
30206WAT     H122629   7.289   2.708   2.414 -0.9371 -0.8967 -0.9155
30206WAT     H222630   7.411   2.718   2.324  0.5684  1.5510  1.2393
30206WAT    EPW22631   7.370   2.683   2.393 -0.3676  0.0769  0.0072
30207WAT      O22632   3.064   8.671   4.899  0.1894  0.1118 -0.4681
30207WAT     H122633   3.031   8.614   4.968 -0.0465  1.4419  0.5699
30207WAT     H222634   2.987   8.717   4.866  0.2668 -0.6508 -1.7911
30207WAT    EPW22635   3.050   8.670   4.904  0.1686  0.1869 -0.5054
30208WAT      O22636   6.780   3.728   2.156  0.2450 -0.2310  0.1155
30208WAT     H122637   6.774   3.633   2.163  1.1422 -0.2727  0.4710
30208WAT     H222638   6.727   3.750   2.079  2.3683 -1.3278 -1.7730
30208WAT    EPW22639   6.772   3.718   2.147  0.6433 -0.3812 -0.0868
30209WAT      O22640   6.576   9.990   1.620  0.2759 -0.3189 -0.4310
30209WAT     H122641   6.565  10.041   1.700  3.1432  0.9342 -0.6953
30209WAT     H222642   6.581  10.056   1.551 -1.1136 -1.3298 -1.5479
30209WAT    EPW22643   6.575  10.006   1.622  0.4709 -0.2871 -0.6132
30210WAT      O22644   7.719   1.613   5.645 -0.1211 -0.6685  0.1372
30210WAT     H122645   7.636   1.597   5.599 -0.1583  1.2273 -0.5684
30210WAT     H222646   7.743   1.528   5.681 -3.2832 -0.9696  1.9286
30210WAT    EPW22647   7.711   1.600   5.644 -0.5434 -0.4581  0.2804
30211WAT      O22648   5.831   6.454   2.836 -0.3061 -0.3108  0.0044
30211WAT     H122649   5.773   6.444   2.911 -1.9759  2.4466 -0.7881
30211WAT     H222650   5.772   6.467   2.762  1.3097 -1.9549 -1.6759
30211WAT    EPW22651   5.815   6.454   2.836 -0.3133 -0.1638 -0.3217
30212WAT      O22652   2.077   9.193   0.478 -0.0184 -0.0437 -0.1174
30212WAT     H122653   2.011   9.260   0.497  0.6199  1.3038 -2.3030
30212WAT     H222654   2.156   9.224   0.524  0.2667  0.7269 -1.0965
30212WAT    EPW22655   2.079   9.206   0.487  0.1035  0.2360 -0.5348
30213WAT      O22656   2.831   8.732   2.041  0.1584 -0.1086  0.1992
30213WAT     H122657   2.859   8.641   2.049 -0.8448 -0.6005 -1.3893
30213WAT     H222658   2.908   8.783   2.067  0.9448 -1.3967  0.5011
30213WAT    EPW22659   2.845   8.727   2.045  0.1298 -0.3433  0.0294
30214WAT      O22660   7.094   0.333   3.714 -0.1140  0.3753 -0.0418
30214WAT     H122661   7.176   0.310   3.758 -0.5224  3.1980  2.5522
30214WAT     H222662   7.045   0.251   3.712  2.1822 -1.0771 -0.3697
30214WAT    EPW22663   7.098   0.319   3.720  0.1352  0.5561  0.2571
30215WAT      O22664   1.052   8.262   1.355 -0.2959  0.5765 -0.0550
30215WAT     H122665   1.120   8.281   1.420 -1.7203  4.0737  0.6225
30215WAT     H222666   1.093   8.282   1.271  0.3657 -0.2484  0.0519
30215WAT    EPW22667   1.067   8.267   1.353 -0.3965  0.9289  0.0485
30216WAT      O22668   1.465   7.580   6.306 -0.6321  0.0590 -0.6476
30216WAT     H122669   1.526   7.654   6.307 -2.0175  1.2760 -1.3342
30216WAT     H222670   1.513   7.509   6.265  1.1467  0.1704  1.0864
30216WAT    EPW22671   1.479   7.580   6.301 -0.5801  0.2341 -0.5095
30217WAT      O22672   4.184  10.048   1.629  0.7386 -0.0968  0.9840
30217WAT     H122673   4.176  10.059   1.534  1.7844 -0.8619  0.7796
30217WAT     H222674   4.116   9.985   1.652  1.4565 -1.0970  0.4671
30217WAT    EPW22675   4.174  10.041   1.619  0.9713 -0.3295  0.8889
30218WAT      O22676   3.908   0.667   1.593  0.8225  0.3131 -0.1557
30218WAT     H122677   3.998   0.663   1.625  1.2757  0.2603 -1.3755
30218WAT     H222678   3.875   0.578   1.602  0.4909  0.5669  1.3529
30218WAT    EPW22679   3.916   0.655   1.599  0.8385  0.3396 -0.1176
30219WAT      O22680   5.677   9.718   0.249 -0.6199 -0.5698 -0.6494
30219WAT     H122681   5.666   9.624   0.238 -1.1156 -0.8035  1.4782
30219WAT     H222682   5.706   9.729   0.339  1.9144  1.1779 -1.5456
30219WAT    EPW22683   5.679   9.707   0.259 -0.3510 -0.3695 -0.4870
30220WAT      O22684   7.412   1.032   1.579 -0.7053 -0.2434  0.2404
30220WAT     H122685   7.395   1.125   1.563 -0.0587 -0.5350 -2.6461
30220WAT     H222686   7.327   0.998   1.608 -1.2936  0.9987  0.0697
30220WAT    EPW22687   7.398   1.040   1.581 -0.6979 -0.1180 -0.1628
30221WAT      O22688   3.415   9.778   4.257 -0.2303  0.2230  0.1139
30221WAT     H122689   3.365   9.806   4.334 -0.7552  1.9689 -0.7917
30221WAT     H222690   3.499   9.822   4.265  0.2845 -0.8034  0.4357
30221WAT    EPW22691   3.419   9.787   4.268 -0.2315  0.3181  0.0372
30222WAT      O22692   3.842   8.143   3.201  0.0837  0.2682  0.9255
30222WAT     H122693   3.826   8.053   3.171  1.3324  0.8125 -1.7554
30222WAT     H222694   3.906   8.134   3.272 -0.0304 -0.9946  0.8879
30222WAT    EPW22695   3.849   8.130   3.206  0.2334  0.1740  0.5671
30223WAT      O22696   5.067   2.066   2.594 -0.5602  0.1161  0.5930
30223WAT     H122697   5.039   2.158   2.586 -2.5243 -0.5932 -1.9475
30223WAT     H222698   5.144   2.060   2.538 -2.3384 -0.3876 -1.9628
30223WAT    EPW22699   5.074   2.077   2.586 -1.0538 -0.0437 -0.0793
30224WAT      O22700   2.553   6.553   1.298 -0.7171 -0.0105  0.7974
30224WAT     H122701   2.568   6.471   1.251 -1.5769 -0.0476  0.5861
30224WAT     H222702   2.501   6.607   1.238 -2.4804 -0.3393  1.9615
30224WAT    EPW22703   2.548   6.550   1.284 -1.0631 -0.0591  0.9230
30225WAT      O22704   2.304   9.461   5.695 -0.6912  0.2345  0.6049
30225WAT     H122705   2.364   9.410   5.641  2.1020  1.5645  2.2033
30225WAT     H222706   2.227   9.405   5.707  0.4038 -1.7666 -1.1774
30225WAT    EPW22707   2.302   9.447   5.690 -0.1786  0.1459  0.5805
30226WAT      O22708   7.322   2.321   3.639  0.3214  0.8682  1.2158
30226WAT     H122709   7.236   2.318   3.597  0.9065  1.9202 -0.1691
30226WAT     H222710   7.361   2.236   3.620  0.3316  1.1035  0.0946
30226WAT    EPW22711   7.316   2.309   3.631  0.4001  1.0380  0.8852
30227WAT      O22712   1.628   4.542   7.454  0.1395  0.3296  0.1234
30227WAT     H122713   1.540   4.546   7.492  0.1958  0.6118  0.2257
30227WAT     H222714   1.665   4.460   7.487 -0.5290 -0.4177 -0.8939
30227WAT    EPW22715   1.621   4.531   7.463  0.0588  0.2682  0.0026
30228WAT      O22716   7.884   0.148   3.267  0.8428 -0.1590 -0.1801
30228WAT     H122717   7.802   0.192   3.288  1.3070  0.1971  0.9905
30228WAT     H222718   7.868   0.106   3.182 -1.2202 -1.7598  0.8892
30228WAT    EPW22719   7.871   0.148   3.259  0.6318 -0.3232  0.1153
30229WAT      O22720   3.548   9.682   5.922  0.3828 -0.5913 -0.1068
30229WAT     H122721   3.518   9.650   6.008  2.2930 -0.7940  0.5257
30229WAT     H222722   3.469   9.680   5.868 -1.1159  0.4313  1.8840
30229WAT    EPW22723   3.534   9.677   5.926  0.4371 -0.4830  0.2391
30230WAT      O22724   4.474   9.431   1.924  0.5096  0.6089 -0.4047
30230WAT     H122725   4.469   9.495   1.853 -0.2472  0.4555 -0.5021
30230WAT     H222726   4.434   9.476   1.999 -0.7600 -0.0171 -0.6859
30230WAT    EPW22727   4.468   9.445   1.925  0.2422  0.5054 -0.4547
30231WAT      O22728   2.961   8.624   0.923  0.5812 -0.2931 -0.6270
30231WAT     H122729   2.979   8.591   0.835 -0.6485  0.1115 -1.0501
30231WAT     H222730   2.951   8.718   0.911 -3.7057 -0.5841 -0.8753
30231WAT    EPW22731   2.962   8.632   0.910 -0.1464 -0.2780 -0.7156
30232WAT      O22732   4.052   2.896   3.002  0.3727  0.3190 -0.1430
30232WAT     H122733   4.136   2.921   2.964 -0.0701  1.4415 -0.4271
30232WAT     H222734   4.033   2.810   2.965  1.0506  0.3683 -0.6230
30232WAT    EPW22735   4.061   2.888   2.992  0.4036  0.4736 -0.2438
30233WAT      O22736   3.480   9.718   5.638 -0.4734 -0.0422 -0.2229
30233WAT     H122737   3.463   9.625   5.627  2.9387 -1.2523  2.9129
30233WAT     H222738   3.571   9.729   5.612  0.3354  1.5638  2.8260
30233WAT    EPW22739   3.490   9.707   5.633  0.0832  0.0100  0.5927
30234WAT      O22740   6.749   1.688   4.937 -0.3944 -0.5843 -0.7115
30234WAT     H122741   6.667   1.711   4.981 -0.4504 -3.7248  1.1774
30234WAT     H222742   6.814   1.692   5.007  0.3426 -1.6742 -1.3169
30234WAT    EPW22743   6.747   1.692   4.952 -0.3047 -1.1423 -0.5422
30235WAT      O22744   9.646   0.375   0.035 -0.4270  0.7466 -0.5850
30235WAT     H122745   9.563   0.388  -0.011 -1.5889 -0.8865  0.9365
30235WAT     H222746   9.687   0.302  -0.011 -2.1637 -1.7391  1.5023
30235WAT    EPW22747   9.641   0.367   0.023 -0.8097  0.2033 -0.1090
30236WAT      O22748   0.769   7.932   2.889  0.3162 -0.3951 -0.2787
30236WAT     H122749   0.766   7.848   2.934 -0.4006 -1.5340 -2.3229
30236WAT     H222750   0.701   7.926   2.822  2.1026  0.7262 -2.3222
30236WAT    EPW22751   0.759   7.920   2.886  0.4573 -0.3974 -0.8178
30237WAT      O22752   7.500   0.128   4.090 -0.1161  0.2020 -0.6480
30237WAT     H122753   7.434   0.186   4.130 -0.5554  0.3768 -1.5804
30237WAT     H222754   7.584   0.163   4.120 -0.4296  0.3532  0.0720
30237WAT    EPW22755   7.502   0.140   4.099 -0.2155  0.2450 -0.6762
30238WAT      O22756   5.939   9.686   3.355  0.2755 -0.3451  0.2289
30238WAT     H122757   6.025   9.728   3.354  0.5734 -0.9298  0.7507
30238WAT     H222758   5.934   9.640   3.272  0.1361  0.3342 -0.1468
30238WAT    EPW22759   5.949   9.686   3.344  0.2961 -0.3328  0.2483
30239WAT      O22760   4.818   0.014   6.146  0.3015  0.9665 -0.1603
30239WAT     H122761   4.803  -0.030   6.062  0.6830  0.0367  0.2418
30239WAT     H222762   4.779  -0.044   6.211  2.1455  0.4324  0.5252
30239WAT    EPW22763   4.811   0.001   6.143  0.5950  0.7730 -0.0167
30240WAT      O22764   2.648   7.478   2.669 -0.3324 -0.3102  0.4860
30240WAT     H122765   2.695   7.506   2.590 -0.6280 -3.9096 -1.1638
30240WAT     H222766   2.562   7.518   2.661 -0.2358 -0.3306 -0.8850
30240WAT    EPW22767   2.643   7.487   2.658 -0.3586 -0.7875  0.0876
30241WAT      O22768   7.874   0.773   3.731  0.8164  0.6281  0.9178
30241WAT     H122769   7.918   0.717   3.667 -1.3874  1.1818 -1.2168
30241WAT     H222770   7.780   0.761   3.713  0.1354  1.5878  3.4140
30241WAT    EPW22771   7.867   0.764   3.721  0.4361  0.8277  0.9655
30242WAT      O22772   3.073   8.085   1.562 -0.6343 -0.6101  0.6741
30242WAT     H122773   3.062   8.174   1.594 -2.4312  0.3339 -2.2341
30242WAT     H222774   3.072   8.093   1.467 -0.1357 -3.6688  0.3118
30242WAT    EPW22775   3.071   8.097   1.554 -0.8056 -0.8888  0.2428
30243WAT      O22776   3.351   6.527   0.690  0.1502 -0.3506 -0.0771
30243WAT     H122777   3.356   6.607   0.741  3.3170  0.1841 -0.9959
30243WAT     H222778   3.346   6.556   0.599 -2.1102 -1.2746 -0.3162
30243WAT    EPW22779   3.351   6.541   0.685  0.2699 -0.4020 -0.2298
30244WAT      O22780   1.569   9.534   2.125 -0.0159  0.1101 -0.6700
30244WAT     H122781   1.567   9.440   2.105 -3.1498  0.2906 -1.9228
30244WAT     H222782   1.590   9.576   2.041 -1.3714  0.5394 -0.8295
30244WAT    EPW22783   1.571   9.527   2.111 -0.6081  0.1903 -0.8564
30245WAT      O22784   3.875   9.217   0.532 -0.4379 -0.1567  0.5218
30245WAT     H122785   3.877   9.121   0.529 -0.4648 -0.2203  1.8602
30245WAT     H222786   3.782   9.239   0.534 -0.4684 -0.0210 -1.0064
30245WAT    EPW22787   3.863   9.207   0.532 -0.4455 -0.1469  0.4967
30246WAT      O22788   1.992   9.006   1.606 -0.6102 -0.4534 -0.6194
30246WAT     H122789   2.046   9.061   1.662 -0.8168  0.0997 -0.9570
30246WAT     H222790   1.905   9.010   1.645 -1.3720  1.9800 -2.3313
30246WAT    EPW22791   1.988   9.014   1.618 -0.7380 -0.0596 -0.8897
30247WAT      O22792   6.579   0.596   3.076 -0.6021  0.1078 -0.0161
30247WAT     H122793   6.635   0.602   2.999 -0.0446  0.2154  0.3988
30247WAT     H222794   6.608   0.668   3.133  0.2714 -1.1143  1.1412
30247WAT    EPW22795   6.590   0.606   3.073 -0.4132 -0.0392  0.1913
30248WAT      O22796   6.316   1.726   1.611 -0.0322  0.2085 -0.0937
30248WAT     H122797   6.330   1.708   1.518  4.0365  1.0131  0.1676
30248WAT     H222798   6.369   1.660   1.656  0.5404  1.6496  1.4739
30248WAT    EPW22799   6.325   1.715   1.605  0.5801  0.5047  0.1475
30249WAT      O22800   5.816   5.299   2.085 -0.4558  0.1353 -0.2498
30249WAT     H122801   5.735   5.285   2.036 -0.3427 -2.6929  0.2211
30249WAT     H222802   5.789   5.295   2.177  0.2678 -1.7415 -0.0745
30249WAT    EPW22803   5.801   5.296   2.090 -0.3452 -0.4849 -0.1646
30250WAT      O22804   3.413   7.168   1.951  0.1811  0.2238  0.0848
30250WAT     H122805   3.455   7.157   2.036 -1.0071  0.7992  0.7859
30250WAT     H222806   3.383   7.080   1.927  0.0575  0.1441  0.5221
30250WAT    EPW22807   3.414   7.155   1.959  0.0080  0.2892  0.2350
30251WAT      O22808   6.778   7.998   4.628  0.2684  0.6601  0.5343
30251WAT     H122809   6.693   8.032   4.601  0.9835  2.0942 -0.0051
30251WAT     H222810   6.822   7.977   4.546  0.6655  0.4831  0.7910
30251WAT    EPW22811   6.772   7.999   4.613  0.4151  0.8259  0.4969
30252WAT      O22812   7.061   1.911   3.201  0.9460  0.9856 -0.0247
30252WAT     H122813   7.098   1.955   3.278 -1.3786  0.9222  1.2047
30252WAT     H222814   7.069   1.818   3.221  1.0179  0.9539 -0.2046
30252WAT    EPW22815   7.067   1.905   3.214  0.6490  0.9730  0.1137
30253WAT      O22816   6.385   2.875   0.575 -0.6053  0.2681 -0.2400
30253WAT     H122817   6.315   2.939   0.588 -1.1984 -0.3202 -0.4811
30253WAT     H222818   6.370   2.840   0.487  0.1545  0.3252 -0.4027
30253WAT    EPW22819   6.374   2.879   0.565 -0.5834  0.1980 -0.2933
30254WAT      O22820   9.414   3.042   0.192  0.1463 -0.6203 -0.2347
30254WAT     H122821   9.322   3.014   0.194 -0.6677  1.8620  0.8495
30254WAT     H222822   9.437   3.043   0.099 -2.4141  2.8826 -1.0249
30254WAT    EPW22823   9.405   3.038   0.180 -0.2985  0.1690 -0.1959
30255WAT      O22824   9.797   0.300   2.779 -0.0530 -0.4054 -1.2053
30255WAT     H122825   9.740   0.377   2.777 -0.6724 -0.8630 -1.6613
30255WAT     H222826   9.752   0.236   2.723  0.3682 -1.1542 -0.7002
30255WAT    EPW22827   9.783   0.301   2.771 -0.0792 -0.5645 -1.1989
30256WAT      O22828   6.632   1.161   2.770 -0.4253 -0.4868  0.6837
30256WAT     H122829   6.609   1.196   2.684  1.0528 -0.8004  0.1196
30256WAT     H222830   6.616   1.067   2.763  2.5170 -1.0288 -0.3575
30256WAT    EPW22831   6.627   1.153   2.758  0.1578 -0.5997  0.4719
30257WAT      O22832   2.398   3.674   0.936  0.6081 -0.7283  0.1743
30257WAT     H122833   2.319   3.643   0.980  1.0324 -0.6479  1.0032
30257WAT     H222834   2.431   3.597   0.890  0.0426 -0.7567 -0.2059
30257WAT    EPW22835   2.392   3.660   0.936  0.5895 -0.7216  0.2335
30258WAT      O22836  10.199   3.595   3.307 -0.0054 -0.4274  0.1843
30258WAT     H122837  10.221   3.502   3.317 -0.2008 -0.3938  0.9699
30258WAT     H222838  10.172   3.603   3.215 -1.1193 -1.3967  0.3972
30258WAT    EPW22839  10.198   3.584   3.296 -0.1783 -0.5509  0.3159
30259WAT      O22840   1.268   9.930   8.613 -0.2343 -0.7943  0.4592
30259WAT     H122841   1.270   9.957   8.521  0.2986 -1.1566  0.3608
30259WAT     H222842   1.356   9.895   8.629 -0.2710 -0.5724  1.1547
30259WAT    EPW22843   1.280   9.929   8.603 -0.1687 -0.8135  0.5379
30260WAT      O22844   0.546   6.080   2.011  0.7014  0.0637 -0.3914
30260WAT     H122845   0.562   6.055   1.920  0.6183  0.9582 -0.6608
30260WAT     H222846   0.534   5.997   2.057 -0.1730 -0.3763 -1.3696
30260WAT    EPW22847   0.547   6.066   2.005  0.5751  0.1235 -0.5560
30261WAT      O22848   9.853   5.179   3.629  0.4761 -0.2418 -0.2015
30261WAT     H122849   9.829   5.169   3.721  1.8818 -1.8245  0.0630
30261WAT     H222850   9.916   5.251   3.628  1.1553 -0.8078  0.2599
30261WAT    EPW22851   9.858   5.187   3.641  0.7510 -0.5255 -0.1056
30262WAT      O22852   0.200   5.903   0.183  0.7714 -0.7232 -0.7039
30262WAT     H122853   0.139   5.877   0.251  0.8475  0.6790 -0.0643
30262WAT     H222854   0.261   5.830   0.175  0.4923 -1.0911  0.4237
30262WAT    EPW22855   0.200   5.890   0.191  0.7447 -0.5865 -0.4708
30263WAT      O22856   7.711   2.749   8.333 -0.3815  0.0152  0.2738
30263WAT     H122857   7.669   2.790   8.257  0.0011 -0.9336 -0.4740
30263WAT     H222858   7.650   2.765   8.405 -1.5251 -0.4046 -0.5592
30263WAT    EPW22859   7.697   2.757   8.332 -0.4818 -0.1655  0.0658
30264WAT      O22860   0.729   9.157   0.692 -0.1417  0.2977  0.7522
30264WAT     H122861   0.688   9.071   0.686 -0.0573  0.2339  1.0734
30264WAT     H222862   0.757   9.177   0.603 -0.2952  0.0562  0.6522
30264WAT    EPW22863   0.728   9.148   0.680 -0.1508  0.2575  0.7814
30265WAT      O22864   0.339   7.559   3.749  0.2657 -1.2085 -0.7387
30265WAT     H122865   0.406   7.496   3.776 -1.2711 -1.8976  1.8546
30265WAT     H222866   0.257   7.510   3.756 -0.8583  0.6925  0.1571
30265WAT    EPW22867   0.337   7.544   3.754 -0.0852 -1.0488 -0.2785
30266WAT      O22868   0.774   3.505   3.961  0.3214  0.0043 -0.4788
30266WAT     H122869   0.728   3.429   3.925  1.3355  0.1363 -2.1967
30266WAT     H222870   0.727   3.580   3.926  0.3553  0.1578 -0.1964
30266WAT    EPW22871   0.762   3.505   3.951  0.4597  0.0420 -0.6682
30267WAT      O22872  10.670   4.702   2.409 -0.6520  0.5018  0.1478
30267WAT     H122873  10.733   4.756   2.361 -1.2686  0.6297 -0.5343
30267WAT     H222874  10.717   4.675   2.488  0.1176  0.9297 -0.1531
30267WAT    EPW22875  10.685   4.705   2.413 -0.6313  0.5751  0.0181
30268WAT      O22876   0.780   7.610   0.592  0.2695 -0.2491 -0.4029
30268WAT     H122877   0.834   7.531   0.604 -0.0986 -0.3160  1.0686
30268WAT     H222878   0.781   7.652   0.678 -0.8369  0.5150 -0.7513
30268WAT    EPW22879   0.787   7.605   0.605  0.0750 -0.1571 -0.2547
30269WAT      O22880   5.514   0.081   8.964 -0.0086 -0.7908 -0.8866
30269WAT     H122881   5.496   0.023   8.890  0.0659 -0.2492 -1.3283
30269WAT     H222882   5.434   0.077   9.017  0.2144 -1.7568 -0.5955
30269WAT    EPW22883   5.501   0.073   8.961  0.0300 -0.8466 -0.9065
30270WAT      O22884   0.363   2.437   0.759 -0.4568  0.4846  0.1895
30270WAT     H122885   0.342   2.346   0.782  1.2846 -0.1497 -0.5935
30270WAT     H222886   0.404   2.432   0.673  0.6390  1.8903  0.5873
30270WAT    EPW22887   0.365   2.424   0.751 -0.0826  0.5864  0.1387
30271WAT      O22888   3.039   7.044   1.536  0.6414 -0.2322 -0.9921
30271WAT     H122889   3.018   7.101   1.610  1.3637  1.5611 -2.0868
30271WAT     H222890   2.955   7.009   1.508  0.1701  0.2903 -0.2748
30271WAT    EPW22891   3.025   7.047   1.542  0.6745  0.0734 -1.0419
30272WAT      O22892   7.890   7.819   1.838  0.5585  1.1290  0.1977
30272WAT     H122893   7.802   7.832   1.873  0.6530 -0.7973  1.2533
30272WAT     H222894   7.947   7.814   1.914  0.9070 -2.1263 -0.1278
30272WAT    EPW22895   7.886   7.820   1.852  0.6168  0.4454  0.2940
30273WAT      O22896   1.199   2.477   0.206  0.0005  0.5233  0.6510
30273WAT     H122897   1.116   2.443   0.239 -1.0809  1.9691 -0.4384
30273WAT     H222898   1.206   2.439   0.118 -1.4672  3.2538 -0.7879
30273WAT    EPW22899   1.189   2.467   0.199 -0.3358  1.0742  0.3175
30274WAT      O22900  10.430   5.931   2.562 -1.2152 -0.4483 -0.2780
30274WAT     H122901  10.488   5.999   2.527  1.1558 -1.2350  1.8159
30274WAT     H222902  10.451   5.853   2.510  1.3346 -1.2803  1.8151
30274WAT    EPW22903  10.440   5.930   2.550 -0.5660 -0.6616  0.2743
30275WAT      O22904   2.115   7.685   7.110 -0.3309 -0.1098 -0.6976
30275WAT     H122905   2.145   7.742   7.180 -0.3609  0.6168 -1.2677
30275WAT     H222906   2.045   7.734   7.068 -2.0136 -1.5569  0.2820
30275WAT    EPW22907   2.110   7.699   7.114 -0.5569 -0.2046 -0.6433
30276WAT      O22908  10.103   6.682   2.869  0.4414  0.4156 -0.8800
30276WAT     H122909  10.192   6.654   2.890  0.2059  1.0974  1.3002
30276WAT     H222910  10.101   6.775   2.890 -1.3576 -0.0486  1.3951
30276WAT    EPW22911  10.115   6.690   2.874  0.1726  0.4444 -0.2923
30277WAT      O22912   5.728   1.339   5.296 -0.1624  0.1342 -0.0365
30277WAT     H122913   5.704   1.250   5.326 -1.3737  0.4975  0.1429
30277WAT     H222914   5.817   1.330   5.263  0.3238 -0.8296  1.4184
30277WAT    EPW22915   5.736   1.326   5.296 -0.2584  0.0550  0.1791
30278WAT      O22916   1.431   3.136   0.057 -0.1111 -0.8611  0.2935
30278WAT     H122917   1.495   3.093   0.113 -0.1125 -1.6160 -0.2574
30278WAT     H222918   1.422   3.077  -0.018  1.2557  0.9678 -1.4252
30278WAT    EPW22919   1.438   3.122   0.054  0.0690 -0.7194 -0.0058
30279WAT      O22920  10.677   0.804   1.325  0.4467  0.4286  0.0812
30279WAT     H122921  10.607   0.786   1.262  0.3050  0.3601  0.2576
30279WAT     H222922  10.750   0.836   1.272  1.0275 -1.5037 -0.3724
30279WAT    EPW22923  10.678   0.805   1.310  0.5045  0.1647  0.0446
30280WAT      O22924   5.881   0.333   8.655 -0.2378  0.5022  0.2079
30280WAT     H122925   5.943   0.358   8.723 -1.5187  0.4130  1.4667
30280WAT     H222926   5.864   0.414   8.606 -2.5526  1.7441  2.7624
30280WAT    EPW22927   5.887   0.347   8.658 -0.7122  0.6543  0.7105
30281WAT      O22928   9.929   5.048   5.050  0.1538 -0.2793  0.0630
30281WAT     H122929   9.917   5.099   5.130  1.0633 -1.0652  0.7168
30281WAT     H222930  10.023   5.057   5.030  0.0987 -0.7803 -0.4409
30281WAT    EPW22931   9.940   5.056   5.058  0.2666 -0.4492  0.0827
30282WAT      O22932   2.278   5.708   0.955  0.3609  0.1757  0.5123
30282WAT     H122933   2.353   5.658   0.923 -1.3597 -1.6089 -1.0082
30282WAT     H222934   2.203   5.672   0.907 -1.4489  2.0791  1.7288
30282WAT    EPW22935   2.278   5.697   0.944 -0.1047  0.1912  0.4722
30283WAT      O22936   9.482   6.746   3.570  0.4714 -0.6990  0.6963
30283WAT     H122937   9.453   6.729   3.660 -0.8682  2.5066  1.0143
30283WAT     H222938   9.401   6.760   3.521  1.2359 -1.0384 -0.7121
30283WAT    EPW22939   9.467   6.746   3.576  0.3958 -0.3209  0.5523
30284WAT      O22940   7.003   0.686   8.033  0.6727  0.1760 -0.2875
30284WAT     H122941   7.043   0.611   8.076  0.5972 -1.0556 -2.2192
30284WAT     H222942   7.057   0.701   7.956  0.0134  1.3784 -0.5471
30284WAT    EPW22943   7.015   0.678   8.028  0.5758  0.1721 -0.5770
30285WAT      O22944   8.451   3.321   8.653  0.3396 -0.1387 -0.5153
30285WAT     H122945   8.528   3.357   8.698 -1.5061  1.2695  1.7272
30285WAT     H222946   8.409   3.398   8.614  0.5089 -1.0201 -2.5674
30285WAT    EPW22947   8.456   3.336   8.654  0.1183 -0.0693 -0.4907
30286WAT      O22948   3.170   9.706   7.658 -0.7023  0.0120 -0.1813
30286WAT     H122949   3.260   9.728   7.636  0.0579 -1.7227  0.9204
30286WAT     H222950   3.117   9.755   7.595  1.0446  0.0086 -1.7536
30286WAT    EPW22951   3.175   9.715   7.647 -0.3716 -0.2174 -0.2434
30287WAT      O22952  10.354   4.757   1.843 -0.2853 -0.9274 -0.1829
30287WAT     H122953  10.325   4.819   1.776 -1.4187 -2.1774 -0.8949
30287WAT     H222954  10.441   4.731   1.815 -0.1328 -0.2919 -0.3212
30287WAT    EPW22955  10.362   4.762   1.830 -0.4144 -1.0080 -0.2950
30288WAT      O22956   9.263   3.426   1.744 -0.1726 -0.1449 -0.2668
30288WAT     H122957   9.287   3.517   1.727 -0.5629 -0.1219 -0.6887
30288WAT     H222958   9.174   3.417   1.712  0.5724 -1.2313 -2.2037
30288WAT    EPW22959   9.254   3.437   1.738 -0.1259 -0.2851 -0.5779
30289WAT      O22960   9.205   5.529   5.763 -0.2389  0.4056  0.3203
30289WAT     H122961   9.287   5.545   5.811 -0.9408  2.5788  0.8928
30289WAT     H222962   9.200   5.434   5.755  2.9956  0.2109 -0.9032
30289WAT    EPW22963   9.215   5.519   5.768  0.0954  0.6664  0.2344
30290WAT      O22964   6.727   0.179   8.500 -0.0296 -0.5431  0.2994
30290WAT     H122965   6.734   0.149   8.409 -0.6930  0.0468  0.0468
30290WAT     H222966   6.772   0.111   8.551 -0.9516 -1.6587 -0.3212
30290WAT    EPW22967   6.734   0.166   8.495 -0.2387 -0.6125  0.1845
30291WAT      O22968  10.213   4.835   2.971 -0.3397  0.1652 -0.3170
30291WAT     H122969  10.206   4.740   2.963 -0.4498  0.2565 -1.4243
30291WAT     H222970  10.122   4.865   2.980 -0.2267  0.0608  1.7162
30291WAT    EPW22971  10.200   4.827   2.971 -0.3395  0.1633 -0.1949
30292WAT      O22972   5.673   9.609   8.492  0.1403 -0.2304 -0.0328
30292WAT     H122973   5.692   9.614   8.586  0.0044  1.9694 -0.0641
30292WAT     H222974   5.758   9.621   8.450 -0.1755  2.2195 -0.1404
30292WAT    EPW22975   5.687   9.611   8.499  0.0806  0.3829 -0.0510
30293WAT      O22976   5.902   1.683   8.705  0.1151 -0.0070 -0.5374
30293WAT     H122977   5.843   1.619   8.744  0.0478 -0.9597 -2.1078
30293WAT     H222978   5.847   1.736   8.648  0.7265 -0.9013 -2.0140
30293WAT    EPW22979   5.887   1.681   8.703  0.1869 -0.2506 -0.9394
30294WAT      O22980   9.286   4.249   1.016  0.1966  0.8411  0.5103
30294WAT     H122981   9.339   4.191   1.070 -1.7510 -3.7370 -1.9228
30294WAT     H222982   9.349   4.288   0.955  1.3114 -1.9458 -0.2980
30294WAT    EPW22983   9.301   4.247   1.015  0.0868 -0.1304  0.0829
30295WAT      O22984   1.708   2.884   4.996 -0.2510  0.4333  0.0140
30295WAT     H122985   1.641   2.860   5.060  0.8248  0.1687  1.0780
30295WAT     H222986   1.723   2.804   4.946 -0.7911  0.5273 -0.3180
30295WAT    EPW22987   1.701   2.870   4.998 -0.1803  0.4108  0.1106
30296WAT      O22988   7.123   0.546   8.550  0.0933  0.1840  0.1428
30296WAT     H122989   7.074   0.608   8.604 -0.7284 -0.7563  0.4961
30296WAT     H222990   7.202   0.527   8.600  0.7074  1.4903 -0.2993
30296WAT    EPW22991   7.127   0.552   8.564  0.0658  0.2323  0.1307
30297WAT      O22992   2.789   8.201   1.880  1.2235 -1.2550 -0.0567
30297WAT     H122993   2.734   8.195   1.802 -1.3984 -2.1667  1.7455
30297WAT     H222994   2.854   8.131   1.869  0.8419 -1.4333 -1.3428
30297WAT    EPW22995   2.791   8.191   1.868  0.8273 -1.3986  0.0113
30298WAT      O22996  10.174   5.351   0.904 -0.0970  0.0401 -0.3033
30298WAT     H122997  10.145   5.262   0.925 -0.8629  0.2193 -0.5605
30298WAT     H222998  10.264   5.356   0.937  0.0684 -0.9367 -0.5848
30298WAT    EPW22999  10.182   5.340   0.911 -0.1760 -0.0651 -0.3743
30299WAT      O23000   9.089   5.760   3.893  0.1126  0.0709  0.0015
30299WAT     H123001   9.124   5.690   3.838  2.7713  0.5581  0.9406
30299WAT     H223002   8.995   5.743   3.896  0.1835 -1.3516 -2.6683
30299WAT    EPW23003   9.081   5.749   3.886  0.4725 -0.0525 -0.2267
30300WAT      O23004   0.140   4.753   1.501  0.8860  0.4452  0.2130
30300WAT     H123005   0.131   4.837   1.456 -0.7550  0.2771  0.1561
30300WAT     H223006   0.220   4.715   1.465  0.1609  0.7599 -1.8581
30300WAT    EPW23007   0.149   4.759   1.490  0.5739  0.4644 -0.0677
30301WAT      O23008  10.752   6.423   1.517  0.1851 -0.1067  0.6190
30301WAT     H123009  10.801   6.392   1.441 -0.2476 -0.7144  0.5872
30301WAT     H223010  10.791   6.509   1.537  2.6970 -1.4114  1.8570
30301WAT    EPW23011  10.764   6.431   1.510  0.4597 -0.3588  0.7781
30302WAT      O23012   1.623   5.601   4.016 -0.2567  0.5661 -0.1851
30302WAT     H123013   1.616   5.507   3.997 -0.5368  0.4827  0.3218
30302WAT     H223014   1.716   5.621   4.001 -0.3626  0.3992 -1.1323
30302WAT    EPW23015   1.634   5.591   4.011 -0.3076  0.5331 -0.2434
30303WAT      O23016   0.196   5.627   1.395 -0.0450 -0.0471  0.0955
30303WAT     H123017   0.225   5.713   1.365 -1.4261  0.3466 -0.1428
30303WAT     H223018   0.157   5.643   1.481 -1.7806 -0.1529 -0.6417
30303WAT    EPW23019   0.195   5.640   1.403 -0.4561 -0.0091 -0.0332
30304WAT      O23020   6.998   1.971   5.312 -0.4301 -0.0938 -0.0570
30304WAT     H123021   7.089   1.951   5.293 -0.0077  1.3054  0.3923
30304WAT     H223022   6.974   2.038   5.248 -1.0637 -0.2476  0.0081
30304WAT    EPW23023   7.007   1.977   5.301 -0.4580  0.0705  0.0107
30305WAT      O23024   1.750   5.878   2.656 -0.0866  0.1294  0.3195
30305WAT     H123025   1.832   5.849   2.618  0.7493  1.6953  0.8195
30305WAT     H223026   1.683   5.825   2.613  1.0993 -0.5189 -0.7896
30305WAT    EPW23027   1.752   5.868   2.645  0.1801  0.2506  0.2391
30306WAT      O23028   0.328   6.595   1.304  0.4015  0.3819  0.1583
30306WAT     H123029   0.240   6.581   1.339  0.3485  1.3267  0.4397
30306WAT     H223030   0.336   6.533   1.232 -1.1507  1.4709 -1.0122
30306WAT    EPW23031   0.318   6.585   1.299  0.1897  0.6502  0.0409
30307WAT      O23032   6.399   5.461   7.917 -0.1542 -0.5157 -0.1830
30307WAT     H123033   6.449   5.384   7.893  2.2616  0.5437  1.0800
30307WAT     H223034   6.308   5.439   7.895  0.6019 -3.2167 -0.9400
30307WAT    EPW23035   6.393   5.448   7.911  0.2644 -0.7322 -0.1163
30308WAT      O23036   1.125   5.654   0.854  0.7718 -0.1113  0.6955
30308WAT     H123037   1.113   5.632   0.761  0.4083  0.0205  0.7081
30308WAT     H223038   1.219   5.663   0.865  0.7395  1.1187  0.0498
30308WAT    EPW23039   1.136   5.652   0.843  0.7195  0.0682  0.6120
30309WAT      O23040   1.801   3.554   0.641 -0.0773 -0.0660  0.9243
30309WAT     H123041   1.727   3.529   0.696  0.0564 -0.9720  0.6989
30309WAT     H223042   1.818   3.478   0.586  1.0598  0.0879  1.0179
30309WAT    EPW23043   1.794   3.541   0.641  0.0903 -0.1651  0.9069
30310WAT      O23044  10.746   1.515   2.664  0.6089  0.2798 -0.2744
30310WAT     H123045  10.657   1.479   2.673  0.1601  0.7223 -2.3049
30310WAT     H223046  10.802   1.454   2.711 -0.6512 -0.5902  0.1436
30310WAT    EPW23047  10.741   1.502   2.671  0.3843  0.2234 -0.4870
30311WAT      O23048   1.999   6.579   2.933 -0.4246  0.5536 -0.0719
30311WAT     H123049   1.938   6.534   2.992 -0.2866  1.4344  0.7581
30311WAT     H223050   2.061   6.510   2.906 -0.6705  0.0718  0.5742
30311WAT    EPW23051   1.999   6.564   2.937 -0.4389  0.6061  0.1228
30312WAT      O23052   0.311   1.827   3.978 -0.8042 -0.3221  0.8241
30312WAT     H123053   0.335   1.902   3.924 -0.7158  1.3144  2.9834
30312WAT     H223054   0.235   1.789   3.934  0.6508 -0.5785 -1.6837
30312WAT    EPW23055   0.305   1.832   3.965 -0.6007 -0.1401  0.7780
30313WAT      O23056   1.072   3.371   1.248 -0.1323  0.2707 -0.0887
30313WAT     H123057   1.130   3.446   1.264 -0.9515  0.6654  1.2393
30313WAT     H223058   0.984   3.407   1.258 -0.6288 -0.3484 -1.9332
30313WAT    EPW23059   1.068   3.386   1.251 -0.3058  0.2412 -0.1568
30314WAT      O23060   0.000   6.438   1.715  0.5064 -0.1524  0.4400
30314WAT     H123061   0.092   6.435   1.688  0.8918 -1.2389  1.7515
30314WAT     H223062  -0.000   6.493   1.794  0.0311 -0.1310  0.4266
30314WAT    EPW23063   0.012   6.445   1.722  0.4945 -0.2928  0.6112
30315WAT      O23064  10.986   4.706   6.500  0.0474 -0.1031 -0.0578
30315WAT     H123065  10.934   4.759   6.560 -0.1665  1.4507 -1.5502
30315WAT     H223066  10.922   4.653   6.452 -0.0096  0.4838 -0.6367
30315WAT    EPW23067  10.971   4.706   6.502  0.0110  0.1793 -0.3312
30316WAT      O23068  10.735   3.104   1.586 -0.6133 -0.2413  0.0544
30316WAT     H123069  10.778   3.175   1.540  1.1234 -0.6915  0.8952
30316WAT     H223070  10.747   3.124   1.679 -4.7192  1.0626  0.5070
30316WAT    EPW23071  10.742   3.116   1.592 -0.9260 -0.1287  0.2251
30317WAT      O23072   7.871   2.167   8.614  0.6069 -0.5545 -0.2460
30317WAT     H123073   7.962   2.144   8.594 -0.1204 -1.3482 -3.1172
30317WAT     H223074   7.821   2.089   8.591 -0.8595 -0.0229  1.0055
30317WAT    EPW23075   7.877   2.154   8.608  0.3173 -0.5891 -0.4597
30318WAT      O23076   0.619   8.211   0.769 -0.0263  0.2524 -0.3077
30318WAT     H123077   0.592   8.177   0.855 -1.3724  2.5382  0.2441
30318WAT     H223078   0.700   8.259   0.787 -0.7376  1.4082 -0.1410
30318WAT    EPW23079   0.626   8.213   0.783 -0.2977  0.7057 -0.2129
30319WAT      O23080  10.028   8.946   4.506 -0.4047 -0.2240  0.2184
30319WAT     H123081  10.118   8.942   4.539  0.5779  0.2244 -2.1645
30319WAT     H223082   9.993   8.858   4.522 -0.5125  0.3264  3.5094
30319WAT    EPW23083  10.035   8.934   4.512 -0.2894 -0.0920  0.3383
30320WAT      O23084  10.621   4.709   1.771  0.1983  0.1378  0.0086
30320WAT     H123085  10.674   4.768   1.825 -0.5941  1.8664 -0.9983
30320WAT     H223086  10.674   4.629   1.764  0.0367 -0.4879  3.8272
30320WAT    EPW23087  10.635   4.706   1.777  0.0720  0.2832  0.3794
30321WAT      O23088   2.302   7.943   1.529  0.0931  0.6697  0.1966
30321WAT     H123089   2.312   7.924   1.436 -0.6304 -2.2516  0.6115
30321WAT     H223090   2.212   7.918   1.549  0.7982 -0.6146  2.0320
30321WAT    EPW23091   2.291   7.937   1.519  0.0905  0.1152  0.4934
30322WAT      O23092   9.811   6.148   3.328  0.6552 -0.0039 -0.4550
30322WAT     H123093   9.744   6.210   3.299 -1.9140 -1.8878  1.0330
30322WAT     H223094   9.851   6.190   3.404 -0.8946  0.0307  0.3983
30322WAT    EPW23095   9.807   6.162   3.334  0.1116 -0.2477 -0.1463
30323WAT      O23096   7.151   1.859   7.194  0.9464  0.3516  0.4258
30323WAT     H123097   7.184   1.948   7.205 -0.9277  1.1907 -0.2487
30323WAT     H223098   7.200   1.824   7.119  0.9052  1.2312 -0.0222
30323WAT    EPW23099   7.162   1.866   7.186  0.6936  0.5782  0.2780
30324WAT      O23100   1.750   3.880   5.430  0.5937 -0.1755  0.3903
30324WAT     H123101   1.713   3.801   5.470  0.3220 -1.1855 -1.7616
30324WAT     H223102   1.677   3.941   5.425  0.5072 -0.2289  0.9039
30324WAT    EPW23103   1.736   3.878   5.435  0.5465 -0.3158  0.1740
30325WAT      O23104   0.580   5.468   0.605 -0.3600 -0.1610 -0.3054
30325WAT     H123105   0.560   5.375   0.602 -3.4456  0.4185 -1.3002
30325WAT     H223106   0.553   5.495   0.693 -0.0411 -0.0762 -0.2310
30325WAT    EPW23107   0.574   5.460   0.616 -0.7249 -0.0734 -0.4268
30326WAT      O23108   9.794   4.414   3.663  0.3406 -0.5257 -0.0033
30326WAT     H123109   9.879   4.419   3.708  0.6864  1.5986 -0.7898
30326WAT     H223110   9.731   4.401   3.734  1.2749 -2.2273  0.5922
30326WAT    EPW23111   9.797   4.413   3.678  0.5093 -0.4702 -0.0286
30327WAT      O23112   0.572   5.959   1.745 -0.5622 -0.0266 -0.5243
30327WAT     H123113   0.646   5.933   1.690 -0.6977 -0.3435 -0.5592
30327WAT     H223114   0.547   5.879   1.791  0.1277  0.4318  0.6981
30327WAT    EPW23115   0.579   5.945   1.744 -0.4891 -0.0076 -0.3676
30328WAT      O23116   9.075   5.232   8.639  0.6353 -0.0870 -0.3589
30328WAT     H123117   9.028   5.191   8.567  1.3942 -0.3467 -0.7141
30328WAT     H223118   9.077   5.165   8.708  2.1932 -0.8259 -1.0699
30328WAT    EPW23119   9.069   5.218   8.639  0.9408 -0.2189 -0.4997
30329WAT      O23120   1.473   4.643   3.475 -0.4993 -0.5239  0.8011
30329WAT     H123121   1.406   4.710   3.465 -1.0776 -1.1591  0.2426
30329WAT     H223122   1.453   4.580   3.405  1.6369  0.0597 -0.4174
30329WAT    EPW23123   1.461   4.643   3.464 -0.2938 -0.5307  0.5667
30330WAT      O23124   8.409   0.318   8.960  0.0808  0.2885  0.2598
30330WAT     H123125   8.425   0.342   8.869  0.5651  1.3984  0.6216
30330WAT     H223126   8.313   0.311   8.966  0.0519  0.1305 -0.3537
30330WAT    EPW23127   8.398   0.321   8.949  0.1407  0.4140  0.2265
30331WAT      O23128  10.212   6.995   1.024  0.3848 -0.2005 -0.1310
30331WAT     H123129  10.174   6.982   1.111 -0.7748 -2.5583 -0.8824
30331WAT     H223130  10.301   6.959   1.031  0.0375 -1.0835 -0.0645
30331WAT    EPW23131  10.219   6.988   1.036  0.1869 -0.6280 -0.2214
30332WAT      O23132   2.618   5.313   4.070  0.1129  0.1209 -0.1349
30332WAT     H123133   2.565   5.393   4.069  1.9397  1.3778 -0.2308
30332WAT     H223134   2.650   5.306   4.160 -1.0349 -1.2374  0.2086
30332WAT    EPW23135   2.615   5.322   4.082  0.2024  0.1075 -0.1023
30333WAT      O23136   0.530   5.990   0.742 -0.8505 -0.5735  0.3047
30333WAT     H123137   0.458   6.034   0.698 -0.4194  1.3045  1.3588
30333WAT     H223138   0.580   6.060   0.784  0.8054 -1.9327  0.7687
30333WAT    EPW23139   0.527   6.005   0.742 -0.5753 -0.5052  0.5049
30334WAT      O23140   4.579  10.308   2.676  0.0784  0.2811  0.5477
30334WAT     H123141   4.641  10.358   2.730  0.2895  1.9591 -1.1568
30334WAT     H223142   4.500  10.361   2.676 -0.4667 -0.5186  0.5232
30334WAT    EPW23143   4.577  10.322   2.683  0.0343  0.3972  0.3197
30335WAT      O23144   8.432   6.125   0.622  0.0751 -0.8483 -0.0394
30335WAT     H123145   8.366   6.069   0.581 -0.3407 -0.3207 -0.1030
30335WAT     H223146   8.384   6.172   0.691  0.0179  0.6619 -1.0687
30335WAT    EPW23147   8.417   6.124   0.626  0.0129 -0.5794 -0.1836
30336WAT      O23148   5.989   2.052   8.641 -0.0439  0.5284 -0.2804
30336WAT     H123149   5.928   2.065   8.568 -0.0596  1.7080 -0.0790
30336WAT     H223150   6.061   2.002   8.604  2.2970  4.9248 -2.4839
30336WAT    EPW23151   5.990   2.047   8.627  0.2627  1.2640 -0.5441
30337WAT      O23152   1.140   7.312   0.323  0.1878  0.1825  0.5575
30337WAT     H123153   1.058   7.304   0.273  0.1291  1.0445  0.5038
30337WAT     H223154   1.205   7.337   0.257  0.6131 -0.9599  0.5136
30337WAT    EPW23155   1.138   7.314   0.308  0.2362  0.1454  0.5447
30338WAT      O23156  10.296   8.932   0.693  0.2369 -0.3542 -0.7884
30338WAT     H123157  10.294   8.862   0.628  1.7466  0.2845 -1.5736
30338WAT     H223158  10.305   9.012   0.641 -0.3822  0.3436  0.1422
30338WAT    EPW23159  10.297   8.933   0.678  0.3538 -0.1779 -0.7692
30339WAT      O23160   3.133   8.779   1.714  0.1986  0.2900  0.2036
30339WAT     H123161   3.147   8.700   1.662  2.0162 -0.6086  1.8822
30339WAT     H223162   3.042   8.774   1.743  0.2166 -1.0896  0.0832
30339WAT    EPW23163   3.123   8.768   1.711  0.4407 -0.0105  0.4091
30340WAT      O23164  10.092   5.558   2.678  0.1966 -0.6361  0.1222
30340WAT     H123165  10.162   5.609   2.636 -1.3132 -0.0557 -1.8082
30340WAT     H223166  10.067   5.493   2.613 -0.6069 -1.3041  1.0579
30340WAT    EPW23167  10.098   5.556   2.664 -0.1082 -0.6478 -0.0092
30341WAT      O23168   1.958   4.216   3.892  0.0792 -0.7423  0.0900
30341WAT     H123169   2.023   4.226   3.962 -0.3232  0.6239  0.2946
30341WAT     H223170   1.909   4.297   3.894 -1.4825 -1.6441 -0.2446
30341WAT    EPW23171   1.960   4.228   3.902 -0.1798 -0.6809  0.0728
30342WAT      O23172   4.838  10.131   8.140  0.0298 -0.2962  0.2002
30342WAT     H123173   4.784  10.123   8.061  0.9778 -1.2353 -0.3743
30342WAT     H223174   4.826  10.048   8.185 -5.0260  1.9948  4.1583
30342WAT    EPW23175   4.829  10.119   8.135 -0.5121 -0.1178  0.6466
30343WAT      O23176   0.612   4.210   3.905 -0.8890  0.3765 -0.2528
30343WAT     H123177   0.702   4.242   3.898  0.0062 -1.6086  1.1755
30343WAT     H223178   0.573   4.261   3.975 -0.4753  0.4407 -0.0683
30343WAT    EPW23179   0.619   4.221   3.913 -0.7163  0.1233 -0.0401
30344WAT      O23180  10.879   5.615   1.423  0.3589 -0.6256  0.3311
30344WAT     H123181  10.942   5.563   1.374 -0.3983 -1.5222  0.2879
30344WAT     H223182  10.924   5.637   1.504  0.8524 -0.9593  0.1508
30344WAT    EPW23183  10.893   5.611   1.427  0.3242 -0.7880  0.3017
30345WAT      O23184   2.464   6.738   3.263  0.1706  0.6459  0.4102
30345WAT     H123185   2.434   6.806   3.203  0.9894  2.2870  1.7856
30345WAT     H223186   2.547   6.770   3.297 -0.6060  0.1939  2.9881
30345WAT    EPW23187   2.471   6.751   3.259  0.1762  0.8028  0.9317
30346WAT      O23188   3.826  10.219   8.833  0.8316  0.0211  0.7770
30346WAT     H123189   3.908  10.173   8.852  0.6169  0.0500  1.8454
30346WAT     H223190   3.838  10.255   8.745  1.9283 -0.0464  0.8913
30346WAT    EPW23191   3.838  10.218   8.824  0.9481  0.0162  0.9327
30347WAT      O23192   2.451   7.701   4.042 -0.5085 -0.4530  0.1820
30347WAT     H123193   2.533   7.652   4.041 -1.0372 -1.4002  1.3063
30347WAT     H223194   2.478   7.792   4.029  0.6565 -0.8241 -0.1162
30347WAT    EPW23195   2.465   7.707   4.040 -0.4245 -0.6270  0.2909
30348WAT      O23196   1.676   4.234   2.399 -0.0028 -0.2010  0.5017
30348WAT     H123197   1.637   4.286   2.328  2.8473 -0.2412 -1.2272
30348WAT     H223198   1.665   4.290   2.477 -0.8971  1.0226 -0.4489
30348WAT    EPW23199   1.670   4.248   2.400  0.2551 -0.0448  0.1484
30349WAT      O23200   6.578   4.809   7.465  0.8062  0.2299  0.3891
30349WAT     H123201   6.671   4.785   7.471  0.8329  0.3122  0.2941
30349WAT     H223202   6.578   4.900   7.436  0.7223  0.6298  1.5745
30349WAT    EPW23203   6.590   4.818   7.462  0.7987  0.2937  0.5329
30350WAT      O23204   0.616   7.695   1.140  0.5290  0.3281  0.5170
30350WAT     H123205   0.664   7.775   1.160 -0.1016  0.6556  0.7475
30350WAT     H223206   0.541   7.696   1.200 -0.0877  0.1293 -0.2277
30350WAT    EPW23207   0.612   7.706   1.150  0.3645  0.3452  0.4492
30351WAT      O23208   9.189   3.074   8.640 -0.4054 -0.3215  0.1225
30351WAT     H123209   9.244   3.062   8.717 -2.2737 -1.5045  1.3775
30351WAT     H223210   9.170   3.168   8.638 -1.5650 -0.4425  2.1039
30351WAT    EPW23211   9.194   3.085   8.650 -0.8049 -0.4935  0.5493
30352WAT      O23212   2.210   6.499   1.343  0.2846 -0.5717 -0.4040
30352WAT     H123213   2.133   6.489   1.286  0.5977  0.2971 -0.9927
30352WAT     H223214   2.248   6.583   1.317  1.6600 -1.1707 -0.3915
30352WAT    EPW23215   2.205   6.509   1.332  0.5074 -0.5362 -0.4799
30353WAT      O23216   0.790   8.263   3.206  0.7210  0.1543  0.3340
30353WAT     H123217   0.848   8.192   3.176  0.2682 -1.3221  2.6774
30353WAT     H223218   0.703   8.238   3.174  0.5049 -0.5748  1.4406
30353WAT    EPW23219   0.786   8.250   3.198  0.6328 -0.1364  0.7892
30354WAT      O23220   0.988   7.337   1.740 -0.1410  0.7348  0.7314
30354WAT     H123221   0.964   7.317   1.649  0.3080 -2.3144  1.1828
30354WAT     H223222   1.009   7.431   1.739 -0.3994  0.8585 -2.2314
30354WAT    EPW23223   0.987   7.347   1.728 -0.1159  0.3488  0.4002
30355WAT      O23224   7.217   4.082   8.951  0.3003 -0.6534 -0.3894
30355WAT     H123225   7.290   4.046   9.002 -0.6411 -3.0968 -0.6497
30355WAT     H223226   7.247   4.080   8.861 -0.0190 -1.5531 -0.4847
30355WAT    EPW23227   7.230   4.077   8.946  0.1340 -1.0943 -0.4363
30356WAT      O23228   0.229   7.435   1.527  0.0944  0.8327 -0.3489
30356WAT     H123229   0.283   7.490   1.583  2.5533 -1.7260  0.0381
30356WAT     H223230   0.180   7.496   1.472  3.3719  3.4439 -0.6827
30356WAT    EPW23231   0.230   7.450   1.527  0.8510  0.8397 -0.3419
30357WAT      O23232   1.077   3.663   0.966 -0.0375  0.6407  0.5571
30357WAT     H123233   1.148   3.695   0.911 -0.2807 -0.5481 -0.5007
30357WAT     H223234   1.008   3.640   0.904 -1.2221  1.4306  1.5395
30357WAT    EPW23235   1.077   3.664   0.951 -0.2258  0.5881  0.5471
30358WAT      O23236   9.756   6.022   0.634 -0.2099 -0.6969  0.2809
30358WAT     H123237   9.795   5.989   0.553  0.6142 -1.7252  1.0777
30358WAT     H223238   9.696   5.952   0.661  0.2716 -0.8080  1.0811
30358WAT    EPW23239   9.753   6.008   0.627 -0.0377 -0.8473  0.4916
30359WAT      O23240   0.543   0.672   4.284 -0.3881  0.4446  0.0597
30359WAT     H123241   0.475   0.714   4.232 -1.1389  0.9813  1.4613
30359WAT     H223242   0.619   0.670   4.225 -1.7583 -0.7947 -1.7792
30359WAT    EPW23243   0.544   0.677   4.269 -0.6678  0.3519  0.0019
30360WAT      O23244   1.808   5.569   0.965 -0.3715 -0.4922 -0.1966
30360WAT     H123245   1.718   5.598   0.978 -0.2034  0.3070 -0.7896
30360WAT     H223246   1.855   5.599   1.043 -0.2912  0.4696 -0.6037
30360WAT    EPW23247   1.802   5.576   0.977 -0.3388 -0.2599 -0.3285
30361WAT      O23248   9.763  10.239   7.237  0.2503 -0.0162 -0.1794
30361WAT     H123249   9.712  10.186   7.297  1.1704  1.5822  2.1909
30361WAT     H223250   9.850  10.199   7.237  0.8369  1.1230  1.3100
30361WAT    EPW23251   9.768  10.227   7.245  0.4492  0.3452  0.3295
30362WAT      O23252   1.538   4.034   2.521  0.1091  0.4976 -0.2702
30362WAT     H123253   1.449   4.062   2.546  0.2007 -0.3136  1.0909
30362WAT     H223254   1.575   4.109   2.475 -1.4206  0.7085 -1.2132
30362WAT    EPW23255   1.531   4.047   2.518 -0.0806  0.4187 -0.2152
30363WAT      O23256   3.685  10.327   8.015 -0.1121  0.4200 -0.0146
30363WAT     H123257   3.744  10.262   8.053 -0.5487  1.6369  3.0705
30363WAT     H223258   3.738  10.374   7.951  0.1751 -2.9234 -2.5644
30363WAT    EPW23259   3.699  10.324   8.012 -0.1316  0.1392  0.0558
30364WAT      O23260   8.678   0.773   7.456 -0.6036  0.5870  0.0314
30364WAT     H123261   8.583   0.777   7.464 -0.6667  0.0899 -0.3850
30364WAT     H223262   8.701   0.684   7.481 -0.3624  0.3883 -0.8637
30364WAT    EPW23263   8.669   0.762   7.460 -0.5803  0.4952 -0.1416
30365WAT      O23264   3.319  10.086   1.687 -0.2818 -0.0691  0.1912
30365WAT     H123265   3.279  10.050   1.766 -1.0734  1.1555  0.3628
30365WAT     H223266   3.410  10.102   1.712  0.1749 -2.1240  0.0328
30365WAT    EPW23267   3.326  10.083   1.701 -0.3260 -0.1788  0.1929
30366WAT      O23268   1.940   6.026   4.111 -0.1561  0.0881  0.1951
30366WAT     H123269   1.966   6.002   4.022  0.3411 -1.1448  0.6509
30366WAT     H223270   2.014   6.077   4.145 -0.9748  1.8734 -0.5800
30366WAT    EPW23271   1.953   6.030   4.104 -0.1985  0.1612  0.1531
30367WAT      O23272  10.217  10.281   0.631  0.0799 -0.0155 -0.3521
30367WAT     H123273  10.144  10.250   0.578 -1.8233  1.4681  1.2677
30367WAT     H223274  10.295  10.261   0.578 -1.4664 -1.4872 -2.2136
30367WAT    EPW23275  10.218  10.275   0.617 -0.3748 -0.0138 -0.3840
30368WAT      O23276   8.121   1.177   7.178  0.3504  0.8288  0.3839
30368WAT     H123277   8.126   1.126   7.259  0.5377  2.6004  1.5465
30368WAT     H223278   8.135   1.113   7.108  0.3764 -0.7172  1.7507
30368WAT    EPW23279   8.124   1.162   7.179  0.3786  0.8585  0.7174
30369WAT      O23280   2.763   8.819   2.414  0.4459  0.3675 -1.0600
30369WAT     H123281   2.688   8.771   2.449  1.7229  0.8911  3.0595
30369WAT     H223282   2.828   8.751   2.395  1.0954  0.0892  1.6607
30369WAT    EPW23283   2.762   8.803   2.416  0.6999  0.4001 -0.1577
30370WAT      O23284   5.565   9.888   8.814 -0.2444 -0.0195 -0.4917
30370WAT     H123285   5.610   9.971   8.827 -1.3865  0.5249  0.1875
30370WAT     H223286   5.634   9.822   8.814  0.8328  1.0261 -2.3294
30370WAT    EPW23287   5.580   9.891   8.816 -0.2527  0.1903 -0.6452
30371WAT      O23288   0.658   7.057   4.399 -0.5463 -0.1887  0.1481
30371WAT     H123289   0.726   6.995   4.424  0.4342  0.3774 -1.0067
30371WAT     H223290   0.609   7.012   4.329 -1.5238 -0.6778  1.1169
30371WAT    EPW23291   0.660   7.043   4.393 -0.5459 -0.1786  0.1235
30372WAT      O23292  10.923   6.322   0.067  0.1166 -0.3560  0.2040
30372WAT     H123293  10.892   6.318  -0.023 -1.4903 -1.5608  0.7571
30372WAT     H223294  10.973   6.242   0.079 -0.4353 -0.6484  0.6208
30372WAT    EPW23295  10.925   6.311   0.057 -0.1674 -0.5536  0.3319
30373WAT      O23296   7.749   2.970   1.774 -0.2014  0.2018  0.1605
30373WAT     H123297   7.717   2.932   1.856  1.3115 -0.7449  0.3513
30373WAT     H223298   7.809   3.039   1.801  1.0639 -0.7615 -0.1001
30373WAT    EPW23299   7.752   2.974   1.788  0.1650 -0.0502  0.1513
30374WAT      O23300   1.414   4.062   4.686 -0.1068 -0.8958 -0.2964
30374WAT     H123301   1.341   4.018   4.731 -0.9888  0.2083 -0.5917
30374WAT     H223302   1.452   4.120   4.753 -0.0890 -0.7954 -0.3927
30374WAT    EPW23303   1.409   4.064   4.701 -0.2208 -0.7372 -0.3481
30375WAT      O23304   8.593   0.643   1.678  0.0565 -0.0158  0.1952
30375WAT     H123305   8.499   0.638   1.666  0.0192  0.7608  0.0664
30375WAT     H223306   8.618   0.726   1.637  1.1720 -1.4092 -2.1427
30375WAT    EPW23307   8.584   0.653   1.671  0.1988 -0.0972 -0.1301
30376WAT      O23308   2.408   8.101   2.198 -0.5710 -0.2198 -0.1863
30376WAT     H123309   2.456   8.130   2.276 -0.6116 -0.3118 -0.1268
30376WAT     H223310   2.476   8.064   2.141 -0.8604 -3.0081  1.0772
30376WAT    EPW23311   2.424   8.100   2.201 -0.6144 -0.5999 -0.0118
30377WAT      O23312   0.377   9.524   1.666 -0.3887 -0.4123  0.3278
30377WAT     H123313   0.418   9.581   1.731 -0.0649  0.9853 -1.0412
30377WAT     H223314   0.286   9.516   1.695  0.1786 -1.3546  1.9381
30377WAT    EPW23315   0.370   9.531   1.678 -0.2712 -0.3519  0.3596
30378WAT      O23316  10.398   6.940   2.121  0.2034  0.2736  0.2774
30378WAT     H123317  10.457   7.008   2.152  1.5833 -0.4462 -0.6544
30378WAT     H223318  10.381   6.964   2.030 -0.3220  0.0551  0.3172
30378WAT    EPW23319  10.404   6.952   2.113  0.3161  0.1497  0.1596
30379WAT      O23320   5.644   1.675   8.028  0.0482  0.2926  0.0775
30379WAT     H123321   5.698   1.621   7.970 -0.0261  0.7875 -0.4664
30379WAT     H223322   5.681   1.661   8.115  1.4411  1.0582 -0.3571
30379WAT    EPW23323   5.656   1.666   8.032  0.2220  0.4588 -0.0515
30380WAT      O23324   7.948   0.569   5.895 -0.5465  0.7923 -0.4714
30380WAT     H123325   7.873   0.587   5.839  0.0757 -0.2288 -1.6823
30380WAT     H223326   7.992   0.654   5.904 -1.2560  1.1812 -0.6315
30380WAT    EPW23327   7.944   0.582   5.889 -0.5584  0.7089 -0.6523
30381WAT      O23328   6.127   7.826   7.906 -1.0604  0.4416 -0.1585
30381WAT     H123329   6.156   7.883   7.978  0.0518  0.5382 -0.6603
30381WAT     H223330   6.138   7.880   7.828 -3.1805  0.6816 -0.3446
30381WAT    EPW23331   6.132   7.841   7.905 -1.1933  0.4864 -0.2494
30382WAT      O23332   3.783   7.740   2.202 -0.3913 -0.0623 -0.4589
30382WAT     H123333   3.823   7.734   2.116  0.7622 -1.9855  0.1337
30382WAT     H223334   3.790   7.651   2.238 -1.1213  0.5994  1.4837
30382WAT    EPW23335   3.789   7.727   2.196 -0.3353 -0.2289 -0.1243
30383WAT      O23336   1.428   5.706   2.632  0.0753  0.1333 -0.0869
30383WAT     H123337   1.443   5.801   2.637 -2.7445  0.5877  2.0462
30383WAT     H223338   1.515   5.669   2.618  1.3205  2.9852 -0.6627
30383WAT    EPW23339   1.441   5.714   2.631 -0.1324  0.5693  0.1185
30384WAT      O23340   0.836   5.790   0.358  0.2309  0.5431  0.4476
30384WAT     H123341   0.749   5.753   0.339  0.6767 -0.0603 -0.4889
30384WAT     H223342   0.894   5.714   0.356  0.7974  0.9616  0.9839
30384WAT    EPW23343   0.832   5.775   0.355  0.3645  0.5186  0.3948
30385WAT      O23344   2.443   4.636   4.601  0.6757 -0.0188  0.3827
30385WAT     H123345   2.394   4.559   4.572 -2.0223  2.0756 -1.0178
30385WAT     H223346   2.524   4.632   4.551  0.3359 -1.6186 -0.1181
30385WAT    EPW23347   2.447   4.625   4.591  0.2750  0.0465  0.1318
30386WAT      O23348   1.138   7.220   2.445 -0.4060 -0.4457 -0.1036
30386WAT     H123349   1.182   7.139   2.420 -0.0924  0.0787 -1.3725
30386WAT     H223350   1.195   7.258   2.512  0.3935 -0.4332 -0.7663
30386WAT    EPW23351   1.152   7.214   2.451 -0.2592 -0.3748 -0.3585
30387WAT      O23352   1.569   5.330   3.949 -0.0315 -0.0101  0.5233
30387WAT     H123353   1.513   5.272   3.897 -0.7474  1.9834 -1.0989
30387WAT     H223354   1.648   5.279   3.965 -0.4379 -1.2851 -1.1905
30387WAT    EPW23355   1.572   5.315   3.944 -0.1795  0.0849  0.0833
30388WAT      O23356   2.151   9.210   8.475  0.2909  0.6161 -0.2187
30388WAT     H123357   2.190   9.136   8.428 -1.5209  0.6160 -1.8335
30388WAT     H223358   2.090   9.170   8.537  2.5914  0.6214  2.2432
30388WAT    EPW23359   2.148   9.195   8.477  0.3555  0.6170 -0.1073
30389WAT      O23360   8.647   1.123   8.904 -0.1659 -0.4774  0.3725
30389WAT     H123361   8.596   1.104   8.982  0.7429 -1.5516  0.7326
30389WAT     H223362   8.701   1.045   8.890  1.4014  0.5994  0.0534
30389WAT    EPW23363   8.648   1.110   8.912  0.1612 -0.4770  0.3777
30390WAT      O23364   8.610   7.220   0.768  0.3005  0.4020  0.2732
30390WAT     H123365   8.701   7.243   0.786  1.1425 -0.7985 -1.9783
30390WAT     H223366   8.593   7.143   0.823  0.3540  1.1051  1.2923
30390WAT    EPW23367   8.620   7.213   0.777  0.4187  0.3364  0.1106
30391WAT      O23368   0.551   4.563   1.681  0.2566 -0.0616 -0.0718
30391WAT     H123369   0.514   4.476   1.670  0.2696 -0.2162  1.0760
30391WAT     H223370   0.478   4.617   1.712  0.5865  0.0095  0.5903
30391WAT    EPW23371   0.537   4.559   1.683  0.3018 -0.0725  0.1670
30392WAT      O23372   2.811   1.783   2.902  0.1224 -0.1036  0.4697
30392WAT     H123373   2.824   1.785   2.807  2.2779  1.6952  0.7241
30392WAT     H223374   2.720   1.810   2.915  0.6319  2.5985 -1.0086
30392WAT    EPW23375   2.801   1.787   2.891  0.4740  0.4901  0.3084
30393WAT      O23376   1.653   8.859   0.532  0.0097  0.0767  0.1558
30393WAT     H123377   1.729   8.891   0.580 -0.1529 -0.8519  1.0665
30393WAT     H223378   1.687   8.837   0.445  1.0600 -1.3762  0.8844
30393WAT    EPW23379   1.668   8.860   0.527  0.1268 -0.2375  0.3721
30394WAT      O23380   6.950   4.927   7.393 -0.1174 -0.3587  0.4166
30394WAT     H123381   6.944   4.848   7.338 -2.9009  0.5284 -0.7424
30394WAT     H223382   6.982   4.995   7.333 -1.6129  0.2455  0.2488
30394WAT    EPW23383   6.954   4.925   7.378 -0.6816 -0.1621  0.2415
30395WAT      O23384  10.609   5.180   1.630  0.3264  0.4336 -0.4298
30395WAT     H123385  10.577   5.095   1.661 -2.2495  1.1742 -0.8039
30395WAT     H223386  10.574   5.187   1.541 -0.6426  2.4101  0.0593
30395WAT    EPW23387  10.600   5.169   1.622 -0.1407  0.7918 -0.4146
30396WAT      O23388   3.265   7.512   2.395  0.6384 -0.2507 -0.5911
30396WAT     H123389   3.276   7.581   2.330  0.5219  2.2329  1.8515
30396WAT     H223390   3.341   7.520   2.452 -0.7978 -0.1716  1.4111
30396WAT    EPW23391   3.276   7.522   2.394  0.4336  0.0873 -0.0049
30397WAT      O23392   1.464   8.274   0.907 -0.1374  0.2433 -0.1163
30397WAT     H123393   1.394   8.220   0.871 -0.2883  0.0048  0.5170
30397WAT     H223394   1.419   8.337   0.963  0.1249  0.3099  0.0218
30397WAT    EPW23395   1.449   8.275   0.910 -0.1227  0.2208 -0.0146
30398WAT      O23396   8.866   0.817   8.304 -0.1076  0.3201 -0.2901
30398WAT     H123397   8.886   0.832   8.396  0.7761  0.9339 -0.5670
30398WAT     H223398   8.883   0.902   8.262 -2.2996  0.5974 -0.7441
30398WAT    EPW23399   8.871   0.830   8.310 -0.2799  0.4376 -0.3867
30399WAT      O23400   8.316   4.292   1.685  0.9185  0.3146 -0.4515
30399WAT     H123401   8.396   4.259   1.644  0.4729 -2.3260  0.5729
30399WAT     H223402   8.340   4.304   1.777  0.4644  0.7810 -0.3894
30399WAT    EPW23403   8.329   4.289   1.692  0.8001  0.0279 -0.3082
30400WAT      O23404   3.413   5.860   4.351 -0.4151 -0.3415  0.4464
30400WAT     H123405   3.478   5.791   4.338 -0.9050 -0.7296 -0.0268
30400WAT     H223406   3.439   5.902   4.433  1.8797  1.1578 -0.9519
30400WAT    EPW23407   3.425   5.856   4.360 -0.1769 -0.1950  0.1996
30401WAT      O23408   1.858   8.204   1.736  0.3989  0.0204  0.8186
30401WAT     H123409   1.819   8.247   1.660 -2.6522 -0.4101  2.0263
30401WAT     H223410   1.935   8.257   1.757 -1.0370  2.6006 -0.0478
30401WAT    EPW23411   1.863   8.216   1.729 -0.1929  0.3037  0.8636
30402WAT      O23412  10.558   7.238   3.322  0.9370  0.2110  0.3935
30402WAT     H123413  10.644   7.226   3.283  0.8981 -0.8887  0.6260
30402WAT     H223414  10.573   7.291   3.400  1.5849 -1.0000  1.1127
30402WAT    EPW23415  10.571   7.244   3.327  1.0176 -0.0939  0.5190
30403WAT      O23416   0.461   7.335   2.599  0.4754 -0.2931  0.4072
30403WAT     H123417   0.472   7.248   2.560  0.1925 -0.0393 -0.2455
30403WAT     H223418   0.387   7.325   2.659  0.9812 -0.7104  0.9840
30403WAT    EPW23419   0.453   7.322   2.602  0.5048 -0.3142  0.3971
30404WAT      O23420   0.992   5.140   4.222  0.0459 -0.2384 -0.0629
30404WAT     H123421   1.076   5.116   4.183 -0.3142  0.3818 -1.2871
30404WAT     H223422   0.962   5.060   4.265  0.8708 -0.7009 -0.3183
30404WAT    EPW23423   0.999   5.126   4.222  0.1073 -0.2177 -0.2582
30405WAT      O23424   3.264  10.370   1.126  0.2192 -0.2262  0.0213
30405WAT     H123425   3.327  10.334   1.188  0.4553 -2.6317 -1.4939
30405WAT     H223426   3.193  10.403   1.181  1.2611 -0.5149  1.6136
30405WAT    EPW23427   3.263  10.370   1.141  0.3881 -0.5816  0.0315
30406WAT      O23428   1.112   6.592   0.845 -0.8827  0.7996 -0.2753
30406WAT     H123429   1.130   6.608   0.938 -0.1469 -2.0432  0.1626
30406WAT     H223430   1.021   6.560   0.844 -0.4173 -0.5865 -0.2934
30406WAT    EPW23431   1.102   6.590   0.857 -0.7243  0.2418 -0.2199
30407WAT      O23432   2.085   5.520   0.864  0.4081 -0.0530 -0.7642
30407WAT     H123433   2.130   5.528   0.779  0.2823  0.4113 -0.7878
30407WAT     H223434   2.000   5.560   0.850  1.5881  3.1901  0.4988
30407WAT    EPW23435   2.080   5.526   0.851  0.5472  0.4361 -0.6007
30408WAT      O23436   7.534   6.076   0.249  0.2071  0.7455  0.6611
30408WAT     H123437   7.547   5.985   0.222 -1.7761  1.0469 -1.5718
30408WAT     H223438   7.446   6.077   0.287 -0.4031  1.9933 -0.7270
30408WAT    EPW23439   7.524   6.064   0.251 -0.1347  0.9499  0.1835
30409WAT      O23440   9.547   5.402   2.865  0.0080  0.5932  0.1897
30409WAT     H123441   9.631   5.355   2.868 -0.9043 -1.2540 -1.1925
30409WAT     H223442   9.523   5.400   2.773 -3.1843 -2.0569  0.8991
30409WAT    EPW23443   9.555   5.396   2.853 -0.5336  0.0002  0.1009
30410WAT      O23444   9.899   7.111   2.574 -0.4040 -0.1346  0.0426
30410WAT     H123445   9.913   7.161   2.654 -1.3281  2.5479 -1.3319
30410WAT     H223446   9.827   7.157   2.530  0.4444 -1.1357 -2.5632
30410WAT    EPW23447   9.892   7.124   2.579 -0.4134  0.0870 -0.4824
30411WAT      O23448   0.667   3.860   0.874 -0.2257 -0.0933  0.3058
30411WAT     H123449   0.599   3.814   0.824 -0.6367 -0.1168  0.8845
30411WAT     H223450   0.736   3.875   0.810 -1.1903  0.8386 -0.5517
30411WAT    EPW23451   0.667   3.856   0.859 -0.4072  0.0265  0.2691
30412WAT      O23452   4.672   0.821   8.475 -1.0256  0.0706  0.2933
30412WAT     H123453   4.627   0.745   8.513 -0.4131 -0.3983  0.1128
30412WAT     H223454   4.666   0.807   8.380 -0.7337  0.1296  0.2631
30412WAT    EPW23455   4.666   0.809   8.468 -0.9065  0.0165  0.2661
30413WAT      O23456   2.250   6.048   2.893  0.5066  0.0468 -0.3019
30413WAT     H123457   2.303   5.995   2.952 -0.3234 -0.6610 -0.1654
30413WAT     H223458   2.204   6.109   2.951 -1.6264 -1.7691  0.0536
30413WAT    EPW23459   2.251   6.049   2.909  0.1159 -0.2861 -0.2371
30414WAT      O23460   2.111   4.810   3.307 -1.1753 -0.2290 -0.6451
30414WAT     H123461   2.021   4.821   3.276 -1.4360  0.9430  0.4600
30414WAT     H223462   2.106   4.737   3.369 -0.7530 -2.2105 -2.7690
30414WAT    EPW23463   2.098   4.802   3.311 -1.1539 -0.3357 -0.7796
30415WAT      O23464   1.918   3.594   4.705 -0.5088  0.2763 -0.0219
30415WAT     H123465   1.877   3.537   4.640  0.1647 -0.7404  0.4146
30415WAT     H223466   2.004   3.613   4.669 -0.8550  1.3387 -0.3288
30415WAT    EPW23467   1.924   3.589   4.691 -0.4657  0.2823 -0.0048
30416WAT      O23468   0.034   7.293   1.747 -0.3010  0.0560 -0.2256
30416WAT     H123469  -0.055   7.328   1.736 -1.1192 -1.6985  0.3291
30416WAT     H223470   0.021   7.198   1.751  1.5020 -0.1843  0.9280
30416WAT    EPW23471   0.020   7.285   1.746 -0.1712 -0.2074 -0.0003
30417WAT      O23472   1.928   7.575   0.595  0.2433 -0.7778  0.5737
30417WAT     H123473   1.969   7.505   0.647  0.3551 -0.8892  0.3389
30417WAT     H223474   1.835   7.569   0.616  0.2648 -0.9379  0.6291
30417WAT    EPW23475   1.922   7.565   0.605  0.2608 -0.8135  0.5501
30418WAT      O23476   0.364   6.896   1.870  0.6619  0.6980  0.6488
30418WAT     H123477   0.414   6.914   1.791  0.8285 -2.5780 -0.1358
30418WAT     H223478   0.277   6.874   1.839  1.0433 -1.8418  1.1407
30418WAT    EPW23479   0.359   6.895   1.856  0.7342 -0.0691  0.6101
30419WAT      O23480   0.468   5.162   2.454  0.1654 -0.5888  0.1688
30419WAT     H123481   0.415   5.241   2.462  0.7055 -0.3258  1.2560
30419WAT     H223482   0.407   5.091   2.476 -0.5533 -0.5945 -1.6429
30419WAT    EPW23483   0.453   5.163   2.458  0.1419 -0.5546  0.0732
30420WAT      O23484   0.583   5.024   1.644  0.0596 -0.1440 -1.0419
30420WAT     H123485   0.590   5.032   1.739 -3.3415 -2.7936 -0.3726
30420WAT     H223486   0.527   5.098   1.618 -3.5172 -2.2303  0.0209
30420WAT    EPW23487   0.577   5.035   1.653 -0.8608 -0.7687 -0.8135
30421WAT      O23488   4.123   6.373   1.507 -0.3952 -0.2317 -0.7813
30421WAT     H123489   4.147   6.309   1.574  0.1685  1.1032  0.3430
30421WAT     H223490   4.204   6.422   1.491 -1.3683  1.8530  0.2654
30421WAT    EPW23491   4.137   6.371   1.514 -0.4494  0.2193 -0.4950
30422WAT      O23492   8.216   6.884   2.243 -0.1939  0.5837 -0.5537
30422WAT     H123493   8.143   6.822   2.245  0.1705  0.1546 -0.2084
30422WAT     H223494   8.192   6.948   2.176 -0.0985 -0.5160 -1.6731
30422WAT    EPW23495   8.203   6.884   2.235 -0.1326  0.3819 -0.6557
30423WAT      O23496   1.255   4.910   8.653 -0.1028  0.1868  0.1035
30423WAT     H123497   1.202   4.858   8.713 -2.3601 -0.0712 -1.9861
30423WAT     H223498   1.326   4.944   8.708  1.0452 -4.2711  1.8490
30423WAT    EPW23499   1.258   4.908   8.668 -0.2492 -0.4354  0.0582
30424WAT      O23500   4.062   9.324   0.743  0.2942 -0.1106  0.9670
30424WAT     H123501   4.069   9.271   0.822  0.8175 -2.2246 -0.4284
30424WAT     H223502   3.980   9.297   0.703  0.2395  0.6367  0.5548
30424WAT    EPW23503   4.052   9.314   0.748  0.3560 -0.2909  0.7286
30425WAT      O23504   0.044   8.697   0.359  0.0343  0.5020 -0.4217
30425WAT     H123505   0.100   8.726   0.431  0.4113 -0.4293 -0.3242
30425WAT     H223506  -0.000   8.776   0.329  1.5828  1.3098 -0.6717
30425WAT    EPW23507   0.045   8.711   0.365  0.2883  0.4854 -0.4418
30426WAT      O23508   2.519   7.558   4.917 -0.4336  0.5582  1.4091
30426WAT     H123509   2.593   7.534   4.862 -0.8113 -0.1366  1.1934
30426WAT     H223510   2.558   7.582   5.001  0.5653  5.2140 -0.0728
30426WAT    EPW23511   2.534   7.558   4.921 -0.3518  1.0803  1.1854
30427WAT      O23512   6.438   8.265   0.926 -0.4283  0.0202  0.1818
30427WAT     H123513   6.434   8.270   1.021 -1.8332  4.9154  0.1362
30427WAT     H223514   6.532   8.269   0.906 -0.1772  0.1412  1.3434
30427WAT    EPW23515   6.450   8.266   0.936 -0.5808  0.6814  0.3290
30428WAT      O23516   8.006   1.087   8.806  0.2402 -0.5133 -0.3314
30428WAT     H123517   7.995   1.128   8.892 -0.2305 -0.1324 -0.5680
30428WAT     H223518   8.044   1.156   8.751  1.5088 -1.0504 -0.1847
30428WAT    EPW23519   8.010   1.101   8.810  0.3452 -0.5339 -0.3433
30429WAT      O23520  10.603   1.235   6.209 -0.2378  0.0925 -0.2148
30429WAT     H123521  10.696   1.241   6.229  0.0335  0.6627 -1.5352
30429WAT     H223522  10.597   1.253   6.115 -1.6078 -0.6236 -0.2962
30429WAT    EPW23523  10.614   1.238   6.199 -0.3824  0.0732 -0.3998
30430WAT      O23524   2.881  10.082   0.279  0.2287 -0.8504 -0.0171
30430WAT     H123525   2.963  10.093   0.327 -0.1078 -1.3738  0.6991
30430WAT     H223526   2.814  10.114   0.338  0.1846  4.6667 -2.4712
30430WAT    EPW23527   2.883  10.087   0.293  0.1785 -0.1922 -0.2463
30431WAT      O23528   9.160   9.892   3.656 -1.0853  0.1458 -0.0991
30431WAT     H123529   9.193   9.888   3.566 -2.8387 -0.7867 -0.7400
30431WAT     H223530   9.067   9.911   3.647 -2.1382 -3.5224  1.2823
30431WAT    EPW23531   9.152   9.894   3.643 -1.4558 -0.4611 -0.0014
30432WAT      O23532  10.056   8.170   1.671 -0.1643  0.3058 -0.2805
30432WAT     H123533   9.995   8.140   1.604 -0.3620  3.7278 -1.8116
30432WAT     H223534  10.001   8.191   1.746 -0.9100  2.5813 -1.3728
30432WAT    EPW23535  10.041   8.169   1.672 -0.2885  1.0571 -0.6265
30433WAT      O23536   0.856   6.266   1.562  0.0001  0.3565  1.0435
30433WAT     H123537   0.762   6.270   1.551  0.2070  2.0804 -0.5526
30433WAT     H223538   0.869   6.210   1.638 -2.2673 -0.3303  0.9916
30433WAT    EPW23539   0.846   6.259   1.570 -0.2717  0.4933  0.8261
30434WAT      O23540  10.057   6.177   0.458  0.1900 -0.5412  0.2578
30434WAT     H123541  10.139   6.213   0.424 -0.1287 -0.9367 -0.9620
30434WAT     H223542  10.085   6.114   0.524  0.8028  0.6574  1.1874
30434WAT    EPW23543  10.072   6.174   0.462  0.2284 -0.4354  0.2195
30435WAT      O23544   1.976   8.122   3.766 -0.5960 -0.5283  0.6644
30435WAT     H123545   1.982   8.217   3.762  1.5177 -0.5405  1.9930
30435WAT     H223546   2.033   8.091   3.695 -1.8307 -0.8501 -0.2264
30435WAT    EPW23547   1.984   8.130   3.756 -0.4800 -0.5727  0.7221
30436WAT      O23548   1.064   6.300   4.970  0.3684  0.0841  0.0800
30436WAT     H123549   1.110   6.372   5.014  1.0920 -0.3216 -0.0014
30436WAT     H223550   1.112   6.286   4.889 -0.2116 -0.0057 -0.2504
30436WAT    EPW23551   1.077   6.307   4.965  0.3873  0.0188  0.0260
30437WAT      O23552   9.928   6.901   1.510  0.0373 -0.6903  0.5474
30437WAT     H123553   9.887   6.986   1.499  0.5224 -0.4655  0.4622
30437WAT     H223554   9.975   6.907   1.593  0.1867 -0.8274  0.4743
30437WAT    EPW23555   9.929   6.913   1.519  0.1211 -0.6785  0.5264
30438WAT      O23556  10.654   7.589   1.071 -0.2350 -0.0286  0.5105
30438WAT     H123557  10.585   7.638   1.025  1.6051  1.2300 -1.0366
30438WAT     H223558  10.682   7.522   1.008  1.1017  0.5780  0.4339
30438WAT    EPW23559  10.648   7.587   1.057  0.1841  0.2177  0.2964
30439WAT      O23560   9.046   0.784   1.331  0.4056  0.0450 -0.0403
30439WAT     H123561   9.117   0.781   1.395 -0.1757  0.7893  0.6679
30439WAT     H223562   8.995   0.862   1.356 -0.6228 -0.4393 -0.5587
30439WAT    EPW23563   9.049   0.794   1.343  0.1936  0.0793 -0.0153
30440WAT      O23564   9.969   0.519   6.653  0.4883  0.1157 -0.1929
30440WAT     H123565   9.913   0.442   6.657  1.0006 -0.2801 -0.5435
30440WAT     H223566   9.952   0.557   6.567 -1.2451  1.5497  0.7111
30440WAT    EPW23567   9.960   0.514   6.642  0.3276  0.2526 -0.1197
30441WAT      O23568   2.701   7.566   2.118 -0.1988 -0.5747  0.2107
30441WAT     H123569   2.673   7.646   2.162 -0.2855  0.0957 -1.0114
30441WAT     H223570   2.748   7.517   2.185  0.7992  0.9923  0.7164
30441WAT    EPW23571   2.704   7.570   2.133 -0.0786 -0.2797  0.1162
30442WAT      O23572   2.266   7.074   0.129  0.7938 -1.3279 -1.1526
30442WAT     H123573   2.306   7.075   0.216  1.0367  0.2224 -1.2661
30442WAT     H223574   2.339   7.055   0.070  0.8242 -1.3227 -1.1168
30442WAT    EPW23575   2.281   7.071   0.133  0.8297 -1.1227 -1.1629
30443WAT      O23576   9.244   5.869   3.035  0.0811  0.6847 -0.6098
30443WAT     H123577   9.326   5.819   3.031  0.9783  2.0254  0.1208
30443WAT     H223578   9.212   5.870   2.945  0.4919 -0.4332 -0.7900
30443WAT    EPW23579   9.251   5.862   3.023  0.2537  0.7138 -0.5370
30444WAT      O23580   0.289   1.812   8.642 -0.9929 -0.2284  0.1908
30444WAT     H123581   0.377   1.804   8.605 -0.8794  1.7462 -0.1077
30444WAT     H223582   0.255   1.723   8.643  0.5003 -0.8642 -0.9577
30444WAT    EPW23583   0.296   1.800   8.637 -0.7810 -0.0517  0.0000
30445WAT      O23584   6.163   7.686   0.922  0.6977 -0.6548 -0.1551
30445WAT     H123585   6.179   7.592   0.918 -1.7656 -1.0953 -2.7317
30445WAT     H223586   6.102   7.698   0.994  2.0603 -0.7652  1.0681
30445WAT    EPW23587   6.157   7.675   0.931  0.5527 -0.7277 -0.3336
30446WAT      O23588   3.682   5.680   4.418  0.2342 -0.8596 -0.4298
30446WAT     H123589   3.677   5.595   4.375  1.5779 -1.9768  1.4942
30446WAT     H223590   3.657   5.663   4.509  0.0784  0.8970 -0.1048
30446WAT    EPW23591   3.678   5.667   4.424  0.3908 -0.7753 -0.1333
30447WAT      O23592   6.804   7.574   0.673  0.5304  0.2285  0.7169
30447WAT     H123593   6.747   7.559   0.598 -0.5433  1.0320  1.3481
30447WAT     H223594   6.745   7.605   0.743  1.9180  2.8394  0.8711
30447WAT    EPW23595   6.789   7.576   0.673  0.5720  0.6788  0.8205
30448WAT      O23596  10.081   6.731   4.149  0.4170 -0.1092  0.0129
30448WAT     H123597  10.175   6.748   4.143  0.6129 -1.2606 -0.4794
30448WAT     H223598  10.058   6.752   4.240  0.8267  1.5864 -0.2348
30448WAT    EPW23599  10.090   6.736   4.160  0.4969 -0.0374 -0.0846
30449WAT      O23600   7.376   1.554   8.297  0.1049 -0.2146 -0.2889
30449WAT     H123601   7.341   1.640   8.273  0.3045  0.3860  1.4414
30449WAT     H223602   7.467   1.572   8.320  0.7796 -1.2764 -1.9683
30449WAT    EPW23603   7.384   1.568   8.297  0.2208 -0.2754 -0.2823
30450WAT      O23604   4.107   6.564   4.233  0.2626 -0.3716 -0.0186
30450WAT     H123605   4.013   6.552   4.222 -0.0519 -1.1180  2.7816
30450WAT     H223606   4.135   6.606   4.152 -2.4216 -0.3198 -1.0241
30450WAT    EPW23607   4.098   6.568   4.221 -0.1330 -0.4635  0.2179
30451WAT      O23608   3.411   5.914   0.317 -0.2149  0.0672  0.1262
30451WAT     H123609   3.357   5.924   0.238  1.4955 -0.7724 -1.2337
30451WAT     H223610   3.445   6.002   0.334  0.4290  0.0307 -0.8881
30451WAT    EPW23611   3.408   5.927   0.309  0.0955 -0.0486 -0.1869
30452WAT      O23612   7.095   2.595   8.021 -0.5541  0.0500  0.9688
30452WAT     H123613   7.013   2.644   8.018  0.2011  1.3888  1.1044
30452WAT     H223614   7.079   2.526   8.086 -1.1079  1.2331  2.1502
30452WAT    EPW23615   7.082   2.593   8.029 -0.5276  0.3827  1.1425
30453WAT      O23616   1.439   3.795   4.585  0.0210  0.2013  0.3257
30453WAT     H123617   1.362   3.762   4.631 -2.0759 -0.4428 -3.2429
30453WAT     H223618   1.414   3.882   4.555  0.6774  0.0160 -0.8310
30453WAT    EPW23619   1.426   3.802   4.587 -0.1690  0.0918 -0.2978
30454WAT      O23620   8.508   3.049   8.601  0.8414  0.1836  0.0509
30454WAT     H123621   8.520   3.043   8.507  0.9151 -1.9686  0.1494
30454WAT     H223622   8.467   3.135   8.615 -0.8903 -0.2261 -2.1142
30454WAT    EPW23623   8.504   3.060   8.591  0.6223 -0.1543 -0.2217
30455WAT      O23624  10.931   3.932   2.648 -0.8035  0.0819  0.2884
30455WAT     H123625  10.933   4.023   2.619 -0.8145 -0.0844 -0.2456
30455WAT     H223626  11.023   3.909   2.659 -0.7053 -0.3614 -1.2616
30455WAT    EPW23627  10.944   3.941   2.646 -0.7920  0.0017  0.0135
30456WAT      O23628   2.144   5.745   3.579  0.3005  0.3063  0.2347
30456WAT     H123629   2.111   5.655   3.585 -0.0059  0.4649  1.1364
30456WAT     H223630   2.070   5.799   3.605  0.8014  0.7566  0.7389
30456WAT    EPW23631   2.130   5.740   3.583  0.3262  0.3870  0.4201
30457WAT      O23632   1.760   5.969   1.483 -0.2898  0.0616 -0.1988
30457WAT     H123633   1.790   6.021   1.558  1.6522 -1.2035 -0.0182
30457WAT     H223634   1.688   5.916   1.519  0.5227 -0.4253  0.7691
30457WAT    EPW23635   1.754   5.969   1.498  0.0735 -0.1698 -0.0473
30458WAT      O23636   1.397   6.037   2.141 -0.2827  0.3486  1.1926
30458WAT     H123637   1.398   6.107   2.077  1.2000 -0.4075  0.3200
30458WAT     H223638   1.304   6.024   2.162 -0.6267  2.1110  0.9210
30458WAT    EPW23639   1.385   6.044   2.136 -0.1325  0.4814  1.0415
30459WAT      O23640   2.836   9.506   2.183 -0.0931 -0.1050  0.2811
30459WAT     H123641   2.746   9.529   2.159  0.5724  0.5654 -1.7429
30459WAT     H223642   2.866   9.449   2.112  0.6832 -1.4042  1.5893
30459WAT    EPW23643   2.828   9.502   2.171  0.0970 -0.1879  0.1867
30460WAT      O23644   0.531   6.932   2.731  0.6379 -0.1677 -0.1906
30460WAT     H123645   0.461   6.987   2.766  2.5539  1.3249  1.5836
30460WAT     H223646   0.563   6.980   2.655  0.4764 -0.2766 -0.3281
30460WAT    EPW23647   0.526   6.946   2.726  0.8693  0.0150  0.0254
30461WAT      O23648  10.296   7.956   4.497 -0.5027  0.4706 -0.3847
30461WAT     H123649  10.245   7.885   4.536 -0.0590  0.3871  0.0448
30461WAT     H223650  10.258   7.967   4.409 -1.0669  0.2155 -0.1756
30461WAT    EPW23651  10.284   7.948   4.490 -0.5183  0.4261 -0.3006
30462WAT      O23652   3.238  10.324   8.538  0.1363  0.1991  0.8051
30462WAT     H123653   3.301  10.357   8.473  1.2270 -0.6767  1.3736
30462WAT     H223654   3.184  10.262   8.490  0.1338  0.4609  0.4631
30462WAT    EPW23655   3.239  10.320   8.523  0.2798  0.1183  0.8354
30463WAT      O23656   8.072   4.935   7.911 -0.2577  0.3432 -0.1175
30463WAT     H123657   8.031   4.993   7.846 -1.6615 -0.2908  0.1510
30463WAT     H223658   8.001   4.915   7.972  0.6622 -0.2496  0.7850
30463WAT    EPW23659   8.057   4.940   7.911 -0.3214  0.1814  0.0370
30464WAT      O23660   0.249   5.489   0.151  0.5242 -0.2113  0.0671
30464WAT     H123661   0.289   5.419   0.100  1.9959  0.3975  0.3301
30464WAT     H223662   0.239   5.453   0.239  3.1451  0.4786  0.7333
30464WAT    EPW23663   0.253   5.475   0.156  1.0640 -0.0401  0.1897
30465WAT      O23664   6.858   1.152   8.558 -0.3906 -1.0131  0.5046
30465WAT     H123665   6.908   1.211   8.615 -2.7577  1.0702  0.6113
30465WAT     H223666   6.913   1.141   8.481 -0.0924  1.9835  0.1706
30465WAT    EPW23667   6.872   1.158   8.555 -0.6638 -0.3431  0.4749
30466WAT      O23668   1.566   9.909   1.556  0.2870 -0.2875  0.6305
30466WAT     H123669   1.482   9.953   1.572  0.2706 -0.0511 -0.0908
30466WAT     H223670   1.630   9.961   1.604  0.0804 -0.2504  0.8705
30466WAT    EPW23671   1.563   9.922   1.565  0.2576 -0.2518  0.5670
30467WAT      O23672  10.770   8.749   1.843  0.2670  0.1214 -0.1406
30467WAT     H123673  10.846   8.807   1.831  0.8518 -0.5933  0.0247
30467WAT     H223674  10.748   8.719   1.755  1.1694 -0.8931 -0.0396
30467WAT    EPW23675  10.777   8.753   1.830  0.4635 -0.1068 -0.1055
30468WAT      O23676   0.091   5.251   0.621 -0.5533 -0.1126 -0.1636
30468WAT     H123677   0.112   5.159   0.606 -3.6667 -0.6571 -2.1228
30468WAT     H223678   0.150   5.278   0.692  2.4862 -2.7400 -1.4295
30468WAT    EPW23679   0.101   5.243   0.628 -0.5631 -0.5312 -0.5890
30469WAT      O23680   2.945   8.997   0.536  0.0674 -0.3120 -0.2327
30469WAT     H123681   2.935   8.930   0.604 -0.5071  0.7087  0.7347
30469WAT     H223682   2.963   9.077   0.585  2.8778 -0.1023 -1.4437
30469WAT    EPW23683   2.946   8.999   0.552  0.3622 -0.1493 -0.2649
30470WAT      O23684   7.793   4.354   3.993 -0.3067 -0.1508 -0.1199
30470WAT     H123685   7.777   4.429   4.050 -0.8544 -0.5074  0.2050
30470WAT     H223686   7.883   4.328   4.012  0.6863  1.7614 -1.8282
30470WAT    EPW23687   7.803   4.360   4.003 -0.2482  0.0544 -0.3023
30471WAT      O23688   4.454   8.010   2.106 -0.3333 -0.3444  0.6898
30471WAT     H123689   4.494   8.097   2.113  0.6419 -0.9202  2.9454
30471WAT     H223690   4.363   8.023   2.132  0.0569 -0.1413  2.0089
30471WAT    EPW23691   4.447   8.023   2.110 -0.1531 -0.3939  1.1613
30472WAT      O23692   0.045   6.665   1.094 -0.0667  0.4841  0.1289
30472WAT     H123693   0.088   6.742   1.132 -0.3722  1.2426 -1.0142
30472WAT     H223694  -0.021   6.641   1.159 -0.1383  1.3514  0.3923
30472WAT    EPW23695   0.042   6.672   1.108 -0.1163  0.6983  0.0128
30473WAT      O23696   0.911   6.153   0.924 -0.5194  0.2845 -0.2331
30473WAT     H123697   0.834   6.163   0.868  0.2864  1.2411 -1.2131
30473WAT     H223698   0.932   6.060   0.918 -1.4297  0.0609 -0.1706
30473WAT    EPW23699   0.903   6.142   0.916 -0.5332  0.3812 -0.3541
30474WAT      O23700   3.054   6.307   1.831 -0.2705 -0.1245  0.8451
30474WAT     H123701   2.995   6.382   1.829 -2.2637 -1.5346  2.3859
30474WAT     H223702   3.033   6.262   1.912  3.3266 -0.5123  1.7517
30474WAT    EPW23703   3.044   6.311   1.841 -0.0589 -0.3617  1.1680
30475WAT      O23704   0.774   5.975   2.364 -0.5342  0.4798  0.0669
30475WAT     H123705   0.680   5.970   2.351 -0.6587  1.1677  0.6266
30475WAT     H223706   0.793   6.069   2.367  0.4556  0.3948 -1.9150
30475WAT    EPW23707   0.765   5.987   2.363 -0.4201  0.5591 -0.1206
30476WAT      O23708   8.943   2.517   7.082 -0.9468 -0.9162  0.1513
30476WAT     H123709   8.970   2.436   7.126 -0.1355 -1.9108 -2.0389
30476WAT     H223710   9.013   2.579   7.100 -0.3749 -1.4701 -0.1235
30476WAT    EPW23711   8.956   2.514   7.090 -0.7648 -1.1206 -0.1740
30477WAT      O23712   8.090   6.422   0.839 -0.7507 -0.0126 -0.2140
30477WAT     H123713   8.001   6.392   0.857 -0.5974 -0.1172  0.4072
30477WAT     H223714   8.093   6.511   0.872 -0.0553 -0.6824  1.6821
30477WAT    EPW23715   8.079   6.430   0.846 -0.6390 -0.1144  0.1180
30478WAT      O23716   9.265   5.060   2.208 -0.2041  0.1279 -0.5071
30478WAT     H123717   9.206   5.115   2.260 -1.6172 -0.3291 -1.5920
30478WAT     H223718   9.346   5.057   2.260 -0.1189  3.0264 -0.2715
30478WAT    EPW23719   9.268   5.067   2.222 -0.3796  0.4504 -0.6191
30479WAT      O23720   8.819   8.519   1.208  0.4440 -1.1385  0.0086
30479WAT     H123721   8.780   8.569   1.279  1.6481 -0.3177  0.1242
30479WAT     H223722   8.745   8.484   1.159 -0.4981  1.6248 -0.6975
30479WAT    EPW23723   8.804   8.521   1.211  0.4783 -0.6657 -0.0693
30480WAT      O23724   2.948   1.667   1.470  0.3302  0.6326  0.0961
30480WAT     H123725   2.880   1.606   1.443  0.6899  0.3138 -0.1000
30480WAT     H223726   2.935   1.678   1.564 -1.1957  2.0735 -0.2434
30480WAT    EPW23727   2.938   1.661   1.479  0.1763  0.7805  0.0255
30481WAT      O23728   2.888   9.777   1.918 -0.1275  0.3686  0.1257
30481WAT     H123729   2.828   9.742   1.984 -1.4665 -1.6456 -2.0093
30481WAT     H223730   2.975   9.766   1.957 -0.7779 -1.9203  1.1154
30481WAT    EPW23731   2.892   9.771   1.932 -0.3901 -0.1984 -0.0254
30482WAT      O23732   0.522   6.901   3.693 -0.2146  0.1021 -0.5327
30482WAT     H123733   0.518   6.966   3.623 -0.8222 -2.4254 -3.0342
30482WAT     H223734   0.430   6.879   3.710  0.0093 -1.2671 -0.9685
30482WAT    EPW23735   0.509   6.907   3.686 -0.2652 -0.4120 -0.9201
30483WAT      O23736   9.744   4.102   2.608 -0.0634 -0.7357 -1.0237
30483WAT     H123737   9.778   4.160   2.540 -2.5994  0.9354 -0.9919
30483WAT     H223738   9.743   4.015   2.567  0.1279 -0.0825 -2.4772
30483WAT    EPW23739   9.748   4.098   2.593 -0.3724 -0.4292 -1.2113
30484WAT      O23740   2.342   6.899   2.493  0.3896  0.1296  1.0361
30484WAT     H123741   2.435   6.918   2.480  0.5888 -1.1479  0.4055
30484WAT     H223742   2.328   6.913   2.586  1.8409 -2.0549  1.6710
30484WAT    EPW23743   2.353   6.904   2.504  0.6074 -0.3271  1.0366
30485WAT      O23744   0.178   6.666   2.009 -0.1042  0.0035 -0.1424
30485WAT     H123745   0.158   6.677   1.916 -0.0035  0.0189 -0.1619
30485WAT     H223746   0.259   6.615   2.010  0.5174  0.9692 -0.0852
30485WAT    EPW23747   0.186   6.661   1.997 -0.0090  0.1328 -0.1374
30486WAT      O23748   9.195   4.645   1.116  0.3353  0.2420  0.0305
30486WAT     H123749   9.138   4.570   1.101 -1.1498  1.3016  0.1345
30486WAT     H223750   9.163   4.712   1.055  1.5165  0.8695  0.0589
30486WAT    EPW23751   9.183   4.644   1.106  0.2952  0.4644  0.0480
30487WAT      O23752   1.488   3.513   5.128  0.8687 -0.3932 -0.5843
30487WAT     H123753   1.463   3.513   5.036  0.8717  2.4463 -0.6672
30487WAT     H223754   1.576   3.550   5.129  1.1231 -0.9581  0.5376
30487WAT    EPW23755   1.497   3.517   5.116  0.9027 -0.0931 -0.4473
30488WAT      O23756   2.378  10.151   7.796 -0.8911  0.0806  0.1317
30488WAT     H123757   2.403  10.181   7.709 -0.0147  0.3781  0.4789
30488WAT     H223758   2.398  10.057   7.795  0.5061  0.3486  0.4745
30488WAT    EPW23759   2.384  10.142   7.784 -0.5913  0.1554  0.2227
30489WAT      O23760   8.671   4.935   0.885  0.0701 -0.4904 -0.2749
30489WAT     H123761   8.597   4.993   0.869 -1.0752 -1.9251 -0.3889
30489WAT     H223762   8.734   4.957   0.817 -0.8223 -0.1450 -1.0127
30489WAT    EPW23763   8.670   4.946   0.874 -0.1984 -0.6340 -0.3873
30490WAT      O23764   2.453   7.953   1.023  0.3692 -0.0321 -0.0395
30490WAT     H123765   2.427   8.043   1.004 -1.1281 -0.4108  0.0589
30490WAT     H223766   2.545   7.949   0.999  0.4203  1.4737 -0.2137
30490WAT    EPW23767   2.461   7.965   1.017  0.1783  0.1166 -0.0495
30491WAT      O23768   2.027   7.120   0.527  0.3335 -0.4906  0.5908
30491WAT     H123769   2.043   7.193   0.467 -0.9941 -0.8559 -0.2575
30491WAT     H223770   1.982   7.055   0.473 -0.4278 -1.0422  1.8677
30491WAT    EPW23771   2.023   7.121   0.512  0.0581 -0.6115  0.6473
30492WAT      O23772   3.144   9.410   3.867 -0.0312  0.2804 -0.1114
30492WAT     H123773   3.185   9.400   3.953  0.0766 -0.5411 -0.2568
30492WAT     H223774   3.139   9.505   3.855 -1.7674  0.4884  1.6306
30492WAT    EPW23775   3.148   9.421   3.877 -0.2459  0.1998  0.0991
30493WAT      O23776   1.168   7.385   1.507 -0.0626  0.3070 -0.1862
30493WAT     H123777   1.218   7.357   1.431 -0.2840 -1.3729  0.2382
30493WAT     H223778   1.207   7.469   1.532  1.0344  0.1335 -1.2172
30493WAT    EPW23779   1.180   7.393   1.500  0.0529  0.0625 -0.2663
30494WAT      O23780   9.615   7.155   2.444 -0.1236  0.9057 -0.0010
30494WAT     H123781   9.612   7.250   2.428 -1.4506  0.4466 -3.3116
30494WAT     H223782   9.621   7.116   2.357  3.6099 -2.0973  1.3008
30494WAT    EPW23783   9.615   7.162   2.431  0.1941  0.4489 -0.2661
30495WAT      O23784   7.976   3.274   7.901  0.1460  0.4585 -0.1745
30495WAT     H123785   7.997   3.248   7.991  2.1411  0.6706 -0.5166
30495WAT     H223786   8.026   3.212   7.847  2.1765  2.6910 -1.0479
30495WAT    EPW23787   7.986   3.262   7.906  0.6771  0.7809 -0.3345
30496WAT      O23788   1.096   4.140   3.481 -0.1617 -0.6515 -0.2976
30496WAT     H123789   1.036   4.212   3.498  0.0377 -0.4129 -0.6017
30496WAT     H223790   1.131   4.117   3.567 -0.8788 -0.9681 -0.0739
30496WAT    EPW23791   1.092   4.146   3.495 -0.2300 -0.6618 -0.3083
30497WAT      O23792  10.395   0.190   4.819 -0.3349  0.3419 -0.5445
30497WAT     H123793  10.477   0.143   4.801 -0.5301 -0.0602 -0.3876
30497WAT     H223794  10.405   0.220   4.910 -0.4359  0.1393 -0.4663
30497WAT    EPW23795  10.407   0.188   4.829 -0.3738  0.2621 -0.5138
30498WAT      O23796   0.526   2.942   2.653 -0.3428  0.7111  0.6544
30498WAT     H123797   0.471   3.019   2.666  2.3268  2.6054  1.5278
30498WAT     H223798   0.597   2.951   2.717  0.3782 -2.2280  0.4278
30498WAT    EPW23799   0.528   2.953   2.663  0.1044  0.5732  0.7398
30499WAT      O23800   1.442   5.996   2.614 -0.0040 -0.2505 -0.2460
30499WAT     H123801   1.528   6.036   2.627  0.4561 -1.3446  0.1368
30499WAT     H223802   1.405   6.045   2.540  1.2101 -0.1900 -0.8452
30499WAT    EPW23803   1.449   6.008   2.606  0.2168 -0.3867 -0.2747
30500WAT      O23804   3.672   9.849   4.233  0.5598 -0.3612 -0.1739
30500WAT     H123805   3.710   9.930   4.199 -1.1218  0.0015 -1.2897
30500WAT     H223806   3.691   9.784   4.165  1.4546 -0.8139  0.4849
30500WAT    EPW23807   3.680   9.851   4.220  0.4560 -0.3729 -0.2344
30501WAT      O23808   3.206   0.711   8.422 -0.2883 -0.3439 -0.1042
30501WAT     H123809   3.223   0.700   8.329 -0.3141 -1.7607  0.0383
30501WAT     H223810   3.242   0.797   8.443  1.5932 -0.8565 -0.9938
30501WAT    EPW23811   3.213   0.721   8.413 -0.0437 -0.5984 -0.2036
30502WAT      O23812   9.197   3.964   8.876 -0.1597 -0.1021  0.3057
30502WAT     H123813   9.291   3.952   8.893  0.3759 -1.2092 -2.8498
30502WAT     H223814   9.185   4.059   8.879  1.3797  0.1644 -0.4541
30502WAT    EPW23815   9.208   3.975   8.879  0.1140 -0.2130 -0.2103
30503WAT      O23816   1.945   4.772   2.909 -0.5717 -0.4348  0.5436
30503WAT     H123817   2.027   4.723   2.905 -0.3357  0.0029 -3.0251
30503WAT     H223818   1.972   4.864   2.914 -0.8578 -0.3208  0.0376
30503WAT    EPW23819   1.959   4.778   2.909 -0.5783 -0.3622  0.0062
30504WAT      O23820   0.919   8.779   0.690 -0.4563  0.3885 -0.9123
30504WAT     H123821   0.836   8.772   0.643 -2.2741  2.7022  1.5806
30504WAT     H223822   0.903   8.847   0.755  1.8995 -2.1841  2.7434
30504WAT    EPW23823   0.906   8.787   0.693 -0.3853  0.3543 -0.1013
30505WAT      O23824   1.768   6.970   2.443  0.0200 -0.2196  0.5702
30505WAT     H123825   1.862   6.953   2.449  0.6591  2.7643  0.5817
30505WAT     H223826   1.746   6.954   2.352  0.8929  0.4893  0.2238
30505WAT    EPW23827   1.778   6.965   2.432  0.2195  0.2675  0.5261
30506WAT      O23828   9.172   6.234   1.271  0.6181  0.2297  0.1169
30506WAT     H123829   9.264   6.242   1.245  0.0688  1.2008 -1.6991
30506WAT     H223830   9.164   6.291   1.348  1.6414 -0.3090  0.6411
30506WAT    EPW23831   9.183   6.242   1.278  0.6804  0.2866 -0.0535
30507WAT      O23832  10.107   2.992   2.256 -0.4372  0.5234  0.5032
30507WAT     H123833  10.045   3.043   2.308 -3.4493 -1.7315 -0.5698
30507WAT     H223834  10.061   2.976   2.173  0.7557 -2.8130  0.3323
30507WAT    EPW23835  10.093   2.996   2.252 -0.6771 -0.2141  0.3392
30508WAT      O23836   2.227   6.791   5.498  0.1196  0.7273  0.1837
30508WAT     H123837   2.159   6.796   5.564  0.1606  0.3941  0.2495
30508WAT     H223838   2.222   6.702   5.464  2.8465 -0.5468  2.6878
30508WAT    EPW23839   2.218   6.780   5.502  0.4846  0.5152  0.5226
30509WAT      O23840   2.633   7.256   1.767  0.3087 -0.3014 -0.5645
30509WAT     H123841   2.582   7.198   1.712 -0.3500  0.1395 -0.4288
30509WAT     H223842   2.616   7.226   1.856 -1.1298  0.9272 -0.3912
30509WAT    EPW23843   2.624   7.245   1.772  0.0321 -0.0813 -0.5237
30510WAT      O23844   4.869   9.897   8.670 -0.6744 -0.1406  0.3084
30510WAT     H123845   4.946   9.875   8.618 -0.3844  0.4483  0.4844
30510WAT     H223846   4.879   9.990   8.689 -2.0410  0.2554 -0.7218
30510WAT    EPW23847   4.880   9.906   8.666 -0.8166 -0.0110  0.1955
30511WAT      O23848   4.259  10.160   4.512  0.5799 -0.3536 -0.3722
30511WAT     H123849   4.335  10.192   4.560  0.4400 -1.1443  0.4308
30511WAT     H223850   4.236  10.230   4.452  0.4784  0.9093  1.0655
30511WAT    EPW23851   4.266  10.173   4.511  0.5479 -0.2913 -0.0765
30512WAT      O23852   4.243   7.862   0.917 -0.1687 -0.1635  0.3444
30512WAT     H123853   4.221   7.940   0.968 -0.8539 -0.6697  0.8428
30512WAT     H223854   4.275   7.896   0.834  1.9053  0.7309  1.4294
30512WAT    EPW23855   4.244   7.877   0.913  0.0143 -0.1121  0.5533
30513WAT      O23856   5.375   5.606   2.077  0.1555  0.2260 -0.0325
30513WAT     H123857   5.315   5.674   2.047 -0.5634 -0.8661 -1.1984
30513WAT     H223858   5.429   5.585   2.001  0.5081 -0.3606  0.3622
30513WAT    EPW23859   5.374   5.612   2.063  0.1070  0.0048 -0.1342
30514WAT      O23860   2.052   8.950   2.097 -0.0147  0.3663  0.1478
30514WAT     H123861   2.070   8.887   2.167  2.2945 -1.5324 -1.9975
30514WAT     H223862   1.961   8.977   2.112 -0.5392 -2.1847  2.1540
30514WAT    EPW23863   2.042   8.945   2.108  0.2205 -0.2203  0.1295
30515WAT      O23864   3.152   7.086   2.144 -0.0841  0.8822 -0.1986
30515WAT     H123865   3.074   7.035   2.167 -0.4891  1.5416 -0.0948
30515WAT     H223866   3.145   7.165   2.197  1.2383  0.4532  0.6435
30515WAT    EPW23867   3.141   7.090   2.154  0.0368  0.9127 -0.0739
30516WAT      O23868   7.518   0.516   1.561 -0.3064  0.0781  0.0094
30516WAT     H123869   7.467   0.459   1.618  2.2062 -0.7680  1.5507
30516WAT     H223870   7.500   0.485   1.472 -2.1277 -0.3929  0.5031
30516WAT    EPW23871   7.509   0.505   1.556 -0.2151 -0.0956  0.2778
30517WAT      O23872   8.135   9.389   7.662  0.5312  0.0484  0.2010
30517WAT     H123873   8.175   9.381   7.576 -0.0370  0.4494 -0.1058
30517WAT     H223874   8.041   9.380   7.646  0.1114  3.2529  0.3270
30517WAT    EPW23875   8.128   9.387   7.649  0.4005  0.5236  0.1774
30518WAT      O23876   1.248   5.581   3.809 -0.5713  0.5885 -0.2709
30518WAT     H123877   1.157   5.552   3.808  0.0771 -1.6999  0.4982
30518WAT     H223878   1.247   5.659   3.864 -1.7115 -1.0861  2.3279
30518WAT    EPW23879   1.236   5.587   3.816 -0.6363  0.0658  0.1733
30519WAT      O23880  10.186   4.488   7.543 -0.0361 -0.1406  0.8113
30519WAT     H123881  10.209   4.574   7.508  1.6074  0.4187  3.0220
30519WAT     H223882  10.159   4.437   7.467  1.0131  1.6833 -0.8665
30519WAT    EPW23883  10.185   4.492   7.528  0.3190  0.1738  0.8817
30520WAT      O23884   1.364   8.261   2.357  0.3545 -0.2334 -0.5030
30520WAT     H123885   1.361   8.183   2.301 -2.1808 -0.7350  0.2088
30520WAT     H223886   1.322   8.329   2.304 -1.1409 -0.4506  0.3531
30520WAT    EPW23887   1.358   8.260   2.342 -0.1772 -0.3285 -0.2962
30521WAT      O23888   2.956   4.995   6.161 -0.5583 -0.4756 -0.4557
30521WAT     H123889   2.997   4.971   6.244  0.1450 -0.0072 -0.6651
30521WAT     H223890   3.025   4.982   6.096 -1.2369 -1.2966 -1.0419
30521WAT    EPW23891   2.970   4.990   6.163 -0.5550 -0.5221 -0.5608
30522WAT      O23892   8.244   0.410   3.392  0.3829 -0.1642 -0.1575
30522WAT     H123893   8.324   0.409   3.339  2.3013 -1.1246  2.4897
30522WAT     H223894   8.252   0.332   3.448 -1.3284  0.9018  1.7123
30522WAT    EPW23895   8.256   0.399   3.393  0.4106 -0.1503  0.4382
30523WAT      O23896   3.449   7.773   2.557 -0.1126  0.0065 -0.3235
30523WAT     H123897   3.356   7.795   2.562  0.3433  1.9342  0.3615
30523WAT     H223898   3.454   7.685   2.595 -1.4582  0.5759  1.3173
30523WAT    EPW23899   3.437   7.764   2.563 -0.2300  0.3357 -0.0168
30524WAT      O23900   5.166   9.968   2.409 -0.8396 -0.3802 -0.2801
30524WAT     H123901   5.110   9.918   2.469 -2.6179  0.6333 -0.9985
30524WAT     H223902   5.143   9.934   2.322  1.2940 -1.4447 -0.4939
30524WAT    EPW23903   5.155   9.957   2.405 -0.7927 -0.3872 -0.4029
30525WAT      O23904   4.101   8.679   0.224 -0.0103 -0.7062  0.0075
30525WAT     H123905   4.012   8.716   0.225 -1.0113 -2.9237  0.0647
30525WAT     H223906   4.150   8.736   0.165 -1.4979  0.5130 -0.1260
30525WAT    EPW23907   4.095   8.691   0.217 -0.3388 -0.8383 -0.0026
30526WAT      O23908   6.349   0.869   1.032  0.4715 -0.4054 -0.1145
30526WAT     H123909   6.273   0.905   0.987  1.5934  3.3557  0.7022
30526WAT     H223910   6.388   0.943   1.079  2.8859 -2.8007  2.0514
30526WAT    EPW23911   6.344   0.883   1.032  0.9379 -0.2253  0.2789
30527WAT      O23912   2.915   6.436   3.809  0.3550  0.1319 -0.1594
30527WAT     H123913   2.862   6.462   3.733  0.8646  0.6568 -0.3316
30527WAT     H223914   2.992   6.394   3.771  0.2574 -0.2772  0.0873
30527WAT    EPW23915   2.918   6.434   3.794  0.4092  0.1469 -0.1495
30528WAT      O23916   5.041   8.916   1.097 -0.2958  0.3881  0.1384
30528WAT     H123917   5.071   8.838   1.049 -0.4382  0.7146 -0.4899
30528WAT     H223918   4.949   8.899   1.116 -0.4503  0.6059 -0.4126
30528WAT    EPW23919   5.033   8.903   1.093 -0.3350  0.4597 -0.0172
30529WAT      O23920   1.363   9.743   2.176 -0.0907 -0.7453  0.3651
30529WAT     H123921   1.383   9.795   2.098  0.8273 -1.0453  0.3862
30529WAT     H223922   1.425   9.669   2.171  0.6189 -0.2798  1.8649
30529WAT    EPW23923   1.374   9.740   2.165  0.1239 -0.7234  0.5655
30530WAT      O23924   7.609   1.009   2.125 -0.2454  0.0501  0.0403
30530WAT     H123925   7.623   0.944   2.056  2.2309 -0.6244  1.0497
30530WAT     H223926   7.527   1.052   2.102 -0.8341 -1.9326 -1.8669
30530WAT    EPW23927   7.600   1.006   2.113  0.0036 -0.3003 -0.0782
30531WAT      O23928   1.825   4.879   3.650 -0.0258  0.2101  0.2510
30531WAT     H123929   1.883   4.848   3.718 -2.7510  1.2563  3.3303
30531WAT     H223930   1.813   4.804   3.591  2.2540 -0.7949  0.9728
30531WAT    EPW23931   1.831   4.865   3.651 -0.0846  0.2151  0.7522
30532WAT      O23932   5.562   6.812   3.722  0.4150 -0.0151  0.9384
30532WAT     H123933   5.596   6.794   3.809 -1.9850 -3.1092  1.4211
30532WAT     H223934   5.540   6.905   3.723  0.5636  0.0594  3.6251
30532WAT    EPW23935   5.563   6.821   3.734  0.1178 -0.4134  1.3564
30533WAT      O23936   5.733   1.062   8.305 -0.8070 -0.0999 -0.0942
30533WAT     H123937   5.638   1.076   8.295 -0.9190  0.2554  1.1779
30533WAT     H223938   5.757   1.007   8.231 -1.9499  0.0723 -0.6267
30533WAT    EPW23939   5.723   1.057   8.294 -0.9723 -0.0304  0.0033
30534WAT      O23940  10.656   1.233   8.186  0.4601 -0.6579 -0.0472
30534WAT     H123941  10.639   1.172   8.114 -1.0238  0.4765 -0.7136
30534WAT     H223942  10.677   1.316   8.143 -0.3412  0.0099  0.8059
30534WAT    EPW23943  10.657   1.236   8.170  0.1583 -0.4202 -0.0224
30535WAT      O23944   1.554   3.408   8.429  0.0023  0.1351 -0.1214
30535WAT     H123945   1.488   3.379   8.365  0.1580  0.5274 -0.4593
30535WAT     H223946   1.508   3.471   8.484 -0.5975 -1.3573  1.1734
30535WAT    EPW23947   1.539   3.412   8.428 -0.0563 -0.0100  0.0048
30536WAT      O23948   5.310   4.422   2.316  0.3907 -0.4271 -0.7020
30536WAT     H123949   5.379   4.356   2.318 -0.2453 -1.2620 -3.1970
30536WAT     H223950   5.233   4.378   2.352  0.4994 -0.3315 -0.3479
30536WAT    EPW23951   5.309   4.408   2.321  0.3211 -0.5245 -0.9842
30537WAT      O23952   4.088   7.120   0.538 -0.3633 -0.3794 -0.4067
30537WAT     H123953   4.181   7.131   0.518 -0.2397 -0.6017  0.0244
30537WAT     H223954   4.068   7.191   0.599  0.1007 -1.6175  1.3027
30537WAT    EPW23955   4.098   7.130   0.544 -0.2856 -0.5720 -0.1244
30538WAT      O23956   0.256   5.866   1.296  0.2348  0.1530 -0.8388
30538WAT     H123957   0.322   5.929   1.326 -1.0425  1.4000 -0.5358
30538WAT     H223958   0.254   5.877   1.201  0.0503  0.5394 -0.7908
30538WAT    EPW23959   0.265   5.876   1.288  0.0420  0.3686 -0.7925
30539WAT      O23960   2.094   7.444   3.507 -0.6765 -0.2131  0.0582
30539WAT     H123961   2.009   7.439   3.550 -1.7638  0.4543 -1.9140
30539WAT     H223962   2.118   7.536   3.512 -0.9841 -0.0642 -1.0474
30539WAT    EPW23963   2.086   7.455   3.513 -0.8606 -0.1056 -0.3477
30540WAT      O23964   1.760   9.667   2.789  0.0436  0.0034  0.0071
30540WAT     H123965   1.799   9.744   2.747 -0.4591 -0.0860 -0.6343
30540WAT     H223966   1.798   9.666   2.877 -2.1097  2.6678  1.1049
30540WAT    EPW23967   1.770   9.677   2.795 -0.3067  0.3433  0.0672
30541WAT      O23968   2.185   8.098   2.409  0.1673  0.4259  0.6441
30541WAT     H123969   2.241   8.074   2.335 -0.9559  0.6182 -0.2947
30541WAT     H223970   2.116   8.152   2.370 -1.5986 -1.1322  1.4871
30541WAT    EPW23971   2.183   8.102   2.394 -0.2139  0.2460  0.6316
30542WAT      O23972   5.032   8.169   1.396  0.1218  0.0803 -0.3802
30542WAT     H123973   5.046   8.261   1.374  1.5401  0.1296  0.5546
30542WAT     H223974   5.089   8.154   1.472 -2.3438 -0.7735  1.4475
30542WAT    EPW23975   5.042   8.179   1.403 -0.0162 -0.0257 -0.0159
30543WAT      O23976   3.251  10.190   0.914  0.1975 -0.3065 -0.6532
30543WAT     H123977   3.211  10.249   0.978  1.5732  2.5727 -2.2770
30543WAT     H223978   3.344  10.212   0.914  1.4068 -4.4379  0.5324
30543WAT    EPW23979   3.258  10.200   0.922  0.5386 -0.4721 -0.7110
30544WAT      O23980   1.718   8.924   1.811 -0.5227 -0.5663 -0.2355
30544WAT     H123981   1.676   8.991   1.865  0.9516 -0.2282  0.5342
30544WAT     H223982   1.657   8.850   1.814 -2.0988  0.6433 -0.9720
30544WAT    EPW23983   1.704   8.923   1.818 -0.5361 -0.3624 -0.2311
30545WAT      O23984  10.479   2.700   7.885 -0.4352  0.2087 -0.6220
30545WAT     H123985  10.432   2.636   7.831 -1.9662  1.3028 -0.6543
30545WAT     H223986  10.437   2.783   7.864  1.6767  1.3033 -0.7909
30545WAT    EPW23987  10.467   2.703   7.875 -0.3591  0.4975 -0.6485
30546WAT      O23988   7.632   6.754   3.811  0.2695  0.7036 -0.1095
30546WAT     H123989   7.544   6.716   3.810 -0.4745  2.3053 -0.1435
30546WAT     H223990   7.690   6.682   3.836 -0.9823 -0.5165 -0.6315
30546WAT    EPW23991   7.628   6.740   3.814  0.0064  0.7539 -0.1827
30547WAT      O23992   4.660   4.184   0.602  0.1113 -0.0286 -1.0785
30547WAT     H123993   4.678   4.118   0.669 -0.2290 -1.2907 -2.2001
30547WAT     H223994   4.718   4.257   0.625  1.5255 -1.2447 -0.6023
30547WAT    EPW23995   4.670   4.185   0.614  0.2530 -0.3555 -1.1636
30548WAT      O23996  10.553   5.558   0.413 -0.5607  0.6085  0.2268
30548WAT     H123997  10.501   5.481   0.437 -1.7312  1.2942 -0.0382
30548WAT     H223998  10.489   5.628   0.403  0.6506  2.2299  2.7348
30548WAT    EPW23999  10.537   5.557   0.415 -0.5555  0.9129  0.5227
30549WAT      O24000   6.794   1.475   1.486  0.0345  0.4255 -0.4066
30549WAT     H124001   6.843   1.459   1.567 -0.2977 -0.0949 -0.2970
30549WAT     H224002   6.860   1.505   1.423  0.6734 -1.0967 -0.5161
30549WAT    EPW24003   6.809   1.477   1.489  0.0749  0.1561 -0.4066
30550WAT      O24004   2.202   8.820   3.868 -0.1017  0.0309 -0.6623
30550WAT     H124005   2.213   8.863   3.783  0.1429 -0.4535 -0.8820
30550WAT     H224006   2.131   8.758   3.854  0.1226 -0.2450 -0.5968
30550WAT    EPW24007   2.194   8.818   3.855 -0.0398 -0.0687 -0.6827
30551WAT      O24008   2.261   4.555   3.111 -0.4477  0.5054 -0.1697
30551WAT     H124009   2.186   4.553   3.170  0.1275 -0.6159  0.5633
30551WAT     H224010   2.273   4.464   3.084  0.0452  0.8240 -1.0641
30551WAT    EPW24011   2.253   4.543   3.116 -0.3068  0.3994 -0.1910
30552WAT      O24012   4.659   8.294   2.882 -0.4245 -0.0507 -0.2556
30552WAT     H124013   4.609   8.376   2.882 -1.1559 -0.4921 -1.0244
30552WAT     H224014   4.594   8.226   2.868  0.4754 -0.5790 -2.0956
30552WAT    EPW24015   4.644   8.296   2.880 -0.4025 -0.1783 -0.5996
30553WAT      O24016   7.545   4.085   2.833 -0.2764 -0.0799 -0.0836
30553WAT     H124017   7.480   4.052   2.772 -1.1083  0.4171  0.5157
30553WAT     H224018   7.498   4.095   2.916  0.4434  0.7081  0.2510
30553WAT    EPW24019   7.530   4.082   2.836 -0.2911  0.0896  0.0396
30554WAT      O24020   9.402   3.448   8.397  0.2183  0.5880  0.5251
30554WAT     H124021   9.402   3.540   8.372  0.0457  0.0300 -1.8370
30554WAT     H224022   9.485   3.435   8.443 -0.3237  2.1393  2.0233
30554WAT    EPW24023   9.413   3.458   8.400  0.1240  0.7191  0.4115
30555WAT      O24024   1.723   6.410   0.534  0.4050  0.5171 -0.0617
30555WAT     H124025   1.736   6.505   0.535  1.3797  0.3862  0.1526
30555WAT     H224026   1.628   6.399   0.529  0.2900  1.5036 -0.1890
30555WAT    EPW24027   1.712   6.421   0.533  0.5183  0.6301 -0.0502
30556WAT      O24028   1.346   6.604   2.887 -0.3108  0.5260 -0.8008
30556WAT     H124029   1.367   6.530   2.831  1.8048  1.9448 -2.0006
30556WAT     H224030   1.266   6.577   2.933  0.2124 -2.3418 -1.3803
30556WAT    EPW24031   1.338   6.591   2.886  0.0373  0.3350 -1.0355
30557WAT      O24032   2.405   7.009   3.941 -0.1209  0.1164  0.2520
30557WAT     H124033   2.420   7.053   3.857 -1.7640 -0.1095 -0.1896
30557WAT     H224034   2.389   6.918   3.918 -0.1904 -0.0237  0.8501
30557WAT    EPW24035   2.405   7.003   3.927 -0.3468  0.0682  0.2726
30558WAT      O24036   2.788   6.615   4.324 -0.0665  0.4023 -0.5053
30558WAT     H124037   2.796   6.532   4.371  0.6394  0.3093 -0.7821
30558WAT     H224038   2.698   6.643   4.340 -0.7631 -1.1056 -1.5395
30558WAT    EPW24039   2.777   6.608   4.332 -0.0652  0.1912 -0.6781
30559WAT      O24040   0.878   6.587   1.475 -0.6603 -0.3004  0.1222
30559WAT     H124041   0.845   6.537   1.549 -0.3981 -1.7419 -0.6974
30559WAT     H224042   0.806   6.588   1.412 -0.4977 -0.0620 -0.0634
30559WAT    EPW24043   0.864   6.580   1.476 -0.6042 -0.4594 -0.0104
30560WAT      O24044   1.939   6.197   1.976  0.5319  0.4940  0.0167
30560WAT     H124045   1.889   6.116   1.975 -0.5938  1.1641 -0.1413
30560WAT     H224046   1.953   6.217   1.883  1.1703  0.2692  0.0615
30560WAT    EPW24047   1.934   6.189   1.963  0.4677  0.5527  0.0018
30561WAT      O24048   3.958   7.201   3.200 -0.0042  0.1210 -0.1411
30561WAT     H124049   3.879   7.243   3.234 -1.3897 -2.4950  0.1641
30561WAT     H224050   4.014   7.273   3.173 -1.3760  2.1631  2.0775
30561WAT    EPW24051   3.955   7.216   3.201 -0.3679  0.0453  0.1919
30562WAT      O24052   5.830   8.662   3.207 -0.0497 -0.0406 -0.6765
30562WAT     H124053   5.761   8.599   3.185  1.9723 -1.4576 -3.7631
30562WAT     H224054   5.786   8.747   3.208 -2.6132 -1.2075  2.2271
30562WAT    EPW24055   5.815   8.665   3.204 -0.1209 -0.3815 -0.7006
30563WAT      O24056   4.889   8.942   0.481 -0.2232  0.3283  0.5522
30563WAT     H124057   4.937   8.947   0.399 -1.1961 -0.5436 -0.0956
30563WAT     H224058   4.920   9.017   0.532  0.5694  0.7340 -0.5006
30563WAT    EPW24059   4.899   8.952   0.477 -0.2472  0.2670  0.3279
30564WAT      O24060   3.229   6.381   2.240 -0.5055  0.0042 -0.8839
30564WAT     H124061   3.162   6.314   2.251 -0.2440  0.0540  1.5079
30564WAT     H224062   3.267   6.363   2.154 -3.5362  0.0036 -2.3279
30564WAT    EPW24063   3.225   6.369   2.230 -0.8707  0.0107 -0.7590
30565WAT      O24064   6.881   4.119   8.633  0.2164 -0.4658  0.9895
30565WAT     H124065   6.890   4.173   8.711 -3.0672 -0.3983  1.4690
30565WAT     H224066   6.835   4.174   8.570  2.3777 -0.6770 -0.9408
30565WAT    EPW24067   6.876   4.133   8.635  0.0682 -0.4847  0.7987
30566WAT      O24068   2.320   9.058   1.345 -0.2340 -0.0686 -0.1744
30566WAT     H124069   2.392   9.061   1.408  1.1252 -2.1609 -1.5133
30566WAT     H224070   2.303   9.150   1.324 -0.3671  0.6542  2.7502
30566WAT    EPW24071   2.327   9.071   1.350 -0.0722 -0.2489  0.0347
30567WAT      O24072   1.462   6.975   4.894  0.8106 -1.1570  0.0123
30567WAT     H124073   1.372   7.009   4.890  0.4097 -2.2529 -0.9731
30567WAT     H224074   1.497   7.009   4.976 -0.4019 -0.4463  0.2612
30567WAT    EPW24075   1.454   6.984   4.904  0.5978 -1.2078 -0.0846
30568WAT      O24076   7.472   0.416   1.303  0.5588 -0.1438 -0.1452
30568WAT     H124077   7.454   0.462   1.221 -0.9663  0.9033  0.7441
30568WAT     H224078   7.563   0.388   1.294 -0.0191 -1.5945 -2.9270
30568WAT    EPW24079   7.482   0.418   1.291  0.2816 -0.1970 -0.3948
30569WAT      O24080   2.371  10.301   0.086 -0.1418 -0.0636  0.3023
30569WAT     H124081   2.430  10.240   0.130 -0.0988 -1.1134 -1.1321
30569WAT     H224082   2.348  10.257   0.004  1.9076  2.8812 -2.0338
30569WAT    EPW24083   2.375  10.287   0.081  0.1341  0.1864 -0.1950
30570WAT      O24084   1.360   6.790   0.577 -0.8900  0.1584 -0.4507
30570WAT     H124085   1.333   6.701   0.554  2.5186 -1.0599 -0.3088
30570WAT     H224086   1.308   6.810   0.655 -1.0912 -2.1260  0.0915
30570WAT    EPW24087   1.350   6.781   0.585 -0.4670 -0.3035 -0.3605
30571WAT      O24088  10.433   3.968   8.626  0.5719  0.2301  0.0222
30571WAT     H124089  10.404   4.059   8.632  0.4963  0.2832 -0.9588
30571WAT     H224090  10.521   3.973   8.588  1.2108 -0.0266  1.4093
30571WAT    EPW24091  10.441   3.981   8.622  0.6456  0.2031  0.0753
30572WAT      O24092   5.236   9.528   2.858 -0.1326  0.0684  0.1079
30572WAT     H124093   5.281   9.478   2.789  0.5156 -0.0689  0.6192
30572WAT     H224094   5.143   9.519   2.837  0.0988  1.8184 -1.9915
30572WAT    EPW24095   5.230   9.520   2.846 -0.0165  0.2809 -0.1016
30573WAT      O24096   3.247   5.883   1.069  0.3177  0.0018  0.3113
30573WAT     H124097   3.247   5.977   1.091  1.0307 -0.0499  0.5502
30573WAT     H224098   3.329   5.850   1.106 -0.8006 -1.1189  1.9151
30573WAT    EPW24099   3.258   5.891   1.077  0.2643 -0.1528  0.5544
30574WAT      O24100   2.790   6.079   2.839  0.1204  0.7100 -0.5774
30574WAT     H124101   2.740   6.072   2.920 -1.6389  1.7213 -1.5039
30574WAT     H224102   2.769   6.166   2.805 -1.6382 -0.7049 -3.5881
30574WAT    EPW24103   2.781   6.090   2.845 -0.3436  0.6568 -1.0967
30575WAT      O24104   2.036   5.262   0.327  0.1323  0.5233 -0.7202
30575WAT     H124105   2.005   5.352   0.322  2.1592  1.3032 -0.2518
30575WAT     H224106   2.114   5.261   0.272  2.2892  0.0720  2.1288
30575WAT    EPW24107   2.042   5.273   0.319  0.6840  0.5667 -0.2826
30576WAT      O24108   4.506   7.050   0.646  0.6801  0.1491 -0.4175
30576WAT     H124109   4.546   7.082   0.727  1.8842  0.8985 -1.2799
30576WAT     H224110   4.426   7.007   0.675  0.0652  2.1064  0.9889
30576WAT    EPW24111   4.501   7.049   0.661  0.7579  0.5059 -0.3457
30577WAT      O24112   1.754   6.667   0.685  0.7022 -0.1053 -0.5256
30577WAT     H124113   1.709   6.749   0.709 -0.0691 -0.5166 -0.5281
30577WAT     H224114   1.847   6.689   0.691  0.6060 -0.0220  2.3841
30577WAT    EPW24115   1.760   6.681   0.689  0.5878 -0.1485 -0.1422
30578WAT      O24116  10.592   7.451   8.845  0.4167  0.1250 -0.0242
30578WAT     H124117  10.504   7.481   8.870 -0.2390 -2.1863  0.6311
30578WAT     H224118  10.643   7.456   8.926  0.3702 -0.3442  0.0312
30578WAT    EPW24119  10.587   7.456   8.859  0.3238 -0.2418  0.0691
30579WAT      O24120   6.191   7.364   2.278  0.3802  0.9676 -0.1951
30579WAT     H124121   6.152   7.289   2.323  1.5644  1.3344  1.5559
30579WAT     H224122   6.124   7.433   2.285  0.0755  0.6599 -0.0400
30579WAT    EPW24123   6.177   7.363   2.285  0.4961  0.9754  0.0561
30580WAT      O24124   0.561   1.817   8.644 -0.0315  0.2582  0.6404
30580WAT     H124125   0.570   1.863   8.560  0.0845  0.5163  0.7925
30580WAT     H224126   0.604   1.874   8.707 -2.7073  1.5856  1.4219
30580WAT    EPW24127   0.568   1.831   8.641 -0.3691  0.4674  0.7639
30581WAT      O24128   8.323   5.181   5.608  0.2816 -0.0927  0.3421
30581WAT     H124129   8.241   5.132   5.611 -0.4020  1.0308  0.5417
30581WAT     H224130   8.314   5.239   5.532  0.0827  1.3417  1.4050
30581WAT    EPW24131   8.311   5.182   5.599  0.1650  0.2446  0.5085
30582WAT      O24132   4.213   5.867   2.882 -0.3296 -0.5598 -0.2643
30582WAT     H124133   4.174   5.779   2.877  1.0751 -1.2469  0.2089
30582WAT     H224134   4.157   5.914   2.943 -0.6753 -1.3779  0.0726
30582WAT    EPW24135   4.201   5.861   2.889 -0.1898 -0.7584 -0.1575
30583WAT      O24136   7.586   3.294   7.953  0.2614 -0.2381 -0.1475
30583WAT     H124137   7.643   3.371   7.958  1.1026 -0.9015  2.8370
30583WAT     H224138   7.646   3.220   7.940 -0.3063 -0.6240 -0.6452
30583WAT    EPW24139   7.602   3.294   7.952  0.2973 -0.3765  0.1805
30584WAT      O24140   1.206   7.005   2.747 -0.3988 -0.4277 -0.1335
30584WAT     H124141   1.229   7.088   2.705  1.9881 -1.2717 -0.6236
30584WAT     H224142   1.223   7.020   2.840 -0.2193 -0.2926 -0.1870
30584WAT    EPW24143   1.211   7.018   2.754 -0.0603 -0.5212 -0.2052
30585WAT      O24144   3.355   7.672   5.203 -0.1893  0.0187  0.2297
30585WAT     H124145   3.293   7.703   5.137  0.4041  0.8781  0.0478
30585WAT     H224146   3.406   7.750   5.224  2.3842 -1.1294 -1.3193
30585WAT    EPW24147   3.353   7.687   5.197  0.2285 -0.0193  0.0014
30586WAT      O24148   3.502   9.387   3.223 -0.1669 -0.1035  0.2345
30586WAT     H124149   3.419   9.412   3.182 -0.8626 -1.1354  0.9722
30586WAT     H224150   3.511   9.445   3.298  0.2415  0.6132 -0.3559
30586WAT    EPW24151   3.493   9.398   3.227 -0.2048 -0.1445  0.2539
30587WAT      O24152   9.744   7.130   1.315 -1.0994 -0.7691 -0.7399
30587WAT     H124153   9.725   7.223   1.313 -0.6209 -0.6480  0.0289
30587WAT     H224154   9.800   7.115   1.238 -1.1593 -0.4241 -0.8513
30587WAT    EPW24155   9.749   7.140   1.304 -1.0443 -0.7074 -0.6531
30588WAT      O24156   9.823   2.307   7.591 -0.4965  0.2854 -0.0225
30588WAT     H124157   9.863   2.391   7.570 -3.8721  1.9386 -0.4759
30588WAT     H224158   9.844   2.251   7.516  0.1853  1.3062 -0.6166
30588WAT    EPW24159   9.831   2.310   7.578 -0.8521  0.6382 -0.1607
30589WAT      O24160   2.334   5.053   4.162  0.0630 -0.0472 -0.2260
30589WAT     H124161   2.356   5.093   4.246  2.4613 -1.3723 -0.1233
30589WAT     H224162   2.286   4.974   4.185  1.5089 -0.8931  0.0069
30589WAT    EPW24163   2.331   5.048   4.176  0.5699 -0.3335 -0.1814
30590WAT      O24164   3.413   7.524   3.226 -0.0058 -0.5413  0.2415
30590WAT     H124165   3.358   7.554   3.153 -1.7589  0.5138  1.9044
30590WAT     H224166   3.502   7.547   3.199 -0.4052 -1.4804 -2.1561
30590WAT    EPW24167   3.418   7.531   3.213 -0.2898 -0.5262  0.1447
30591WAT      O24168   8.941   3.863   6.706 -0.3626 -0.6527 -0.4205
30591WAT     H124169   8.974   3.889   6.792 -0.8540 -2.8440  0.5030
30591WAT     H224170   8.875   3.929   6.684 -2.2463 -1.4787  2.2131
30591WAT    EPW24171   8.937   3.875   6.714 -0.6762 -1.0507  0.0486
30592WAT      O24172   7.790   3.894   7.946 -0.3686 -0.2024 -0.2379
30592WAT     H124173   7.833   3.811   7.924 -0.6937 -0.3064 -0.4960
30592WAT     H224174   7.838   3.960   7.898  0.6579 -0.0784  0.9097
30592WAT    EPW24175   7.802   3.891   7.937 -0.2761 -0.1998 -0.1204
30593WAT      O24176   4.406   8.332   4.982 -0.2757  0.3321 -0.2138
30593WAT     H124177   4.324   8.286   4.997 -0.5749  0.9947  0.2102
30593WAT     H224178   4.456   8.319   5.063 -0.5163  1.0633  0.0565
30593WAT    EPW24179   4.402   8.324   4.994 -0.3467  0.5159 -0.1223
30594WAT      O24180   9.279   4.642   7.983 -0.2048  0.7005 -0.0584
30594WAT     H124181   9.275   4.721   8.036 -1.4741  0.3360  0.4052
30594WAT     H224182   9.191   4.631   7.949 -0.3443 -1.1275  0.7934
30594WAT    EPW24183   9.267   4.651   7.985 -0.3910  0.4115  0.1154
30595WAT      O24184   0.010   2.415   8.172  0.2238 -0.0418  0.6502
30595WAT     H124185   0.005   2.403   8.077 -1.1220 -2.6396  0.9436
30595WAT     H224186   0.102   2.434   8.189  0.6862 -0.5344 -1.0986
30595WAT    EPW24187   0.022   2.416   8.162  0.1073 -0.4494  0.4582
30596WAT      O24188   9.322   1.311   8.917 -0.3174  0.3417 -0.0532
30596WAT     H124189   9.380   1.302   8.992  3.8285 -1.9288 -3.1328
30596WAT     H224190   9.266   1.233   8.921  0.8745 -0.5296 -0.0566
30596WAT    EPW24191   9.322   1.299   8.928  0.3872 -0.0727 -0.4597
30597WAT      O24192   1.218   2.777   7.166 -0.4109 -0.0931 -0.8055
30597WAT     H124193   1.221   2.682   7.161  2.9708 -0.0407 -2.6964
30597WAT     H224194   1.161   2.803   7.093  1.3279 -0.6861 -2.4587
30597WAT    EPW24195   1.211   2.768   7.156  0.2645 -0.1644 -1.2729
30598WAT      O24196   4.393   4.944   2.943 -0.2201 -0.0150 -0.5420
30598WAT     H124197   4.425   4.870   2.995 -0.0090  0.0270 -0.6110
30598WAT     H224198   4.405   5.020   3.000  0.3833  0.0856 -0.7989
30598WAT    EPW24199   4.399   4.944   2.958 -0.1125  0.0038 -0.5850
30599WAT      O24200   8.945   1.208   8.973  0.3029 -0.5039  0.4094
30599WAT     H124201   8.927   1.272   8.904  0.0019 -0.6405  0.3585
30599WAT     H224202   8.880   1.138   8.959 -0.4120 -0.0729  1.4158
30599WAT    EPW24203   8.934   1.207   8.962  0.1688 -0.4650  0.5355
30600WAT      O24204   1.934   5.174   1.462  0.1952  0.7648 -0.4343
30600WAT     H124205   2.028   5.166   1.446  0.3007  0.1944  0.4119
30600WAT     H224206   1.914   5.103   1.523 -1.5685 -1.8517 -3.6899
30600WAT    EPW24207   1.944   5.164   1.468 -0.0236  0.3445 -0.7521
30601WAT      O24208   4.558   0.072   4.806  0.3438 -0.2669 -0.0216
30601WAT     H124209   4.649   0.085   4.831  0.1505  0.9067  0.1404
30601WAT     H224210   4.517   0.029   4.881  0.5561  0.0325  0.2622
30601WAT    EPW24211   4.565   0.068   4.819  0.3462 -0.0726  0.0372
30602WAT      O24212   0.941   1.614   8.619  0.4708 -0.0338  0.1558
30602WAT     H124213   0.894   1.595   8.701  1.5339  0.3959  0.8866
30602WAT     H224214   0.914   1.702   8.596  0.5421  0.0328  0.3209
30602WAT    EPW24215   0.931   1.623   8.627  0.6205  0.0317  0.2737
30603WAT      O24216   0.954   8.152   2.972 -0.1478 -0.3132 -0.8990
30603WAT     H124217   1.007   8.207   2.914  0.3239 -0.0594 -0.2469
30603WAT     H224218   0.901   8.098   2.913 -1.3795  1.5436 -1.5610
30603WAT    EPW24219   0.954   8.152   2.957 -0.2480 -0.0348 -0.9003
30604WAT      O24220   1.971   9.111   2.519 -0.3954 -0.3336 -0.5365
30604WAT     H124221   2.034   9.059   2.470 -0.5341 -0.7391 -0.2925
30604WAT     H224222   1.907   9.047   2.550 -1.9612  0.2604 -2.3182
30604WAT    EPW24223   1.971   9.095   2.517 -0.6203 -0.3090 -0.7393
30605WAT      O24224   2.190   8.881   0.387 -0.4052  0.1927 -0.5330
30605WAT     H124225   2.220   8.876   0.296  0.8890  1.0648 -0.1865
30605WAT     H224226   2.264   8.921   0.434  0.8837 -4.3339  1.8197
30605WAT    EPW24227   2.204   8.886   0.381 -0.0645 -0.2894 -0.1770
30606WAT      O24228   4.930   7.594   3.671  0.1183 -0.9102  0.1171
30606WAT     H124229   4.899   7.619   3.584 -0.6168  0.8980  0.8449
30606WAT     H224230   4.850   7.571   3.719 -0.0663  2.1948  1.5193
30606WAT    EPW24231   4.915   7.594   3.666 -0.0031 -0.2620  0.3980
30607WAT      O24232   4.829   6.705   2.330 -0.5674 -0.5305 -0.1858
30607WAT     H124233   4.798   6.685   2.419  0.9064  0.3239  0.5593
30607WAT     H224234   4.870   6.791   2.339 -0.5112 -0.3760 -1.7458
30607WAT    EPW24235   4.830   6.714   2.343 -0.3655 -0.3974 -0.2931
30608WAT      O24236   6.796   7.261   0.807 -0.3560 -0.3769 -0.2120
30608WAT     H124237   6.711   7.304   0.812  0.2496  0.7296  1.5007
30608WAT     H224238   6.843   7.310   0.739 -0.4543  0.2570  0.1604
30608WAT    EPW24239   6.791   7.273   0.799 -0.2890 -0.1473  0.0629
30609WAT      O24240   9.766   2.196   8.070 -0.0756 -0.1214  0.4053
30609WAT     H124241   9.737   2.108   8.044 -1.3305  0.1912  0.6916
30609WAT     H224242   9.855   2.183   8.102 -0.3816 -1.3737  0.8246
30609WAT    EPW24243   9.774   2.183   8.071 -0.2809 -0.2453  0.4983
30610WAT      O24244  10.325   4.255   5.899 -0.1425 -0.3383 -0.0381
30610WAT     H124245  10.374   4.238   5.979 -0.9437 -1.3484  0.2514
30610WAT     H224246  10.262   4.184   5.893 -2.0342  1.2508 -0.0448
30610WAT    EPW24247  10.323   4.244   5.908 -0.4978 -0.2618 -0.0005
30611WAT      O24248   1.604   9.279   4.065 -0.1877  0.8726 -0.1079
30611WAT     H124249   1.647   9.348   4.115  1.4472 -1.6664  2.2373
30611WAT     H224250   1.524   9.260   4.115 -0.8960  1.3341 -1.0240
30611WAT    EPW24251   1.599   9.286   4.078 -0.0655  0.5994  0.0806
30612WAT      O24252   3.441   5.400   2.623 -0.0381 -0.1575 -0.0123
30612WAT     H124253   3.402   5.463   2.563  0.3565 -0.0932 -0.2061
30612WAT     H224254   3.417   5.314   2.586 -1.1489 -0.1401  0.6237
30612WAT    EPW24255   3.433   5.397   2.610 -0.1324 -0.1464  0.0460
30613WAT      O24256   1.729   8.481   3.025  0.2203  0.3883  0.1705
30613WAT     H124257   1.775   8.563   3.005  0.5900 -0.3584 -2.5173
30613WAT     H224258   1.641   8.508   3.051 -0.0927  1.6861 -1.9541
30613WAT    EPW24259   1.724   8.495   3.026  0.2277  0.4611 -0.4641
30614WAT      O24260   8.854   4.070   8.657  0.2198  0.3468  0.3134
30614WAT     H124261   8.854   4.103   8.567 -0.2030 -1.4863 -0.4180
30614WAT     H224262   8.857   3.975   8.647  1.9452  0.1271  2.2955
30614WAT    EPW24263   8.854   4.062   8.644  0.3924  0.0761  0.4787
30615WAT      O24264   6.285   6.656   1.006  0.4953  0.1851 -0.7254
30615WAT     H124265   6.233   6.578   0.985 -0.3993  1.3443 -3.1342
30615WAT     H224266   6.375   6.626   1.005  0.0985 -1.1803  0.2952
30615WAT    EPW24267   6.290   6.642   1.003  0.3247  0.1581 -0.9085
30616WAT      O24268   6.951   0.869   1.496 -0.3795 -0.1454 -0.4552
30616WAT     H124269   6.891   0.811   1.450 -2.0028 -0.0939  1.5020
30616WAT     H224270   6.931   0.956   1.462 -1.1457 -0.1726 -0.0690
30616WAT    EPW24271   6.941   0.873   1.485 -0.6943 -0.1422 -0.1462
30617WAT      O24272   8.902   1.553   8.952 -1.1486  0.0354 -0.2694
30617WAT     H124273   8.878   1.633   8.999 -2.2949 -0.2187 -0.4050
30617WAT     H224274   8.987   1.574   8.913 -1.5635  1.2959 -0.5514
30617WAT    EPW24275   8.910   1.566   8.953 -1.3547  0.1681 -0.3247
30618WAT      O24276   1.556   6.693   2.629 -0.3841 -0.0852  0.0413
30618WAT     H124277   1.565   6.603   2.661  1.1095 -0.2902 -0.8868
30618WAT     H224278   1.633   6.738   2.665 -0.2503  0.3978 -0.8444
30618WAT    EPW24279   1.568   6.687   2.638 -0.1694 -0.0486 -0.1980
30619WAT      O24280   1.378   9.590   4.358 -0.1289  0.1103  0.2068
30619WAT     H124281   1.339   9.608   4.444  0.9676 -1.7007  1.1274
30619WAT     H224282   1.472   9.601   4.371  0.0900 -0.6138 -0.6522
30619WAT    EPW24283   1.385   9.594   4.371  0.0447 -0.2241  0.2148
30620WAT      O24284   4.530   7.131   2.400 -0.4830 -0.5419  0.7035
30620WAT     H124285   4.587   7.119   2.324 -2.6219  1.5343 -1.4148
30620WAT     H224286   4.459   7.068   2.388 -0.4224 -0.7730  1.4720
30620WAT    EPW24287   4.528   7.121   2.388 -0.7572 -0.2983  0.5254
30621WAT      O24288   3.684   8.440   2.161  0.5233 -0.2857  0.3481
30621WAT     H124289   3.753   8.466   2.100  0.4484 -1.1082 -0.1015
30621WAT     H224290   3.704   8.350   2.184 -0.1394 -0.3871  0.5645
30621WAT    EPW24291   3.696   8.432   2.156  0.4261 -0.4077  0.3173
30622WAT      O24292  10.578   0.592   8.664 -0.8243 -0.9148  0.3413
30622WAT     H124293  10.558   0.621   8.754 -0.7975  0.4247 -0.0645
30622WAT     H224294  10.664   0.551   8.671 -0.6066 -0.3952  0.8478
30622WAT    EPW24295  10.586   0.591   8.677 -0.7920 -0.6696  0.3548
30623WAT      O24296   4.238   6.415   2.759 -0.2098 -0.1985 -0.2811
30623WAT     H124297   4.189   6.359   2.699  1.2132 -1.3669 -0.4203
30623WAT     H224298   4.285   6.354   2.816  1.6299  0.7953 -0.6309
30623WAT    EPW24299   4.238   6.399   2.758  0.2208 -0.2215 -0.3456
30624WAT      O24300   2.723   8.429   0.384  0.5129 -0.1535  0.5751
30624WAT     H124301   2.682   8.351   0.421 -0.8452 -0.7410 -1.9318
30624WAT     H224302   2.670   8.502   0.415 -0.9118 -0.6791 -0.5143
30624WAT    EPW24303   2.711   8.428   0.393  0.1459 -0.3004  0.1008
30625WAT      O24304   0.969   9.101   0.283  0.5550 -0.1358  0.2580
30625WAT     H124305   0.915   9.048   0.224  1.4443 -0.9202  0.1224
30625WAT     H224306   0.963   9.057   0.368  0.2992  0.2671  0.4527
30625WAT    EPW24307   0.961   9.089   0.286  0.6385 -0.1860  0.2658
30626WAT      O24308   4.650   3.347   2.638  0.0910  0.1291  0.8715
30626WAT     H124309   4.593   3.336   2.713 -1.8590  0.4200 -0.4999
30626WAT     H224310   4.641   3.266   2.588  0.0915  0.5663  0.1418
30626WAT    EPW24311   4.642   3.335   2.641 -0.1664  0.2251  0.5944
30627WAT      O24312   1.589   7.126   1.137 -0.0825 -0.1266 -0.0316
30627WAT     H124313   1.631   7.044   1.112 -0.7027 -0.2160 -0.8007
30627WAT     H224314   1.552   7.160   1.056 -0.8833  0.3033  0.4965
30627WAT    EPW24315   1.590   7.120   1.123 -0.2699 -0.0820 -0.0634
30628WAT      O24316   1.477   3.489   6.634 -0.7028 -0.3039  0.1737
30628WAT     H124317   1.469   3.399   6.666 -1.8946  0.2664  1.6616
30628WAT     H224318   1.566   3.515   6.656  0.4089 -1.7549 -2.2135
30628WAT    EPW24319   1.487   3.480   6.641 -0.7133 -0.4200  0.0548
30629WAT      O24320   0.545   3.481   7.447  0.2483 -0.4515  0.4553
30629WAT     H124321   0.615   3.538   7.481  1.7738 -1.9113 -0.1235
30629WAT     H224322   0.561   3.397   7.488 -1.1355 -0.8545  0.2134
30629WAT    EPW24323   0.556   3.478   7.457  0.2670 -0.6974  0.3469
30630WAT      O24324   7.323   1.486   7.967  0.1334 -0.8292 -0.0604
30630WAT     H124325   7.261   1.413   7.974  0.1140 -0.7551  0.6850
30630WAT     H224326   7.367   1.487   8.052  0.6864 -0.4613 -0.3505
30630WAT    EPW24327   7.320   1.477   7.979  0.2038 -0.7709 -0.0002
30631WAT      O24328   1.687   2.085   2.518 -0.3146 -0.3167  0.3662
30631WAT     H124329   1.597   2.084   2.484 -0.0668  0.2669 -0.3331
30631WAT     H224330   1.724   2.003   2.486 -0.1028  0.1992 -0.7733
30631WAT    EPW24331   1.680   2.074   2.509 -0.2540 -0.1717  0.1236
30632WAT      O24332   3.051   7.293   2.461  0.1985  0.0557 -0.2127
30632WAT     H124333   3.145   7.299   2.445 -0.0455  1.6813 -1.2192
30632WAT     H224334   3.012   7.292   2.374 -0.6984 -2.1274  0.1310
30632WAT    EPW24335   3.058   7.294   2.448  0.0480 -0.0179 -0.3002
30633WAT      O24336  10.387   0.910   3.862 -0.1712  0.2629 -0.5111
30633WAT     H124337  10.398   0.964   3.940 -0.5348  1.4742 -1.2727
30633WAT     H224338  10.467   0.925   3.811 -0.8676  1.1985 -1.3676
30633WAT    EPW24339  10.399   0.919   3.865 -0.3109  0.5461 -0.7246
30634WAT      O24340   3.453   6.470   1.280  0.6852 -0.3134  0.0073
30634WAT     H124341   3.368   6.439   1.310  0.8343 -2.0716 -1.2179
30634WAT     H224342   3.433   6.535   1.212  0.2638 -1.5783 -1.1205
30634WAT    EPW24343   3.439   6.475   1.275  0.6492 -0.7124 -0.3030
30635WAT      O24344   1.427   4.923   1.710 -0.3582  0.3064  0.8792
30635WAT     H124345   1.468   4.998   1.668 -1.4265 -0.7658 -2.3649
30635WAT     H224346   1.500   4.870   1.742  0.5487  0.9613 -0.0582
30635WAT    EPW24347   1.442   4.926   1.709 -0.3795  0.2515  0.3277
30636WAT      O24348   4.285   9.702   0.844  0.2221 -0.5166  0.5559
30636WAT     H124349   4.266   9.622   0.893 -2.6245 -0.4357 -0.2584
30636WAT     H224350   4.245   9.688   0.759  1.2643  1.0761 -0.2403
30636WAT    EPW24351   4.277   9.690   0.840 -0.0157 -0.2956  0.3435
30637WAT      O24352   2.972  10.344   2.978 -0.3497 -0.4553  0.2175
30637WAT     H124353   3.050  10.387   3.013  0.6230 -1.5770 -0.5087
30637WAT     H224354   2.973  10.365   2.884 -0.5867 -0.9807  0.0949
30637WAT    EPW24355   2.983  10.353   2.970 -0.2527 -0.6728  0.1056
30638WAT      O24356   1.980   4.015   5.535  0.4955 -0.6579  0.1583
30638WAT     H124357   2.044   3.946   5.521 -0.1365 -1.4316  0.9164
30638WAT     H224358   1.895   3.971   5.528  0.0723  0.1012  0.3494
30638WAT    EPW24359   1.977   4.000   5.533  0.3564 -0.6597  0.2832
30639WAT      O24360   1.962   8.154   0.760  0.1552  0.5799 -0.0485
30639WAT     H124361   1.877   8.127   0.723  0.2746  0.9318 -0.5910
30639WAT     H224362   2.025   8.140   0.689  0.4015  1.1773  0.0423
30639WAT    EPW24363   1.959   8.149   0.746  0.2034  0.7052 -0.1081
30640WAT      O24364   0.878   7.483   2.764  0.9457  0.2233 -0.2190
30640WAT     H124365   0.788   7.494   2.795  0.7561 -1.2656 -0.1889
30640WAT     H224366   0.918   7.425   2.828  2.3060  1.7835  0.4150
30640WAT    EPW24367   0.871   7.477   2.776  1.1001  0.2329 -0.1314
30641WAT      O24368  10.648   1.793   3.777  0.4596  0.0299 -0.2949
30641WAT     H124369  10.664   1.701   3.794 -0.6298 -0.1603 -0.2070
30641WAT     H224370  10.652   1.834   3.864  0.7494  0.0266 -0.3086
30641WAT    EPW24371  10.650   1.787   3.791  0.3538  0.0044 -0.2851
30642WAT      O24372  10.531   3.698   7.834 -0.5203 -0.4547 -0.8337
30642WAT     H124373  10.512   3.636   7.904 -0.8475 -0.9395 -1.3499
30642WAT     H224374  10.550   3.644   7.758 -2.0187  0.0653 -1.6159
30642WAT    EPW24375  10.531   3.683   7.833 -0.7615 -0.4500 -1.0049
30643WAT      O24376  10.254   8.226   3.435  0.0518 -0.1009  0.5544
30643WAT     H124377  10.264   8.140   3.475 -4.6519 -0.9602  0.4554
30643WAT     H224378  10.200   8.210   3.357  0.5525  2.7440 -0.5052
30643WAT    EPW24379  10.248   8.212   3.430 -0.5026  0.1612  0.4015
30644WAT      O24380   3.406   3.696   2.502  0.1540 -0.3876  0.5522
30644WAT     H124381   3.353   3.687   2.422 -1.2097 -0.3102  1.4130
30644WAT     H224382   3.493   3.722   2.471 -0.6751  0.8671 -0.8386
30644WAT    EPW24383   3.410   3.698   2.487 -0.1352 -0.2118  0.4822
30645WAT      O24384   5.968   8.354   4.383  0.0693 -0.3427 -0.3891
30645WAT     H124385   6.050   8.402   4.380  0.2027 -0.2520  2.6178
30645WAT     H224386   5.901   8.422   4.391  0.2229 -0.4584  3.3439
30645WAT    EPW24387   5.970   8.370   4.383  0.1073 -0.3462  0.4997
30646WAT      O24388   9.860   7.228   7.403  0.1831  0.1523 -0.1895
30646WAT     H124389   9.880   7.203   7.313 -0.2462  0.2451 -0.3172
30646WAT     H224390   9.933   7.196   7.455 -0.0301 -0.7600 -0.4417
30646WAT    EPW24391   9.872   7.221   7.398  0.0987  0.0443 -0.2394
30647WAT      O24392   8.618   5.878   7.717  0.3019 -0.3687 -0.5177
30647WAT     H124393   8.566   5.896   7.795  1.2062  0.1758 -0.0173
30647WAT     H224394   8.561   5.901   7.644 -0.4983 -0.7228 -0.0239
30647WAT    EPW24395   8.604   5.884   7.718  0.3152 -0.3433 -0.3865
30648WAT      O24396   0.340   5.335   0.985 -0.7986  0.7149  0.0259
30648WAT     H124397   0.431   5.306   0.990 -0.9915 -0.5619 -2.3245
30648WAT     H224398   0.344   5.429   1.004  0.6769  0.2913  2.0913
30648WAT    EPW24399   0.353   5.344   0.988 -0.6295  0.4907 -0.0117
30649WAT      O24400   0.634   8.880   2.612 -1.3341 -0.4233  0.0847
30649WAT     H124401   0.707   8.819   2.600 -1.1560 -0.6464  1.9472
30649WAT     H224402   0.674   8.966   2.617 -1.4968 -0.2203 -1.6155
30649WAT    EPW24403   0.649   8.883   2.611 -1.3321 -0.4263  0.1060
30650WAT      O24404   2.070   7.366   0.745  0.7772 -0.7814 -0.2890
30650WAT     H124405   2.107   7.280   0.723  1.0049 -0.5134 -0.9681
30650WAT     H224406   2.143   7.413   0.785  0.7940 -0.7275 -0.3834
30650WAT    EPW24407   2.085   7.361   0.748  0.8096 -0.7389 -0.3910
30651WAT      O24408   1.382   6.309   4.220  0.2918  0.4800  0.1613
30651WAT     H124409   1.363   6.230   4.168 -3.0848  1.4636 -0.3601
30651WAT     H224410   1.417   6.371   4.156  1.2682 -0.0140  0.2049
30651WAT    EPW24411   1.384   6.306   4.204 -0.0249  0.5445  0.0985
30652WAT      O24412   5.797   0.501   3.621 -0.5901 -0.1854  0.3934
30652WAT     H124413   5.806   0.407   3.637 -2.2747 -0.4939 -0.1780
30652WAT     H224414   5.792   0.539   3.709 -0.6823 -0.7379  0.6369
30652WAT    EPW24415   5.797   0.494   3.635 -0.8245 -0.2990  0.3504
30653WAT      O24416   4.690  10.037   1.452  0.1254  0.5647  0.4847
30653WAT     H124417   4.735  10.013   1.533 -1.1035  0.1979  1.0737
30653WAT     H224418   4.761  10.060   1.392  1.0484  1.6239  1.8903
30653WAT    EPW24419   4.706  10.037   1.455  0.0849  0.6566  0.7479
30654WAT      O24420   5.828   7.829   0.578  0.0886  0.5186  0.1411
30654WAT     H124421   5.796   7.878   0.654  0.4114 -1.3029  1.5381
30654WAT     H224422   5.763   7.845   0.510 -1.9036 -0.2035  1.7775
30654WAT    EPW24423   5.815   7.838   0.579 -0.1318  0.1831  0.5412
30655WAT      O24424   4.076   5.091   1.078  0.4590  0.0429  0.0134
30655WAT     H124425   4.034   5.127   1.156  1.2615  0.4939  0.2435
30655WAT     H224426   4.063   4.997   1.085 -0.4764  0.1679  0.0955
30655WAT    EPW24427   4.068   5.083   1.089  0.4416  0.1190  0.0545
30656WAT      O24428   7.823   1.654   8.053 -0.7951  0.0561  0.1493
30656WAT     H124429   7.805   1.587   7.987 -1.3115  0.5872 -0.2539
30656WAT     H224430   7.802   1.737   8.010 -0.4330  0.4606  0.7392
30656WAT    EPW24431   7.818   1.656   8.039 -0.8154  0.1795  0.1736
30657WAT      O24432   4.633   9.133   0.323  0.5783 -0.1146  0.3441
30657WAT     H124433   4.679   9.087   0.394  1.7188 -2.4115 -1.7237
30657WAT     H224434   4.701   9.152   0.259 -0.8594 -1.1289 -1.5954
30657WAT    EPW24435   4.648   9.129   0.324  0.5393 -0.5512 -0.1844
30658WAT      O24436   7.749   2.128   7.388 -0.3388 -0.3931 -0.0244
30658WAT     H124437   7.821   2.079   7.349  1.8119  0.7536  2.2191
30658WAT     H224438   7.757   2.216   7.351  0.7203  0.2630  1.6413
30658WAT    EPW24439   7.759   2.133   7.378  0.0846 -0.1553  0.4911
30659WAT      O24440   0.118   5.803   4.883  0.4586  0.1930 -0.3587
30659WAT     H124441   0.040   5.854   4.860 -0.0893 -1.2607 -1.9542
30659WAT     H224442   0.095   5.758   4.963  0.3686  1.2046  0.2010
30659WAT    EPW24443   0.105   5.804   4.890  0.3745  0.1347 -0.4957
30660WAT      O24444   4.458   9.152   1.210  0.8880 -0.1035 -0.0955
30660WAT     H124445   4.546   9.174   1.240  0.4387  0.5643  0.7549
30660WAT     H224446   4.399   9.201   1.268 -0.0170  1.2922 -2.0736
30660WAT    EPW24447   4.462   9.161   1.222  0.7095  0.1688 -0.2443
30661WAT      O24448   9.777   8.653   2.011 -0.0490 -0.1064  0.0557
30661WAT     H124449   9.772   8.562   2.042  1.4017 -0.2611 -0.1036
30661WAT     H224450   9.750   8.705   2.086 -0.3716 -0.6482  0.3249
30661WAT    EPW24451   9.773   8.648   2.025  0.0997 -0.1984  0.0702
30662WAT      O24452   4.097   7.198   2.165  0.2414 -0.1842 -0.1361
30662WAT     H124453   4.064   7.242   2.086  0.2097  0.7505  0.3897
30662WAT     H224454   4.106   7.267   2.229  3.1897 -0.3868 -0.2008
30662WAT    EPW24455   4.094   7.213   2.163  0.6263 -0.0877 -0.0753
30663WAT      O24456   0.999   6.603   4.392  0.0977  0.4385 -0.3088
30663WAT     H124457   1.036   6.568   4.311 -1.4853 -0.4344 -0.6896
30663WAT     H224458   1.023   6.538   4.458 -0.4669  0.0263 -0.5003
30663WAT    EPW24459   1.007   6.590   4.390 -0.1855  0.2689 -0.3843
30664WAT      O24460   1.151   7.822   3.725 -0.2453 -0.1827  0.7717
30664WAT     H124461   1.096   7.817   3.647 -1.0550  1.8488  1.1401
30664WAT     H224462   1.177   7.914   3.730  1.3255 -0.6343  1.8943
30664WAT    EPW24463   1.147   7.834   3.715 -0.1450  0.0257  0.9683
30665WAT      O24464   0.015   5.355   5.422 -1.0593 -0.3398 -0.6470
30665WAT     H124465   0.003   5.391   5.510  1.4334  0.9901 -0.7536
30665WAT     H224466  -0.074   5.335   5.392 -2.3705  2.6569  0.7669
30665WAT    EPW24467   0.002   5.357   5.430 -0.9035  0.2306 -0.4747
30666WAT      O24468   2.155   6.835   0.445  0.1892 -0.1554 -0.2717
30666WAT     H124469   2.078   6.780   0.438  1.5725 -2.1498 -0.5125
30666WAT     H224470   2.225   6.776   0.471  1.4923  1.7326  0.7875
30666WAT    EPW24471   2.154   6.820   0.448  0.5436 -0.1695 -0.1638
30667WAT      O24472   1.141   7.271   0.634 -1.2843  0.3709  0.1652
30667WAT     H124473   1.175   7.223   0.558 -2.5931 -0.9840  0.3805
30667WAT     H224474   1.195   7.349   0.639  0.3048 -0.5981 -0.8178
30667WAT    EPW24475   1.152   7.275   0.625 -1.2473  0.0644  0.0640
30668WAT      O24476   1.464   6.972   3.760 -0.2309 -0.8641 -0.0135
30668WAT     H124477   1.395   6.908   3.776  1.6525 -2.5937  1.7482
30668WAT     H224478   1.543   6.919   3.745  0.8974  1.0365 -1.2284
30668WAT    EPW24479   1.465   6.956   3.760  0.1662 -0.8416  0.0587
30669WAT      O24480   2.702   8.972   3.747 -0.5271  0.2119 -0.4060
30669WAT     H124481   2.635   9.019   3.797  1.5903  2.1143  0.7990
30669WAT     H224482   2.785   9.012   3.773  0.9229 -0.2138 -3.8000
30669WAT    EPW24483   2.704   8.983   3.757 -0.0566  0.4072 -0.6946
30670WAT      O24484   0.676   2.050   6.150 -0.4435 -0.2246  0.1015
30670WAT     H124485   0.707   2.083   6.235  0.4515 -2.5732  0.7731
30670WAT     H224486   0.581   2.053   6.157 -0.4038 -1.1324  1.5753
30670WAT    EPW24487   0.668   2.055   6.162 -0.3203 -0.6541  0.3843
30671WAT      O24488   2.515   8.111   5.627 -0.0909 -0.2909 -0.4284
30671WAT     H124489   2.533   8.017   5.628  0.9176 -0.1110 -0.1158
30671WAT     H224490   2.507   8.135   5.720 -0.7477 -0.1316 -0.5201
30671WAT    EPW24491   2.516   8.102   5.640 -0.0446 -0.2465 -0.3996
30672WAT      O24492   5.486   9.303   7.916 -0.6354  0.8313  0.4663
30672WAT     H124493   5.442   9.219   7.906  0.2955  0.4245 -0.4145
30672WAT     H224494   5.416   9.365   7.935 -1.5133  0.0866 -0.2631
30672WAT    EPW24495   5.471   9.300   7.917 -0.6285  0.6790  0.2539
30673WAT      O24496   2.108   6.118   0.021 -0.3211  0.0949  0.4874
30673WAT     H124497   2.091   6.026   0.041 -0.6525  0.5234  2.3206
30673WAT     H224498   2.102   6.123  -0.074 -1.6324 -1.5298  0.4369
30673WAT    EPW24499   2.105   6.107   0.011 -0.5378 -0.0629  0.7225
30674WAT      O24500   0.044   7.805   2.484  0.2873 -0.2855  0.1385
30674WAT     H124501  -0.015   7.851   2.424 -2.2993 -1.7639  1.3814
30674WAT     H224502   0.132   7.824   2.451 -0.9259  0.5550 -2.9282
30674WAT    EPW24503   0.048   7.813   2.472 -0.2138 -0.3695 -0.1022
30675WAT      O24504   3.839   6.261   4.155 -0.1816  0.3802 -0.0633
30675WAT     H124505   3.765   6.297   4.203 -1.7159  1.2840 -2.8631
30675WAT     H224506   3.802   6.231   4.072  2.6113  1.3260 -1.8225
30675WAT    EPW24507   3.825   6.262   4.150 -0.0157  0.6239 -0.6647
30676WAT      O24508  10.383   6.909   0.663 -0.6761  0.1182  0.3050
30676WAT     H124509  10.395   6.853   0.587 -2.4045  0.3868 -0.2082
30676WAT     H224510  10.302   6.878   0.704 -2.0179  2.4935 -0.3066
30676WAT    EPW24511  10.374   6.898   0.658 -1.0810  0.4671  0.1567
30677WAT      O24512   8.273   1.848   6.460  0.4183  0.1415 -0.3351
30677WAT     H124513   8.287   1.929   6.508  0.1938  0.6769 -1.1495
30677WAT     H224514   8.212   1.798   6.514 -1.5267  1.6343 -1.0292
30677WAT    EPW24515   8.267   1.852   6.473  0.1326  0.4091 -0.5341
30678WAT      O24516   2.200   6.555   0.824  0.4347 -0.3900  0.2855
30678WAT     H124517   2.269   6.497   0.857 -0.6421 -1.1697  1.2571
30678WAT     H224518   2.212   6.636   0.873  1.2973 -0.1412 -0.3146
30678WAT    EPW24519   2.211   6.558   0.835  0.4065 -0.4599  0.3345
30679WAT      O24520   0.360   9.642   1.395  0.1507 -0.2830 -0.2827
30679WAT     H124521   0.284   9.594   1.363 -0.4291 -0.3735  1.1517
30679WAT     H224522   0.385   9.596   1.475 -1.0448  2.2775  1.7388
30679WAT    EPW24523   0.353   9.630   1.401 -0.0834  0.0429  0.1732
30680WAT      O24524   3.919   8.103   3.711  0.4028 -0.8845  0.0403
30680WAT     H124525   3.834   8.112   3.668  1.0351  1.3163 -0.9207
30680WAT     H224526   3.957   8.191   3.707  2.9327 -1.8866 -0.0171
30680WAT    EPW24527   3.913   8.116   3.705  0.8198 -0.7262 -0.0942
30681WAT      O24528   4.180   9.015   2.738  0.2958  0.5837  0.3712
30681WAT     H124529   4.175   9.091   2.797 -1.7911  0.1656  0.7965
30681WAT     H224530   4.141   8.943   2.787  0.5689 -0.3348 -0.7095
30681WAT    EPW24531   4.174   9.016   2.752  0.0567  0.4072  0.2849
30682WAT      O24532   1.934   7.438   3.203 -0.5717  0.4988  0.4058
30682WAT     H124533   1.952   7.386   3.125  0.0526  0.0246  0.8507
30682WAT     H224534   2.010   7.422   3.260 -0.5126  1.6487  0.6843
30682WAT    EPW24535   1.947   7.429   3.201 -0.4817  0.5879  0.5012
30683WAT      O24536   0.233   2.093   8.870  0.7020 -0.6778  0.5659
30683WAT     H124537   0.285   2.173   8.868 -1.8227  1.2048  2.3950
30683WAT     H224538   0.213   2.075   8.778 -0.4554  2.1766  0.1399
30683WAT    EPW24539   0.237   2.101   8.858  0.2164 -0.0530  0.7515
30684WAT      O24540   4.078   9.573   2.887  0.4681  0.2420  0.2062
30684WAT     H124541   4.026   9.514   2.833 -1.1784  0.9344  0.9655
30684WAT     H224542   4.078   9.656   2.840  1.9694 -0.0549 -0.3848
30684WAT    EPW24543   4.071   9.576   2.874  0.4489  0.2942  0.2284
30685WAT      O24544   1.870   6.201   4.861 -0.1706  0.0218  0.0746
30685WAT     H124545   1.889   6.137   4.930 -0.4738 -0.5654 -0.3805
30685WAT     H224546   1.851   6.148   4.784 -0.2779  0.6688 -0.3499
30685WAT    EPW24547   1.870   6.185   4.860 -0.2247  0.0296 -0.0415
30686WAT      O24548   5.448   8.725   3.547 -0.6445  0.1580 -0.8888
30686WAT     H124549   5.461   8.806   3.498 -0.4972  1.3453  1.0249
30686WAT     H224550   5.388   8.748   3.618  1.0114 -0.8330  0.9440
30686WAT    EPW24551   5.442   8.738   3.550 -0.4067  0.1836 -0.3945
30687WAT      O24552   1.113   4.759   0.910  0.2852  0.4742 -0.2987
30687WAT     H124553   1.134   4.695   0.842 -0.6999 -1.0563  0.7690
30687WAT     H224554   1.026   4.791   0.888  1.4829  2.9562 -1.8704
30687WAT    EPW24555   1.105   4.755   0.898  0.3133  0.5999 -0.3651
30688WAT      O24556   0.063   2.803   8.184 -0.2914 -0.1742  0.6406
30688WAT     H124557   0.017   2.871   8.135 -0.2012 -0.7806 -0.3180
30688WAT     H224558  -0.005   2.760   8.236 -1.3809 -2.5784 -2.4676
30688WAT    EPW24559   0.048   2.806   8.184 -0.4232 -0.5714  0.1040
30689WAT      O24560   0.456   9.888   2.726  0.7913  0.2859  0.1880
30689WAT     H124561   0.523   9.837   2.772  0.8022  0.0839 -0.0491
30689WAT     H224562   0.375   9.841   2.743  1.0689 -0.9542 -1.6544
30689WAT    EPW24563   0.454   9.875   2.734  0.8293  0.0958 -0.0863
30690WAT      O24564   2.922   7.957   1.760 -0.4609 -0.1784 -0.3257
30690WAT     H124565   2.829   7.966   1.739  0.0068  0.3519 -2.3585
30690WAT     H224566   2.968   8.000   1.688  1.3675  0.0726  0.9177
30690WAT    EPW24567   2.916   7.964   1.748 -0.1581 -0.0753 -0.4297
30691WAT      O24568   7.035   0.284   4.087  0.4365  0.7245  0.3305
30691WAT     H124569   7.102   0.256   4.150  3.4290  1.4026 -2.3150
30691WAT     H224570   7.021   0.377   4.107 -0.0772  0.4770  1.1627
30691WAT    EPW24571   7.042   0.293   4.098  0.7634  0.7813  0.0911
30692WAT      O24572   2.834   4.535   1.217  0.4963  0.2800 -0.0274
30692WAT     H124573   2.804   4.621   1.187 -0.6942 -0.7193 -1.8175
30692WAT     H224574   2.908   4.514   1.159 -1.2598 -1.2701 -1.8491
30692WAT    EPW24575   2.840   4.544   1.205  0.1076 -0.0563 -0.5038
30693WAT      O24576   3.571   5.962   2.318  0.6256  0.1961  0.1255
30693WAT     H124577   3.611   6.033   2.368 -1.6817  1.0622  0.8537
30693WAT     H224578   3.577   5.886   2.375  2.8628 -0.2139 -0.5499
30693WAT    EPW24579   3.577   5.961   2.332  0.6163  0.2561  0.1324
30694WAT      O24580   3.803   7.879   0.506 -0.4405 -0.7985 -0.5303
30694WAT     H124581   3.783   7.795   0.466 -0.5064 -1.0647  0.0525
30694WAT     H224582   3.744   7.941   0.464 -0.5987 -1.0972 -0.7453
30694WAT    EPW24583   3.793   7.876   0.495 -0.4700 -0.8726 -0.4818
30695WAT      O24584   1.439   4.887   4.400 -0.3759 -0.9648  0.3289
30695WAT     H124585   1.465   4.974   4.369  1.8316 -1.8636 -0.5334
30695WAT     H224586   1.476   4.827   4.335  0.7801 -2.7100  2.4692
30695WAT    EPW24587   1.447   4.890   4.387  0.0678 -1.3137  0.4973
30696WAT      O24588   0.142   8.743   3.857  0.0560  0.0847 -0.2148
30696WAT     H124589   0.164   8.717   3.946  0.9890 -2.0588 -1.0011
30696WAT     H224590   0.049   8.767   3.862  0.4636  1.4733  1.5961
30696WAT    EPW24591   0.133   8.742   3.869  0.2328 -0.0153 -0.0798
30697WAT      O24592   7.631  10.247   6.033 -0.1864 -0.8987  0.3898
30697WAT     H124593   7.574  10.233   6.108 -1.5278  1.5581 -0.0708
30697WAT     H224594   7.581  10.214   5.958 -1.0714  1.1677 -0.0028
30697WAT    EPW24595   7.617  10.241   6.033 -0.4799 -0.3028  0.2773
30698WAT      O24596   5.251   0.731   0.889  0.0121  0.0199 -0.2779
30698WAT     H124597   5.339   0.759   0.912 -0.1323 -0.2914  0.6966
30698WAT     H224598   5.196   0.761   0.962 -0.4484 -1.0952 -0.1407
30698WAT    EPW24599   5.255   0.739   0.902 -0.0675 -0.1682 -0.1313
30699WAT      O24600   7.748   2.102   1.545 -0.3162  0.3613  0.6576
30699WAT     H124601   7.677   2.117   1.483  0.8736  0.7233 -0.6649
30699WAT     H224602   7.786   2.019   1.518  1.1270  1.2231 -0.0421
30699WAT    EPW24603   7.743   2.093   1.533  0.0312  0.5229  0.3909
30700WAT      O24604  10.298   7.484   8.882 -0.2608  0.1799 -0.1782
30700WAT     H124605  10.239   7.449   8.815  1.4054  1.1558 -2.2981
30700WAT     H224606  10.243   7.538   8.938 -1.6244 -0.2326 -1.0803
30700WAT    EPW24607  10.283   7.486   8.881 -0.2213  0.2542 -0.5770
30701WAT      O24608   5.101   8.842   0.705  0.3108  0.4444 -0.7711
30701WAT     H124609   5.052   8.778   0.653 -2.6344  0.7219  1.4199
30701WAT     H224610   5.125   8.795   0.784 -0.4319  1.5664  0.1488
30701WAT    EPW24611   5.098   8.828   0.708 -0.1757  0.6285 -0.3608
30702WAT      O24612   5.169   8.235   1.769 -0.1062  0.7368  0.4443
30702WAT     H124613   5.214   8.306   1.723 -1.2138  1.4541  0.4219
30702WAT     H224614   5.180   8.159   1.712 -3.2075  2.0221 -2.2559
30702WAT    EPW24615   5.176   8.235   1.755 -0.6609  1.0009  0.0852
30703WAT      O24616   5.815   0.188   0.187 -0.5586 -1.1810 -0.6280
30703WAT     H124617   5.892   0.208   0.134 -1.3417  0.8112 -1.1050
30703WAT     H224618   5.849   0.139   0.261  0.9703 -1.5462 -1.5211
30703WAT    EPW24619   5.829   0.184   0.190 -0.4601 -0.9664 -0.8087
30704WAT      O24620   2.155   7.340   0.403 -0.5464 -0.8000  0.7926
30704WAT     H124621   2.207   7.363   0.480  2.0485 -2.1568 -0.4538
30704WAT     H224622   2.109   7.422   0.381  3.1962  1.4015  0.3847
30704WAT    EPW24623   2.156   7.354   0.410  0.2896 -0.6890  0.5744
30705WAT      O24624   8.314   6.027   7.753  0.0559 -0.2383  0.5068
30705WAT     H124625   8.299   6.020   7.847 -2.2131  0.2881  0.2370
30705WAT     H224626   8.229   6.052   7.717  1.7872  4.4904 -1.1610
30705WAT    EPW24627   8.301   6.030   7.761 -0.0157  0.4547  0.2513
30706WAT      O24628   8.121   2.248   2.823 -0.4047 -0.6133 -0.2102
30706WAT     H124629   8.030   2.277   2.828  0.0617  0.6482  1.7820
30706WAT     H224630   8.158   2.300   2.752 -0.6245  0.7647  0.6496
30706WAT    EPW24631   8.114   2.259   2.814 -0.3724 -0.2652  0.1661
30707WAT      O24632   2.681  10.243   1.095 -0.5608  0.1376 -0.5161
30707WAT     H124633   2.675  10.147   1.090  2.4702 -0.3765  2.1432
30707WAT     H224634   2.773  10.262   1.077 -1.1000  2.5962 -1.0290
30707WAT    EPW24635   2.692  10.233   1.092 -0.2322  0.3943 -0.2331
30708WAT      O24636   3.807   7.214   0.731 -0.2437  0.4327  0.8223
30708WAT     H124637   3.799   7.309   0.730  0.3080  0.5174  2.3988
30708WAT     H224638   3.719   7.182   0.748 -0.5004  0.6218 -0.0743
30708WAT    EPW24639   3.795   7.222   0.733 -0.2049  0.4687  0.9120
30709WAT      O24640   7.310   0.736   0.309  0.6089 -0.0176  0.3469
30709WAT     H124641   7.226   0.745   0.354 -1.6271 -2.8427 -2.7740
30709WAT     H224642   7.324   0.821   0.267 -0.8730  0.4187  0.6863
30709WAT    EPW24643   7.300   0.748   0.309  0.1185 -0.3327 -0.0200
30710WAT      O24644   4.041   7.767   4.079 -0.1636 -0.0047 -0.3968
30710WAT     H124645   4.059   7.704   4.148 -1.1913  0.5299  0.3843
30710WAT     H224646   3.948   7.754   4.057 -1.4509  3.3897  2.1420
30710WAT    EPW24647   4.031   7.757   4.085 -0.4690  0.5136  0.0410
30711WAT      O24648   1.820   5.172   7.828  0.1269  0.8665  0.6154
30711WAT     H124649   1.895   5.149   7.882 -0.7174  0.4509  1.6279
30711WAT     H224650   1.751   5.113   7.855 -0.6612  1.4192 -0.1200
30711WAT    EPW24651   1.821   5.161   7.838 -0.0883  0.8845  0.6523
30712WAT      O24652   2.222   5.274   2.804  0.6657  0.2815  0.2286
30712WAT     H124653   2.306   5.318   2.816  0.2223  1.2308 -0.0680
30712WAT     H224654   2.165   5.311   2.871  0.0945  0.6784 -0.4543
30712WAT    EPW24655   2.225   5.285   2.814  0.5319  0.4590  0.0993
30713WAT      O24656   2.355   7.421   0.580 -0.8568 -0.5936  0.5592
30713WAT     H124657   2.406   7.340   0.582 -0.8766 -0.5974  1.3698
30713WAT     H224658   2.412   7.484   0.536 -0.4986 -0.8315  0.6753
30713WAT    EPW24659   2.369   7.419   0.574 -0.8123 -0.6254  0.6814
30714WAT      O24660   6.005   2.223   0.007  0.0765 -0.0243  0.5629
30714WAT     H124661   5.959   2.298   0.045 -7.4893 -1.3873 -3.8647
30714WAT     H224662   5.974   2.148   0.059  2.9755 -0.7678  1.4101
30714WAT    EPW24663   5.995   2.223   0.019 -0.5388 -0.3021  0.0907
30715WAT      O24664   8.591   1.465   4.876 -0.1317  0.1828 -0.6708
30715WAT     H124665   8.575   1.379   4.839 -1.8412  0.7468 -1.3912
30715WAT     H224666   8.626   1.517   4.804  0.2988  0.2540 -0.4141
30715WAT    EPW24667   8.593   1.461   4.862 -0.2999  0.2666 -0.7322
30716WAT      O24668   7.297   2.443   2.673  0.3814  0.4159 -0.0777
30716WAT     H124669   7.242   2.401   2.739 -1.1119  0.5865 -1.1616
30716WAT     H224670   7.386   2.416   2.695 -0.3780 -2.3310  0.0080
30716WAT    EPW24671   7.302   2.434   2.684  0.0842  0.0761 -0.2092
30717WAT      O24672   4.835   8.236   2.559 -0.3658 -0.4983 -0.5482
30717WAT     H124673   4.922   8.273   2.546  0.0942 -1.9949 -2.2094
30717WAT     H224674   4.819   8.242   2.653  2.3112 -1.8055  0.0910
30717WAT    EPW24675   4.844   8.241   2.569  0.0479 -0.8678 -0.6829
30718WAT      O24676   5.228   4.137   1.527 -0.5323 -0.7785  0.5259
30718WAT     H124677   5.292   4.203   1.554  0.2106 -1.2263 -0.0892
30718WAT     H224678   5.153   4.188   1.498 -0.4011 -0.2353  1.0970
30718WAT    EPW24679   5.227   4.152   1.527 -0.4170 -0.7660  0.5201
30719WAT      O24680   0.848   6.872   8.098 -0.6236  0.3029 -0.1265
30719WAT     H124681   0.824   6.932   8.168 -1.5409 -0.2211  0.0248
30719WAT     H224682   0.848   6.785   8.139 -0.7313  0.0442 -0.6620
30719WAT    EPW24683   0.845   6.868   8.112 -0.7588  0.1996 -0.1764
30720WAT      O24684   9.003   3.482   7.741 -0.0587  0.4755  0.0221
30720WAT     H124685   8.994   3.447   7.829  0.4472  2.0865  0.7549
30720WAT     H224686   8.943   3.557   7.739  1.2154  1.5154 -0.4056
30720WAT    EPW24687   8.994   3.488   7.752  0.1764  0.8252  0.0622
30721WAT      O24688   1.992   4.491   7.944 -0.0062 -0.3634 -0.1487
30721WAT     H124689   2.027   4.504   7.856 -0.1886  0.4485 -0.1121
30721WAT     H224690   2.003   4.577   7.986 -0.0636 -0.7003  0.5662
30721WAT    EPW24691   1.998   4.504   7.938 -0.0377 -0.3009 -0.0496
30722WAT      O24692   7.103   5.270   7.551  0.3838 -0.0075  0.2563
30722WAT     H124693   7.037   5.205   7.523  0.8561  0.5425 -2.4581
30722WAT     H224694   7.184   5.220   7.556  0.5158  0.0870 -0.6415
30722WAT    EPW24695   7.105   5.254   7.548  0.4635  0.0777 -0.2201
30723WAT      O24696   5.915   2.035   3.474 -0.2686  0.1903  0.1933
30723WAT     H124697   5.859   2.057   3.400 -1.0777 -0.7957  0.4774
30723WAT     H224698   5.880   2.086   3.547  0.4434  1.0587 -0.0680
30723WAT    EPW24699   5.903   2.044   3.474 -0.2816  0.1748  0.1963
30724WAT      O24700   5.146   1.772   2.707 -0.7112  0.2141 -1.0500
30724WAT     H124701   5.167   1.854   2.661 -1.9804  0.4659 -1.2155
30724WAT     H224702   5.226   1.720   2.700  1.5760  2.8164  2.3402
30724WAT    EPW24703   5.160   1.776   2.700 -0.5770  0.5905 -0.6248
30725WAT      O24704   8.734   6.143   7.993  0.6957  0.3849  0.1121
30725WAT     H124705   8.799   6.191   7.941  2.0186 -0.0437  1.3191
30725WAT     H224706   8.784   6.106   8.066 -0.5314 -1.6426  0.0087
30725WAT    EPW24707   8.749   6.145   7.995  0.7086  0.0610  0.2577
30726WAT      O24708   1.979   4.348   7.467  0.1426  0.8022 -0.0972
30726WAT     H124709   1.948   4.308   7.386  0.3152 -1.4421  0.8813
30726WAT     H224710   2.066   4.311   7.481 -0.8507 -0.8933  2.3642
30726WAT    EPW24711   1.986   4.338   7.458  0.0344  0.2825  0.3567
30727WAT      O24712   0.870   7.660   7.400  0.9008  0.2665  0.2697
30727WAT     H124713   0.903   7.613   7.323  0.4544 -0.5920  0.5936
30727WAT     H224714   0.916   7.621   7.474 -0.8820 -1.0446  0.7396
30727WAT    EPW24715   0.881   7.649   7.399  0.6067 -0.0196  0.3746
30728WAT      O24716   0.785   5.954   8.900  0.3855 -0.5169 -0.0076
30728WAT     H124717   0.831   5.924   8.822  2.0516 -0.1692  0.8011
30728WAT     H224718   0.723   5.884   8.919 -1.9028  0.4343 -3.0122
30728WAT    EPW24719   0.783   5.941   8.892  0.3034 -0.3455 -0.2971
30729WAT      O24720   1.585   6.752   2.370  0.2961  0.1234 -0.6665
30729WAT     H124721   1.558   6.743   2.461 -0.6357  1.9873 -0.7035
30729WAT     H224722   1.680   6.764   2.374  0.6960 -2.6234 -0.2216
30729WAT    EPW24723   1.594   6.752   2.383  0.2260  0.0072 -0.6126
30730WAT      O24724   5.382   9.573   1.273 -0.1769 -0.2834  0.2771
30730WAT     H124725   5.470   9.607   1.287 -0.3389 -0.2897  1.3929
30730WAT     H224726   5.379   9.552   1.180  0.9416 -0.1299  0.1929
30730WAT    EPW24727   5.393   9.575   1.263 -0.0505 -0.2642  0.4131
30731WAT      O24728  10.441   8.067   7.502  0.2048  1.1953  0.0607
30731WAT     H124729  10.519   8.092   7.551  0.6197 -0.2605  0.1972
30731WAT     H224730  10.367   8.098   7.555  0.5656 -1.7600  2.5937
30731WAT    EPW24731  10.441   8.074   7.515  0.3066  0.6132  0.4127
30732WAT      O24732   3.300   9.517   2.495 -0.2839  0.1305  0.4042
30732WAT     H124733   3.252   9.455   2.550  1.3438 -1.4526  0.1409
30732WAT     H224734   3.355   9.566   2.557 -1.5886  1.3728  0.6152
30732WAT    EPW24735   3.301   9.515   2.511 -0.2414  0.0858  0.3971
30733WAT      O24736   5.640  10.135   0.585 -0.0351 -0.4387 -0.1088
30733WAT     H124737   5.579  10.091   0.645  0.7289  0.7082  1.6186
30733WAT     H224738   5.587  10.157   0.509 -2.0001  0.9498  1.5254
30733WAT    EPW24739   5.625  10.132   0.583 -0.1936 -0.1040  0.3346
30734WAT      O24740   6.612   6.722   2.979  0.4481  0.2663 -0.2121
30734WAT     H124741   6.596   6.815   2.961 -0.2347  0.0172 -0.9577
30734WAT     H224742   6.704   6.709   2.955  0.9201  0.9980  1.0465
30734WAT    EPW24743   6.622   6.733   2.974  0.4203  0.3297 -0.1445
30735WAT      O24744   1.483   9.539   3.789 -0.3883 -0.4607 -0.5510
30735WAT     H124745   1.470   9.555   3.883 -0.3579 -0.4418 -0.5503
30735WAT     H224746   1.476   9.443   3.781  1.8415 -0.7060 -0.1896
30735WAT    EPW24747   1.480   9.528   3.800 -0.0902 -0.4907 -0.5032
30736WAT      O24748   5.456   8.991   3.440  0.0163 -0.4648  0.8954
30736WAT     H124749   5.379   9.028   3.397 -0.1294 -0.3713  1.2308
30736WAT     H224750   5.435   8.995   3.534  0.9244  0.7088  1.0762
30736WAT    EPW24751   5.443   8.997   3.447  0.1171 -0.2975  0.9636
30737WAT      O24752   5.060   6.167   1.554 -0.0823  0.1213 -0.0958
30737WAT     H124753   5.024   6.118   1.480 -0.4455  0.1690  0.0476
30737WAT     H224754   4.987   6.176   1.615 -0.4271  2.0503 -0.7224
30737WAT    EPW24755   5.046   6.161   1.553 -0.1757  0.3819 -0.1596
30738WAT      O24756   3.957   6.982   0.779  0.3439  0.3992 -0.1589
30738WAT     H124757   3.914   6.959   0.861 -1.0516 -0.0905 -0.9862
30738WAT     H224758   3.913   7.063   0.752  1.0524  0.7606 -0.2394
30738WAT    EPW24759   3.945   6.990   0.786  0.2533  0.3822 -0.2787
30739WAT      O24760  10.328   3.568   8.836  0.2948 -0.1533  0.3026
30739WAT     H124761  10.358   3.547   8.748 -1.7041 -1.0112 -0.2283
30739WAT     H224762  10.293   3.657   8.829  2.1585  0.6769  0.8221
30739WAT    EPW24763  10.327   3.577   8.824  0.2770 -0.1570  0.3014
30740WAT      O24764   6.610   0.764   0.506  0.3799  0.2543 -0.0772
30740WAT     H124765   6.516   0.780   0.504  0.4190  0.4940 -1.6961
30740WAT     H224766   6.629   0.718   0.424  1.5130 -0.8339  0.7520
30740WAT    EPW24767   6.600   0.760   0.494  0.5348  0.1424 -0.1814
30741WAT      O24768   5.032   7.980   2.189  0.1174  0.6740  0.1144
30741WAT     H124769   5.097   8.050   2.183 -1.2850  1.8682 -2.6501
30741WAT     H224770   4.974   7.994   2.114 -1.2707 -2.4351  0.4673
30741WAT    EPW24771   5.033   7.991   2.178 -0.2506  0.4215 -0.2036
30742WAT      O24772   7.825   1.475   3.714 -0.3546  0.4643  0.6693
30742WAT     H124773   7.788   1.445   3.630 -0.6488  0.7989  0.6769
30742WAT     H224774   7.820   1.398   3.770  0.5429  0.0162  0.1590
30742WAT    EPW24775   7.819   1.461   3.710 -0.2749  0.4494  0.6031
30743WAT      O24776   2.109  10.143   2.282  0.7476  0.4724  0.3599
30743WAT     H124777   2.176  10.200   2.320  1.8680 -0.6218  0.0868
30743WAT     H224778   2.026  10.180   2.312  1.5128  1.1772  1.6935
30743WAT    EPW24779   2.107  10.155   2.291  0.9965  0.4206  0.4998
30744WAT      O24780   0.562   2.670   8.540 -0.9814  0.4166 -0.0766
30744WAT     H124781   0.504   2.720   8.598  0.3215  1.5074  0.3396
30744WAT     H224782   0.644   2.719   8.541 -0.8816  0.4434 -2.8279
30744WAT    EPW24783   0.565   2.683   8.548 -0.7964  0.5640 -0.3848
30745WAT      O24784  10.802   8.891   2.191  0.4971  0.0876 -0.6533
30745WAT     H124785  10.751   8.898   2.271  2.0050  1.9273  0.2359
30745WAT     H224786  10.775   8.966   2.138  2.1383  1.0487 -0.1992
30745WAT    EPW24787  10.792   8.902   2.194  0.9122  0.4573 -0.4761
30746WAT      O24788   0.878   8.079   7.906 -0.3848 -0.5850 -0.1394
30746WAT     H124789   0.935   8.147   7.870 -2.2091  0.5995 -0.9298
30746WAT     H224790   0.853   8.112   7.992  2.1669 -2.3719  1.4404
30746WAT    EPW24791   0.882   8.092   7.913 -0.2888 -0.6652 -0.0353
30747WAT      O24792   6.134   0.180   0.854  0.0822  0.7502 -0.3851
30747WAT     H124793   6.187   0.141   0.784  0.5024  0.5216  0.0530
30747WAT     H224794   6.197   0.224   0.910 -0.2034  0.5643  0.0865
30747WAT    EPW24795   6.149   0.180   0.852  0.1001  0.6956 -0.2652
30748WAT      O24796   7.335  10.151   7.308 -0.3669 -0.5162  0.3186
30748WAT     H124797   7.257  10.155   7.362 -0.1863  1.5422  0.5063
30748WAT     H224798   7.407  10.171   7.367 -0.1558  1.6535 -0.5857
30748WAT    EPW24799   7.334  10.154   7.323 -0.3154  0.0410  0.2241
30749WAT      O24800   3.655   9.961   0.408 -0.0515  0.0315 -0.3634
30749WAT     H124801   3.637  10.022   0.337  2.8290  0.8999 -0.4958
30749WAT     H224802   3.596   9.989   0.478  1.0893  3.0969 -0.4255
30749WAT    EPW24803   3.645   9.973   0.408  0.4790  0.5503 -0.3890
30750WAT      O24804   2.998   8.240   0.887 -0.1660  0.3043 -0.2682
30750WAT     H124805   2.989   8.281   0.802 -0.1783  1.2082  0.1608
30750WAT     H224806   3.029   8.151   0.868  1.3024  0.9658 -1.1467
30750WAT    EPW24807   3.001   8.234   0.874  0.0261  0.5107 -0.3274
30751WAT      O24808   7.247   2.986   1.303 -0.3035 -0.3536 -0.2565
30751WAT     H124809   7.206   2.918   1.356 -4.3330  1.4025 -0.7391
30751WAT     H224810   7.228   2.961   1.213  0.7864 -0.0398 -0.5882
30751WAT    EPW24811   7.239   2.974   1.298 -0.6912 -0.0805 -0.3639
30752WAT      O24812   8.384   0.349   8.539 -0.0002  0.0598  0.3681
30752WAT     H124813   8.427   0.424   8.580 -0.3588 -0.0138  0.8878
30752WAT     H224814   8.429   0.272   8.575  1.5179  0.0369 -1.4475
30752WAT    EPW24815   8.396   0.348   8.549  0.1526  0.0470  0.1974
30753WAT      O24816   9.379   2.004   0.382  0.3522  0.0841  0.4426
30753WAT     H124817   9.411   2.028   0.469  1.6921 -1.0762  0.3018
30753WAT     H224818   9.364   2.087   0.339 -3.3807  0.8460  2.7577
30753WAT    EPW24819   9.381   2.018   0.388  0.0367  0.0316  0.7294
30754WAT      O24820   4.368   9.630   1.413 -0.0060 -0.0711 -0.1550
30754WAT     H124821   4.412   9.712   1.393  0.5748 -0.3785 -0.1663
30754WAT     H224822   4.387   9.614   1.506  1.2635 -0.9947 -0.5396
30754WAT    EPW24823   4.377   9.638   1.423  0.2379 -0.2337 -0.2072
30755WAT      O24824   2.392   5.680   0.429  0.2763  0.2076 -0.4112
30755WAT     H124825   2.415   5.623   0.356  2.7590 -0.0514  0.4955
30755WAT     H224826   2.433   5.639   0.505 -1.7540  0.7629  1.0950
30755WAT    EPW24827   2.400   5.667   0.430  0.3359  0.2465 -0.0930
30756WAT      O24828   1.909   8.100   4.901 -0.2472  0.1831 -0.1724
30756WAT     H124829   1.825   8.146   4.891  0.3425  1.2947 -0.1292
30756WAT     H224830   1.935   8.080   4.811  1.1690  3.0820 -0.5176
30756WAT    EPW24831   1.901   8.103   4.888  0.0173  0.7114 -0.2122
30757WAT      O24832   4.990   7.977   4.048  0.1850 -0.1734 -0.0920
30757WAT     H124833   4.930   7.949   4.117 -1.0223  2.5477  0.0922
30757WAT     H224834   4.955   7.936   3.969 -0.1163 -1.0314  0.4719
30757WAT    EPW24835   4.977   7.968   4.047 -0.0141  0.0725  0.0067
30758WAT      O24836   4.381   7.999   1.812 -0.6047 -0.6322 -0.3703
30758WAT     H124837   4.417   8.034   1.894  0.0312 -0.0435 -0.8798
30758WAT     H224838   4.415   7.909   1.808  0.1963 -0.3403 -0.4571
30758WAT    EPW24839   4.390   7.992   1.822 -0.4153 -0.5162 -0.4489
30759WAT      O24840   2.956   8.258   1.168  1.0232  0.0027  0.4657
30759WAT     H124841   2.991   8.276   1.081 -0.9113 -0.4368 -0.4716
30759WAT     H224842   3.018   8.196   1.207  0.9998 -1.2395 -1.3408
30759WAT    EPW24843   2.968   8.252   1.161  0.7651 -0.2193  0.1039
30760WAT      O24844   9.211   1.397   1.224  0.3280  0.0346 -0.2511
30760WAT     H124845   9.117   1.412   1.225 -0.0997 -2.1238 -1.4819
30760WAT     H224846   9.235   1.408   1.132  1.0494 -0.5908 -0.1458
30760WAT    EPW24847   9.202   1.401   1.212  0.3662 -0.3327 -0.3995
30761WAT      O24848   6.106   0.743   7.203  0.1926 -0.0462 -0.1287
30761WAT     H124849   6.033   0.713   7.258 -0.4521  0.3623 -0.7435
30761WAT     H224850   6.171   0.776   7.264 -0.3101 -0.0425  0.4084
30761WAT    EPW24851   6.105   0.743   7.218  0.0412  0.0082 -0.1388
30762WAT      O24852   2.798   4.978   8.889 -1.1638 -0.6465  0.4870
30762WAT     H124853   2.714   5.022   8.882 -0.0038  2.1396  2.1810
30762WAT     H224854   2.796   4.935   8.975 -0.1687  1.3386  1.5874
30762WAT    EPW24855   2.787   4.978   8.899 -0.8796 -0.0172  0.8550
30763WAT      O24856   3.015   6.728   5.686 -0.0319 -0.0125 -0.2018
30763WAT     H124857   2.957   6.656   5.712 -0.6666  0.3721 -0.5352
30763WAT     H224858   2.968   6.807   5.711  0.1206  0.3156 -0.9410
30763WAT    EPW24859   3.001   6.729   5.693 -0.0955  0.0815 -0.3433
30764WAT      O24860   6.929   8.182   4.168  0.0837  0.6995 -0.2534
30764WAT     H124861   6.916   8.130   4.090  0.0610  1.4733 -0.7774
30764WAT     H224862   6.860   8.248   4.165  1.2254  1.9357 -0.6109
30764WAT    EPW24863   6.918   8.184   4.158  0.2313  0.9646 -0.3695
30765WAT      O24864   0.224   8.131   3.861  0.4952  0.4690  0.2781
30765WAT     H124865   0.289   8.171   3.919  1.0762 -1.9350  1.4508
30765WAT     H224866   0.170   8.079   3.920  0.2837 -1.0479 -1.1853
30765WAT    EPW24867   0.225   8.129   3.877  0.5439 -0.0477  0.2398
30766WAT      O24868   2.370   7.469   0.241 -0.4484 -0.9733  0.0774
30766WAT     H124869   2.337   7.536   0.181  0.0973  1.1075  1.9444
30766WAT     H224870   2.295   7.447   0.296  0.0530  0.4440  1.4195
30766WAT    EPW24871   2.356   7.475   0.240 -0.3103 -0.5121  0.5006
30767WAT      O24872   9.182   7.926   8.915  0.1046  0.3338  0.0321
30767WAT     H124873   9.250   7.894   8.975 -0.6560 -0.2241  0.6227
30767WAT     H224874   9.165   7.851   8.857 -0.8969 -0.0011  0.7122
30767WAT    EPW24875   9.189   7.912   8.915 -0.1278  0.2158  0.2003
30768WAT      O24876   5.621   1.058   1.814  0.3216  0.7530 -0.6769
30768WAT     H124877   5.570   0.982   1.841  1.7369  0.6310  1.8928
30768WAT     H224878   5.568   1.098   1.744 -0.8108 -2.1123 -1.6115
30768WAT    EPW24879   5.607   1.053   1.808  0.3588  0.3590 -0.4613
30769WAT      O24880   1.628   2.993   8.645  0.1834  0.0419 -0.0812
30769WAT     H124881   1.559   2.929   8.660 -1.0700  1.3609  0.0315
30769WAT     H224882   1.624   3.011   8.551 -2.3054  2.8794  0.4000
30769WAT    EPW24883   1.618   2.987   8.634 -0.3101  0.5901 -0.0029
30770WAT      O24884   1.918   4.706   1.356  0.8137  0.0126  0.2157
30770WAT     H124885   1.965   4.634   1.397  1.4668 -1.8284 -3.3822
30770WAT     H224886   1.877   4.667   1.279  0.1643  3.2461 -1.2422
30770WAT    EPW24887   1.919   4.691   1.351  0.8143  0.1960 -0.4511
30771WAT      O24888   4.963   3.883   7.270 -0.1911  0.0923 -0.2041
30771WAT     H124889   4.968   3.792   7.241 -2.2419 -0.2079  0.2623
30771WAT     H224890   5.049   3.919   7.249  0.6905 -1.9500 -0.3667
30771WAT    EPW24891   4.975   3.876   7.264 -0.3452 -0.2167 -0.1640
30772WAT      O24892   4.083  10.350   0.684  0.1912 -0.0269  0.2246
30772WAT     H124893   4.050  10.422   0.630  0.1896 -1.4347 -1.7714
30772WAT     H224894   4.120  10.289   0.621 -0.6585 -2.2347  1.7613
30772WAT    EPW24895   4.084  10.352   0.668  0.0789 -0.5035  0.1641
30773WAT      O24896   6.467   8.464   0.090  0.4764  0.8467  0.3706
30773WAT     H124897   6.408   8.489   0.019  0.0909 -0.3349  0.2344
30773WAT     H224898   6.514   8.544   0.113 -1.3708  1.9149  0.6588
30773WAT    EPW24899   6.465   8.478   0.084  0.1819  0.8321  0.3906
30774WAT      O24900   3.668   1.125   4.108 -0.2724 -0.1806 -0.3119
30774WAT     H124901   3.608   1.199   4.116  0.9279  0.9958 -1.5719
30774WAT     H224902   3.731   1.152   4.041  1.8985 -1.1754  1.1810
30774WAT    EPW24903   3.669   1.138   4.100  0.1724 -0.1566 -0.2813
30775WAT      O24904   7.604   9.834   0.957  0.2805  0.0333 -0.1012
30775WAT     H124905   7.547   9.876   0.893  1.0271  1.1764 -0.0514
30775WAT     H224906   7.685   9.817   0.910 -0.1333 -1.7601 -0.2267
30775WAT    EPW24907   7.607   9.837   0.943  0.3242 -0.0525 -0.1112
30776WAT      O24908   2.716   1.988   8.603  0.3091 -0.1802  0.0467
30776WAT     H124909   2.632   2.029   8.622 -0.9286 -1.5301 -2.0762
30776WAT     H224910   2.758   2.047   8.539  0.1766 -0.3645 -0.2132
30776WAT    EPW24911   2.711   2.001   8.597  0.1284 -0.3825 -0.2675
30777WAT      O24912   7.919   0.278   1.925  0.2494  0.5509  0.2672
30777WAT     H124913   8.001   0.321   1.902  0.7346 -0.0920  0.7401
30777WAT     H224914   7.882   0.249   1.842  0.3831  1.0485  0.0323
30777WAT    EPW24915   7.925   0.280   1.911  0.3309  0.5318  0.2986
30778WAT      O24916   6.690   0.536   0.900 -0.1610  0.0395 -0.4792
30778WAT     H124917   6.724   0.566   0.984 -0.9819 -0.0687 -0.0879
30778WAT     H224918   6.745   0.577   0.834  0.6677 -0.0950  0.1233
30778WAT    EPW24919   6.702   0.545   0.903 -0.1597  0.0075 -0.3481
30779WAT      O24920  10.011   0.293   3.671  1.2012  0.2705 -0.3530
30779WAT     H124921  10.022   0.304   3.765 -4.1947  3.3269  0.3097
30779WAT     H224922  10.032   0.379   3.634  0.1729  0.0658 -1.4549
30779WAT    EPW24923  10.016   0.306   3.678  0.3543  0.6466 -0.4110
30780WAT      O24924   3.664   9.127   0.341 -0.3155  0.4538  0.0571
30780WAT     H124925   3.609   9.195   0.303 -1.7928 -1.2108 -0.9690
30780WAT     H224926   3.741   9.124   0.284 -0.8187  0.4460 -0.6339
30780WAT    EPW24927   3.667   9.135   0.328 -0.5767  0.2337 -0.1694
30781WAT      O24928   2.203   3.820   7.675  0.3958  0.7079 -0.5706
30781WAT     H124929   2.174   3.731   7.660  1.5939  0.3306 -0.7697
30781WAT     H224930   2.202   3.830   7.770  0.6597  0.3397 -0.5285
30781WAT    EPW24931   2.199   3.810   7.685  0.5887  0.6095 -0.5913
30782WAT      O24932   5.035   7.716   2.376 -0.6645  0.2472 -0.2517
30782WAT     H124933   5.048   7.768   2.297  0.9523 -1.4303 -1.1656
30782WAT     H224934   4.972   7.648   2.351 -0.4947 -0.0203  0.0276
30782WAT    EPW24935   5.028   7.714   2.363 -0.4287 -0.0095 -0.3353
30783WAT      O24936   5.793  10.270   0.813  0.5347 -0.4745  0.2506
30783WAT     H124937   5.746  10.210   0.871  0.2860 -0.5176  0.0080
30783WAT     H224938   5.767  10.357   0.843  0.2713 -0.4982  0.1002
30783WAT    EPW24939   5.783  10.274   0.824  0.4671 -0.4835  0.1988
30784WAT      O24940   0.452   2.253   8.611 -0.3238  0.6838  0.3554
30784WAT     H124941   0.410   2.332   8.577  1.8768  1.0486 -1.8493
30784WAT     H224942   0.538   2.282   8.640  0.2611 -0.7714  0.1502
30784WAT    EPW24943   0.458   2.267   8.610  0.0436  0.5400  0.0372
30785WAT      O24944   8.825   0.575   3.024  0.2784  0.3847  0.1553
30785WAT     H124945   8.900   0.593   2.967 -0.4881 -1.7534 -1.6653
30785WAT     H224946   8.863   0.530   3.099  0.9033 -0.3340 -0.5637
30785WAT    EPW24947   8.840   0.571   3.026  0.2599  0.0079 -0.1798
30786WAT      O24948   7.171   4.587   1.805  0.6802  0.5855 -0.0862
30786WAT     H124949   7.081   4.572   1.775  0.9855 -3.8417  0.4758
30786WAT     H224950   7.161   4.631   1.889 -0.8526  1.4009 -0.6512
30786WAT    EPW24951   7.158   4.591   1.812  0.5183  0.1092 -0.0866
30787WAT      O24952   4.617   8.134   0.782  0.1992 -0.6274  0.0959
30787WAT     H124953   4.663   8.086   0.850 -0.1828  0.4980  1.1933
30787WAT     H224954   4.610   8.223   0.816 -3.0497 -0.7871  0.1740
30787WAT    EPW24955   4.622   8.139   0.795 -0.2794 -0.5002  0.2510
30788WAT      O24956   2.063   3.886   8.939 -0.0277 -0.4310  0.1254
30788WAT     H124957   2.105   3.967   8.967 -0.4342  0.2660 -1.1873
30788WAT     H224958   2.116   3.855   8.865  0.7000 -1.9176  1.2240
30788WAT    EPW24959   2.075   3.893   8.933  0.0145 -0.5349  0.0973
30789WAT      O24960   4.141   8.987   1.735 -0.4924  0.3794 -0.6149
30789WAT     H124961   4.047   8.972   1.730 -0.2705 -0.7159 -4.0764
30789WAT     H224962   4.160   8.989   1.829 -2.9671 -6.0755  0.5303
30789WAT    EPW24963   4.131   8.985   1.747 -0.7894 -0.6156 -0.9204
30790WAT      O24964   8.497   5.015   8.782  0.1613 -0.2776 -0.2118
30790WAT     H124965   8.559   5.088   8.779 -1.9457  1.7002  1.2949
30790WAT     H224966   8.438   5.031   8.709  0.5109 -1.3054 -0.7341
30790WAT    EPW24967   8.498   5.027   8.772 -0.0706 -0.1526 -0.0820
30791WAT      O24968   9.094   0.293   1.262 -0.2009  0.1315 -0.1483
30791WAT     H124969   9.007   0.329   1.280 -0.0528  0.4859 -0.1264
30791WAT     H224970   9.135   0.358   1.204 -0.0871 -0.2137 -0.4554
30791WAT    EPW24971   9.088   0.307   1.257 -0.1669  0.1327 -0.1860
30792WAT      O24972  10.769   3.550   7.863 -0.0367  0.6503 -0.2931
30792WAT     H124973  10.728   3.484   7.919 -3.3578 -0.5834 -3.7630
30792WAT     H224974  10.709   3.625   7.865  0.2247  0.9189 -1.4902
30792WAT    EPW24975  10.756   3.551   7.871 -0.4396  0.5230 -0.9086
30793WAT      O24976   0.123   7.398   6.853  0.0656  0.2648 -0.1411
30793WAT     H124977   0.166   7.416   6.770  1.0594 -1.0472  0.0569
30793WAT     H224978   0.159   7.314   6.881  0.2926  1.0070  1.9815
30793WAT    EPW24979   0.133   7.389   6.846  0.2266  0.1898  0.1647
30794WAT      O24980   6.833  10.275   1.318  0.2763  0.5957  0.2599
30794WAT     H124981   6.773  10.328   1.266  0.8669 -0.6719 -1.8154
30794WAT     H224982   6.805  10.289   1.408 -1.4424  2.0899 -0.4472
30794WAT    EPW24983   6.822  10.284   1.323  0.1276  0.6251 -0.1070
30795WAT      O24984   4.443   7.939   0.449  0.8735 -0.1553  0.0164
30795WAT     H124985   4.371   7.903   0.397  1.3482  2.0623 -2.3816
30795WAT     H224986   4.401   7.972   0.529 -0.0890 -2.4293  0.5105
30795WAT    EPW24987   4.428   7.939   0.453  0.8094 -0.1628 -0.2347
30796WAT      O24988   1.581   4.958   6.282 -0.3535  0.2053  0.6810
30796WAT     H124989   1.632   4.936   6.360 -0.4456 -0.6243  0.5133
30796WAT     H224990   1.647   4.981   6.217 -0.1387 -1.4577  0.2803
30796WAT    EPW24991   1.597   4.959   6.284 -0.3373 -0.1235  0.6063
30797WAT      O24992   1.482   0.143   7.457  0.7017  0.6945  0.2265
30797WAT     H124993   1.448   0.166   7.544  1.1694  2.9583 -0.1151
30797WAT     H224994   1.575   0.164   7.462  1.1484 -1.0724 -0.2444
30797WAT    EPW24995   1.490   0.149   7.469  0.8222  0.7600  0.1192
30798WAT      O24996   7.889   0.564   0.674 -0.5012 -0.4228  0.3189
30798WAT     H124997   7.837   0.590   0.750  1.1846  0.6199  1.1929
30798WAT     H224998   7.845   0.605   0.599 -1.3552 -0.2166  0.9209
30798WAT    EPW24999   7.877   0.573   0.674 -0.3912 -0.2581  0.5136
30799WAT      O25000   5.554   6.934   1.502  0.1605 -0.5524 -0.1145
30799WAT     H125001   5.573   6.946   1.595  0.1298  0.0513 -0.1853
30799WAT     H225002   5.458   6.942   1.497  0.0413 -1.7757 -0.0261
30799WAT    EPW25003   5.544   6.937   1.514  0.1407 -0.6340 -0.1123
30800WAT      O25004   6.460   5.856   0.747  0.4019 -0.4864  0.5975
30800WAT     H125005   6.535   5.844   0.805  0.9600  0.3251  0.0718
30800WAT     H225006   6.386   5.871   0.806  0.8877 -0.0593  1.1133
30800WAT    EPW25007   6.460   5.857   0.763  0.5395 -0.3228  0.5962
30801WAT      O25008   5.567   8.222   0.970  0.3562 -0.0659  0.0592
30801WAT     H125009   5.530   8.194   0.886  0.2749  0.9493 -0.2642
30801WAT     H225010   5.607   8.307   0.950  0.7696 -0.0482  0.9423
30801WAT    EPW25011   5.568   8.230   0.956  0.3998  0.0706  0.1330
30802WAT      O25012   9.922   2.820   8.248 -0.4862 -0.0464 -0.3078
30802WAT     H125013   9.988   2.851   8.310 -0.7622  1.4151 -0.7039
30802WAT     H225014   9.927   2.725   8.253 -0.6575  0.0078  2.1345
30802WAT    EPW25015   9.932   2.812   8.257 -0.5450  0.1534 -0.0372
30803WAT      O25016   2.923   6.872   2.467  0.7411 -0.1358  0.3485
30803WAT     H125017   2.891   6.801   2.523 -0.5775  0.7498  0.7696
30803WAT     H225018   2.975   6.926   2.526  0.9973 -0.2627  0.2400
30803WAT    EPW25019   2.925   6.869   2.482  0.6009 -0.0358  0.3897
30804WAT      O25020   3.041   7.717   3.244 -0.2949  0.3728 -0.0210
30804WAT     H125021   3.097   7.744   3.171  0.1525  0.2013  0.2522
30804WAT     H225022   2.963   7.681   3.203 -0.4109  1.0458 -0.4009
30804WAT    EPW25023   3.038   7.716   3.229 -0.2512  0.4389 -0.0348
30805WAT      O25024   7.734   9.730   8.504  0.4945  0.4728  0.0226
30805WAT     H125025   7.732   9.672   8.428  0.4917  0.9904 -0.3852
30805WAT     H225026   7.781   9.681   8.571  0.8474  0.1612 -0.4461
30805WAT    EPW25027   7.740   9.716   8.503  0.5407  0.5007 -0.0930
30806WAT      O25028   2.638   7.949   3.402  0.2057  0.5094  0.2868
30806WAT     H125029   2.692   7.883   3.445  0.1372  0.9701  1.0963
30806WAT     H225030   2.603   7.905   3.325  1.0858 -0.0431  0.1875
30806WAT    EPW25031   2.641   7.934   3.397  0.3127  0.4971  0.3804
30807WAT      O25032   4.246   3.743   8.752 -0.0697  0.1721 -0.1913
30807WAT     H125033   4.272   3.780   8.667 -0.8857  1.7588  0.2236
30807WAT     H225034   4.296   3.794   8.816 -0.3146 -0.2478  0.3393
30807WAT    EPW25035   4.256   3.755   8.749 -0.2096  0.3258 -0.0668
30808WAT      O25036   2.730   0.338   0.296 -0.4526 -0.2551 -0.1511
30808WAT     H125037   2.657   0.380   0.342 -1.6635 -1.2936 -1.0340
30808WAT     H225038   2.715   0.358   0.204 -1.3848 -2.9122 -0.6774
30808WAT    EPW25039   2.718   0.346   0.290 -0.7352 -0.7426 -0.3369
30809WAT      O25040   8.732   0.282   1.376 -0.0213 -0.7799  0.4168
30809WAT     H125041   8.777   0.273   1.460  0.3398 -2.9320  0.0627
30809WAT     H225042   8.641   0.302   1.400 -0.2190 -2.6057  1.4305
30809WAT    EPW25043   8.726   0.283   1.390  0.0005 -1.3046  0.5038
30810WAT      O25044   5.529   7.878   3.733  0.1564  0.4710  0.8981
30810WAT     H125045   5.538   7.959   3.682  3.4624  1.4839  2.7966
30810WAT     H225046   5.614   7.835   3.725 -0.1928 -0.7859  3.1493
30810WAT    EPW25047   5.542   7.883   3.725  0.5462  0.4389  1.4453
30811WAT      O25048   6.714   2.032   1.719 -0.0381 -0.0833 -0.0879
30811WAT     H125049   6.796   1.989   1.745 -1.0683 -1.8443  0.3876
30811WAT     H225050   6.741   2.096   1.653  1.6434 -1.0975 -0.4454
30811WAT    EPW25051   6.729   2.035   1.714  0.0479 -0.4493 -0.0723
30812WAT      O25052   3.033   9.079   1.896  0.1535 -0.1261  0.1747
30812WAT     H125053   3.024   9.053   1.805  1.9181  0.9421 -0.3386
30812WAT     H225054   2.953   9.127   1.915 -1.3195 -2.3213 -0.0516
30812WAT    EPW25055   3.021   9.082   1.887  0.1918 -0.2747  0.0772
30813WAT      O25056  10.563   5.499   7.729 -0.0932  0.0266 -0.2399
30813WAT     H125057  10.483   5.551   7.737  0.0703  0.1743  0.4765
30813WAT     H225058  10.624   5.537   7.792  1.3914  1.3926 -2.3606
30813WAT    EPW25059  10.560   5.511   7.738  0.1245  0.2265 -0.4251
30814WAT      O25060   7.512   1.743   2.232 -0.0330 -0.7177 -0.0217
30814WAT     H125061   7.427   1.778   2.203  0.4079  0.1231 -0.3334
30814WAT     H225062   7.575   1.781   2.170  1.0567  1.7440  2.4101
30814WAT    EPW25063   7.509   1.753   2.220  0.1688 -0.2821  0.2578
30815WAT      O25064   1.212   5.390   0.358  0.1093 -0.0028 -0.3242
30815WAT     H125065   1.268   5.389   0.436 -0.4630 -0.2929  0.0957
30815WAT     H225066   1.254   5.329   0.298  1.1524  1.0496 -0.6862
30815WAT    EPW25067   1.225   5.381   0.361  0.1714  0.0978 -0.3166
30816WAT      O25068   3.331   6.812   3.418  0.3469  0.5622  0.2030
30816WAT     H125069   3.254   6.866   3.404 -0.1220 -0.2878 -0.5784
30816WAT     H225070   3.402   6.875   3.434 -0.1054  1.4313 -1.0627
30816WAT    EPW25071   3.331   6.828   3.418  0.2254  0.5646 -0.0670
30817WAT      O25072   5.989   8.082   4.869 -0.3966 -0.0328 -0.7476
30817WAT     H125073   5.903   8.056   4.900 -0.4240  1.7418  0.8181
30817WAT     H225074   5.976   8.104   4.777 -1.5629  0.0399 -0.5712
30817WAT    EPW25075   5.976   8.081   4.861 -0.5538  0.2108 -0.5176
30818WAT      O25076   9.278   4.398   1.623  0.4975  0.1644  0.4965
30818WAT     H125077   9.307   4.428   1.537  1.8088  0.4775  1.0114
30818WAT     H225078   9.202   4.451   1.643  1.9411  2.2512  0.7812
30818WAT    EPW25079   9.272   4.409   1.614  0.8612  0.4809  0.6019
30819WAT      O25080   3.806   7.456   1.500 -0.1539  0.0045  0.3826
30819WAT     H125081   3.816   7.362   1.516 -3.8390 -0.8404 -1.1433
30819WAT     H225082   3.895   7.491   1.506  1.3834 -3.5369  1.0316
30819WAT    EPW25083   3.819   7.448   1.503 -0.4370 -0.5741  0.2669
30820WAT      O25084   2.425   3.532   7.436  0.7038 -0.8989 -0.2877
30820WAT     H125085   2.462   3.605   7.486 -0.7722  1.1256 -1.9737
30820WAT     H225086   2.364   3.490   7.496  0.0530  0.5463  0.1052
30820WAT    EPW25087   2.422   3.536   7.450  0.4233 -0.4412 -0.4580
30821WAT      O25088   0.862   6.269   7.874  0.2744  0.4536 -0.3846
30821WAT     H125089   0.828   6.195   7.924 -0.9129  0.8597 -0.5521
30821WAT     H225090   0.957   6.259   7.877  0.1379 -0.9199 -0.1866
30821WAT    EPW25091   0.870   6.258   7.881  0.0998  0.3259 -0.3805
30822WAT      O25092   1.845   8.087   2.361  0.2736 -0.3512 -0.3985
30822WAT     H125093   1.811   8.022   2.299  1.3187 -0.8660 -0.4588
30822WAT     H225094   1.891   8.035   2.427 -0.5143  0.2126  0.6205
30822WAT    EPW25095   1.847   8.071   2.361  0.3075 -0.3443 -0.2720
30823WAT      O25096   3.750   8.557   4.209  0.1241  0.3458 -0.8033
30823WAT     H125097   3.714   8.475   4.175 -0.3767 -0.1009  0.7458
30823WAT     H225098   3.674   8.606   4.240  0.6801 -0.2313  1.6866
30823WAT    EPW25099   3.735   8.552   4.209  0.1314  0.2108 -0.2706
30824WAT      O25100   6.504   0.224   1.009  0.3663  0.2637 -0.3552
30824WAT     H125101   6.434   0.289   1.002 -1.5270 -0.9981  3.6326
30824WAT     H225102   6.539   0.237   1.097  1.5940 -2.5014 -0.3533
30824WAT    EPW25103   6.499   0.235   1.019  0.2787 -0.2675  0.1711
30825WAT      O25104   6.463   0.289   1.540  0.0998  0.3301 -1.2476
30825WAT     H125105   6.552   0.324   1.534  0.1353  0.2844 -0.9828
30825WAT     H225106   6.466   0.208   1.488  1.1366 -1.5216  1.4563
30825WAT    EPW25107   6.475   0.283   1.532  0.2415  0.0799 -0.8560
30826WAT      O25108   1.074   7.204   8.516  0.6842 -0.2705  0.0897
30826WAT     H125109   1.079   7.289   8.560 -1.9231 -1.5603  3.3058
30826WAT     H225110   1.164   7.170   8.518  1.1847  1.0329  1.7941
30826WAT    EPW25111   1.087   7.211   8.522  0.4063 -0.2687  0.7386
30827WAT      O25112   7.861   2.354   2.811 -0.6440  0.1766 -0.0273
30827WAT     H125113   7.848   2.308   2.728 -0.3221  2.5787 -1.5179
30827WAT     H225114   7.773   2.370   2.844 -0.7928 -3.7628  2.0104
30827WAT    EPW25115   7.848   2.350   2.805 -0.6213 -0.0261  0.0449
30828WAT      O25116   6.188   9.491   3.009  0.0758  0.3426 -0.7413
30828WAT     H125117   6.214   9.402   2.987  1.3620  0.2283  0.9984
30828WAT     H225118   6.204   9.541   2.929 -0.6293 -0.9646 -1.7334
30828WAT    EPW25119   6.194   9.486   2.996  0.1526  0.1559 -0.6425
30829WAT      O25120   9.565   0.912   1.401 -0.5025 -0.4278  0.0804
30829WAT     H125121   9.548   0.968   1.477  1.0279 -0.5489  0.5356
30829WAT     H225122   9.580   0.974   1.329  3.8925  0.0450  1.1093
30829WAT    EPW25123   9.565   0.928   1.402  0.2794 -0.3814  0.2762
30830WAT      O25124  10.181   3.648   8.565  0.4104 -0.1780  0.4185
30830WAT     H125125  10.270   3.612   8.558  1.6054  2.2616  1.7286
30830WAT     H225126  10.194   3.742   8.575 -2.3921  0.3374  0.0633
30830WAT    EPW25127  10.195   3.655   8.565  0.1988  0.2117  0.5445
30831WAT      O25128   9.216   3.089   7.705  0.3959 -0.2510 -0.2386
30831WAT     H125129   9.300   3.044   7.709 -0.0154 -1.0818 -0.7786
30831WAT     H225130   9.157   3.037   7.759 -0.0028 -0.1883 -0.6024
30831WAT    EPW25131   9.219   3.076   7.712  0.2890 -0.3524 -0.3581
30832WAT      O25132   8.121   1.926   4.644 -0.0708  0.0010  0.4046
30832WAT     H125133   8.129   1.846   4.590  2.8062 -0.6078  1.5112
30832WAT     H225134   8.091   1.894   4.729  2.1225 -0.1811  1.1838
30832WAT    EPW25135   8.118   1.911   4.648  0.5984 -0.1034  0.6533
30833WAT      O25136   4.818  10.041   0.909  0.9136 -0.0072  0.0803
30833WAT     H125137   4.910  10.064   0.900  0.6365  0.6475 -1.4174
30833WAT     H225138   4.804   9.973   0.843  0.4030 -0.4270  0.6010
30833WAT    EPW25139   4.828  10.035   0.899  0.8097  0.0234 -0.0486
30834WAT      O25140   9.380   2.973   8.445 -0.3130 -1.3231  0.6751
30834WAT     H125141   9.318   3.026   8.494  1.8606  1.5375  0.6046
30834WAT     H225142   9.418   2.913   8.510 -0.0238 -0.0400  1.7300
30834WAT    EPW25143   9.377   2.972   8.460  0.0114 -0.7768  0.8049
30835WAT      O25144   2.453   8.150   2.496 -0.1939  0.5610  0.0984
30835WAT     H125145   2.489   8.224   2.546 -2.2241  1.2887  0.5811
30835WAT     H225146   2.358   8.157   2.508 -0.4896 -1.7816 -0.3585
30835WAT    EPW25147   2.445   8.161   2.504 -0.5007  0.3476  0.1018
30836WAT      O25148   7.021   1.596   4.843  0.6256  0.2536 -0.9607
30836WAT     H125149   6.950   1.585   4.906  0.9054  0.9282 -0.5111
30836WAT     H225150   6.997   1.540   4.769  1.8374 -3.2353  1.0090
30836WAT    EPW25151   7.009   1.587   4.841  0.8221 -0.1175 -0.6416
30837WAT      O25152   3.059   8.179   0.580 -0.2907  0.1569 -1.2257
30837WAT     H125153   2.972   8.140   0.581 -1.1431  1.8137  1.7810
30837WAT     H225154   3.118   8.108   0.605 -1.4200 -0.0302  1.1501
30837WAT    EPW25155   3.055   8.165   0.583 -0.5519  0.3505 -0.5158
30838WAT      O25156   9.063   8.662   8.836  0.0277 -0.3595 -0.0361
30838WAT     H125157   9.069   8.754   8.864  2.0186 -0.4911  0.1429
30838WAT     H225158   9.024   8.665   8.749 -3.6353  0.2999  1.4641
30838WAT    EPW25159   9.059   8.675   8.828 -0.1931 -0.2894  0.1855
30839WAT      O25160   5.611   8.479   0.600 -0.6184 -0.0412 -0.3834
30839WAT     H125161   5.679   8.497   0.665 -0.6275  0.3720 -0.4865
30839WAT     H225162   5.639   8.397   0.559  0.2279  0.5318 -0.9742
30839WAT    EPW25163   5.624   8.470   0.603 -0.5078  0.0887 -0.4749
30840WAT      O25164   9.033   1.094   8.632  0.3349  0.1089  0.3369
30840WAT     H125165   8.992   1.172   8.670  0.3662  0.3011 -0.0228
30840WAT     H225166   8.959   1.035   8.615 -0.0950  1.2525 -2.2395
30840WAT    EPW25167   9.018   1.097   8.635  0.2823  0.2851 -0.0501
30841WAT      O25168   7.926   1.397   2.164  0.5543 -0.2727  0.4409
30841WAT     H125169   7.903   1.403   2.257 -1.2935  1.6256 -0.0718
30841WAT     H225170   7.918   1.303   2.143 -1.1599 -0.4435  1.6937
30841WAT    EPW25171   7.922   1.385   2.173  0.0844 -0.0449  0.5385
30842WAT      O25172   1.014   1.615   8.333  0.3970  0.0882  0.2375
30842WAT     H125173   1.080   1.654   8.390 -0.5239  0.7078  0.9116
30842WAT     H225174   1.029   1.655   8.247  1.3378 -0.3142  0.2049
30842WAT    EPW25175   1.024   1.625   8.329  0.3996  0.1169  0.3223
30843WAT      O25176  10.748   1.805   8.431  0.4784  0.4203  0.0060
30843WAT     H125177  10.798   1.772   8.506  0.4425  1.7905  0.6634
30843WAT     H225178  10.815   1.839   8.372  0.4116  1.4404  0.4850
30843WAT    EPW25179  10.764   1.805   8.433  0.4649  0.7356  0.1559
30844WAT      O25180   8.075   1.087   2.593 -0.6198  0.5213  0.0585
30844WAT     H125181   8.115   1.000   2.592  0.4904  0.9809 -1.9986
30844WAT     H225182   7.984   1.071   2.617 -0.1920 -1.0781  0.7234
30844WAT    EPW25183   8.068   1.073   2.596 -0.4172  0.3710 -0.1253
30845WAT      O25184   4.124   9.192   1.244  0.0203  0.2666  0.5135
30845WAT     H125185   4.061   9.264   1.254  0.1074  0.1637  2.0299
30845WAT     H225186   4.080   9.116   1.284 -0.2815 -0.6909 -1.5080
30845WAT    EPW25187   4.110   9.191   1.251 -0.0081  0.1264  0.4469
30846WAT      O25188   9.415   3.601   2.512  0.6755  0.5350  0.3441
30846WAT     H125189   9.431   3.670   2.577  1.6892  1.5795 -0.9533
30846WAT     H225190   9.347   3.546   2.551  0.0742  2.0794  1.5552
30846WAT    EPW25191   9.408   3.603   2.526  0.7291  0.8765  0.3327
30847WAT      O25192   1.379   8.761   3.421 -0.1799 -0.3165  0.2583
30847WAT     H125193   1.458   8.756   3.476  0.7531  0.5304 -0.9580
30847WAT     H225194   1.406   8.811   3.344 -1.1210 -2.3922 -1.5358
30847WAT    EPW25195   1.393   8.767   3.418 -0.1810 -0.4792 -0.1388
30848WAT      O25196   1.358   4.612   0.580 -0.0883  1.0331 -0.1177
30848WAT     H125197   1.298   4.551   0.622  1.6865 -1.7006 -1.2550
30848WAT     H225198   1.305   4.656   0.513 -1.6131  1.4715  1.3092
30848WAT    EPW25199   1.343   4.610   0.577 -0.0554  0.7305 -0.0795
30849WAT      O25200   2.963  10.162   1.781 -0.1929  0.7190  0.3974
30849WAT     H125201   2.974  10.067   1.779 -0.0145  0.7468 -0.4797
30849WAT     H225202   2.888  10.178   1.725  0.3404  1.1585 -0.2059
30849WAT    EPW25203   2.955  10.151   1.773 -0.0991  0.7811  0.2021
30850WAT      O25204  10.042   4.849   8.917  0.0116  0.4130  0.1113
30850WAT     H125205  10.008   4.891   8.997  0.8778  0.1452  0.6358
30850WAT     H225206  10.069   4.922   8.862  0.9817  0.5862  0.7837
30850WAT    EPW25207  10.041   4.864   8.920  0.2537  0.4005  0.2699
30851WAT      O25208  10.019   2.343   1.904  0.0600 -0.2130 -0.2662
30851WAT     H125209  10.011   2.431   1.942 -0.2569 -0.1978 -0.3690
30851WAT     H225210  10.051   2.358   1.815 -0.4687 -0.1718 -0.4512
30851WAT    EPW25211  10.022   2.357   1.897 -0.0510 -0.2055 -0.3042
30852WAT      O25212   5.952   7.829   1.600 -0.6612  0.2136  1.0137
30852WAT     H125213   5.986   7.743   1.575 -2.0274  0.1168 -0.6372
30852WAT     H225214   5.858   7.815   1.612 -0.5530  0.9747  3.2243
30852WAT    EPW25215   5.944   7.815   1.598 -0.8271  0.3011  1.0875
30853WAT      O25216   5.420   1.095   4.032 -0.3103 -0.8412 -0.2469
30853WAT     H125217   5.501   1.140   4.056 -1.8925  0.8889  2.3130
30853WAT     H225218   5.423   1.013   4.082  0.4785 -1.5061 -1.3333
30853WAT    EPW25219   5.431   1.090   4.041 -0.4151 -0.7007 -0.0525
30854WAT      O25220   1.693   2.349   6.620  0.4899  0.0477  0.5346
30854WAT     H125221   1.618   2.344   6.560  0.3079 -0.8433  0.8196
30854WAT     H225222   1.753   2.282   6.589  1.2605  0.8678  0.2142
30854WAT    EPW25223   1.691   2.339   6.608  0.5676  0.0383  0.5300
30855WAT      O25224   6.196   7.832   4.869  0.3293  0.2181 -0.1662
30855WAT     H125225   6.155   7.856   4.786  0.0500 -0.2516 -0.1683
30855WAT     H225226   6.123   7.802   4.924  0.6699 -0.7332 -0.2095
30855WAT    EPW25227   6.181   7.831   4.865  0.3374  0.0305 -0.1721
30856WAT      O25228   6.699   0.483   1.594 -0.5382  0.1186 -0.8386
30856WAT     H125229   6.633   0.538   1.637  0.0061 -1.0037  1.6368
30856WAT     H225230   6.779   0.497   1.645 -0.4748 -3.1775  0.2327
30856WAT    EPW25231   6.701   0.492   1.606 -0.4580 -0.4642 -0.3708
30857WAT      O25232   1.208   8.452   3.928 -0.1041 -0.1652  0.3103
30857WAT     H125233   1.275   8.387   3.905  0.1835  0.7841 -1.8168
30857WAT     H225234   1.195   8.442   4.022 -0.1467 -3.3713  0.0758
30857WAT    EPW25235   1.215   8.442   3.937 -0.0718 -0.4630 -0.0011
30858WAT      O25236   7.475   8.131   3.651 -0.4281 -0.1692 -0.2597
30858WAT     H125237   7.481   8.218   3.691 -2.5659 -0.1194  0.0730
30858WAT     H225238   7.547   8.129   3.588 -0.6029  2.0421 -0.6325
30858WAT    EPW25239   7.485   8.142   3.648 -0.7331  0.1287 -0.2649
30859WAT      O25240   7.390   0.110   1.673 -0.0983 -0.3423 -0.3576
30859WAT     H125241   7.391   0.091   1.579  1.5947  0.7848 -0.6188
30859WAT     H225242   7.339   0.190   1.681 -0.1781 -0.3970 -0.3141
30859WAT    EPW25243   7.384   0.118   1.662  0.1147 -0.2009 -0.3863
30860WAT      O25244   7.601   2.427   8.152 -0.1698 -0.0762 -0.4700
30860WAT     H125245   7.630   2.353   8.098 -1.0903  0.5074 -1.7955
30860WAT     H225246   7.673   2.440   8.215  0.0135 -2.0781 -0.2004
30860WAT    EPW25247   7.614   2.419   8.153 -0.2670 -0.2632 -0.6089
30861WAT      O25248   7.804   1.160   0.448 -0.2519  0.3786  0.1847
30861WAT     H125249   7.793   1.067   0.469 -0.6579  0.6398  1.1510
30861WAT     H225250   7.715   1.191   0.432 -0.0482  0.4271 -0.9648
30861WAT    EPW25251   7.791   1.152   0.449 -0.2787  0.4194  0.1606
30862WAT      O25252   5.843   0.895   1.730  0.0310 -0.6714  0.0063
30862WAT     H125253   5.781   0.892   1.657 -1.7514  1.5683  1.3001
30862WAT     H225254   5.803   0.955   1.793  3.4576  0.8293  0.9967
30862WAT    EPW25255   5.830   0.903   1.728  0.2480 -0.1781  0.3076
30863WAT      O25256   7.238   1.931   2.639  0.2638 -0.5921 -0.0677
30863WAT     H125257   7.321   1.978   2.646  0.7225 -0.9955 -2.1241
30863WAT     H225258   7.262   1.839   2.645 -0.1435 -0.6805  0.1947
30863WAT    EPW25259   7.252   1.925   2.640  0.2706 -0.6569 -0.3043
30864WAT      O25260   9.082   3.797   7.943  0.7663 -0.1685 -0.2377
30864WAT     H125261   9.102   3.753   7.861  1.1070  0.6986 -0.6352
30864WAT     H225262   9.029   3.872   7.918  0.1150 -0.3896  0.4365
30864WAT    EPW25263   9.078   3.801   7.929  0.7253 -0.0831 -0.2010
30865WAT      O25264   1.799   5.203   8.676 -0.1777 -0.3049  0.8061
30865WAT     H125265   1.851   5.151   8.615  1.3779  0.2405  1.6164
30865WAT     H225266   1.787   5.287   8.632 -2.7323 -1.2455 -0.5250
30865WAT    EPW25267   1.804   5.207   8.662 -0.3095 -0.3569  0.7372
30866WAT      O25268   7.145   9.577   3.846 -0.2746 -0.9603 -0.0809
30866WAT     H125269   7.211   9.510   3.828  0.0660 -0.8299  0.6787
30866WAT     H225270   7.091   9.541   3.916  0.0547 -0.3482  0.4992
30866WAT    EPW25271   7.146   9.564   3.853 -0.1864 -0.8621  0.0957
30867WAT      O25272   5.670   8.940   0.818 -0.1797  0.1215  0.0676
30867WAT     H125273   5.680   8.845   0.829  1.9529  0.3629  0.5083
30867WAT     H225274   5.649   8.973   0.905  0.0707  0.1636  0.1125
30867WAT    EPW25275   5.668   8.932   0.831  0.1347  0.1588  0.1316
30868WAT      O25276   1.879   9.105   1.080 -0.1426  0.0653 -0.3408
30868WAT     H125277   1.833   9.119   1.163 -1.1227 -1.0940 -0.6547
30868WAT     H225278   1.932   9.027   1.096 -1.8422 -1.3775 -1.3528
30868WAT    EPW25279   1.880   9.096   1.093 -0.4960 -0.2780 -0.5157
30869WAT      O25280   4.079   8.547   1.595  0.1113  0.0872 -0.1405
30869WAT     H125281   4.038   8.495   1.664  1.0159  0.6547  0.8595
30869WAT     H225282   4.144   8.601   1.641 -0.9912  2.3318 -1.0874
30869WAT    EPW25283   4.082   8.547   1.610  0.0851  0.4582 -0.1334
30870WAT      O25284   5.790   8.071   1.040  0.4563  0.3612 -1.2650
30870WAT     H125285   5.709   8.112   1.008  0.6533  0.7624 -1.2591
30870WAT     H225286   5.766   8.034   1.125  0.5916  1.5859 -0.6741
30870WAT    EPW25287   5.776   8.071   1.047  0.5002  0.5755 -1.1863
30871WAT      O25288  10.578  10.123   1.760  0.2921  0.2291 -0.4925
30871WAT     H125289  10.628  10.181   1.816 -0.7293  1.0513 -0.4052
30871WAT     H225290  10.619  10.131   1.674  0.2862  0.9184 -0.4328
30871WAT    EPW25291  10.590  10.132   1.756  0.1564  0.4282 -0.4731
30872WAT      O25292   6.080  10.289   1.715  0.8145  0.3491 -0.1807
30872WAT     H125293   6.062  10.225   1.784  1.4607 -0.1968 -0.5062
30872WAT     H225294   6.012  10.355   1.726 -0.6480 -1.0167 -0.6064
30872WAT    EPW25295   6.068  10.289   1.725  0.7069  0.0968 -0.2797
30873WAT      O25296   4.234  10.302   3.068 -0.1073 -1.0076 -0.3072
30873WAT     H125297   4.305  10.239   3.056  0.5484  0.1476 -3.2409
30873WAT     H225298   4.226  10.346   2.984 -0.7919  2.5495  1.4029
30873WAT    EPW25299   4.243  10.299   3.056 -0.1113 -0.3858 -0.4686
30874WAT      O25300  10.474   0.750   1.148  0.4542  0.5100 -0.1997
30874WAT     H125301  10.458   0.664   1.186 -1.9744  0.6902 -0.6752
30874WAT     H225302  10.466   0.738   1.054 -0.6047  1.3253 -0.2457
30874WAT    EPW25303  10.471   0.737   1.141 -0.0057  0.6413 -0.2685
30875WAT      O25304   8.694   2.129   0.470  0.4489 -0.6177 -0.2839
30875WAT     H125305   8.699   2.191   0.542  3.3223  0.4762 -1.3117
30875WAT     H225306   8.676   2.045   0.512  1.4013  0.0901  1.6339
30875WAT    EPW25307   8.692   2.126   0.485  0.9527 -0.3800 -0.1665
30876WAT      O25308   1.257   5.935   0.148  0.2103  0.1752  0.3205
30876WAT     H125309   1.318   5.934   0.222 -0.5476 -0.9138  0.9561
30876WAT     H225310   1.205   5.855   0.159  0.0030  0.0580 -1.3324
30876WAT    EPW25311   1.258   5.924   0.160  0.0830  0.0162  0.1863
30877WAT      O25312   6.011   9.148   4.045 -0.0069 -0.2192  0.9067
30877WAT     H125313   5.931   9.103   4.019  0.3538 -0.2051 -0.2910
30877WAT     H225314   6.081   9.103   3.997  0.7434 -0.3741  2.0976
30877WAT    EPW25315   6.010   9.136   4.035  0.1397 -0.2375  0.9060
30878WAT      O25316   3.524   9.214   1.667 -0.0309 -0.3779  0.1371
30878WAT     H125317   3.498   9.195   1.757 -0.9430 -2.5828 -0.5312
30878WAT     H225318   3.620   9.217   1.670  0.3024 -4.8527  0.5391
30878WAT    EPW25319   3.534   9.212   1.680 -0.1072 -1.2588  0.1020
30879WAT      O25320   4.572   3.935   6.869 -0.4813  0.7446 -0.4840
30879WAT     H125321   4.606   3.950   6.780 -0.5901 -1.1558 -0.8928
30879WAT     H225322   4.644   3.891   6.915 -0.3558  1.8941  0.4626
30879WAT    EPW25323   4.586   3.931   6.863 -0.4790  0.6455 -0.4129
30880WAT      O25324   4.226   1.201   3.108 -0.4752 -0.1145  0.2077
30880WAT     H125325   4.293   1.156   3.159 -0.9804 -1.7676 -0.4850
30880WAT     H225326   4.144   1.183   3.154 -0.7629 -0.4626 -0.4159
30880WAT    EPW25327   4.224   1.192   3.121 -0.5798 -0.3785  0.0341
30881WAT      O25328   0.344   3.168   7.720 -0.4334  0.5983 -0.0698
30881WAT     H125329   0.279   3.116   7.672  0.5750 -0.8423  0.0782
30881WAT     H225330   0.384   3.106   7.781  2.7089  0.7981 -1.7363
30881WAT    EPW25331   0.340   3.153   7.722  0.1140  0.4346 -0.2701
30882WAT      O25332   1.350   6.645   7.091 -0.8619 -0.0231  0.4500
30882WAT     H125333   1.338   6.692   7.174 -0.4000 -0.5475  0.8228
30882WAT     H225334   1.321   6.707   7.024 -3.1893 -0.3080  1.1098
30882WAT    EPW25335   1.345   6.659   7.093 -1.1080 -0.1297  0.5865
30883WAT      O25336   0.584   3.560   2.412  0.2946  0.3500 -0.0571
30883WAT     H125337   0.650   3.504   2.371 -0.4386 -0.0395 -0.7547
30883WAT     H225338   0.574   3.633   2.351 -0.0478  0.3071 -0.0556
30883WAT    EPW25339   0.591   3.562   2.398  0.1527  0.2928 -0.1489
30884WAT      O25340  10.660   6.932   5.947 -0.8071  0.5767  0.6525
30884WAT     H125341  10.607   6.912   5.870 -0.1622  0.1188  0.3172
30884WAT     H225342  10.614   6.888   6.019 -0.6174 -0.2503  0.2816
30884WAT    EPW25343  10.647   6.924   5.946 -0.6971  0.4072  0.5593
30885WAT      O25344   4.775   1.089   1.441  1.0925  0.4725 -0.3715
30885WAT     H125345   4.686   1.062   1.466  0.3407  3.8504  1.2046
30885WAT     H225346   4.832   1.024   1.481 -0.5466  0.5788  2.4307
30885WAT    EPW25347   4.771   1.077   1.450  0.7772  0.9321  0.2060
30886WAT      O25348   2.517   8.476   6.626 -0.4461  0.4326  0.6789
30886WAT     H125349   2.476   8.562   6.617 -2.4082 -0.4400  0.6617
30886WAT     H225350   2.559   8.461   6.541  0.3560  1.5665  0.8560
30886WAT    EPW25351   2.517   8.485   6.613 -0.5990  0.4668  0.7000
30887WAT      O25352   7.425   1.484   6.196 -0.4442  0.1220 -0.3610
30887WAT     H125353   7.493   1.502   6.131  0.0651  0.0960  0.1576
30887WAT     H225354   7.430   1.557   6.257 -2.0645  1.0395 -1.2691
30887WAT    EPW25355   7.434   1.496   6.195 -0.5908  0.2396 -0.4122
30888WAT      O25356   7.839   2.923   3.388 -1.0895  0.1964 -0.3963
30888WAT     H125357   7.795   2.969   3.316 -4.3295 -0.2290  1.1313
30888WAT     H225358   7.841   2.831   3.360  2.2614  0.5991 -1.9600
30888WAT    EPW25359   7.833   2.917   3.375 -1.0753  0.1932 -0.4010
30889WAT      O25360   5.306   8.192   0.593  0.0308 -0.2211 -0.1249
30889WAT     H125361   5.300   8.279   0.633  0.2747  0.0294 -0.6269
30889WAT     H225362   5.218   8.155   0.604  0.5812 -0.9671  2.4312
30889WAT    EPW25363   5.293   8.199   0.600  0.1354 -0.2866  0.1461
30890WAT      O25364   0.916   5.804   7.019  0.1281  0.0258 -0.4226
30890WAT     H125365   0.933   5.873   6.954  1.7444  1.2730  1.2120
30890WAT     H225366   0.998   5.798   7.068 -1.8522  1.2896  3.4478
30890WAT    EPW25367   0.929   5.813   7.017  0.0801  0.3569  0.3033
30891WAT      O25368   9.008   8.768   0.661  0.6345 -0.3322  0.1469
30891WAT     H125369   9.048   8.784   0.746 -1.4011 -0.3198  1.1559
30891WAT     H225370   9.029   8.676   0.642  0.7372 -0.4594  0.8643
30891WAT    EPW25371   9.016   8.758   0.670  0.3800 -0.3476  0.3746
30892WAT      O25372   9.761   3.876   1.966  0.1837  0.4975 -0.2413
30892WAT     H125373   9.725   3.949   1.915 -0.7816 -0.3911 -0.8744
30892WAT     H225374   9.715   3.881   2.050 -1.3918 -0.5217 -0.9817
30892WAT    EPW25375   9.750   3.886   1.971 -0.1512  0.2458 -0.4225
30893WAT      O25376   3.572  10.163   0.647  0.5781  0.4802  0.8765
30893WAT     H125377   3.594  10.254   0.628  1.1673 -0.0621 -1.3386
30893WAT     H225378   3.621  10.142   0.726  3.4308  1.0411 -0.6291
30893WAT    EPW25379   3.581  10.172   0.655  1.0320  0.4826  0.3858
30894WAT      O25380   7.483   8.203   1.576  0.1011 -0.1551  0.4775
30894WAT     H125381   7.413   8.207   1.641 -0.8347  0.7120 -0.5534
30894WAT     H225382   7.458   8.132   1.517  0.8666 -0.8311  0.9419
30894WAT    EPW25383   7.471   8.194   1.577  0.0784 -0.1297  0.4028
30895WAT      O25384   4.942   1.668   0.992 -0.0098 -0.1784 -0.2737
30895WAT     H125385   4.873   1.629   1.045  0.5826 -1.0137 -0.0933
30895WAT     H225386   4.906   1.753   0.964 -0.4566  0.1468  1.1915
30895WAT    EPW25387   4.928   1.674   0.995  0.0093 -0.2456 -0.0567
30896WAT      O25388  10.916   1.015   0.889  0.3420 -0.0266  0.3126
30896WAT     H125389  10.993   0.957   0.896 -0.3991 -1.4174 -1.9984
30896WAT     H225390  10.851   0.962   0.843 -0.4536  2.5662 -1.8072
30896WAT    EPW25391  10.918   1.000   0.884  0.1392  0.1320 -0.2718
30897WAT      O25392   3.508   9.615   3.399 -0.1981 -0.0170 -0.3993
30897WAT     H125393   3.472   9.683   3.456  0.8151  0.8184 -0.7248
30897WAT     H225394   3.602   9.629   3.402  0.0777 -1.8128 -0.0018
30897WAT    EPW25395   3.515   9.626   3.407 -0.0280 -0.1435 -0.3901
30898WAT      O25396   0.069   3.223   1.588  0.8996 -0.4102  0.0040
30898WAT     H125397  -0.021   3.230   1.622  0.6850  1.2847 -0.8395
30898WAT     H225398   0.085   3.128   1.583 -1.2323 -0.7783 -0.8294
30898WAT    EPW25399   0.059   3.211   1.592  0.5901 -0.2352 -0.2172
30899WAT      O25400   8.926   4.743   6.698 -0.1827 -0.1907 -0.2983
30899WAT     H125401   8.999   4.800   6.673 -1.0241  0.3758 -1.5379
30899WAT     H225402   8.944   4.660   6.652  1.0787 -1.0301  1.5593
30899WAT    EPW25403   8.938   4.739   6.688 -0.1273 -0.2270 -0.2167
30900WAT      O25404   8.214   0.878   1.284 -0.7064 -0.4176 -0.5980
30900WAT     H125405   8.211   0.819   1.359  0.2825  1.2192  0.8313
30900WAT     H225406   8.176   0.960   1.316  2.1644  1.2020 -0.9228
30900WAT    EPW25407   8.209   0.881   1.298 -0.1974  0.0119 -0.4523
30901WAT      O25408   0.806   1.471   1.640  0.2494  0.6273 -0.3531
30901WAT     H125409   0.804   1.560   1.606  0.9379  0.6483 -0.3521
30901WAT     H225410   0.765   1.477   1.727  1.7530  1.2630  0.3511
30901WAT    EPW25411   0.801   1.483   1.647  0.5385  0.7139 -0.2601
30902WAT      O25412   8.046   1.413   1.830 -0.5091 -0.2699 -0.0879
30902WAT     H125413   7.968   1.381   1.784  0.5635 -1.1290 -1.3662
30902WAT     H225414   8.054   1.505   1.802 -0.3546 -0.5401 -0.9553
30902WAT    EPW25415   8.036   1.421   1.820 -0.3471 -0.4188 -0.3709
30903WAT      O25416   9.373   4.116   4.861 -0.7995  0.3496  0.8613
30903WAT     H125417   9.306   4.048   4.858 -0.2659 -0.1431 -0.8283
30903WAT     H225418   9.333   4.190   4.815  0.4668 -0.6284 -2.0211
30903WAT    EPW25419   9.359   4.117   4.855 -0.5617  0.1554  0.2580
30904WAT      O25420   8.111   4.541   8.533 -0.0256 -0.2358  0.1572
30904WAT     H125421   8.062   4.502   8.605 -1.4136  1.7494  0.3843
30904WAT     H225422   8.198   4.557   8.568  1.4783 -5.0833 -0.6557
30904WAT    EPW25423   8.116   4.538   8.547 -0.0105 -0.6132  0.0796
30905WAT      O25424   6.678   2.897   4.570  0.2903  0.8509  0.7465
30905WAT     H125425   6.765   2.868   4.596  0.4560  0.2620 -0.3878
30905WAT     H225426   6.690   2.989   4.545  1.1756  0.1187 -1.8334
30905WAT    EPW25427   6.691   2.905   4.570  0.4289  0.6768  0.2568
30906WAT      O25428   0.269   1.706   1.042  0.3046 -0.3503 -0.1760
30906WAT     H125429   0.278   1.795   1.008 -1.3608  0.0997  0.4805
30906WAT     H225430   0.191   1.672   0.999  0.1358 -1.0041  0.6228
30906WAT    EPW25431   0.260   1.713   1.032  0.0626 -0.3772  0.0160
30907WAT      O25432   6.160   9.071   3.549 -0.2305  0.0574 -0.2957
30907WAT     H125433   6.212   9.117   3.483 -1.3831 -3.0124 -3.7156
30907WAT     H225434   6.216   8.999   3.577 -0.6651 -0.0966  0.1814
30907WAT    EPW25435   6.174   9.067   3.544 -0.4399 -0.3676 -0.6838
30908WAT      O25436   4.804   4.122   7.725 -0.3955 -0.0916 -0.2886
30908WAT     H125437   4.835   4.211   7.742 -0.5602  0.3514 -2.1346
30908WAT     H225438   4.713   4.132   7.699 -0.4942 -0.8217 -0.2453
30908WAT    EPW25439   4.796   4.135   7.724 -0.4301 -0.1295 -0.5264
30909WAT      O25440  10.471   3.527   8.580 -0.2176 -0.2783 -0.2040
30909WAT     H125441  10.512   3.580   8.511 -1.4749 -0.7925 -1.3873
30909WAT     H225442  10.509   3.440   8.568 -1.5478 -0.7415 -1.2641
30909WAT    EPW25443  10.481   3.523   8.569 -0.5584 -0.4072 -0.4997
30910WAT      O25444   9.623   1.803   1.536  0.0124 -0.3247 -0.2320
30910WAT     H125445   9.636   1.897   1.533  1.8726 -0.5845 -1.5840
30910WAT     H225446   9.683   1.773   1.604 -2.1715 -0.3835  1.8268
30910WAT    EPW25447   9.632   1.811   1.545 -0.0305 -0.3667 -0.1388
30911WAT      O25448  10.342   3.132   4.182 -0.6890  0.2238 -0.3573
30911WAT     H125449  10.312   3.112   4.271 -1.5288 -4.3302 -1.4402
30911WAT     H225450  10.425   3.178   4.195 -1.8520  1.8070  2.6885
30911WAT    EPW25451  10.349   3.136   4.196 -0.9532 -0.1681 -0.0985
30912WAT      O25452   9.693   0.389   1.069 -1.1705  0.0560 -0.8097
30912WAT     H125453   9.710   0.313   1.125  1.1726 -0.0186 -1.5008
30912WAT     H225454   9.761   0.384   1.001 -1.5319  2.2630 -1.4127
30912WAT    EPW25455   9.704   0.378   1.067 -0.9093  0.3372 -0.9804
30913WAT      O25456   7.965   3.046   2.028  0.5233 -0.8513  0.1865
30913WAT     H125457   7.997   2.968   2.074  0.9734 -1.1234 -0.5696
30913WAT     H225458   8.011   3.119   2.070 -1.0622 -0.8036  1.9535
30913WAT    EPW25459   7.976   3.045   2.040  0.3736 -0.8808  0.3198
30914WAT      O25460   6.327   9.175   3.289 -0.4647  0.1741 -0.6053
30914WAT     H125461   6.373   9.258   3.300  0.9494 -0.5099 -1.1240
30914WAT     H225462   6.380   9.126   3.225  0.2840 -2.1917  1.6487
30914WAT    EPW25463   6.340   9.179   3.282 -0.1793 -0.2279 -0.3765
30915WAT      O25464   8.342   1.122   4.123  0.9884  0.1961 -0.5210
30915WAT     H125465   8.412   1.157   4.068 -0.2273  0.4334 -1.9770
30915WAT     H225466   8.276   1.090   4.061 -0.9855  1.5469  0.7294
30915WAT    EPW25467   8.342   1.123   4.107  0.5674  0.4055 -0.5484
30916WAT      O25468  10.264   1.188   2.290 -0.0164  0.3278 -0.3582
30916WAT     H125469  10.293   1.098   2.304 -3.4020 -1.2128 -2.2537
30916WAT     H225470  10.172   1.188   2.315 -0.6895  2.6662 -2.4190
30916WAT    EPW25471  10.256   1.176   2.295 -0.5522  0.4331 -0.8799
30917WAT      O25472   7.855   3.310   0.385 -0.3005  0.1208 -1.1437
30917WAT     H125473   7.876   3.395   0.423 -1.7973 -0.6230  1.5566
30917WAT     H225474   7.926   3.253   0.414 -1.0852 -0.2948 -0.0057
30917WAT    EPW25475   7.867   3.314   0.394 -0.6013 -0.0322 -0.6375
30918WAT      O25476   2.238   3.725   8.772 -1.1310 -0.4694 -0.3713
30918WAT     H125477   2.173   3.668   8.732 -2.5548 -1.6612  3.2144
30918WAT     H225478   2.310   3.667   8.795 -1.4655 -0.3918  0.9900
30918WAT    EPW25479   2.239   3.710   8.770 -1.3630 -0.6164  0.2809
30919WAT      O25480   0.272   0.191   3.461  0.5639  0.4387 -0.5169
30919WAT     H125481   0.274   0.097   3.440 -1.2790  0.1200  0.5098
30919WAT     H225482   0.274   0.194   3.557 -0.0310  1.4103 -0.5212
30919WAT    EPW25483   0.272   0.179   3.471  0.2424  0.5248 -0.3821
30920WAT      O25484   5.583   7.678   1.056 -0.1822  0.6550 -0.0851
30920WAT     H125485   5.493   7.654   1.033 -0.1062  0.2771  0.0052
30920WAT     H225486   5.582   7.774   1.061 -0.3492  0.7042 -1.0362
30920WAT    EPW25487   5.571   7.688   1.054 -0.1945  0.6115 -0.1985
30921WAT      O25488   4.305   9.496   5.010  0.4293 -0.8553  0.0813
30921WAT     H125489   4.233   9.443   4.976 -0.1997  0.4384 -0.6840
30921WAT     H225490   4.354   9.522   4.932  1.6799 -1.6066  0.5833
30921WAT    EPW25491   4.302   9.492   4.995  0.5114 -0.7839  0.0465
30922WAT      O25492   7.096  10.001   1.594  0.0308  0.1725 -0.0620
30922WAT     H125493   7.149   9.969   1.521  2.6856 -1.6538  2.3852
30922WAT     H225494   7.020   9.944   1.596 -0.8569  1.2022 -2.1818
30922WAT    EPW25495   7.093   9.989   1.585  0.2637  0.0677 -0.0189
30923WAT      O25496   5.798   7.654   2.900  0.0442  0.0702  0.1119
30923WAT     H125497   5.795   7.617   2.988 -3.9066  0.8728  0.5040
30923WAT     H225498   5.791   7.749   2.914  2.7987  0.5629 -1.0828
30923WAT    EPW25499   5.797   7.662   2.913 -0.1137  0.2408  0.0061
30924WAT      O25500   6.417   2.208   1.263  0.2937  0.2240  0.3848
30924WAT     H125501   6.486   2.142   1.270 -1.7222 -1.8789  1.5496
30924WAT     H225502   6.465   2.290   1.249  2.9756 -1.2235  0.3519
30924WAT    EPW25503   6.433   2.210   1.262  0.3812 -0.2444  0.5341
30925WAT      O25504   8.346   9.325   6.324 -0.8894 -0.8124  0.1690
30925WAT     H125505   8.308   9.412   6.315  1.8535  0.4410 -0.5130
30925WAT     H225506   8.351   9.291   6.234 -1.1055 -1.2964  0.3347
30925WAT    EPW25507   8.342   9.332   6.311 -0.5560 -0.7110  0.1009
30926WAT      O25508   5.610   1.572   1.463 -0.5080 -0.4991 -0.3569
30926WAT     H125509   5.641   1.499   1.516 -0.5404 -0.2986 -0.0601
30926WAT     H225510   5.535   1.537   1.415  0.1362 -0.9671 -1.0325
30926WAT    EPW25511   5.604   1.558   1.464 -0.4272 -0.5344 -0.4069
30927WAT      O25512   1.527   7.491   7.151 -0.6973 -0.4909 -0.5275
30927WAT     H125513   1.483   7.572   7.177 -1.8206 -1.1230 -0.3636
30927WAT     H225514   1.593   7.518   7.088 -2.0191  0.4286 -1.5929
30927WAT    EPW25515   1.530   7.505   7.146 -1.0198 -0.4532 -0.6466
30928WAT      O25516   7.240   9.737   2.941 -0.5177  0.3326  0.0680
30928WAT     H125517   7.284   9.685   3.008  0.6396 -0.0757 -0.9805
30928WAT     H225518   7.242   9.826   2.975 -0.3074  0.0674  0.7635
30928WAT    EPW25519   7.246   9.742   2.954 -0.3374  0.2441  0.0215
30929WAT      O25520   2.616   5.567   7.236 -0.0382 -0.1910  0.5223
30929WAT     H125521   2.682   5.585   7.303 -0.3441 -1.5016  1.2160
30929WAT     H225522   2.546   5.630   7.253 -1.3994 -2.2615  3.3104
30929WAT    EPW25523   2.616   5.578   7.247 -0.2581 -0.6371  0.9816
30930WAT      O25524   9.912   2.078   4.350  0.5414 -0.0272  0.8480
30930WAT     H125525   9.963   2.059   4.272  1.4983  1.8173  0.9800
30930WAT     H225526   9.971   2.059   4.423  0.2756  0.0236  1.0789
30930WAT    EPW25527   9.926   2.073   4.349  0.6328  0.2228  0.8957
30931WAT      O25528   6.841   1.541   1.183 -0.9786  0.2347 -0.5564
30931WAT     H125529   6.792   1.473   1.137 -0.1592 -1.3545  0.7856
30931WAT     H225530   6.914   1.494   1.224 -0.8080  1.7939  1.0483
30931WAT    EPW25531   6.844   1.526   1.183 -0.8481  0.2307 -0.1678
30932WAT      O25532   1.846   0.941   2.317 -0.8682 -0.4825 -0.0402
30932WAT     H125533   1.835   0.924   2.411 -1.2626  0.7850  0.1600
30932WAT     H225534   1.940   0.955   2.306 -0.4207 -3.1170 -0.3093
30932WAT    EPW25535   1.857   0.941   2.328 -0.8612 -0.6628 -0.0492
30933WAT      O25536   9.730   5.062   5.786  1.4656  0.8588 -0.1661
30933WAT     H125537   9.801   5.035   5.728  0.4892  2.0022 -2.0073
30933WAT     H225538   9.744   5.156   5.800  0.4968  1.0392 -0.3134
30933WAT    EPW25539   9.741   5.071   5.780  1.2088  1.0333 -0.4284
30934WAT      O25540  10.041   4.991   3.521  0.3254  0.0031  0.1123
30934WAT     H125541  10.078   5.054   3.459 -0.1148  2.3215  2.0962
30934WAT     H225542   9.974   5.040   3.569  0.4845 -1.7459  2.2792
30934WAT    EPW25543  10.037   5.005   3.519  0.2885  0.0787  0.6597
30935WAT      O25544   1.516   1.911   4.458 -0.0429  0.2294 -0.3865
30935WAT     H125545   1.460   1.907   4.380 -1.8328 -2.3210  0.8742
30935WAT     H225546   1.568   1.831   4.455  1.1829  0.9828  0.1382
30935WAT    EPW25547   1.515   1.900   4.447 -0.1174 -0.0077 -0.1512
30936WAT      O25548   9.150   0.968   3.080  0.7034 -0.2451 -0.5713
30936WAT     H125549   9.077   1.024   3.105  2.1529  2.0557 -1.2424
30936WAT     H225550   9.130   0.883   3.121 -1.9396  0.4937 -0.1510
30936WAT    EPW25551   9.138   0.964   3.089  0.5465  0.1558 -0.6044
30937WAT      O25552   8.133   0.297   8.628 -0.0208 -0.7926 -0.1143
30937WAT     H125553   8.125   0.384   8.667 -0.1962 -0.8552 -0.0078
30937WAT     H225554   8.218   0.298   8.585 -0.4533 -0.2207 -0.9815
30937WAT    EPW25555   8.143   0.309   8.628 -0.1011 -0.7254 -0.2151
30938WAT      O25556   8.678   2.352   0.669 -0.9476  0.2138  0.2540
30938WAT     H125557   8.739   2.426   0.662 -1.0404  0.2924  0.2813
30938WAT     H225558   8.593   2.388   0.643 -0.7152 -0.2504 -1.2825
30938WAT    EPW25559   8.675   2.367   0.665 -0.9289  0.1630  0.0550
30939WAT      O25560   8.929   1.305   0.962 -0.9888 -0.2121 -0.5658
30939WAT     H125561   8.874   1.229   0.980 -0.1341 -1.3450 -2.4249
30939WAT     H225562   8.912   1.326   0.870  1.0415 -0.0877 -0.9620
30939WAT    EPW25563   8.919   1.298   0.953 -0.6080 -0.3452 -0.8632
30940WAT      O25564   2.347   2.836   7.560  0.3942  0.7771 -0.0205
30940WAT     H125565   2.280   2.853   7.626 -1.3950 -0.2451 -1.4752
30940WAT     H225566   2.428   2.826   7.610 -0.9568 -0.4608  2.0966
30940WAT    EPW25567   2.349   2.837   7.575 -0.0199  0.4790  0.0668
30941WAT      O25568   5.342   5.142   8.300 -0.1738  0.0435  0.5369
30941WAT     H125569   5.292   5.222   8.319 -1.4406 -0.3684 -0.9663
30941WAT     H225570   5.426   5.158   8.343 -1.3695  0.9502  2.7639
30941WAT    EPW25571   5.346   5.155   8.308 -0.4985  0.1085  0.6323
30942WAT      O25572   6.638   4.005   1.180  0.4323  0.0579 -0.4371
30942WAT     H125573   6.719   4.056   1.172 -1.1086  3.2212  1.7277
30942WAT     H225574   6.591   4.023   1.098  0.9809  0.0926 -0.7466
30942WAT    EPW25575   6.642   4.014   1.168  0.3014  0.4799 -0.1923
30943WAT      O25576   0.501   1.092   7.858 -0.4435 -0.9578 -0.0092
30943WAT     H125577   0.439   1.151   7.901  0.1900 -0.9616  0.9325
30943WAT     H225578   0.583   1.141   7.855  0.6249 -2.4001  2.5063
30943WAT    EPW25579   0.504   1.106   7.863 -0.2190 -1.1485  0.4468
30944WAT      O25580   5.920   2.674   1.268 -0.3472 -0.0172 -0.0857
30944WAT     H125581   5.938   2.729   1.343 -0.4649  1.3099 -0.9952
30944WAT     H225582   5.973   2.712   1.197  1.1414 -2.2823 -0.2900
30944WAT    EPW25583   5.929   2.686   1.268 -0.1662 -0.1409 -0.2326
30945WAT      O25584   3.681   9.463   0.569  0.0878  0.5198 -0.4324
30945WAT     H125585   3.660   9.404   0.642  1.1943  1.7662  0.9751
30945WAT     H225586   3.777   9.467   0.570  0.0872  1.0355 -1.5943
30945WAT    EPW25587   3.691   9.456   0.579  0.2335  0.7515 -0.4000
30946WAT      O25588   9.315   1.271   1.509  0.1852  0.6079 -0.0444
30946WAT     H125589   9.397   1.318   1.521 -0.1965  1.5938 -1.0595
30946WAT     H225590   9.250   1.340   1.495 -1.0564 -0.0825  1.8524
30946WAT    EPW25591   9.317   1.286   1.509 -0.0291  0.6469  0.0719
30947WAT      O25592   6.859   3.411   3.258  0.9739 -0.0038 -0.5606
30947WAT     H125593   6.773   3.370   3.246  0.2217  1.2240  0.4087
30947WAT     H225594   6.844   3.503   3.236  2.5272 -0.1141 -2.3186
30947WAT    EPW25595   6.846   3.418   3.253  1.0798  0.1436 -0.6647
30948WAT      O25596   0.114   5.297   7.159 -0.9552  0.2792  0.3532
30948WAT     H125597   0.045   5.332   7.103 -1.6077 -0.9496  0.3450
30948WAT     H225598   0.151   5.224   7.109 -1.6101 -0.8930  1.5040
30948WAT    EPW25599   0.109   5.292   7.145 -1.1277 -0.0377  0.5038
30949WAT      O25600   0.726   7.190   7.034  0.1611  0.5108 -0.8867
30949WAT     H125601   0.725   7.282   7.008  0.2448  0.4423 -1.1407
30949WAT     H225602   0.666   7.185   7.108 -0.1692  0.6960 -1.1395
30949WAT    EPW25603   0.718   7.202   7.040  0.1286  0.5262 -0.9534
30950WAT      O25604   5.942   0.452   3.037  0.3407  0.1400 -0.9015
30950WAT     H125605   5.992   0.371   3.025 -0.3767 -0.3788 -0.4474
30950WAT     H225606   5.953   0.499   2.954  0.0680 -0.8083 -1.4886
30950WAT    EPW25607   5.950   0.448   3.025  0.2100 -0.0535 -0.9190
30951WAT      O25608   3.677   9.344   0.855 -0.4693  0.5515 -0.0216
30951WAT     H125609   3.599   9.299   0.887 -1.4740  2.4256  0.3140
30951WAT     H225610   3.711   9.391   0.931  0.0210  1.1011 -0.5663
30951WAT    EPW25611   3.672   9.344   0.869 -0.5370  0.8712 -0.0492
30952WAT      O25612   6.105   7.847   5.941  0.2465  0.0203  0.3221
30952WAT     H125613   6.084   7.817   5.853  2.6960  0.1395 -0.3755
30952WAT     H225614   6.061   7.932   5.948 -0.7163 -0.3870 -0.4017
30952WAT    EPW25615   6.096   7.854   5.931  0.4427 -0.0176  0.1347
30953WAT      O25616   6.702   0.446   5.742  0.6453 -0.4828 -0.6245
30953WAT     H125617   6.693   0.471   5.834  2.5099  1.5449 -0.8886
30953WAT     H225618   6.670   0.522   5.694  2.3950 -0.2863 -1.5666
30953WAT    EPW25619   6.697   0.459   5.748  1.1220 -0.1894 -0.7837
30954WAT      O25620   9.921   2.041   2.989  0.2849  0.2169 -0.8904
30954WAT     H125621   9.992   2.017   2.929  1.4589  1.1704  0.0645
30954WAT     H225622   9.965   2.058   3.072 -1.2284 -0.4634  0.0969
30954WAT    EPW25623   9.936   2.040   2.992  0.2403  0.2528 -0.6342
30955WAT      O25624   2.722   8.633   8.474 -0.3490 -0.2209  0.2102
30955WAT     H125625   2.761   8.576   8.540  0.5762  0.5223  0.3412
30955WAT     H225626   2.723   8.581   8.394  0.2766 -0.4737  0.3760
30955WAT    EPW25627   2.727   8.619   8.472 -0.1445 -0.1564  0.2499
30956WAT      O25628   7.024   1.006   7.128 -0.2268 -0.0930 -0.5184
30956WAT     H125629   6.938   1.031   7.162 -0.9860 -1.4703 -1.3055
30956WAT     H225630   7.030   0.912   7.147  2.3069  0.4317  1.9782
30956WAT    EPW25631   7.013   0.997   7.135  0.0074 -0.2055 -0.2928
30957WAT      O25632   0.662   4.567   1.938 -0.1256 -0.2499 -0.2263
30957WAT     H125633   0.608   4.584   1.861  0.2404 -1.2495 -0.7227
30957WAT     H225634   0.615   4.609   2.010 -0.2282  1.1251 -1.0577
30957WAT    EPW25635   0.649   4.575   1.937 -0.0909 -0.2005 -0.4015
30958WAT      O25636   2.320   3.161   4.243 -0.5606 -0.3889 -0.0321
30958WAT     H125637   2.411   3.130   4.248 -1.0989 -1.8583  2.1100
30958WAT     H225638   2.272   3.088   4.203 -0.8354  0.3915 -1.1861
30958WAT    EPW25639   2.326   3.147   4.239 -0.6678 -0.4797  0.0980
30959WAT      O25640   7.832   9.652   0.591 -0.3155  0.6984 -0.5718
30959WAT     H125641   7.867   9.699   0.666 -0.6539 -0.4217  0.3147
30959WAT     H225642   7.910   9.627   0.541 -0.1034  1.6791 -0.7637
30959WAT    EPW25643   7.847   9.655   0.594 -0.3324  0.6804 -0.4802
30960WAT      O25644   9.956   0.712   6.888  0.5801  0.2463  0.2370
30960WAT     H125645   9.969   0.805   6.872  0.8479 -0.1824 -2.6888
30960WAT     H225646   9.980   0.670   6.805 -5.0767 -1.9239 -0.8068
30960WAT    EPW25647   9.961   0.719   6.875 -0.1307 -0.0964 -0.2868
30961WAT      O25648   0.416   8.738   1.115  0.3641  0.3124 -0.9600
30961WAT     H125649   0.335   8.702   1.152  1.1330  1.6587  2.4124
30961WAT     H225650   0.391   8.823   1.080  0.2472  0.6088 -0.1708
30961WAT    EPW25651   0.402   8.744   1.115  0.4501  0.5288 -0.4111
30962WAT      O25652  10.016   8.866   3.084 -0.1300  0.2415  0.3300
30962WAT     H125653  10.107   8.898   3.085 -0.2872  0.7025  0.0736
30962WAT     H225654   9.986   8.881   2.994 -0.9056  1.3722  0.7587
30962WAT    EPW25655  10.024   8.872   3.072 -0.2537  0.4520  0.3527
30963WAT      O25656   8.060   1.564   8.746 -0.0002 -0.7232 -0.1201
30963WAT     H125657   7.987   1.506   8.765  0.1229 -1.1766 -0.9912
30963WAT     H225658   8.083   1.603   8.831 -1.1756 -0.6476  0.1751
30963WAT    EPW25659   8.053   1.562   8.760 -0.1388 -0.7730 -0.1965
30964WAT      O25660   2.360   7.828   0.805 -0.5134  0.1752 -0.3323
30964WAT     H125661   2.295   7.885   0.764  0.1264  1.0476 -0.1478
30964WAT     H225662   2.390   7.876   0.882 -1.4521 -1.2947  1.0206
30964WAT    EPW25663   2.355   7.842   0.810 -0.5528  0.0966 -0.1295
30965WAT      O25664   6.810   9.047   8.356 -0.0523  0.4847  0.4423
30965WAT     H125665   6.822   9.006   8.270 -2.4991  0.1713  0.1925
30965WAT     H225666   6.812   9.141   8.338  0.6160  0.4410  0.2468
30965WAT    EPW25667   6.812   9.054   8.342 -0.2873  0.4377  0.3834
30966WAT      O25668   2.390   3.831   2.677  0.6572 -0.3391 -0.3728
30966WAT     H125669   2.330   3.765   2.643  0.3378 -0.9811  1.3323
30966WAT     H225670   2.447   3.783   2.737  2.9598  0.2373 -1.9464
30966WAT    EPW25671   2.390   3.816   2.680  0.9187 -0.3479 -0.3556
30967WAT      O25672  10.053   2.509   0.081  1.1969 -0.4094 -0.4750
30967WAT     H125673  10.129   2.553   0.044  1.5469  0.2480  0.9549
30967WAT     H225674   9.980   2.538   0.026  1.8101 -0.2075 -1.2128
30967WAT    EPW25675  10.053   2.519   0.069  1.3247 -0.2960 -0.3837
30968WAT      O25676   1.818   7.209   2.637  0.1062 -0.0834 -0.3487
30968WAT     H125677   1.800   7.302   2.649  0.6663 -0.1173  0.9155
30968WAT     H225678   1.824   7.198   2.542 -1.1066  0.9310 -0.5625
30968WAT    EPW25679   1.817   7.220   2.626  0.0202  0.0458 -0.2102
30969WAT      O25680   4.405   9.554   2.189 -0.0548  0.1643  0.7187
30969WAT     H125681   4.367   9.562   2.277 -0.7946 -1.4284  0.5896
30969WAT     H225682   4.474   9.621   2.186 -2.7429  3.1436  0.9744
30969WAT    EPW25683   4.409   9.564   2.200 -0.5069  0.3467  0.7354
30970WAT      O25684   2.205   7.368   3.259  0.0991 -0.1861 -0.0613
30970WAT     H125685   2.198   7.365   3.354 -0.8191  2.7475  0.0483
30970WAT     H225686   2.154   7.293   3.229 -0.7132 -0.4031  1.7271
30970WAT    EPW25687   2.197   7.358   3.268 -0.1291  0.1724  0.1889
30971WAT      O25688   8.521   2.079   8.462  0.6093  0.2279  0.1908
30971WAT     H125689   8.507   2.173   8.473  0.1024  0.1851 -0.0713
30971WAT     H225690   8.490   2.040   8.543 -3.6390 -0.1394 -1.3530
30971WAT    EPW25691   8.515   2.086   8.474 -0.0176  0.1738 -0.0477
30972WAT      O25692   1.108   1.719   8.100  0.0816  0.2264 -0.4558
30972WAT     H125693   1.112   1.806   8.141 -1.0699  1.1830 -2.2300
30972WAT     H225694   1.183   1.718   8.040  1.8887 -1.2502  1.6828
30972WAT    EPW25695   1.118   1.731   8.097  0.1681  0.1579 -0.4082
30973WAT      O25696   9.270   2.151   7.098  0.3120  0.2159  0.1832
30973WAT     H125697   9.344   2.202   7.131 -0.0560 -0.2651  1.8699
30973WAT     H225698   9.273   2.162   7.003  1.4680  1.6571  0.3576
30973WAT    EPW25699   9.281   2.159   7.090  0.4158  0.3425  0.4284
30974WAT      O25700   0.178   2.187   7.501 -0.2335 -0.3335 -0.2727
30974WAT     H125701   0.162   2.093   7.510  1.1895 -0.6883 -1.1700
30974WAT     H225702   0.153   2.208   7.411 -0.7739  0.2128 -0.0074
30974WAT    EPW25703   0.172   2.178   7.490 -0.1171 -0.3083 -0.3560
30975WAT      O25704  10.362   2.441   5.749 -0.1373  0.2805  0.3742
30975WAT     H125705  10.296   2.475   5.809  0.3411  0.9433  0.5386
30975WAT     H225706  10.422   2.391   5.804 -0.2309  0.0935  0.3046
30975WAT    EPW25707  10.362   2.439   5.764 -0.0863  0.3433  0.3865
30976WAT      O25708   1.394   4.014   3.083 -0.4961  0.5000  0.1667
30976WAT     H125709   1.469   4.016   3.143 -0.6486  2.9697  0.3999
30976WAT     H225710   1.327   4.067   3.127 -2.5808 -1.9059  0.1147
30976WAT    EPW25711   1.395   4.022   3.097 -0.7911  0.5085  0.1905
30977WAT      O25712   7.560   1.897   6.227 -0.1822  0.4619  0.2930
30977WAT     H125713   7.502   1.928   6.158 -0.9491 -1.5990 -0.0399
30977WAT     H225714   7.641   1.874   6.183 -0.4452 -0.2323  0.1588
30977WAT    EPW25715   7.563   1.898   6.212 -0.3185  0.0985  0.2315
30978WAT      O25716   1.409   3.401   8.942 -0.5362  0.0183 -0.4028
30978WAT     H125717   1.466   3.347   8.887  0.3453  0.8068 -0.2742
30978WAT     H225718   1.403   3.353   9.024 -0.5357 -0.3570 -0.6179
30978WAT    EPW25719   1.416   3.388   8.945 -0.4199  0.0727 -0.4139
30979WAT      O25720   1.199   4.909   0.478 -0.1456  0.4345 -0.1097
30979WAT     H125721   1.279   4.904   0.530 -0.3374 -0.3057  0.1431
30979WAT     H225722   1.140   4.963   0.530 -0.0447  0.3966  0.0456
30979WAT    EPW25723   1.202   4.915   0.492 -0.1576  0.3321 -0.0559
30980WAT      O25724   2.289   5.729   0.011  0.4135  0.0096 -0.6958
30980WAT     H125725   2.216   5.776  -0.028 -0.5812 -0.5803  0.4071
30980WAT     H225726   2.261   5.638   0.013  1.0989 -0.1994 -0.0686
30980WAT    EPW25727   2.276   5.723   0.006  0.3729 -0.0957 -0.4678
30981WAT      O25728   2.763   5.832   0.578 -1.2931 -0.1760 -0.0746
30981WAT     H125729   2.820   5.844   0.654 -0.1279 -4.3386 -0.0323
30981WAT     H225730   2.811   5.872   0.505 -1.2526  1.6352  0.8872
30981WAT    EPW25731   2.777   5.839   0.578 -1.1342 -0.4864  0.0578
30982WAT      O25732   3.411   8.831   1.458  0.4423  1.1064 -0.8498
30982WAT     H125733   3.322   8.825   1.424 -1.0045  1.2262  2.4679
30982WAT     H225734   3.438   8.921   1.440  0.5215  0.6813 -3.1113
30982WAT    EPW25735   3.403   8.842   1.451  0.2620  1.0662 -0.7105
30983WAT      O25736   9.222   0.572   7.389 -0.1196 -0.1275 -0.3239
30983WAT     H125737   9.178   0.511   7.330  1.9196  0.2827 -2.3803
30983WAT     H225738   9.160   0.583   7.462 -1.3435 -3.1522 -0.7619
30983WAT    EPW25739   9.208   0.566   7.391 -0.0124 -0.4723 -0.6530
30984WAT      O25740   7.717   0.117   8.559  0.2686 -1.2122 -0.4879
30984WAT     H125741   7.630   0.109   8.597  1.5084 -0.9125  2.7755
30984WAT     H225742   7.747   0.026   8.549  0.4747 -1.3114  0.8237
30984WAT    EPW25743   7.710   0.104   8.563  0.4594 -1.1858  0.1154
30985WAT      O25744   0.869   3.518   1.533 -0.0861  0.3201 -0.2620
30985WAT     H125745   0.914   3.486   1.611  1.6782 -1.9300 -2.0777
30985WAT     H225746   0.869   3.613   1.542  1.2224  0.1619  1.8417
30985WAT    EPW25747   0.875   3.526   1.544  0.3192  0.0025 -0.2240
30986WAT      O25748   1.875   6.718   1.075  0.0158 -0.6786  0.5162
30986WAT     H125749   1.859   6.756   0.989  2.0359 -0.1947  0.3000
30986WAT     H225750   1.881   6.793   1.134  0.2897 -0.9017  0.7737
30986WAT    EPW25751   1.874   6.733   1.071  0.3183 -0.6444  0.5216
30987WAT      O25752   1.974   6.747   3.828 -0.2079 -0.9200 -0.3584
30987WAT     H125753   1.999   6.833   3.860  1.7990 -1.4780 -0.2813
30987WAT     H225754   2.010   6.686   3.892  1.6030 -1.9379 -2.1980
30987WAT    EPW25755   1.982   6.750   3.841  0.2958 -1.1280 -0.5907
30988WAT      O25756   0.919   1.260   0.981 -0.6092 -0.1796 -0.3306
30988WAT     H125757   0.921   1.248   1.075 -1.7590  0.7375 -0.1655
30988WAT     H225758   0.875   1.344   0.968  2.1788  1.2143 -1.5829
30988WAT    EPW25759   0.913   1.269   0.991 -0.3931  0.1251 -0.4740
30989WAT      O25760   7.228   6.294   7.680  0.3105  0.5877  0.6810
30989WAT     H125761   7.255   6.386   7.683  1.5535  0.2524  0.2890
30989WAT     H225762   7.300   6.250   7.636  0.7217 -0.9314  2.7288
30989WAT    EPW25763   7.241   6.301   7.675  0.5283  0.3433  0.8993
30990WAT      O25764   2.978   2.147   6.895  0.0242  0.2103 -0.4064
30990WAT     H125765   3.062   2.170   6.935  0.6807  2.0368 -2.6410
30990WAT     H225766   3.001   2.092   6.820 -0.8416  0.1662 -0.6519
30990WAT    EPW25767   2.992   2.143   6.890 -0.0035  0.4455 -0.7336
30991WAT      O25768   7.467   0.997   6.851  0.1991  0.7100 -0.5284
30991WAT     H125769   7.561   1.012   6.839  1.8461 -3.2193  3.9957
30991WAT     H225770   7.445   1.048   6.928 -0.8566  0.1773 -0.4609
30991WAT    EPW25771   7.477   1.005   6.860  0.2770  0.1215  0.0772
30992WAT      O25772   1.754   3.637   6.783  0.2001  0.6570 -0.9780
30992WAT     H125773   1.757   3.542   6.789 -2.9091  0.5422  2.1319
30992WAT     H225774   1.799   3.667   6.862 -1.0504  1.6000 -0.5861
30992WAT    EPW25775   1.760   3.629   6.795 -0.3749  0.7663 -0.5162
30993WAT      O25776   6.765   8.979   7.203 -0.2206 -0.7450 -0.5595
30993WAT     H125777   6.813   8.949   7.281 -0.0912 -0.8466 -0.6775
30993WAT     H225778   6.696   9.034   7.238 -0.0550 -0.6481 -0.3814
30993WAT    EPW25779   6.763   8.982   7.218 -0.1817 -0.7463 -0.5515
30994WAT      O25780   9.061   4.102   7.390 -0.1171 -0.5586 -0.0159
30994WAT     H125781   8.977   4.064   7.418 -0.7560 -1.0287 -2.3414
30994WAT     H225782   9.105   4.031   7.344  1.1666 -0.0444  0.4003
30994WAT    EPW25783   9.055   4.088   7.387 -0.0319 -0.5527 -0.2675
30995WAT      O25784   5.774   0.588   7.876 -0.1118 -0.0593 -0.0600
30995WAT     H125785   5.792   0.682   7.871 -1.2294  0.2242  0.7931
30995WAT     H225786   5.777   0.558   7.786  2.0667  0.4260 -0.1963
30995WAT    EPW25787   5.777   0.597   7.864  0.0279  0.0421  0.0343
30996WAT      O25788   1.714   5.201   0.640 -0.1424 -0.1373 -0.2572
30996WAT     H125789   1.714   5.254   0.561 -1.5406  0.0726 -0.1434
30996WAT     H225790   1.750   5.116   0.612 -0.9995 -0.1996 -1.2163
30996WAT    EPW25791   1.719   5.197   0.626 -0.4399 -0.1178 -0.3687
30997WAT      O25792  10.688   3.967   0.240  0.1667  0.0965  0.0814
30997WAT     H125793  10.746   3.934   0.170 -1.2226 -1.2073 -0.5053
30997WAT     H225794  10.600   3.956   0.205 -0.5632 -0.3708  1.9718
30997WAT    EPW25795  10.684   3.961   0.226 -0.1130 -0.1372  0.2534
30998WAT      O25796   8.389   0.175   7.685 -1.0993 -0.2668 -0.2065
30998WAT     H125797   8.367   0.175   7.592 -0.4746 -2.0489 -0.3989
30998WAT     H225798   8.371   0.264   7.714 -2.5991 -0.0220 -1.7216
30998WAT    EPW25799   8.384   0.187   7.677 -1.2145 -0.4695 -0.4318
30999WAT      O25800  10.725   2.825   6.674 -0.7739 -0.0923  0.0225
30999WAT     H125801  10.689   2.820   6.762 -0.8153  0.2922  0.0289
30999WAT     H225802  10.819   2.810   6.686 -1.0645 -2.4915 -0.1481
30999WAT    EPW25803  10.733   2.822   6.687 -0.8178 -0.3581  0.0007
31000WAT      O25804   8.367   0.946   6.283  0.0268 -0.8045  0.5918
31000WAT     H125805   8.350   1.022   6.339 -0.5591 -0.9438  0.6120
31000WAT     H225806   8.320   0.874   6.325 -0.4858 -0.8921 -0.1075
31000WAT    EPW25807   8.359   0.947   6.296 -0.1183 -0.8344  0.5023
31001WAT      O25808   8.973   2.390   8.591  0.0440 -0.4084 -0.4525
31001WAT     H125809   9.047   2.426   8.640  0.6864 -0.6290 -1.2297
31001WAT     H225810   9.013   2.329   8.529 -0.8705 -1.1475 -0.3397
31001WAT    EPW25811   8.988   2.387   8.589  0.0081 -0.5350 -0.5403
31002WAT      O25812   6.096   9.636   8.729 -0.2508 -0.9171  0.1987
31002WAT     H125813   6.163   9.627   8.797 -0.7392 -0.0490  0.8115
31002WAT     H225814   6.053   9.550   8.727  1.5323 -1.8404 -0.9484
31002WAT    EPW25815   6.099   9.623   8.738 -0.0799 -0.9241  0.1283
31003WAT      O25816  10.449   4.791   0.241  0.1494 -0.1170  0.3015
31003WAT     H125817  10.419   4.822   0.156  0.9458 -1.5735 -0.5639
31003WAT     H225818  10.424   4.698   0.242 -1.6129  0.3155  2.5065
31003WAT    EPW25819  10.442   4.783   0.230  0.0219 -0.2522  0.4782
31004WAT      O25820   3.521   8.298   5.369  0.2540  0.1447  0.4888
31004WAT     H125821   3.585   8.269   5.304 -0.0761 -0.9290  0.6259
31004WAT     H225822   3.539   8.392   5.380 -0.2155  0.5469 -1.7217
31004WAT    EPW25823   3.532   8.307   5.362  0.1488  0.0563  0.2153
31005WAT      O25824   7.917  10.178   7.902  0.3463 -0.0305  0.3101
31005WAT     H125825   7.951  10.263   7.929 -0.7937  1.0791 -1.4990
31005WAT     H225826   7.889  10.191   7.811 -0.5031 -2.1557  0.1957
31005WAT    EPW25827   7.918  10.191   7.893  0.0837 -0.1640  0.0565
31006WAT      O25828   3.908   6.151   1.097  0.3221 -0.1861 -0.2014
31006WAT     H125829   3.893   6.240   1.066  0.3562 -0.2991 -0.5521
31006WAT     H225830   3.956   6.161   1.179  1.8735  0.0735 -1.1175
31006WAT    EPW25831   3.912   6.164   1.103  0.5312 -0.1664 -0.3685
31007WAT      O25832   3.722   5.479   2.102 -0.1786  0.2650 -0.0068
31007WAT     H125833   3.690   5.560   2.063  0.0359  1.1999  1.7084
31007WAT     H225834   3.675   5.471   2.185  0.5406 -0.8384  0.3215
31007WAT    EPW25835   3.711   5.488   2.107 -0.0554  0.2427  0.2627
31008WAT      O25836   4.425   2.795   6.246 -0.2825  0.3744 -0.4939
31008WAT     H125837   4.361   2.856   6.284 -0.2586  0.6449 -0.8928
31008WAT     H225838   4.509   2.838   6.258 -0.0754 -0.3407  0.7632
31008WAT    EPW25839   4.427   2.809   6.253 -0.2520  0.3159 -0.3808
31009WAT      O25840   1.821   7.291   0.226  0.1921 -0.5968 -1.2075
31009WAT     H125841   1.785   7.210   0.262 -0.2377 -0.6079 -1.6474
31009WAT     H225842   1.873   7.264   0.151  2.6150 -0.7609  0.4072
31009WAT    EPW25843   1.823   7.277   0.221  0.4550 -0.6201 -1.0525
31010WAT      O25844   3.375   7.285   0.083 -0.1103  0.0855  0.8546
31010WAT     H125845   3.323   7.324   0.013 -1.3098 -0.3747  1.4585
31010WAT     H225846   3.380   7.192   0.060 -0.5655 -0.0784  1.3894
31010WAT    EPW25847   3.369   7.278   0.071 -0.3284  0.0029  1.0048
31011WAT      O25848   9.173   0.181   4.973 -0.0007  0.8459 -0.2291
31011WAT     H125849   9.209   0.231   5.046  0.2630 -0.9607  0.9390
31011WAT     H225850   9.246   0.128   4.941 -0.9217 -1.0143  0.5632
31011WAT    EPW25851   9.187   0.181   4.978 -0.0873  0.3623  0.0293
31012WAT      O25852   9.904   3.304   5.552  0.9299 -0.6909  0.4945
31012WAT     H125853   9.841   3.334   5.617  0.2329 -0.7596 -0.1325
31012WAT     H225854   9.933   3.219   5.584  0.2647 -0.9218  0.5080
31012WAT    EPW25855   9.899   3.297   5.565  0.7505 -0.7304  0.4134
31013WAT      O25856   4.886   6.060   1.061 -0.0227  0.2610 -0.4986
31013WAT     H125857   4.801   6.098   1.083  0.3111  1.0472 -0.5616
31013WAT     H225858   4.864   5.981   1.010 -0.7039  0.7722 -1.0191
31013WAT    EPW25859   4.872   6.055   1.057 -0.0682  0.4323 -0.5756
31014WAT      O25860  10.650   2.257   7.270  0.0517  0.7222 -0.3880
31014WAT     H125861  10.583   2.297   7.215  0.8943 -0.1010 -2.0845
31014WAT     H225862  10.601   2.219   7.343 -1.2247  1.0495 -1.0404
31014WAT    EPW25863  10.635   2.257   7.272 -0.0057  0.6567 -0.6976
31015WAT      O25864   5.558   6.386   2.930 -0.5978 -0.4005 -0.5486
31015WAT     H125865   5.557   6.372   3.025  0.5087  2.2150 -0.0633
31015WAT     H225866   5.562   6.298   2.893 -0.7952 -1.4912  1.8132
31015WAT    EPW25867   5.558   6.373   2.938 -0.4778 -0.1993 -0.1731
31016WAT      O25868   3.764   7.691   2.891  0.3450  0.3618 -0.0374
31016WAT     H125869   3.788   7.783   2.892 -1.4598  0.8789 -0.8897
31016WAT     H225870   3.787   7.661   2.803  2.2039 -0.4186  0.6509
31016WAT    EPW25871   3.770   7.699   2.879  0.3521  0.3269 -0.0589
31017WAT      O25872   1.878   5.010   1.698  0.1080  0.5188 -0.0312
31017WAT     H125873   1.826   4.931   1.714  2.8714 -1.1606  1.5640
31017WAT     H225874   1.865   5.063   1.776  3.1695 -1.5040  2.1176
31017WAT    EPW25875   1.870   5.006   1.710  0.8762  0.0305  0.4627
31018WAT      O25876   2.987  10.199   6.462 -0.2671 -0.0294  0.1277
31018WAT     H125877   2.936  10.188   6.543 -0.0527  0.1318  0.2846
31018WAT     H225878   3.069  10.239   6.491 -0.7395  1.3377 -0.3455
31018WAT    EPW25879   2.991  10.203   6.477 -0.3009  0.1726  0.0863
31019WAT      O25880  10.617   2.466   5.951  0.8040  0.3971  0.3628
31019WAT     H125881  10.686   2.409   5.917 -0.8363 -1.7530  0.4293
31019WAT     H225882  10.610   2.536   5.886  1.2084 -0.8350 -1.0762
31019WAT    EPW25883  10.625   2.468   5.938  0.6413 -0.0490  0.1819
31020WAT      O25884  10.064   2.613   8.698 -0.1419 -0.0051  0.2448
31020WAT     H125885  10.126   2.561   8.750 -0.3920 -1.0698 -0.5046
31020WAT     H225886  10.017   2.549   8.645 -2.0553  0.7515  0.9305
31020WAT    EPW25887  10.066   2.598   8.698 -0.4272 -0.0457  0.2370
31021WAT      O25888   1.250   9.640   0.299  0.2846 -0.6380 -0.7882
31021WAT     H125889   1.335   9.667   0.335 -0.1793  2.3427 -1.6289
31021WAT     H225890   1.233   9.555   0.339  3.4820 -1.1839 -0.3188
31021WAT    EPW25891   1.259   9.633   0.309  0.6452 -0.3171 -0.8372
31022WAT      O25892   6.238  10.196   6.012  0.3718 -0.5976 -0.3739
31022WAT     H125893   6.204  10.198   6.102  1.5193  4.4884  0.2120
31022WAT     H225894   6.330  10.172   6.022  0.1635 -1.4647 -0.4313
31022WAT    EPW25895   6.246  10.193   6.025  0.4957 -0.0415 -0.3042
31023WAT      O25896   8.806   0.143   8.401 -0.4602 -0.5469 -0.2894
31023WAT     H125897   8.855   0.130   8.482 -2.0103  0.1369  0.8337
31023WAT     H225898   8.806   0.238   8.388 -1.3374 -0.5403 -0.3298
31023WAT    EPW25899   8.812   0.154   8.410 -0.7806 -0.4559 -0.1469
31024WAT      O25900   4.553  10.042   8.338  0.1509  1.1617  0.0333
31024WAT     H125901   4.543  10.002   8.424 -1.4286  0.6950 -0.3307
31024WAT     H225902   4.548  10.136   8.354 -2.2407  1.0508  0.2762
31024WAT    EPW25903   4.551  10.049   8.352 -0.3729  1.0853  0.0172
31025WAT      O25904   0.020   4.181   2.892  0.3619  0.1497  0.0495
31025WAT     H125905   0.104   4.203   2.932 -0.1687  0.2351  1.1630
31025WAT     H225906   0.006   4.249   2.826  0.1779  1.4140  1.3448
31025WAT    EPW25907   0.029   4.193   2.889  0.2676  0.3278  0.3673
31026WAT      O25908   1.541   4.896   0.958 -0.6514 -0.4348 -0.2972
31026WAT     H125909   1.451   4.887   0.991 -0.4840 -0.2304  0.2147
31026WAT     H225910   1.539   4.852   0.873 -1.1896 -0.6034 -0.2027
31026WAT    EPW25911   1.528   4.889   0.951 -0.7004 -0.4299 -0.2173
31027WAT      O25912   3.083   4.631   0.144 -0.1942 -0.1917 -0.0124
31027WAT     H125913   3.126   4.579   0.212  0.1239  2.2841  1.8350
31027WAT     H225914   3.141   4.706   0.132 -1.1931  0.3568 -1.7034
31027WAT    EPW25915   3.097   4.634   0.152 -0.2840  0.2074  0.0082
31028WAT      O25916   9.918   6.631   2.650  0.1681  0.0401  0.7481
31028WAT     H125917   9.974   6.632   2.572 -0.0141  0.0254  0.6158
31028WAT     H225918   9.978   6.647   2.723  0.5275 -1.1324  0.7263
31028WAT    EPW25919   9.933   6.633   2.649  0.1917 -0.1163  0.7278
31029WAT      O25920   3.693   9.733   7.922  0.0526 -0.5410 -0.4921
31029WAT     H125921   3.652   9.695   7.844  1.0597 -1.5772 -0.5464
31029WAT     H225922   3.764   9.672   7.943 -0.0926 -0.1940  1.1375
31029WAT    EPW25923   3.697   9.720   7.914  0.1664 -0.6318 -0.2842
31030WAT      O25924   3.252   5.294   3.425  0.0394  0.4949 -0.1923
31030WAT     H125925   3.238   5.256   3.512 -0.7731  1.9727  0.3607
31030WAT     H225926   3.209   5.232   3.365 -0.4308  0.0616  0.5749
31030WAT    EPW25927   3.244   5.281   3.429 -0.1297  0.6328 -0.0182
31031WAT      O25928   2.808   8.081   0.589  0.3906 -0.4661 -0.3250
31031WAT     H125929   2.808   7.986   0.574  0.8192 -0.6327  0.6473
31031WAT     H225930   2.773   8.091   0.678  0.0817  0.3133 -0.5237
31031WAT    EPW25931   2.803   8.070   0.599  0.4064 -0.3848 -0.2230
31032WAT      O25932   3.150   4.792   1.460 -0.5218  0.2033  0.8968
31032WAT     H125933   3.213   4.734   1.504 -0.0808 -1.2304 -1.4503
31032WAT     H225934   3.204   4.853   1.411 -0.9537 -0.0384  0.1044
31032WAT    EPW25935   3.165   4.792   1.460 -0.5207 -0.0179  0.4827
31033WAT      O25936   9.149   0.611   4.378 -0.7714  0.3061 -0.0085
31033WAT     H125937   9.115   0.524   4.358 -3.4781  1.2007  0.3463
31033WAT     H225938   9.214   0.597   4.447 -1.2339 -1.4190  0.1041
31033WAT    EPW25939   9.153   0.598   4.384 -1.1897  0.1966  0.0532
31034WAT      O25940   7.477   4.872   5.007  0.5263  0.7560  0.2313
31034WAT     H125941   7.410   4.940   4.995 -0.1053  0.9400  3.8312
31034WAT     H225942   7.459   4.809   4.937 -1.0332  2.5899 -1.1462
31034WAT    EPW25943   7.466   4.873   4.996  0.2375  1.0221  0.5243
31035WAT      O25944   9.990   2.525   7.461 -0.2820  0.7512  0.1461
31035WAT     H125945  10.076   2.489   7.487 -1.4186 -1.7914  0.7498
31035WAT     H225946   9.961   2.574   7.538 -0.4949 -0.6588  1.0008
31035WAT    EPW25947   9.998   2.526   7.475 -0.4606  0.2300  0.3386
31036WAT      O25948   0.920  10.290   8.138  0.8366  0.1654  0.5266
31036WAT     H125949   0.929  10.350   8.064  2.5319  0.5542  0.9950
31036WAT     H225950   0.836  10.246   8.124 -0.2072  2.2513 -0.1135
31036WAT    EPW25951   0.911  10.292   8.127  0.9225  0.4916  0.5035
31037WAT      O25952   0.011   0.287   8.423 -1.1300 -0.3259 -0.5139
31037WAT     H125953   0.025   0.214   8.363  1.2988  0.4377 -1.0028
31037WAT     H225954  -0.063   0.260   8.477 -0.1590 -3.2783 -0.4869
31037WAT    EPW25955   0.003   0.274   8.422 -0.6816 -0.6146 -0.5751
31038WAT      O25956   2.081   6.197   2.388 -0.2068 -0.0197 -0.1328
31038WAT     H125957   2.124   6.112   2.377 -0.4576 -0.3229  1.0957
31038WAT     H225958   1.992   6.183   2.357 -0.9415 -0.8974  2.1247
31038WAT    EPW25959   2.075   6.184   2.383 -0.3369 -0.1755  0.3271
31039WAT      O25960   7.186   1.718   5.592 -0.2280 -0.3906 -0.3747
31039WAT     H125961   7.256   1.701   5.655  0.9198 -2.1369 -2.0135
31039WAT     H225962   7.230   1.763   5.520 -1.9009  3.5386  0.7975
31039WAT    EPW25963   7.201   1.722   5.591 -0.2975 -0.1028 -0.4361
31040WAT      O25964   3.824   6.695   0.751 -0.2607  0.1110 -0.3702
31040WAT     H125965   3.881   6.768   0.726  2.5720 -1.8166  0.1038
31040WAT     H225966   3.883   6.625   0.778 -2.8898 -1.8884  0.7000
31040WAT    EPW25967   3.839   6.696   0.751 -0.2338 -0.4070 -0.1665
31041WAT      O25968   5.592   6.130   0.684 -0.3459  0.0327  0.4174
31041WAT     H125969   5.613   6.221   0.664  0.5443 -0.2328  0.0963
31041WAT     H225970   5.599   6.124   0.779 -2.9130  0.8876  0.7323
31041WAT    EPW25971   5.596   6.141   0.694 -0.5670  0.1104  0.4166
31042WAT      O25972   3.230   6.171   4.521 -0.0554 -0.1175 -0.3027
31042WAT     H125973   3.231   6.238   4.589  2.3068  1.4826 -1.7521
31042WAT     H225974   3.320   6.139   4.518 -0.4710 -1.2692 -1.6245
31042WAT    EPW25975   3.242   6.176   4.530  0.2013 -0.0584 -0.6683
31043WAT      O25976   2.932   5.828   4.604 -0.3445  0.5239  0.6674
31043WAT     H125977   3.003   5.840   4.542  2.7219 -0.6772  3.6125
31043WAT     H225978   2.903   5.917   4.626  0.1397  1.0325 -0.6862
31043WAT    EPW25979   2.937   5.841   4.599  0.1237  0.4325  0.8776
31044WAT      O25980   8.967   3.998   7.747 -0.0914  0.3086 -0.0868
31044WAT     H125981   8.886   3.983   7.699  0.2540  1.0268 -0.9162
31044WAT     H225982   8.962   4.089   7.775  0.3377  0.3028  0.0245
31044WAT    EPW25983   8.956   4.008   7.744  0.0105  0.4025 -0.1817
31045WAT      O25984   3.091   8.466   1.277 -0.0579  0.1393 -0.8211
31045WAT     H125985   3.017   8.412   1.250 -1.8829  3.4943 -3.2956
31045WAT     H225986   3.064   8.504   1.361 -1.3576  1.5766 -1.8574
31045WAT    EPW25987   3.078   8.464   1.285 -0.4699  0.7715 -1.2842
31046WAT      O25988   9.617   1.758   5.699 -0.2584  0.2607 -0.4696
31046WAT     H125989   9.610   1.795   5.611  0.3778 -1.6376 -1.3593
31046WAT     H225990   9.570   1.821   5.755 -2.1037  0.6929 -2.3804
31046WAT    EPW25991   9.610   1.771   5.695 -0.4182  0.0674 -0.8390
31047WAT      O25992   7.418   0.975   7.318  0.4115  0.4271  0.2008
31047WAT     H125993   7.371   1.054   7.293 -2.1600 -0.2046  2.4525
31047WAT     H225994   7.461   0.998   7.400 -0.0155 -0.3587  0.6557
31047WAT    EPW25995   7.418   0.988   7.325  0.0160  0.2402  0.5579
31048WAT      O25996   3.005   8.794   6.967 -0.0038 -0.1249  0.8468
31048WAT     H125997   3.078   8.732   6.977  1.3932  1.7063  3.1288
31048WAT     H225998   2.963   8.796   7.053 -0.4988  1.4601  0.6085
31048WAT    EPW25999   3.009   8.786   6.980  0.1153  0.3252  1.1165
31049WAT      O26000   9.179   0.216   7.975 -0.5288  0.1428 -0.2328
31049WAT     H126001   9.152   0.201   8.066  1.9733 -1.3301  0.3620
31049WAT     H226002   9.261   0.264   7.982 -0.7674  0.8316 -1.7952
31049WAT    EPW26003   9.186   0.220   7.988 -0.2303  0.0394 -0.3603
31050WAT      O26004   2.027   5.414   2.963  0.0445  0.6992  0.8568
31050WAT     H126005   2.075   5.453   3.037  0.5473 -0.1773  1.0059
31050WAT     H226006   1.945   5.383   3.002  0.3446  0.1641  1.0689
31050WAT    EPW26007   2.023   5.415   2.978  0.1503  0.5133  0.9043
31051WAT      O26008   2.989   5.567   1.694 -0.3560  0.3376  0.0590
31051WAT     H126009   3.063   5.625   1.675 -0.3960 -0.1855 -2.0015
31051WAT     H226010   2.913   5.613   1.658 -0.5730 -0.3981 -0.4526
31051WAT    EPW26011   2.989   5.581   1.687 -0.3901  0.1717 -0.2802
31052WAT      O26012   9.056   6.527   2.055 -0.4109 -0.0064 -0.2120
31052WAT     H126013   9.137   6.483   2.079  0.5127  1.3498 -0.7241
31052WAT     H226014   8.987   6.465   2.079  0.8067 -1.5796 -0.6321
31052WAT    EPW26015   9.057   6.513   2.062 -0.1287 -0.0353 -0.3350
31053WAT      O26016   7.726   3.091   7.649 -0.1056  0.5915  0.5755
31053WAT     H126017   7.631   3.086   7.656  0.0873 -1.2651  3.3114
31053WAT     H226018   7.742   3.173   7.602 -3.0243  0.6439 -0.5438
31053WAT    EPW26019   7.716   3.101   7.644 -0.4652  0.3536  0.7887
31054WAT      O26020   2.094   1.365   0.378  0.7410  0.2866 -0.4914
31054WAT     H126021   2.041   1.353   0.300 -0.8699  1.8809  0.2925
31054WAT     H226022   2.038   1.336   0.450  0.2951  3.2689  0.4862
31054WAT    EPW26023   2.080   1.359   0.377  0.4698  0.8902 -0.2591
31055WAT      O26024   9.122   8.089   7.846 -0.5522 -0.1825 -0.4523
31055WAT     H126025   9.146   8.179   7.827 -2.1480  0.3979  0.1117
31055WAT     H226026   9.064   8.064   7.774  2.1147 -1.8214 -2.2206
31055WAT    EPW26027   9.118   8.097   7.834 -0.4106 -0.3219 -0.6111
31056WAT      O26028   0.712   2.625   0.786 -0.1629  0.2842  0.4301
31056WAT     H126029   0.654   2.650   0.858  0.0563 -1.9165  1.4542
31056WAT     H226030   0.657   2.631   0.708 -0.7492  1.5574  0.9084
31056WAT    EPW26031   0.697   2.629   0.785 -0.2113  0.1618  0.6282
31057WAT      O26032   9.207   1.870   5.688  0.2032  0.5599 -0.3651
31057WAT     H126033   9.214   1.787   5.640 -1.5983  0.8577 -1.2170
31057WAT     H226034   9.273   1.863   5.757  0.8426 -1.1166 -1.0852
31057WAT    EPW26035   9.217   1.858   5.691  0.0505  0.3780 -0.5724
31058WAT      O26036   0.061   2.847   0.290  0.9937  0.3042 -0.1908
31058WAT     H126037   0.013   2.784   0.344  0.2265 -0.5729 -1.8158
31058WAT     H226038   0.146   2.805   0.276  0.0310 -1.1246 -2.3795
31058WAT    EPW26039   0.066   2.833   0.295  0.7656  0.0001 -0.6938
31059WAT      O26040   0.811   5.120   3.111  0.2935  1.4162 -0.2827
31059WAT     H126041   0.834   5.087   3.024 -1.8688 -0.3244 -0.2922
31059WAT     H226042   0.866   5.068   3.171 -1.1869 -0.4722 -0.4544
31059WAT    EPW26043   0.822   5.109   3.107 -0.1869  0.9377 -0.3067
31060WAT      O26044   7.816   4.736   1.287  0.0444 -0.4799  0.6032
31060WAT     H126045   7.805   4.831   1.290  0.8614 -0.3071 -0.8132
31060WAT     H226046   7.753   4.703   1.351 -0.5525  0.9883  0.8240
31060WAT    EPW26047   7.806   4.744   1.296  0.0732 -0.2635  0.4455
31061WAT      O26048   2.874   9.488   1.249 -0.0531  0.2568 -0.1831
31061WAT     H126049   2.786   9.451   1.247  0.1090 -0.2399  1.1900
31061WAT     H226050   2.860   9.582   1.260 -0.4249  0.0253  1.6048
31061WAT    EPW26051   2.861   9.496   1.250 -0.0808  0.1612  0.2338
31062WAT      O26052   6.061   2.619   2.432 -0.0863 -0.5334  0.3444
31062WAT     H126053   6.042   2.591   2.342  2.0490 -2.0791  0.2993
31062WAT     H226054   6.070   2.537   2.481  3.1656  0.0332  0.9333
31062WAT    EPW26055   6.060   2.604   2.427  0.6242 -0.6626  0.4160
31063WAT      O26056   7.804   8.673   6.444 -0.0301  0.9887  0.0508
31063WAT     H126057   7.861   8.645   6.372 -0.4920  2.1665 -0.8013
31063WAT     H226058   7.848   8.641   6.523  1.0096  0.5475 -0.6859
31063WAT    EPW26059   7.817   8.665   6.445  0.0463  1.0862 -0.1588
31064WAT      O26060   5.782  10.028   7.927 -0.4384 -0.1684 -0.4563
31064WAT     H126061   5.803  10.072   7.844  0.0780  0.0120 -0.2304
31064WAT     H226062   5.802  10.093   7.994 -0.6408 -0.3966 -0.1748
31064WAT    EPW26063   5.787  10.042   7.925 -0.3972 -0.1745 -0.3891
31065WAT      O26064   4.801   8.066   8.348  0.6057  0.4719  0.0609
31065WAT     H126065   4.751   8.118   8.285  2.5820  0.9344 -1.1992
31065WAT     H226066   4.814   7.982   8.306  0.8912  0.3565  0.3744
31065WAT    EPW26067   4.796   8.062   8.334  0.9041  0.5178 -0.0639
31066WAT      O26068   0.978   5.681   8.796  0.1132  0.4837  0.0898
31066WAT     H126069   0.968   5.766   8.752  0.7456  0.6097  0.1684
31066WAT     H226070   0.903   5.630   8.768  0.5188  0.5472 -1.1839
31066WAT    EPW26071   0.967   5.686   8.787  0.2501  0.5088 -0.0682
31067WAT      O26072   0.466  10.155   1.474 -0.0414  0.4721  0.4929
31067WAT     H126073   0.463  10.196   1.561 -0.5298  0.0919  0.6585
31067WAT     H226074   0.375  10.135   1.453  0.0448  0.8216 -0.2404
31067WAT    EPW26075   0.454  10.158   1.483 -0.0944  0.4678  0.4180
31068WAT      O26076   1.302   4.783   0.217 -0.7934 -0.2741 -0.3327
31068WAT     H126077   1.270   4.695   0.200 -0.6350 -0.0279 -2.1316
31068WAT     H226078   1.244   4.817   0.285 -1.9276 -1.1831 -0.8129
31068WAT    EPW26079   1.290   4.776   0.224 -0.9220 -0.3614 -0.6333
31069WAT      O26080   2.186   9.535   3.619  0.1184  0.4580 -0.4329
31069WAT     H126081   2.218   9.470   3.556  0.4218  0.8712 -0.7060
31069WAT     H226082   2.141   9.600   3.565 -2.6911 -0.9154  0.0339
31069WAT    EPW26083   2.184   9.535   3.603 -0.2120  0.3314 -0.4075
31070WAT      O26084   9.243  10.193   5.239 -0.1926 -0.4949 -0.1693
31070WAT     H126085   9.228  10.162   5.149 -1.2392 -2.8386  0.7498
31070WAT     H226086   9.211  10.283   5.238 -0.4843 -0.5623 -2.0703
31070WAT    EPW26087   9.237  10.201   5.227 -0.3686 -0.8130 -0.2990
31071WAT      O26088   2.564   6.727   0.015  0.5578 -0.0956  0.3821
31071WAT     H126089   2.560   6.772  -0.069  2.5448 -2.1650 -0.9406
31071WAT     H226090   2.473   6.717   0.042 -0.2386 -0.5355 -2.1903
31071WAT    EPW26091   2.552   6.732   0.008  0.7147 -0.4263 -0.1316
31072WAT      O26092   4.802   7.413   1.575  0.5986 -0.2295  0.1414
31072WAT     H126093   4.839   7.345   1.632  0.3568 -0.0407  0.5280
31072WAT     H226094   4.708   7.400   1.582  0.4991  0.8376  1.0912
31072WAT    EPW26095   4.795   7.402   1.584  0.5534 -0.0639  0.3178
31073WAT      O26096   2.106   1.838   6.959 -0.3431  0.2070  0.2623
31073WAT     H126097   2.107   1.803   7.048  1.6950 -0.7346 -0.0593
31073WAT     H226098   2.158   1.775   6.909 -1.2955  0.8227 -1.5644
31073WAT    EPW26099   2.113   1.825   6.964 -0.1998  0.1640 -0.0212
31074WAT      O26100   8.058   0.179   7.886 -0.2935 -0.5149 -0.0964
31074WAT     H126101   7.999   0.253   7.873 -1.0549 -1.2901 -1.3353
31074WAT     H226102   8.064   0.138   7.799  2.2433 -0.3543 -0.0902
31074WAT    EPW26103   8.051   0.183   7.873 -0.0601 -0.5960 -0.2589
31075WAT      O26104   0.643   1.407   8.631  0.0649  0.4492  0.2355
31075WAT     H126105   0.562   1.443   8.596 -0.5296 -1.3775 -0.4133
31075WAT     H226106   0.676   1.474   8.690 -0.1857  2.6536 -1.9607
31075WAT    EPW26107   0.637   1.421   8.634 -0.0466  0.4991 -0.1397
31076WAT      O26108   3.216   8.434   0.520  0.1982  0.0468 -0.0175
31076WAT     H126109   3.184   8.348   0.548  1.1288 -0.2906  0.0219
31076WAT     H226110   3.311   8.428   0.527  0.2344  1.5655  1.3969
31076WAT    EPW26111   3.224   8.422   0.525  0.3257  0.2027  0.1742
31077WAT      O26112  10.184   3.317   8.746 -0.4863  0.2744  0.0812
31077WAT     H126113  10.224   3.403   8.758  0.1384  0.1542 -1.0206
31077WAT     H226114  10.248   3.267   8.695 -1.7746 -0.1224 -1.2025
31077WAT    EPW26115  10.198   3.321   8.741 -0.5736  0.2062 -0.2332
31078WAT      O26116   5.015   8.645   7.432 -0.6160  0.4361  1.0113
31078WAT     H126117   5.066   8.575   7.473 -1.0622 -1.0124 -0.7118
31078WAT     H226118   5.075   8.686   7.370 -1.1090 -0.3837 -0.0533
31078WAT    EPW26119   5.029   8.641   7.429 -0.7401  0.1369  0.6437
31079WAT      O26120   9.369   6.983   0.225  0.0935  0.0093 -0.3904
31079WAT     H126121   9.290   7.002   0.174  0.3834 -1.4895 -1.4676
31079WAT     H226122   9.430   7.053   0.203  0.8695 -1.5051 -3.6201
31079WAT    EPW26123   9.366   6.994   0.216  0.2337 -0.3881 -0.9585
31080WAT      O26124   3.848   6.268   0.460 -0.2855 -0.5252  0.7703
31080WAT     H126125   3.829   6.286   0.552  0.0622  1.1886  0.5511
31080WAT     H226126   3.896   6.186   0.461  1.3430  0.3561  2.3337
31080WAT    EPW26127   3.852   6.260   0.472 -0.0248 -0.1831  0.9476
31081WAT      O26128   4.562   7.811   0.774 -0.1640 -0.4164  0.2915
31081WAT     H126129   4.561   7.898   0.734  0.8326 -0.5426 -0.0340
31081WAT     H226130   4.571   7.751   0.701 -1.6504 -0.8658  0.4413
31081WAT    EPW26131   4.563   7.814   0.759 -0.2286 -0.4926  0.2683
31082WAT      O26132   4.808   7.075   0.600  0.3321 -0.0004 -0.5005
31082WAT     H126133   4.846   7.066   0.687  2.0489  1.4029 -1.0373
31082WAT     H226134   4.732   7.132   0.613  0.6835  0.3525  0.0676
31082WAT    EPW26135   4.803   7.082   0.613  0.6046  0.2313 -0.4964
31083WAT      O26136   0.221   2.752   7.948 -0.6329  0.1807  0.4723
31083WAT     H126137   0.169   2.764   8.028 -1.0782  2.4493 -0.1045
31083WAT     H226138   0.161   2.708   7.887 -1.1275  0.7269  0.5599
31083WAT    EPW26139   0.206   2.748   7.951 -0.7569  0.5519  0.4079
31084WAT      O26140   3.388   4.878   8.026 -0.7046 -0.0549  0.0052
31084WAT     H126141   3.347   4.905   7.944  0.0460 -1.5049 -0.8821
31084WAT     H226142   3.315   4.864   8.086 -1.4097 -0.7781 -0.9875
31084WAT    EPW26143   3.373   4.880   8.023 -0.6988 -0.3414 -0.2422
31085WAT      O26144   9.001  10.271   8.684 -0.1448 -0.0057  0.1592
31085WAT     H126145   8.942  10.217   8.630 -0.2867  0.0089  0.2979
31085WAT     H226146   9.039  10.209   8.746 -4.2640  0.7001  3.9428
31085WAT    EPW26147   8.998  10.256   8.685 -0.7062  0.0892  0.6766
31086WAT      O26148   1.308   8.187   0.032 -0.3112 -0.7045 -0.9076
31086WAT     H126149   1.360   8.121  -0.015  0.1073 -1.9965  1.2050
31086WAT     H226150   1.373   8.249   0.065 -0.2622 -1.3240  0.2150
31086WAT    EPW26151   1.324   8.186   0.030 -0.2496 -0.9565 -0.4809
31087WAT      O26152   9.528   8.484   1.298 -0.2309 -0.5533  0.0932
31087WAT     H126153   9.549   8.506   1.389 -0.8485  0.0048  0.1127
31087WAT     H226154   9.451   8.428   1.305 -2.6886  2.4896 -0.1644
31087WAT    EPW26155   9.520   8.480   1.311 -0.6366 -0.0782  0.0618
31088WAT      O26156   9.527   2.826   8.654  0.4109 -0.1655 -0.1377
31088WAT     H126157   9.468   2.804   8.726 -0.2220  0.1116 -0.5573
31088WAT     H226158   9.564   2.742   8.627 -0.4216 -0.4637 -0.3945
31088WAT    EPW26159   9.524   2.812   8.660  0.2179 -0.1682 -0.2270
31089WAT      O26160   3.342   8.250   1.289 -0.5616 -0.3397  0.8208
31089WAT     H126161   3.403   8.247   1.363  0.6094  0.3646 -0.0765
31089WAT     H226162   3.285   8.324   1.309 -0.5001 -0.3932  1.2031
31089WAT    EPW26163   3.343   8.260   1.301 -0.3992 -0.2542  0.7529
31090WAT      O26164   1.349   2.811   8.967  0.4126 -0.4689 -0.6320
31090WAT     H126165   1.304   2.728   8.957  1.5256 -1.2626  0.6245
31090WAT     H226166   1.284   2.870   9.005  0.3192 -1.5020  0.8858
31090WAT    EPW26167   1.335   2.808   8.971  0.5467 -0.7100 -0.2661
31091WAT      O26168   8.879   9.009   4.085  0.0612 -0.3630 -0.4563
31091WAT     H126169   8.897   8.977   3.996  4.1076 -0.9751  0.4039
31091WAT     H226170   8.935   9.086   4.095 -0.0506 -0.4960  1.6545
31091WAT    EPW26171   8.888   9.015   4.074  0.5798 -0.4611 -0.0646
31092WAT      O26172   2.407   6.076   8.065 -0.4992  0.1786  0.0525
31092WAT     H126173   2.471   6.022   8.017  0.2390  0.1968  0.9829
31092WAT     H226174   2.394   6.152   8.009 -1.0233 -0.6214 -0.9551
31092WAT    EPW26175   2.414   6.079   8.051 -0.4710  0.0756  0.0424
31093WAT      O26176   8.081   0.297   0.640  0.3199  0.1432  0.2032
31093WAT     H126177   8.173   0.271   0.633  0.2488  0.0368 -0.3852
31093WAT     H226178   8.081   0.390   0.618  0.3339  0.2251  0.5496
31093WAT    EPW26179   8.093   0.306   0.636  0.3119  0.1400  0.1713
31094WAT      O26180   8.699   0.205   0.858 -0.2693 -0.3839  0.4712
31094WAT     H126181   8.693   0.233   0.950 -1.2265 -0.0460  0.3185
31094WAT     H226182   8.749   0.124   0.861  3.1650  1.5582  0.8833
31094WAT    EPW26183   8.705   0.198   0.871  0.0572 -0.0832  0.5054
31095WAT      O26184   7.711   0.608   0.861  0.1965 -0.4845 -0.1295
31095WAT     H126185   7.727   0.575   0.949  0.7875 -1.6879 -0.6772
31095WAT     H226186   7.721   0.703   0.869  1.2439 -0.6655  0.8876
31095WAT    EPW26187   7.714   0.616   0.874  0.4125 -0.6671 -0.0676
31096WAT      O26188   1.904   8.313   0.324  0.0321  0.6502 -1.0241
31096WAT     H126189   1.820   8.270   0.308  0.6919 -1.3580  0.5246
31096WAT     H226190   1.899   8.341   0.415  1.2442 -0.0163 -0.7336
31096WAT    EPW26191   1.892   8.311   0.334  0.2790  0.2971 -0.7815
31097WAT      O26192   1.188   2.233   6.419 -0.0308 -0.0453  0.1491
31097WAT     H126193   1.106   2.185   6.405  0.3458 -0.7625  0.3480
31097WAT     H226194   1.163   2.325   6.413 -0.8842 -0.2528  0.3928
31097WAT    EPW26195   1.174   2.239   6.416 -0.0937 -0.1674  0.2074
31098WAT      O26196   3.935   8.964   0.415 -0.4111 -0.6180  0.3845
31098WAT     H126197   3.989   8.895   0.454 -0.4796 -0.5202  0.6498
31098WAT     H226198   3.845   8.931   0.422 -0.5682  0.0210  1.6052
31098WAT    EPW26199   3.930   8.950   0.421 -0.4408 -0.5202  0.5805
31099WAT      O26200   2.297   6.793   0.951  0.2209  0.4387  0.1896
31099WAT     H126201   2.292   6.764   1.042  0.9018  1.5111  0.5836
31099WAT     H226202   2.377   6.752   0.917 -1.1381 -1.7600 -0.6351
31099WAT    EPW26203   2.307   6.784   0.959  0.1315  0.2902  0.1328
31100WAT      O26204   8.141   3.038   5.559  0.1786 -0.3361 -0.6035
31100WAT     H126205   8.065   3.067   5.507  1.9673  0.3014 -3.0314
31100WAT     H226206   8.214   3.091   5.526  1.6299 -0.5182  2.0519
31100WAT    EPW26207   8.140   3.049   5.548  0.6061 -0.2760 -0.5734
31101WAT      O26208   2.980   9.171   0.167  0.6186  0.0584  0.5635
31101WAT     H126209   3.066   9.181   0.209  0.2312  1.5137  1.0921
31101WAT     H226210   2.926   9.239   0.208 -0.3715  0.1441 -0.8192
31101WAT    EPW26211   2.985   9.182   0.178  0.4368  0.2608  0.4508
31102WAT      O26212   9.146   0.940   7.240  0.7471 -0.6186  0.2676
31102WAT     H126213   9.214   0.942   7.307  1.9889  0.5504 -0.9780
31102WAT     H226214   9.093   0.863   7.262  1.7967 -0.9170  1.9018
31102WAT    EPW26215   9.148   0.930   7.252  1.0500 -0.5037  0.3188
31103WAT      O26216   8.027   5.224   7.438 -0.2666  0.2649  0.2571
31103WAT     H126217   8.040   5.180   7.353  0.0483  1.1211 -0.1483
31103WAT     H226218   8.012   5.316   7.415  0.0088  0.5344  1.1437
31103WAT    EPW26219   8.027   5.230   7.423 -0.1884  0.4134  0.3204
31104WAT      O26220   3.256   7.491   1.150  0.2842  0.0704  0.6107
31104WAT     H126221   3.254   7.465   1.242  0.1296  0.3612  0.6910
31104WAT     H226222   3.193   7.563   1.144 -0.3412 -0.5052  0.1018
31104WAT    EPW26223   3.248   7.497   1.161  0.1813  0.0327  0.5542
31105WAT      O26224   0.847   6.142   2.837  0.9560  0.1937  0.8855
31105WAT     H126225   0.866   6.175   2.925 -2.1308  1.8585  1.0676
31105WAT     H226226   0.877   6.211   2.778  1.1666 -0.0181  0.7396
31105WAT    EPW26227   0.854   6.155   2.841  0.5767  0.3855  0.8904
31106WAT      O26228   7.586   1.799   1.007  0.9202 -0.3398 -0.0821
31106WAT     H126229   7.565   1.891   0.995  2.1502  0.2815  2.0001
31106WAT     H226230   7.682   1.795   1.000  0.9099 -1.4053  0.1489
31106WAT    EPW26231   7.596   1.811   1.004  1.0812 -0.3983  0.2230
31107WAT      O26232   4.876   8.684   0.607 -0.0381 -0.0052 -1.1650
31107WAT     H126233   4.836   8.687   0.694  0.3876  2.7163 -0.9792
31107WAT     H226234   4.868   8.773   0.574  2.2546 -0.3259 -2.7996
31107WAT    EPW26235   4.870   8.696   0.614  0.3204  0.3114 -1.3560
31108WAT      O26236   1.877   0.420   7.591  0.1073 -0.0999 -1.1004
31108WAT     H126237   1.894   0.484   7.522  2.1106 -1.4658 -1.9896
31108WAT     H226238   1.943   0.352   7.577  0.6035 -0.4455  2.2043
31108WAT    EPW26239   1.888   0.419   7.580  0.4370 -0.3257 -0.7818
31109WAT      O26240   1.474   6.260   1.985  0.3016  0.1956 -0.3164
31109WAT     H126241   1.406   6.323   2.007  0.4992 -0.5148  2.7099
31109WAT     H226242   1.546   6.313   1.951 -0.8230  1.1900 -1.2078
31109WAT    EPW26243   1.474   6.275   1.983  0.1794  0.2332 -0.0348
31110WAT      O26244   3.290   2.380   1.232  0.2174 -0.0849 -0.4530
31110WAT     H126245   3.336   2.326   1.169  0.5963 -2.6575  1.8497
31110WAT     H226246   3.197   2.368   1.210  0.3575 -0.6342 -0.7604
31110WAT    EPW26247   3.284   2.371   1.221  0.2859 -0.4966 -0.1899
31111WAT      O26248   6.433   2.438   0.060  0.2589 -0.2520  0.5397
31111WAT     H126249   6.491   2.512   0.079  2.7977 -2.0271  0.1018
31111WAT     H226250   6.360   2.478   0.012  2.5138  1.7693 -1.4995
31111WAT    EPW26251   6.431   2.453   0.056  0.8910 -0.2195  0.2129
31112WAT      O26252   2.048   5.877   0.128  0.1938  0.7861  0.0538
31112WAT     H126253   1.957   5.864   0.153 -0.1034  1.3453 -0.6859
31112WAT     H226254   2.099   5.847   0.203 -0.5641 -0.6451  0.0179
31112WAT    EPW26255   2.043   5.871   0.141  0.0546  0.6711 -0.0484
31113WAT      O26256   2.128   0.637   8.446 -0.0134 -0.2210  0.6583
31113WAT     H126257   2.047   0.676   8.413  0.5163  1.2659  1.0743
31113WAT     H226258   2.129   0.657   8.539  2.0790  2.1532  0.2322
31113WAT    EPW26259   2.117   0.645   8.454  0.3324  0.2883  0.6571
31114WAT      O26260   4.894   8.733   1.510  0.4015  0.1087 -0.3004
31114WAT     H126261   4.941   8.816   1.521  3.1952 -1.2529 -0.9484
31114WAT     H226262   4.811   8.746   1.556  1.4424  2.6710  1.0775
31114WAT    EPW26263   4.889   8.746   1.517  0.9072  0.2675 -0.2042
31115WAT      O26264   0.956   9.447   1.321 -0.5175 -0.5753  0.8251
31115WAT     H126265   0.947   9.499   1.401 -2.0074  0.0171  0.2928
31115WAT     H226266   0.970   9.511   1.252 -2.0467 -0.8722  0.2107
31115WAT    EPW26267   0.957   9.462   1.323 -0.9157 -0.5364  0.6738
31116WAT      O26268   3.491   8.440   0.477 -0.1968  0.4689  0.4180
31116WAT     H126269   3.532   8.370   0.527  0.3638 -0.4745 -1.2870
31116WAT     H226270   3.511   8.520   0.526  1.0488 -0.3132  1.2364
31116WAT    EPW26271   3.499   8.441   0.490  0.0412  0.2408  0.3011
31117WAT      O26272   5.445   8.635   1.018  0.4822  0.0082  0.4300
31117WAT     H126273   5.406   8.591   1.093  0.2650 -0.8035 -0.1572
31117WAT     H226274   5.459   8.725   1.049 -0.4939 -0.0616  1.1190
31117WAT    EPW26275   5.442   8.641   1.032  0.3245 -0.1078  0.4434
31118WAT      O26276   1.166   2.088   7.869  0.2766  0.4478  0.3534
31118WAT     H126277   1.103   2.160   7.866  0.6015  0.7459  0.4380
31118WAT     H226278   1.251   2.132   7.860  0.4606  0.0401  0.1025
31118WAT    EPW26279   1.169   2.104   7.867  0.3437  0.4333  0.3312
31119WAT      O26280   7.475   1.373   8.826  0.5803  0.6406 -0.0969
31119WAT     H126281   7.487   1.337   8.913  0.6153  1.5451  0.2855
31119WAT     H226282   7.410   1.317   8.785  1.8844 -0.9061 -0.1639
31119WAT    EPW26283   7.468   1.361   8.832  0.7572  0.5560 -0.0553
31120WAT      O26284   8.880   2.355   5.813  0.3017 -0.0273 -0.3657
31120WAT     H126285   8.925   2.318   5.889 -0.3836 -2.4881 -1.0937
31120WAT     H226286   8.815   2.289   5.789  0.8254  0.4471 -3.4137
31120WAT    EPW26287   8.877   2.342   5.820  0.2794 -0.2893 -0.8638
31121WAT      O26288   0.264   0.719   6.812 -0.0670 -0.4592  1.0108
31121WAT     H126289   0.246   0.630   6.844 -0.5014 -0.6369  0.2854
31121WAT     H226290   0.204   0.775   6.862 -0.2990 -0.6616  0.9607
31121WAT    EPW26291   0.254   0.715   6.823 -0.1549 -0.5093  0.9084
31122WAT      O26292   8.925   2.348   7.971  0.0532  0.4508 -0.1412
31122WAT     H126293   8.903   2.367   7.879  0.0377  0.6589 -0.0935
31122WAT     H226294   8.968   2.427   8.002 -2.3169  1.4486  0.8246
31122WAT    EPW26295   8.928   2.361   7.963 -0.2613  0.6098 -0.0076
31123WAT      O26296   7.012   9.448   5.163  0.4233  0.1288 -0.3743
31123WAT     H126297   6.939   9.495   5.123 -0.9030 -0.4718  1.2191
31123WAT     H226298   7.060   9.514   5.212 -0.0089  0.2427 -0.1055
31123WAT    EPW26299   7.009   9.463   5.164  0.1912  0.0644 -0.1287
31124WAT      O26300   5.456   6.420   0.184 -0.1624  0.1904  0.7247
31124WAT     H126301   5.476   6.342   0.236 -2.2257 -0.8144  0.1015
31124WAT     H226302   5.539   6.469   0.182  0.5471 -0.7294  3.2000
31124WAT    EPW26303   5.470   6.417   0.191 -0.3407 -0.0634  0.9690
31125WAT      O26304   0.268   4.258   6.204 -0.3475 -0.7936  0.1955
31125WAT     H126305   0.202   4.327   6.196  1.5230  1.1952  0.8837
31125WAT     H226306   0.251   4.200   6.130 -0.4713  1.8090 -1.9711
31125WAT    EPW26307   0.257   4.259   6.194 -0.1171 -0.1881  0.0002
31126WAT      O26308   8.929   1.039   8.149 -0.1889 -0.1200 -0.2982
31126WAT     H126309   8.911   1.105   8.216 -1.9674 -1.0350  0.1830
31126WAT     H226310   8.853   1.042   8.091  1.1234  0.3588 -2.0970
31126WAT    EPW26311   8.917   1.048   8.150 -0.2503 -0.1775 -0.4721
31127WAT      O26312   4.322   3.776   1.133  0.5197  0.4013  0.6263
31127WAT     H126313   4.326   3.715   1.059  0.4035  1.3558 -0.1851
31127WAT     H226314   4.356   3.726   1.207 -0.0306 -0.8073  0.0921
31127WAT    EPW26315   4.327   3.762   1.133  0.4318  0.3679  0.4489
31128WAT      O26316  10.602   0.358   7.430 -0.2939 -0.1059  0.2072
31128WAT     H126317  10.565   0.270   7.427 -0.1898 -0.1633  0.5941
31128WAT     H226318  10.626   0.377   7.339 -1.8235  0.1675 -0.1672
31128WAT    EPW26319  10.600   0.349   7.418 -0.4816 -0.0774  0.2089
31129WAT      O26320   9.735   3.320   8.278  0.3918  0.3031 -0.0789
31129WAT     H126321   9.759   3.388   8.215 -2.5296  0.9639 -0.6094
31129WAT     H226322   9.702   3.249   8.225 -0.2737  0.0708  0.6290
31129WAT    EPW26323   9.734   3.320   8.263 -0.0815  0.3595 -0.0553
31130WAT      O26324   3.290   6.625   2.937  0.3051 -0.1515 -0.0117
31130WAT     H126325   3.285   6.532   2.958  2.6685  0.1423  2.3695
31130WAT     H226326   3.365   6.631   2.877  3.0324  0.5237  3.1869
31130WAT    EPW26327   3.299   6.613   2.932  0.9766 -0.0238  0.7243
31131WAT      O26328   1.043   4.369   7.932  0.0777  0.7737  0.2506
31131WAT     H126329   1.019   4.278   7.950 -3.6411  1.5785  0.2035
31131WAT     H226330   0.971   4.403   7.878  0.5912  4.0853  1.3735
31131WAT    EPW26331   1.030   4.362   7.927 -0.3451  1.3168  0.3924
31132WAT      O26332   7.597  10.012   6.672 -0.0489 -0.3808 -0.3341
31132WAT     H126333   7.649  10.016   6.753  1.3998 -2.2653 -1.0906
31132WAT     H226334   7.641  10.075   6.614  1.0019 -1.4247 -0.7179
31132WAT    EPW26335   7.610  10.021   6.675  0.2809 -0.7668 -0.4845
31133WAT      O26336   2.202   6.351   7.612  0.2069  0.8122  0.3878
31133WAT     H126337   2.127   6.327   7.557 -0.0712 -0.1179  1.1442
31133WAT     H226338   2.169   6.422   7.667  0.2954  1.3139 -0.1907
31133WAT    EPW26339   2.187   6.357   7.612  0.1819  0.7558  0.4113
31134WAT      O26340   0.802   0.912   7.911 -0.5951  0.4150 -0.0793
31134WAT     H126341   0.795   0.961   7.992  1.9879 -1.2436  1.2656
31134WAT     H226342   0.853   0.968   7.853 -1.4729  1.1202 -0.2005
31134WAT    EPW26343   0.808   0.926   7.914 -0.3702  0.2893  0.0823
31135WAT      O26344   1.697   8.083   0.623 -0.3085  0.2495  0.1484
31135WAT     H126345   1.687   8.161   0.570  0.4369  0.4839  0.3416
31135WAT     H226346   1.698   8.011   0.561 -0.7870  0.4094 -0.0461
31135WAT    EPW26347   1.696   8.084   0.608 -0.2733  0.3014  0.1482
31136WAT      O26348   6.209   2.221   8.255 -0.5798  0.3517  0.4694
31136WAT     H126349   6.241   2.308   8.232 -1.1092  0.3196 -0.4532
31136WAT     H226350   6.269   2.190   8.323  2.8009 -0.5940 -2.5945
31136WAT    EPW26351   6.221   2.228   8.261 -0.2038  0.2226 -0.0558
31137WAT      O26352   9.228   2.710   7.913 -0.4571  1.5714 -0.5408
31137WAT     H126353   9.208   2.654   7.988 -0.0641  1.7706 -0.2796
31137WAT     H226354   9.317   2.740   7.930  0.2681  0.2878 -1.9289
31137WAT    EPW26355   9.237   2.707   7.925 -0.3099  1.4284 -0.6895
31138WAT      O26356   3.495   5.450   0.309  0.7768  0.1630  0.0852
31138WAT     H126357   3.518   5.530   0.262  0.1781 -0.0685 -0.6121
31138WAT     H226358   3.514   5.379   0.248 -2.0626 -0.0232 -0.6885
31138WAT    EPW26359   3.501   5.451   0.295  0.3235  0.1080 -0.1088
31139WAT      O26360   4.252   7.666   3.821  0.0857  0.1205 -0.2928
31139WAT     H126361   4.178   7.727   3.822  2.6467  3.6013 -2.6197
31139WAT     H226362   4.242   7.618   3.739  0.5489  0.8763 -0.8058
31139WAT    EPW26363   4.241   7.668   3.811  0.4845  0.6795 -0.6673
31140WAT      O26364   6.861   3.949   0.012 -0.6662  0.2321 -0.7238
31140WAT     H126365   6.943   3.977  -0.030 -0.4518  1.3457  0.3677
31140WAT     H226366   6.821   3.889  -0.051  2.0006 -2.1017 -0.4218
31140WAT    EPW26367   6.867   3.945  -0.002 -0.2859  0.0713 -0.5401
31141WAT      O26368   7.562   9.862   7.478  0.0551 -0.2540 -0.6886
31141WAT     H126369   7.477   9.818   7.473 -0.0014 -0.3454  0.7418
31141WAT     H226370   7.625   9.791   7.488 -0.0114 -0.0938  1.3425
31141WAT    EPW26371   7.559   9.846   7.479  0.0389 -0.2456 -0.2317
31142WAT      O26372   4.357   1.643   7.046 -0.1882  0.8252 -0.7535
31142WAT     H126373   4.283   1.674   7.098 -2.4184  1.5372 -4.0525
31142WAT     H226374   4.338   1.550   7.031  0.7659  0.4695  0.1186
31142WAT    EPW26375   4.345   1.635   7.051 -0.3567  0.8723 -1.0736
31143WAT      O26376   3.144   4.007   8.230 -0.7413  0.1947  0.0352
31143WAT     H126377   3.140   3.962   8.146 -0.8372  1.5029 -0.6912
31143WAT     H226378   3.156   4.099   8.207 -2.1217  0.7688  1.4080
31143WAT    EPW26379   3.145   4.013   8.216 -0.9359  0.4427  0.1202
31144WAT      O26380   6.019   4.479   0.401 -0.6714  0.1320  0.1903
31144WAT     H126381   5.929   4.482   0.434 -0.9392  0.1608 -0.5270
31144WAT     H226382   6.010   4.485   0.306  0.0963  0.2300  0.1172
31144WAT    EPW26383   6.006   4.480   0.393 -0.6056  0.1488  0.0860
31145WAT      O26384   7.638   5.082   8.927 -0.0615  0.1259  0.3261
31145WAT     H126385   7.694   5.110   8.855 -0.7837  0.4633 -0.1224
31145WAT     H226386   7.644   4.987   8.927  2.4772  0.2168  1.9011
31145WAT    EPW26387   7.646   5.073   8.917  0.1781  0.1826  0.4749
31146WAT      O26388   0.954   7.119   0.928  0.0438  0.2123  0.5541
31146WAT     H126389   0.923   7.029   0.913 -0.3919  0.0966  1.9949
31146WAT     H226390   0.942   7.162   0.844 -2.5782 -0.2820  0.5698
31146WAT    EPW26391   0.948   7.113   0.915 -0.3595  0.1318  0.7462
31147WAT      O26392   6.911   9.430   0.657  0.8340  0.0312 -0.3065
31147WAT     H126393   7.000   9.462   0.643  0.8815 -0.8105 -2.3249
31147WAT     H226394   6.899   9.363   0.589 -1.6331  0.7508 -0.6727
31147WAT    EPW26395   6.921   9.425   0.646  0.5147  0.0153 -0.6210
31148WAT      O26396   9.734   3.319   7.465 -0.2613 -0.0174  0.1350
31148WAT     H126397   9.659   3.268   7.436 -0.9952  0.8388  0.4862
31148WAT     H226398   9.732   3.397   7.410 -0.4271  0.6335  1.0385
31148WAT    EPW26399   9.724   3.323   7.454 -0.3800  0.1813  0.3004
31149WAT      O26400   0.687   1.680   6.310 -0.0659 -0.0995 -0.1720
31149WAT     H126401   0.775   1.661   6.279 -0.1442  1.9619 -1.9490
31149WAT     H226402   0.654   1.597   6.343  2.8597 -0.7376  1.5173
31149WAT    EPW26403   0.694   1.667   6.310  0.3097  0.0882 -0.1838
31150WAT      O26404   3.880   6.819   2.804 -0.0751 -0.5801 -0.2015
31150WAT     H126405   3.948   6.805   2.738  1.3301 -0.8724  1.2570
31150WAT     H226406   3.799   6.790   2.761  0.7092 -0.2944 -1.9532
31150WAT    EPW26407   3.878   6.813   2.790  0.2137 -0.5810 -0.2402
31151WAT      O26408   3.544   7.496   0.546  0.0938  0.3037  0.1596
31151WAT     H126409   3.530   7.473   0.455  1.4080 -0.4642  0.1211
31151WAT     H226410   3.458   7.484   0.588 -0.4373  0.3380 -0.9002
31151WAT    EPW26411   3.531   7.491   0.540  0.1971  0.2067  0.0147
31152WAT      O26412  10.255   0.270   5.274 -0.2315  0.5804 -0.0423
31152WAT     H126413  10.187   0.233   5.218  0.0557  1.0267 -0.6976
31152WAT     H226414  10.307   0.326   5.216  0.4730  0.5365  0.5236
31152WAT    EPW26415  10.253   0.272   5.259 -0.1011  0.6335 -0.0541
31153WAT      O26416   4.782   6.233   5.054  0.3511  0.0114  0.3252
31153WAT     H126417   4.822   6.175   5.119 -0.8261 -1.7985 -0.4939
31153WAT     H226418   4.804   6.321   5.085  4.0178 -0.7736  0.5150
31153WAT    EPW26419   4.790   6.237   5.067  0.6793 -0.3309  0.2422
31154WAT      O26420  10.193   6.177   0.173  0.2313 -0.4805  0.2402
31154WAT     H126421  10.118   6.199   0.116  0.3889  2.0793  0.9095
31154WAT     H226422  10.244   6.258   0.177  2.1634 -1.6880  1.1671
31154WAT    EPW26423  10.190   6.191   0.166  0.5069 -0.3021  0.4507
31155WAT      O26424   4.331   5.959   1.385  0.4534 -0.3033  0.1207
31155WAT     H126425   4.401   5.893   1.381  0.5363 -0.1845 -0.4253
31155WAT     H226426   4.358   6.027   1.325 -0.1147 -0.2346 -0.0653
31155WAT    EPW26427   4.343   5.959   1.377  0.3893 -0.2787  0.0241
31156WAT      O26428   1.050   4.085   7.635  0.8093  0.0007  0.0165
31156WAT     H126429   1.034   4.010   7.693 -1.0730  0.6262  0.3828
31156WAT     H226430   1.076   4.046   7.552  0.7717 -1.0255  0.4737
31156WAT    EPW26431   1.051   4.070   7.632  0.5560 -0.0522  0.1252
31157WAT      O26432   3.434   8.826   7.103  0.1924 -0.6273 -0.4514
31157WAT     H126433   3.518   8.857   7.137 -0.0441 -1.7633  1.2644
31157WAT     H226434   3.457   8.766   7.033  0.8302 -1.1010  0.1563
31157WAT    EPW26435   3.448   8.822   7.098  0.2453 -0.8392 -0.1450
31158WAT      O26436   7.856   2.565   7.083 -0.2744  0.1543 -0.1777
31158WAT     H126437   7.944   2.527   7.087  0.0021  0.8490  0.5113
31158WAT     H226438   7.851   2.622   7.160 -2.4108 -2.1224  1.5157
31158WAT    EPW26439   7.867   2.568   7.094 -0.5198 -0.0542  0.1364
31159WAT      O26440   3.721   8.279   0.208 -0.2456 -0.6335  0.0867
31159WAT     H126441   3.697   8.192   0.241 -0.3050 -1.1077 -1.1370
31159WAT     H226442   3.643   8.308   0.161  0.8492 -1.3669 -2.3152
31159WAT    EPW26443   3.707   8.271   0.206 -0.1090 -0.7925 -0.3915
31160WAT      O26444   1.427   0.635   6.307  1.1527 -0.3483  0.4996
31160WAT     H126445   1.489   0.589   6.252  1.7450  2.2792 -1.2415
31160WAT     H226446   1.426   0.586   6.389  1.0360 -3.8371 -1.3846
31160WAT    EPW26447   1.435   0.623   6.311  1.2155 -0.4619  0.0212
31161WAT      O26448  10.508   0.647   8.956  0.1972 -0.2064  0.5134
31161WAT     H126449  10.503   0.732   9.000 -2.1641  0.2329 -0.4058
31161WAT     H226450  10.478   0.584   9.021 -0.9373  0.1153  0.3351
31161WAT    EPW26451  10.503   0.650   8.970 -0.2642 -0.1060  0.3681
31162WAT      O26452   2.675   5.008   4.451  0.0060  0.1650 -0.5392
31162WAT     H126453   2.723   5.031   4.530  1.8388  0.6335 -1.7227
31162WAT     H226454   2.617   5.083   4.435 -0.7066 -0.1280  0.5588
31162WAT    EPW26455   2.673   5.021   4.459  0.1537  0.1881 -0.5505
31163WAT      O26456  10.475   1.323   8.421  0.5834 -0.4188 -0.8106
31163WAT     H126457  10.510   1.296   8.336 -2.4254  1.9492 -3.0632
31163WAT     H226458  10.529   1.397   8.447  0.3623  0.0857 -1.7257
31163WAT    EPW26459  10.487   1.329   8.413  0.1574 -0.0400 -1.2288
31164WAT      O26460   0.672   7.198   2.276 -0.1410  0.0024 -0.2763
31164WAT     H126461   0.653   7.181   2.184  0.8473  0.2196 -0.5349
31164WAT     H226462   0.625   7.279   2.296 -0.1893  0.0653 -0.6469
31164WAT    EPW26463   0.663   7.207   2.266 -0.0170  0.0396 -0.3593
31165WAT      O26464   5.073   7.976   2.662 -0.2944  0.1398  0.2177
31165WAT     H126465   5.014   7.905   2.635  1.4246 -1.9707  1.5818
31165WAT     H226466   5.082   8.031   2.584 -2.2898 -0.7170 -0.6832
31165WAT    EPW26467   5.067   7.974   2.648 -0.3309 -0.2515  0.2787
31166WAT      O26468   1.166   1.373   8.299 -0.3889 -0.2207  0.5383
31166WAT     H126469   1.106   1.302   8.274  0.4878 -0.8748  0.2313
31166WAT     H226470   1.109   1.446   8.322 -1.4586 -1.9689  4.0194
31166WAT    EPW26471   1.151   1.373   8.298 -0.4144 -0.5375  0.9570
31167WAT      O26472  10.853   1.314   7.944 -0.4286 -0.2727 -0.4843
31167WAT     H126473  10.837   1.274   7.859  3.9554 -1.1885 -1.1385
31167WAT     H226474  10.888   1.401   7.923  1.0707 -0.6540  0.2802
31167WAT    EPW26475  10.856   1.320   7.930  0.3471 -0.4438 -0.4699
31168WAT      O26476   1.300   6.200   3.516  0.6781 -0.2708  0.2496
31168WAT     H126477   1.381   6.202   3.466 -0.8648  0.4005 -2.4251
31168WAT     H226478   1.289   6.289   3.548  0.5602 -0.1307 -0.1732
31168WAT    EPW26479   1.309   6.212   3.514  0.4591 -0.1638 -0.1589
31169WAT      O26480   1.977   6.300   5.851  0.5016 -0.4544  0.7125
31169WAT     H126481   1.984   6.226   5.790 -0.9306 -2.0280  2.3498
31169WAT     H226482   2.064   6.308   5.889  1.0956 -0.2152 -0.6136
31169WAT    EPW26483   1.989   6.291   5.848  0.3911 -0.6304  0.7536
31170WAT      O26484   0.970   1.752   7.161 -0.1028 -0.5762 -0.1269
31170WAT     H126485   0.930   1.670   7.132  1.6643 -1.5567  0.0669
31170WAT     H226486   0.920   1.821   7.118 -1.9637 -1.7276  0.1221
31170WAT    EPW26487   0.958   1.750   7.152 -0.1152 -0.8574 -0.0682
31171WAT      O26488   3.042   2.345   2.871  0.2244 -0.1154 -0.1987
31171WAT     H126489   3.126   2.301   2.860  0.2932 -0.2764  0.9268
31171WAT     H226490   3.005   2.308   2.951 -0.8704  0.0393 -0.6136
31171WAT    EPW26491   3.048   2.334   2.880  0.0892 -0.1162 -0.1049
31172WAT      O26492   9.677   3.458   8.509  0.3623 -0.6257  0.0603
31172WAT     H126493   9.698   3.400   8.436  0.2559 -0.5562 -0.0275
31172WAT     H226494   9.666   3.400   8.584 -2.0443 -1.0116 -0.4730
31172WAT    EPW26495   9.678   3.443   8.509  0.0305 -0.6675 -0.0219
31173WAT      O26496   5.001   8.257   3.157 -0.1602 -0.4323  0.3021
31173WAT     H126497   5.018   8.163   3.152 -0.2290 -0.3975 -0.7958
31173WAT     H226498   4.955   8.269   3.240 -0.7740 -1.4638  0.1201
31173WAT    EPW26499   4.997   8.246   3.168 -0.2503 -0.5631  0.1332
31174WAT      O26500   6.096  10.336   4.138 -0.5083 -0.3371 -0.1003
31174WAT     H126501   6.139  10.375   4.062  0.8420  0.0643  0.8449
31174WAT     H226502   6.092  10.242   4.118  0.8499 -0.3900 -0.1913
31174WAT    EPW26503   6.101  10.329   4.125 -0.1512 -0.2909  0.0124
31175WAT      O26504   8.844   5.196   8.086 -0.5030  0.2111  0.0715
31175WAT     H126505   8.752   5.196   8.060 -0.5733  1.2830  0.2799
31175WAT     H226506   8.878   5.279   8.054  0.8400 -0.8703 -1.4430
31175WAT    EPW26507   8.836   5.207   8.079 -0.3352  0.2098 -0.1011
31176WAT      O26508   7.646   0.726   7.526 -0.1911 -0.6818 -0.0091
31176WAT     H126509   7.621   0.726   7.618  0.0414 -1.6929  0.0666
31176WAT     H226510   7.729   0.679   7.524 -1.3534 -2.7989 -1.0300
31176WAT    EPW26511   7.654   0.720   7.537 -0.3140 -1.0944 -0.1338
31177WAT      O26512   3.681   8.594   3.696  0.0966  0.0859 -0.0967
31177WAT     H126513   3.606   8.554   3.741 -0.2734  1.5471  0.6620
31177WAT     H226514   3.757   8.557   3.740 -0.2274  0.0878  0.4820
31177WAT    EPW26515   3.681   8.584   3.708  0.0050  0.2785  0.0796
31178WAT      O26516   5.538   9.582   4.410 -0.5161  0.9301  0.0177
31178WAT     H126517   5.444   9.585   4.424 -0.4486  1.6536  0.4000
31178WAT     H226518   5.567   9.503   4.455 -1.0001  0.4640 -0.4923
31178WAT    EPW26519   5.529   9.572   4.418 -0.5713  0.9642  0.0007
31179WAT      O26520   0.912   6.957   0.566 -0.9083  0.5735  0.8133
31179WAT     H126521   0.857   6.976   0.642 -1.0651 -0.8261  1.0784
31179WAT     H226522   0.908   6.862   0.556 -0.2488  0.6492 -0.4718
31179WAT    EPW26523   0.904   6.947   0.575 -0.8420  0.3989  0.6788
31180WAT      O26524   6.874  10.181   6.003 -0.5288 -0.1343 -0.4525
31180WAT     H126525   6.933  10.192   5.929 -0.3344  2.5024 -0.0076
31180WAT     H226526   6.868  10.086   6.015  2.3530 -0.5597 -1.5152
31180WAT    EPW26527   6.881  10.170   5.995 -0.1228  0.1574 -0.5338
31181WAT      O26528   4.221   8.543   0.698  1.1549 -0.5280  0.1069
31181WAT     H126529   4.127   8.522   0.696  1.2664 -1.2965  1.5523
31181WAT     H226530   4.238   8.569   0.788  1.8543  2.1789 -0.7269
31181WAT    EPW26531   4.211   8.543   0.710  1.2619 -0.2718  0.1876
31182WAT      O26532   2.957   4.081   8.660  0.6108  0.1473 -0.3042
31182WAT     H126533   3.051   4.095   8.670  0.6145  1.3962 -1.7193
31182WAT     H226534   2.946   4.059   8.568 -0.2179 -2.7896  0.3955
31182WAT    EPW26535   2.968   4.080   8.649  0.5020 -0.0753 -0.3986
31183WAT      O26536   8.956   3.342   6.156 -0.3455  0.8454 -0.3737
31183WAT     H126537   8.892   3.390   6.104 -0.6392  1.6153  0.6471
31183WAT     H226538   8.938   3.369   6.246 -0.5092 -1.1938  0.2442
31183WAT    EPW26539   8.946   3.352   6.161 -0.4053  0.6779 -0.1576
31184WAT      O26540   8.525   9.235   2.289 -0.0099  0.4654 -0.2434
31184WAT     H126541   8.499   9.322   2.259 -1.5522 -0.0541 -0.5248
31184WAT     H226542   8.453   9.206   2.345  0.8475 -0.3169  0.4904
31184WAT    EPW26543   8.512   9.242   2.293 -0.1006  0.2937 -0.1836
31185WAT      O26544   5.969   8.310   7.549  0.1839  0.3687  0.0938
31185WAT     H126545   6.033   8.378   7.527  0.1898  0.7378  1.1945
31185WAT     H226546   6.009   8.229   7.517  0.5664  0.7683 -0.4635
31185WAT    EPW26547   5.983   8.308   7.542  0.2351  0.4702  0.1652
31186WAT      O26548   3.092   8.387   2.043 -0.0257  0.3337 -0.1452
31186WAT     H126549   3.160   8.438   2.087  0.0683  1.4828 -1.5307
31186WAT     H226550   3.112   8.296   2.065  1.2667  0.7317  0.4176
31186WAT    EPW26551   3.104   8.382   2.052  0.1571  0.5379 -0.2537
31187WAT      O26552   7.572   7.963   3.060  0.2785 -0.9417  0.1224
31187WAT     H126553   7.481   7.987   3.071  0.6288  0.4520  0.1471
31187WAT     H226554   7.579   7.935   2.968  0.0048 -0.2229 -0.1214
31187WAT    EPW26555   7.561   7.962   3.049  0.2887 -0.6633  0.0935
31188WAT      O26556   1.553   5.584   1.711  1.0159 -0.3376 -1.0991
31188WAT     H126557   1.533   5.490   1.717  0.7270 -0.2023  0.6686
31188WAT     H226558   1.584   5.607   1.798  2.9979  0.8238 -2.0572
31188WAT    EPW26559   1.554   5.574   1.723  1.2392 -0.1664 -0.9922
31189WAT      O26560   3.019   7.579   1.673 -0.1790 -0.0194  0.6260
31189WAT     H126561   2.973   7.549   1.751 -0.8415 -0.1307  0.2005
31189WAT     H226562   2.950   7.610   1.615  0.2366 -0.5784 -0.1904
31189WAT    EPW26563   3.004   7.579   1.676 -0.2115 -0.1080  0.4622
31190WAT      O26564   1.269   1.464   6.880 -0.0336  0.0901  0.1896
31190WAT     H126565   1.271   1.371   6.856 -2.2276 -0.7735  2.8809
31190WAT     H226566   1.276   1.465   6.975  1.2969  2.8283  0.1601
31190WAT    EPW26567   1.270   1.452   6.889 -0.1475  0.3373  0.5407
31191WAT      O26568   3.123   6.343   0.824 -0.6717 -0.1350  0.4268
31191WAT     H126569   3.081   6.428   0.834 -0.0105  0.1127  1.1729
31191WAT     H226570   3.212   6.355   0.857 -0.1749 -0.8034 -0.5907
31191WAT    EPW26571   3.129   6.356   0.829 -0.5190 -0.1905  0.3910
31192WAT      O26572   9.717   5.735   7.205  0.0364  0.7409  0.2179
31192WAT     H126573   9.668   5.681   7.142 -0.8663  1.5745  0.1840
31192WAT     H226574   9.695   5.825   7.181  1.0440  1.1183  0.6578
31192WAT    EPW26575   9.707   5.740   7.193  0.0496  0.9007  0.2713
31193WAT      O26576   7.055   8.757   1.919  0.1993  0.1857 -0.2591
31193WAT     H126577   7.143   8.765   1.955  0.6888  1.7564 -1.6512
31193WAT     H226578   7.063   8.688   1.852 -0.5319 -2.1853  1.9238
31193WAT    EPW26579   7.068   8.749   1.915  0.1674  0.0796 -0.1549
31194WAT      O26580   4.852   9.274   8.772  0.5657  0.3201 -0.4010
31194WAT     H126581   4.770   9.262   8.725  0.5072  2.2120 -0.8652
31194WAT     H226582   4.839   9.229   8.856 -0.7103  0.1080 -0.6905
31194WAT    EPW26583   4.840   9.266   8.777  0.3893  0.5422 -0.5007
31195WAT      O26584   4.429   5.401   0.860 -0.0115  0.4281  0.4002
31195WAT     H126585   4.443   5.484   0.814 -2.1414  1.5758  1.6975
31195WAT     H226586   4.382   5.347   0.797  1.0427  0.2940 -0.3125
31195WAT    EPW26587   4.425   5.405   0.845 -0.1535  0.5617  0.4773
31196WAT      O26588  10.604   4.196   4.234 -0.1438 -0.2139 -0.3715
31196WAT     H126589  10.654   4.141   4.174 -1.5552  0.4887 -2.2952
31196WAT     H226590  10.666   4.262   4.263  0.7230 -0.8994 -0.6021
31196WAT    EPW26591  10.618   4.197   4.230 -0.2155 -0.2117 -0.6557
31197WAT      O26592   4.818   5.165   0.418  0.8182 -0.7901 -0.3732
31197WAT     H126593   4.818   5.238   0.357  0.9741 -0.9837 -0.6079
31197WAT     H226594   4.860   5.093   0.370  0.5147 -1.0825 -0.2095
31197WAT    EPW26595   4.824   5.165   0.403  0.7985 -0.8543 -0.3825
31198WAT      O26596  10.639   5.523   6.762  0.7068 -0.9020  0.1303
31198WAT     H126597  10.670   5.566   6.842 -0.7578 -0.5350  0.5182
31198WAT     H226598  10.546   5.508   6.777 -0.1018  1.0240 -2.2877
31198WAT    EPW26599  10.631   5.526   6.775  0.4067 -0.5996 -0.1376
31199WAT      O26600   4.609   8.239   2.081  0.4068 -0.0260  0.2551
31199WAT     H126601   4.535   8.295   2.058 -0.6118 -1.6174 -0.5694
31199WAT     H226602   4.632   8.264   2.171 -0.9769  0.6767  0.4337
31199WAT    EPW26603   4.602   8.250   2.090  0.0901 -0.1435  0.1699
31200WAT      O26604   4.031   9.267   1.881  0.0599 -0.5746 -0.1447
31200WAT     H126605   4.047   9.357   1.852  1.6127 -0.6771  0.3068
31200WAT     H226606   4.113   9.221   1.863  0.3107 -1.2034  2.2804
31200WAT    EPW26607   4.044   9.273   1.875  0.2980 -0.6714  0.2347
31201WAT      O26608   6.960   1.967   1.852 -0.0707 -0.1793 -0.2940
31201WAT     H126609   7.052   1.965   1.828  0.1755  0.0617  0.5935
31201WAT     H226610   6.960   1.977   1.947 -1.0078 -1.0102 -0.1935
31201WAT    EPW26611   6.972   1.968   1.861 -0.1621 -0.2572 -0.1637
31202WAT      O26612   4.184   9.923   2.334  0.6331  0.0486  0.2968
31202WAT     H126613   4.181   9.902   2.241  1.1837  0.3506  0.2071
31202WAT     H226614   4.255   9.869   2.369 -0.9439 -1.7079  0.9886
31202WAT    EPW26615   4.193   9.913   2.327  0.4976 -0.1431  0.3762
31203WAT      O26616   0.991   6.286   3.509 -0.1111 -0.3370  0.3882
31203WAT     H126617   1.063   6.337   3.547 -0.4990  0.6063 -0.1033
31203WAT     H226618   0.954   6.343   3.442 -2.7010  0.0938  2.0425
31203WAT    EPW26619   0.996   6.300   3.505 -0.5039 -0.1557  0.5417
31204WAT      O26620   4.526   8.690   0.451 -0.2482 -0.4585  0.1396
31204WAT     H126621   4.468   8.614   0.447 -1.5698  0.5258 -0.1361
31204WAT     H226622   4.611   8.657   0.423 -0.2497 -2.2966  2.0231
31204WAT    EPW26623   4.530   8.676   0.447 -0.4227 -0.5717  0.3517
31205WAT      O26624   4.096   0.019   8.130 -0.1202  0.0209 -0.6885
31205WAT     H126625   4.148   0.079   8.184  0.3606 -0.5774 -0.4772
31205WAT     H226626   4.153  -0.056   8.116 -1.1810 -0.9811  0.1683
31205WAT    EPW26627   4.110   0.017   8.135 -0.1969 -0.1901 -0.5484
31206WAT      O26628   6.592   9.816   7.817 -0.3002  0.6329  0.2025
31206WAT     H126629   6.643   9.818   7.736  0.3654 -0.1866  0.5786
31206WAT     H226630   6.510   9.773   7.793  0.1093 -0.0949  0.0575
31206WAT    EPW26631   6.588   9.810   7.803 -0.1583  0.4287  0.2329
31207WAT      O26632   3.314   8.485   2.144 -0.6233 -0.1111 -0.3807
31207WAT     H126633   3.384   8.451   2.201 -0.9619  0.9101  0.6743
31207WAT     H226634   3.357   8.554   2.093 -0.4635 -0.6347 -0.9694
31207WAT    EPW26635   3.329   8.490   2.145 -0.6469 -0.0463 -0.3194
31208WAT      O26636   2.884   1.925   7.109  0.0317  0.3570  0.1675
31208WAT     H126637   2.799   1.943   7.149 -0.0152  1.9549 -0.5558
31208WAT     H226638   2.891   1.990   7.039  1.3399 -0.5217 -0.5512
31208WAT    EPW26639   2.874   1.936   7.105  0.1980  0.4518 -0.0226
31209WAT      O26640   1.901   2.296   7.341  0.6921  0.4912 -0.1696
31209WAT     H126641   1.852   2.216   7.325 -0.5487  1.2090 -0.0381
31209WAT     H226642   1.980   2.287   7.287  2.7780 -2.7064  2.9483
31209WAT    EPW26643   1.905   2.284   7.332  0.8035  0.1642  0.2587
31210WAT      O26644   4.313   4.659   0.685  0.4448  0.4611  0.0350
31210WAT     H126645   4.258   4.707   0.624  0.6775 -0.5580 -1.0157
31210WAT     H226646   4.250   4.616   0.745  0.0182 -0.9777 -1.3662
31210WAT    EPW26647   4.297   4.659   0.685  0.4191  0.1369 -0.2884
31211WAT      O26648   2.680   7.787   1.361 -0.2020  0.4342  0.7007
31211WAT     H126649   2.658   7.880   1.359  2.8678  1.2753 -0.7894
31211WAT     H226650   2.745   7.779   1.431 -0.5517 -0.6499  0.9246
31211WAT    EPW26651   2.686   7.798   1.370  0.1566  0.4017  0.5336
31212WAT      O26652   3.735   7.228   1.997 -0.6325 -0.7161 -0.5270
31212WAT     H126653   3.712   7.247   1.906 -0.3518 -2.3924 -0.9958
31212WAT     H226654   3.806   7.288   2.017  2.4774 -3.1718 -2.9840
31212WAT    EPW26655   3.742   7.238   1.988 -0.1854 -1.2610 -0.9129
31213WAT      O26656  10.549   1.671   5.801 -0.2563 -0.5472  0.4222
31213WAT     H126657  10.490   1.740   5.771  0.9641  1.1519  1.7766
31213WAT     H226658  10.491   1.608   5.845 -1.1389  0.9676  1.5481
31213WAT    EPW26659  10.533   1.672   5.803 -0.2117 -0.1234  0.7493
31214WAT      O26660   0.913   1.785   7.806 -0.2332  0.0333  0.2869
31214WAT     H126661   0.858   1.707   7.804  1.7109 -1.5453  2.6888
31214WAT     H226662   0.994   1.759   7.761 -0.1732  1.2678 -0.3797
31214WAT    EPW26663   0.916   1.771   7.800  0.0311 -0.0120  0.5159
31215WAT      O26664   2.558   8.863   1.884  0.7505  0.0481 -0.4274
31215WAT     H126665   2.583   8.773   1.863  0.8469 -0.0612  0.1519
31215WAT     H226666   2.471   8.873   1.845  0.0104 -0.8408  0.9500
31215WAT    EPW26667   2.550   8.852   1.876  0.6655 -0.0839 -0.1693
31216WAT      O26668   0.363   6.978   2.163 -0.9567  0.5036 -0.2795
31216WAT     H126669   0.432   6.925   2.204 -0.1862  2.5617  1.2477
31216WAT     H226670   0.369   6.958   2.070 -2.2187 -3.7808  0.3399
31216WAT    EPW26671   0.373   6.968   2.156 -1.0215  0.2100  0.0037
31217WAT      O26672   0.058   3.061   8.053 -1.2539 -0.6934  0.8403
31217WAT     H126673   0.089   3.143   8.013 -2.0675 -0.7998 -0.0327
31217WAT     H226674   0.127   3.038   8.116 -0.8956  0.5284  0.9233
31217WAT    EPW26675   0.071   3.069   8.056 -1.3139 -0.5463  0.7358
31218WAT      O26676   0.355   6.077   3.554  0.2185  0.2019  0.2249
31218WAT     H126677   0.443   6.094   3.520  0.1260 -2.1931 -1.4834
31218WAT     H226678   0.360   5.987   3.588 -1.5367  0.0839  0.2624
31218WAT    EPW26679   0.367   6.067   3.554 -0.0252 -0.1297  0.0046
31219WAT      O26680   6.000   9.659   7.489 -0.0675  0.0280 -0.2066
31219WAT     H126681   6.040   9.735   7.531 -1.0076  1.0428 -1.0833
31219WAT     H226682   6.009   9.588   7.553 -0.1699  1.1515  1.0830
31219WAT    EPW26683   6.006   9.659   7.503 -0.2050  0.3104 -0.1521
31220WAT      O26684  10.534   1.713   7.287  0.1684 -0.1550  0.3282
31220WAT     H126685  10.544   1.621   7.310  3.5154 -0.3259 -1.2734
31220WAT     H226686  10.484   1.712   7.205 -0.6606 -0.4202  0.8193
31220WAT    EPW26687  10.528   1.701   7.280  0.5007 -0.2126  0.1817
31221WAT      O26688   5.679   6.260   1.393 -0.0318  0.7501  1.1068
31221WAT     H126689   5.757   6.251   1.447 -0.7049 -0.9294  1.8753
31221WAT     H226690   5.630   6.179   1.407  1.1010 -1.2918 -4.3096
31221WAT    EPW26691   5.683   6.248   1.402  0.0288  0.2594  0.4938
31222WAT      O26692   2.364   2.447   5.655 -0.1346 -0.1257 -0.4968
31222WAT     H126693   2.387   2.500   5.731 -2.4812 -0.1970  0.3428
31222WAT     H226694   2.318   2.508   5.597  0.8072 -0.3009 -1.4729
31222WAT    EPW26695   2.361   2.462   5.657 -0.3198 -0.1582 -0.5147
31223WAT      O26696   5.033   9.419   4.153  0.0176 -0.3032  0.0017
31223WAT     H126697   5.082   9.423   4.235 -0.7058  0.1816  0.4247
31223WAT     H226698   5.095   9.446   4.086  0.4008  0.0592  0.4978
31223WAT    EPW26699   5.047   9.423   4.155 -0.0272 -0.1912  0.1228
31224WAT      O26700   6.881   7.692   2.155 -0.4677 -0.0212  0.1316
31224WAT     H126701   6.854   7.688   2.063 -0.5606 -2.2206  0.1984
31224WAT     H226702   6.840   7.615   2.195 -0.4205  0.8869  2.0322
31224WAT    EPW26703   6.872   7.681   2.148 -0.4737 -0.1915  0.3911
31225WAT      O26704   6.089  10.264   6.641 -0.0572  0.0311  0.5460
31225WAT     H126705   6.151  10.258   6.714 -0.6361 -0.8515  0.9860
31225WAT     H226706   6.028  10.333   6.666  1.1987  1.5172 -0.2755
31225WAT    EPW26707   6.089  10.272   6.654  0.0322  0.1106  0.4957
31226WAT      O26708   6.956   0.273   1.191 -0.2698  0.3793  0.1710
31226WAT     H126709   6.961   0.181   1.163  0.6517 -0.5298  2.9646
31226WAT     H226710   7.038   0.311   1.162 -0.1453  0.0113  0.0269
31226WAT    EPW26711   6.967   0.266   1.183 -0.1318  0.2108  0.5205
31227WAT      O26712   0.251   9.461   0.579  0.1000  0.1635  0.2322
31227WAT     H126713   0.303   9.382   0.587 -1.7354 -1.0161  1.2466
31227WAT     H226714   0.251   9.481   0.486  0.0212 -1.4516 -0.1311
31227WAT    EPW26715   0.258   9.453   0.568 -0.1524 -0.2050  0.3181
31228WAT      O26716   2.252   6.743   1.236  0.0070 -0.1342 -0.3579
31228WAT     H126717   2.331   6.794   1.254  0.8768 -2.1231  2.1292
31228WAT     H226718   2.181   6.792   1.279 -0.0723  1.2859 -1.9914
31228WAT    EPW26719   2.253   6.756   1.244  0.1111 -0.2091 -0.2454
31229WAT      O26720   6.979   8.751   7.880  0.1878 -0.4873 -0.0584
31229WAT     H126721   7.024   8.679   7.925 -0.0322 -2.0431 -2.1312
31229WAT     H226722   6.999   8.736   7.787  0.0431  2.1216 -0.5674
31229WAT    EPW26723   6.987   8.739   7.873  0.1397 -0.3486 -0.3989
31230WAT      O26724   5.719   8.482   3.466 -0.0691 -0.2249  0.1268
31230WAT     H126725   5.766   8.564   3.451  2.2834 -1.5653 -0.4072
31230WAT     H226726   5.663   8.472   3.389  0.4303  0.3686 -0.3239
31230WAT    EPW26727   5.718   8.492   3.454  0.3071 -0.3238 -0.0030
31231WAT      O26728   7.600   4.959   1.294 -0.6544  0.2878  0.6371
31231WAT     H126729   7.607   5.046   1.334  1.0490 -0.1202  1.3141
31231WAT     H226730   7.638   4.970   1.207  0.0426  0.1269  0.9127
31231WAT    EPW26731   7.606   4.972   1.288 -0.3378  0.2127  0.7628
31232WAT      O26732   6.193   1.509   0.929  0.9094  0.7110 -0.2948
31232WAT     H126733   6.137   1.437   0.958  2.0743  1.1081  3.4411
31232WAT     H226734   6.134   1.584   0.923  0.3502  0.2717 -0.3955
31232WAT    EPW26735   6.178   1.510   0.932  0.9894  0.7054  0.1847
31233WAT      O26736   7.119   7.512   1.114  0.0938  0.1903 -0.6336
31233WAT     H126737   7.083   7.519   1.025 -1.4589  2.6654  0.0712
31233WAT     H226738   7.148   7.421   1.122 -0.6170 -0.3474 -3.3262
31233WAT    EPW26739   7.118   7.501   1.103 -0.2046  0.4456 -0.8957
31234WAT      O26740   8.987   2.873   8.591  0.6667  0.7789  0.1581
31234WAT     H126741   9.065   2.927   8.604  0.6075  0.8597  0.1792
31234WAT     H226742   8.940   2.878   8.674  0.8262  0.4277  0.2736
31234WAT    EPW26743   8.991   2.880   8.603  0.6800  0.7432  0.1764
31235WAT      O26744   0.491   1.629   6.111 -0.3647  0.3986 -0.0553
31235WAT     H126745   0.566   1.652   6.166 -0.4763 -0.9842  0.6962
31235WAT     H226746   0.505   1.537   6.088  0.1249  1.1227 -3.0743
31235WAT    EPW26747   0.503   1.620   6.115 -0.3148  0.3117 -0.3545
31236WAT      O26748   4.599   6.679   0.570 -0.6442  0.8396 -0.3700
31236WAT     H126749   4.517   6.728   0.575 -0.8582  0.5619 -1.0468
31236WAT     H226750   4.647   6.704   0.649 -1.6578  0.4812  0.3721
31236WAT    EPW26751   4.594   6.689   0.581 -0.8063  0.7558 -0.3614
31237WAT      O26752   3.151   9.199   6.067 -0.1487  0.6374 -0.1252
31237WAT     H126753   3.100   9.127   6.104  1.9001 -0.5958  0.4919
31237WAT     H226754   3.124   9.205   5.976 -1.0488 -0.2638  0.0738
31237WAT    EPW26755   3.141   9.190   6.060  0.0029  0.3562 -0.0176
31238WAT      O26756   4.330   6.206   0.688 -0.0886  0.2175  0.1065
31238WAT     H126757   4.280   6.153   0.626 -1.0875  0.9597  0.2617
31238WAT     H226758   4.266   6.267   0.725  0.9667  1.3460  0.1416
31238WAT    EPW26759   4.315   6.207   0.685 -0.0811  0.4642  0.1316
31239WAT      O26760   1.306   2.755   7.857 -0.0979 -0.1344  0.4559
31239WAT     H126761   1.260   2.788   7.935  2.4809  1.6012  1.4136
31239WAT     H226762   1.284   2.817   7.788 -0.6944 -0.4301  0.3773
31239WAT    EPW26763   1.297   2.768   7.858  0.1635  0.0556  0.5720
31240WAT      O26764   2.386   7.579   2.732  0.6728  0.3250 -0.1522
31240WAT     H126765   2.291   7.584   2.747  0.8546  0.6491  0.9000
31240WAT     H226766   2.399   7.626   2.649 -0.3558 -1.6659 -1.5304
31240WAT    EPW26767   2.375   7.586   2.723  0.5611  0.1049 -0.1951
31241WAT      O26768   9.657  10.053   8.808  0.5779 -0.0588 -1.2046
31241WAT     H126769   9.628  10.139   8.777 -0.7166 -0.3781 -0.9507
31241WAT     H226770   9.576  10.005   8.824  1.2730 -1.1158 -0.7375
31241WAT    EPW26771   9.642  10.058   8.806  0.4992 -0.2403 -1.1091
31242WAT      O26772   8.862   3.209   7.420 -0.7245  0.0443  0.4118
31242WAT     H126773   8.813   3.290   7.408 -2.1635 -0.7762  0.5616
31242WAT     H226774   8.938   3.235   7.473  0.5736  1.8765 -2.1610
31242WAT    EPW26775   8.866   3.223   7.426 -0.7434  0.1777  0.0923
31243WAT      O26776   6.219   3.712   0.559  0.0160  0.0813  0.3651
31243WAT     H126777   6.152   3.762   0.512 -0.5627 -0.1786  0.8951
31243WAT     H226778   6.263   3.777   0.614  0.4970  0.3320 -0.3062
31243WAT    EPW26779   6.216   3.727   0.560  0.0033  0.0801  0.3465
31244WAT      O26780   3.704   0.876   8.641 -0.5431 -0.4151 -0.9044
31244WAT     H126781   3.767   0.837   8.580  0.2741  1.8176 -1.6025
31244WAT     H226782   3.743   0.861   8.727 -0.4176 -1.3682 -1.1105
31244WAT    EPW26783   3.718   0.869   8.644 -0.4188 -0.2463 -1.0238
31245WAT      O26784   1.552   8.424   0.674 -0.1869  0.1223  0.2867
31245WAT     H126785   1.477   8.476   0.643  1.1828  2.4420  0.6051
31245WAT     H226786   1.515   8.365   0.739 -1.8216  0.8867  0.1072
31245WAT    EPW26787   1.537   8.423   0.679 -0.2218  0.5288  0.3050
31246WAT      O26788   4.558   8.466   4.797 -0.4999  1.2645  0.1166
31246WAT     H126789   4.496   8.430   4.861 -0.6374  0.7215 -0.3105
31246WAT     H226790   4.504   8.522   4.741 -0.3664  1.7952  0.5127
31246WAT    EPW26791   4.543   8.469   4.798 -0.5002  1.2627  0.1128
31247WAT      O26792   3.638   0.225   0.971  0.0947  0.5308  0.5286
31247WAT     H126793   3.590   0.155   1.016 -1.1378  1.4234  0.6349
31247WAT     H226794   3.583   0.302   0.980  1.2658  1.4485  0.0960
31247WAT    EPW26795   3.624   0.226   0.978  0.0867  0.7695  0.4856
31248WAT      O26796   7.217   3.925   3.331 -0.2946 -0.4089  0.0622
31248WAT     H126797   7.298   3.883   3.359 -0.1242 -0.4259 -0.4416
31248WAT     H226798   7.192   3.981   3.405  1.7935  1.9345 -0.8455
31248WAT    EPW26799   7.224   3.927   3.344  0.0033 -0.1020 -0.1241
31249WAT      O26800   6.807   5.901   0.726  0.2533  0.4660  0.5321
31249WAT     H126801   6.815   5.832   0.660  2.0498  0.6758  0.4797
31249WAT     H226802   6.735   5.872   0.782 -0.7983 -0.1066 -1.0152
31249WAT    EPW26803   6.798   5.888   0.724  0.3514  0.4182  0.3211
31250WAT      O26804   1.871   3.128   8.475  0.1476  0.2401 -0.0287
31250WAT     H126805   1.916   3.051   8.440  1.7986  1.2442 -0.2520
31250WAT     H226806   1.781   3.120   8.443  0.8888 -0.3413 -2.1331
31250WAT    EPW26807   1.865   3.117   8.466  0.4631  0.2958 -0.3357
31251WAT      O26808   2.718   6.423   0.857 -0.0218  0.4687 -0.1281
31251WAT     H126809   2.728   6.400   0.765 -1.1498 -0.0091 -0.1507
31251WAT     H226810   2.683   6.343   0.898  0.0842  0.8005  0.6369
31251WAT    EPW26811   2.715   6.409   0.850 -0.1566  0.4492 -0.0302
31252WAT      O26812   9.284   3.611   7.780 -0.0052  0.1977 -1.1032
31252WAT     H126813   9.199   3.570   7.797  0.5815  0.0504  1.9242
31252WAT     H226814   9.344   3.568   7.841  1.7654  1.8861 -1.5586
31252WAT    EPW26815   9.281   3.600   7.790  0.3061  0.4008 -0.7639
31253WAT      O26816   8.735   1.819   0.520 -0.9315 -0.1144  0.2136
31253WAT     H126817   8.665   1.792   0.579 -2.1368  0.6879 -0.7821
31253WAT     H226818   8.812   1.830   0.577 -2.5722  2.8867  2.1088
31253WAT    EPW26819   8.736   1.817   0.535 -1.3075  0.3873  0.3322
31254WAT      O26820   5.711   7.469   0.904 -0.4665 -0.5006  0.2443
31254WAT     H126821   5.772   7.521   0.852 -1.0386 -2.5527 -2.7869
31254WAT     H226822   5.678   7.529   0.970  1.6220  1.8620 -0.7024
31254WAT    EPW26823   5.715   7.484   0.905 -0.2666 -0.4597 -0.2803
31255WAT      O26824   6.684   9.457   3.284  0.0163 -0.2671  0.2291
31255WAT     H126825   6.712   9.522   3.349 -0.9866  0.3619  0.0658
31255WAT     H226826   6.588   9.455   3.292  0.0041 -1.4270 -0.0663
31255WAT    EPW26827   6.675   9.466   3.293 -0.1173 -0.3371  0.1687
31256WAT      O26828   1.581   3.150   6.573 -0.1027 -0.0647 -0.1846
31256WAT     H126829   1.489   3.174   6.565 -0.7506 -2.1115  0.4837
31256WAT     H226830   1.600   3.103   6.492 -0.2522 -1.3645  0.5047
31256WAT    EPW26831   1.572   3.147   6.561 -0.2079 -0.5060 -0.0055
31257WAT      O26832   3.246   9.614   3.640 -0.3086 -0.0163 -0.3748
31257WAT     H126833   3.298   9.682   3.597 -0.2956  0.1978 -0.0154
31257WAT     H226834   3.174   9.661   3.682 -1.6284 -0.4265 -2.0463
31257WAT    EPW26835   3.244   9.629   3.640 -0.4809 -0.0420 -0.5478
31258WAT      O26836   6.281   9.571   0.436 -0.6444 -0.2420  0.3681
31258WAT     H126837   6.274   9.526   0.520 -0.3094 -1.3619 -0.1835
31258WAT     H226838   6.204   9.542   0.387  0.0932 -1.0487 -0.3592
31258WAT    EPW26839   6.270   9.561   0.440 -0.5028 -0.4964  0.1994
31259WAT      O26840   6.093   9.908   1.320 -0.1018  0.5612  0.2254
31259WAT     H126841   6.176   9.896   1.367 -0.6075  3.1586  2.0314
31259WAT     H226842   6.061   9.993   1.350 -3.1820 -0.0959 -0.8275
31259WAT    EPW26843   6.100   9.918   1.330 -0.5748  0.8168  0.3248
31260WAT      O26844   2.963   9.647   2.391  0.2884  0.6219  0.0829
31260WAT     H126845   2.925   9.735   2.386  0.2884  0.6053 -0.2825
31260WAT     H226846   2.922   9.599   2.319  1.9021  0.9689 -1.1512
31260WAT    EPW26847   2.953   9.652   2.381  0.5013  0.6657 -0.1280
31261WAT      O26848   7.152   8.876   2.766 -1.2427 -0.0302  0.3205
31261WAT     H126849   7.067   8.847   2.734 -1.3568  2.7683 -2.3905
31261WAT     H226850   7.215   8.816   2.726 -1.6697  1.1348 -2.2911
31261WAT    EPW26851   7.149   8.864   2.757 -1.3139  0.4926 -0.3815
31262WAT      O26852   2.770   4.027   6.102  0.1593 -0.8084 -0.2673
31262WAT     H126853   2.776   3.938   6.137  1.0575 -1.8428 -2.8498
31262WAT     H226854   2.853   4.042   6.057 -1.0261  0.2476 -2.2648
31262WAT    EPW26855   2.782   4.018   6.101  0.1212 -0.8059 -0.8717
31263WAT      O26856   3.465   7.453   3.880 -0.3451 -0.3307  0.6948
31263WAT     H126857   3.447   7.539   3.917  1.1094  0.1312  0.3569
31263WAT     H226858   3.378   7.415   3.866 -1.0811  1.6238 -0.4503
31263WAT    EPW26859   3.451   7.459   3.883 -0.2503 -0.0119  0.4991
31264WAT      O26860   6.175   1.633   0.199 -0.0532 -0.2789 -0.2906
31264WAT     H126861   6.229   1.688   0.143 -1.7474  1.9251  0.1192
31264WAT     H226862   6.214   1.642   0.286 -1.6350  2.3187  0.2600
31264WAT    EPW26863   6.187   1.641   0.203 -0.4854  0.3544 -0.1640
31265WAT      O26864   9.717   1.539   7.801  0.0322  0.3834 -0.8199
31265WAT     H126865   9.715   1.445   7.823  1.3535  0.6631  0.7704
31265WAT     H226866   9.737   1.541   7.708  0.4710 -0.9373 -0.7849
31265WAT    EPW26867   9.720   1.527   7.792  0.2642  0.2461 -0.6058
31266WAT      O26868   3.218   6.946   1.889  0.1013  0.3676  0.4998
31266WAT     H126869   3.211   6.851   1.886 -0.9698  0.3858  1.6508
31266WAT     H226870   3.195   6.969   1.979 -1.4001  1.8192 -0.1993
31266WAT    EPW26871   3.214   6.937   1.900 -0.2379  0.5615  0.5593
31267WAT      O26872   0.243   4.251   8.613 -0.0495 -0.3779 -0.1472
31267WAT     H126873   0.312   4.186   8.624 -1.1784 -1.7201 -0.7440
31267WAT     H226874   0.194   4.223   8.536 -0.7915  0.9852 -0.2143
31267WAT    EPW26875   0.246   4.239   8.605 -0.2962 -0.3753 -0.2351
31268WAT      O26876   1.834   9.737   1.561  0.5326  0.6166  0.4043
31268WAT     H126877   1.858   9.765   1.649  0.4280 -0.7503  0.8926
31268WAT     H226878   1.897   9.780   1.504 -0.1342  2.4730  1.0066
31268WAT    EPW26879   1.845   9.746   1.565  0.4308  0.6809  0.5481
31269WAT      O26880   9.668   4.228   8.440  0.5099  0.6287 -0.3096
31269WAT     H126881   9.680   4.222   8.535 -0.3665 -3.0299 -0.2709
31269WAT     H226882   9.717   4.153   8.406 -0.3301  1.0738 -2.6284
31269WAT    EPW26883   9.676   4.217   8.448  0.2837  0.2048 -0.6104
31270WAT      O26884   4.018   8.486   1.178  0.6130  0.8099 -0.1024
31270WAT     H126885   3.946   8.528   1.132 -0.8968 -0.3053  1.1267
31270WAT     H226886   3.976   8.429   1.242  2.5760 -0.6530  0.0022
31270WAT    EPW26887   4.003   8.484   1.180  0.6728  0.4697  0.0735
31271WAT      O26888   0.740   0.858   8.696 -0.0776  0.1492  0.5879
31271WAT     H126889   0.765   0.861   8.788  0.0372 -2.1708  0.6762
31271WAT     H226890   0.733   0.950   8.671  0.2875  0.8408  2.7852
31271WAT    EPW26891   0.742   0.871   8.705 -0.0142 -0.0656  0.8898
31272WAT      O26892   1.432   2.783   8.679  0.3998 -0.1389 -0.0800
31272WAT     H126893   1.353   2.781   8.625  1.1722  0.1715 -1.2675
31272WAT     H226894   1.400   2.800   8.767 -0.8898 -0.4697 -0.4557
31272WAT    EPW26895   1.417   2.785   8.683  0.3316 -0.1417 -0.2861
31273WAT      O26896   9.532   1.085   1.602  0.2402  0.2646 -0.5067
31273WAT     H126897   9.445   1.097   1.639  0.1332 -0.1292 -0.6185
31273WAT     H226898   9.579   1.034   1.667 -0.1649 -1.0268 -1.1860
31273WAT    EPW26899   9.527   1.080   1.615  0.1726  0.0424 -0.6111
31274WAT      O26900   4.283   8.915   0.912  0.2298  0.1432  0.0345
31274WAT     H126901   4.239   8.998   0.928  0.2290  0.0226  0.6539
31274WAT     H226902   4.285   8.908   0.816 -2.2052 -0.4395 -0.0362
31274WAT    EPW26903   4.278   8.925   0.901 -0.0916  0.0505  0.1069
31275WAT      O26904   5.013   5.954   3.770 -0.1251 -0.2250 -0.6039
31275WAT     H126905   5.087   6.010   3.794 -1.5115  1.4328  0.0248
31275WAT     H226906   5.044   5.865   3.786  0.9313  0.5199  1.9720
31275WAT    EPW26907   5.027   5.949   3.775 -0.1686  0.0918 -0.1812
31276WAT      O26908   6.473   6.864   2.543  0.7042  0.0254  0.3566
31276WAT     H126909   6.473   6.816   2.625 -1.1144 -0.6257  0.0265
31276WAT     H226910   6.552   6.835   2.498  1.6294  0.2638  1.7707
31276WAT    EPW26911   6.483   6.854   2.548  0.5863 -0.0293  0.4996
31277WAT      O26912   4.745   9.179   1.735 -0.6518  0.6134 -0.0949
31277WAT     H126913   4.672   9.215   1.685 -0.9622  1.0553  0.6584
31277WAT     H226914   4.704   9.113   1.792 -1.1166  3.2748  2.9071
31277WAT    EPW26915   4.730   9.175   1.736 -0.7541  1.0233  0.4004
31278WAT      O26916   8.492   0.403   3.715 -0.2870 -0.4278  0.3470
31278WAT     H126917   8.399   0.410   3.692  0.0258 -0.0952 -0.8664
31278WAT     H226918   8.493   0.347   3.793 -1.4493 -0.9461  0.0055
31278WAT    EPW26919   8.480   0.397   3.722 -0.3996 -0.4523  0.1419
31279WAT      O26920   6.013   8.009   1.305 -0.8323 -0.0296  0.0832
31279WAT     H126921   5.998   8.044   1.392 -0.7432 -0.0304  0.0995
31279WAT     H226922   6.051   8.082   1.256  2.3039 -0.8918  0.9638
31279WAT    EPW26923   6.016   8.023   1.310 -0.4070 -0.1431  0.2015
31280WAT      O26924   9.490   5.176   8.743  0.0971 -0.1990 -0.8685
31280WAT     H126925   9.469   5.263   8.778  0.5393 -0.1098 -0.8174
31280WAT     H226926   9.412   5.124   8.762  0.1881 -0.0615 -0.0424
31280WAT    EPW26927   9.477   5.181   8.750  0.1674 -0.1690 -0.7529
31281WAT      O26928   5.972   8.904   0.217  0.3609 -0.0842 -0.4931
31281WAT     H126929   5.991   8.813   0.194 -0.4025 -0.1416 -0.9456
31281WAT     H226930   6.028   8.956   0.160  1.0929 -0.2680  0.0453
31281WAT    EPW26931   5.982   8.899   0.206  0.3567 -0.1159 -0.4818
31282WAT      O26932   8.034   7.859   2.861 -0.0446 -0.3683  0.3412
31282WAT     H126933   8.038   7.774   2.904  5.2095 -0.3470  0.4952
31282WAT     H226934   8.065   7.843   2.772  0.5454  1.2658  0.2126
31282WAT    EPW26935   8.039   7.846   2.855  0.7262 -0.1500  0.3446
31283WAT      O26936   1.178   5.111   8.157  0.0893 -0.3712 -0.2973
31283WAT     H126937   1.198   5.200   8.187  0.4563 -0.1280 -1.2431
31283WAT     H226938   1.233   5.098   8.080 -2.4947 -0.0885 -2.3419
31283WAT    EPW26939   1.187   5.121   8.151 -0.2031 -0.3018 -0.6919
31284WAT      O26940   0.687   6.563   7.872  0.3263 -0.5218  0.5804
31284WAT     H126941   0.622   6.507   7.914 -0.4838  0.1465  0.2361
31284WAT     H226942   0.748   6.586   7.942 -0.8412  0.3349  1.3326
31284WAT    EPW26943   0.687   6.559   7.886  0.0654 -0.3207  0.6340
31285WAT      O26944   0.364   1.813   7.390  0.2975  0.0454 -0.0447
31285WAT     H126945   0.269   1.807   7.400 -0.1822  1.1016 -2.9530
31285WAT     H226946   0.386   1.901   7.419  0.1159  0.3528 -0.8119
31285WAT    EPW26947   0.355   1.823   7.395  0.2103  0.2252 -0.5295
31286WAT      O26948   7.266   7.317   4.512 -0.0359  0.3695  0.3858
31286WAT     H126949   7.342   7.291   4.564  0.6989  2.4226  0.4154
31286WAT     H226950   7.299   7.383   4.452 -1.5417  0.3433 -0.5275
31286WAT    EPW26951   7.281   7.322   4.511 -0.1376  0.6371  0.2692
31287WAT      O26952   6.115   6.459   1.471 -0.5641  0.2965  0.0006
31287WAT     H126953   6.139   6.481   1.381  3.7014 -0.2298  0.7952
31287WAT     H226954   6.077   6.372   1.465  0.3959 -0.0760 -1.2553
31287WAT    EPW26955   6.113   6.451   1.458  0.1249  0.1779 -0.0603
31288WAT      O26956   5.442   6.338   1.168 -0.0999  0.3301 -0.5786
31288WAT     H126957   5.461   6.426   1.137 -2.7460  1.5747  0.9586
31288WAT     H226958   5.482   6.334   1.255  1.7690 -0.8164 -1.4195
31288WAT    EPW26959   5.450   6.349   1.176 -0.2024  0.3431 -0.4867
31289WAT      O26960   1.034   3.191   8.971 -0.6014  0.6298 -0.4151
31289WAT     H126961   1.065   3.276   9.003  1.5125 -0.3391  0.2347
31289WAT     H226962   1.021   3.204   8.877  1.9696  1.0884 -0.7591
31289WAT    EPW26963   1.036   3.204   8.963  0.0165  0.5627 -0.3748
31290WAT      O26964   1.854   6.760   6.569  0.4918  0.4341  0.2552
31290WAT     H126965   1.928   6.818   6.552  0.3344  0.5324 -0.1075
31290WAT     H226966   1.818   6.792   6.653 -0.5522  1.9093 -0.6873
31290WAT    EPW26967   1.859   6.772   6.578  0.3334  0.6418  0.0832
31291WAT      O26968   2.013   5.414   7.641 -0.9523  0.0844  0.3646
31291WAT     H126969   2.087   5.473   7.656 -0.2751 -0.1827 -1.5772
31291WAT     H226970   1.963   5.417   7.722  1.1385  0.3440  1.7222
31291WAT    EPW26971   2.016   5.422   7.653 -0.5872  0.0837  0.2875
31292WAT      O26972   2.356   8.372   0.510  0.1474  0.6369  0.1928
31292WAT     H126973   2.280   8.313   0.509 -1.0547  2.1189 -0.1104
31292WAT     H226974   2.371   8.389   0.603 -0.5668  1.1632  0.2148
31292WAT    EPW26975   2.348   8.366   0.522 -0.1054  0.9017  0.1557
31293WAT      O26976   1.610   4.313   8.704 -0.5271  0.4017 -0.0661
31293WAT     H126977   1.705   4.310   8.717 -0.1968 -1.4166 -2.2689
31293WAT     H226978   1.584   4.401   8.734  2.4654  2.4926 -2.8544
31293WAT    EPW26979   1.619   4.325   8.709 -0.0888  0.4377 -0.7248
31294WAT      O26980   3.655   0.619   7.878  0.6073 -0.2417 -0.3142
31294WAT     H126981   3.662   0.650   7.968  2.0134 -1.4604  0.0245
31294WAT     H226982   3.733   0.566   7.864  0.9095  0.6825 -2.5664
31294WAT    EPW26983   3.666   0.616   7.888  0.8327 -0.2806 -0.5667
31295WAT      O26984   2.366   7.141   1.352 -0.3164  0.3527  0.0060
31295WAT     H126985   2.371   7.190   1.270  0.9820  0.5398  0.1752
31295WAT     H226986   2.311   7.194   1.408 -3.2164 -0.8711 -1.4328
31295WAT    EPW26987   2.359   7.154   1.348 -0.5276  0.2158 -0.1615
31296WAT      O26988   2.570   9.544   3.548  0.0720 -0.0747  0.0740
31296WAT     H126989   2.608   9.631   3.558 -0.0507  0.0511 -0.5652
31296WAT     H226990   2.643   9.484   3.565  0.5376  0.1683 -1.0292
31296WAT    EPW26991   2.585   9.547   3.552  0.1172 -0.0267 -0.1557
31297WAT      O26992   4.088   8.136   2.989  0.1587 -0.2647  0.7640
31297WAT     H126993   4.036   8.204   3.032  1.2574  0.8609  0.3725
31297WAT     H226994   4.109   8.172   2.903  2.0038 -0.4531  1.0959
31297WAT    EPW26995   4.084   8.150   2.983  0.5472 -0.1411  0.7561
31298WAT      O26996   4.453   5.660   2.622 -0.9808  0.1791 -0.3254
31298WAT     H126997   4.371   5.618   2.597  0.6336 -2.3264 -1.9652
31298WAT     H226998   4.470   5.724   2.554 -1.2164  0.1352 -0.4239
31298WAT    EPW26999   4.444   5.663   2.610 -0.7989 -0.1574 -0.5547
31299WAT      O27000   0.393   7.307   8.702 -0.1439  0.3625 -0.0716
31299WAT     H127001   0.459   7.261   8.754 -0.4406  0.3691  0.3187
31299WAT     H227002   0.382   7.254   8.623 -1.6867 -1.1615  1.0977
31299WAT    EPW27003   0.401   7.294   8.699 -0.3865  0.1624  0.1340
31300WAT      O27004   2.195   4.901   2.072 -0.2262  0.1175 -0.0450
31300WAT     H127005   2.164   4.907   1.981  0.6481  2.0506 -0.2624
31300WAT     H227006   2.114   4.896   2.124 -0.7623 -0.0936 -0.8699
31300WAT    EPW27007   2.180   4.901   2.067 -0.1816  0.3448 -0.1825
31301WAT      O27008   5.561   6.001   3.817  0.1358 -0.3624 -0.6647
31301WAT     H127009   5.646   5.962   3.794  0.5845  0.4837 -0.4908
31301WAT     H227010   5.577   6.095   3.813 -0.4691 -0.1892  0.5781
31301WAT    EPW27011   5.575   6.008   3.813  0.1154 -0.2279 -0.4778
31302WAT      O27012   3.003   6.473   2.665 -1.0118 -0.7099  0.1235
31302WAT     H127013   3.002   6.386   2.627 -0.6510 -0.2226 -1.0417
31302WAT     H227014   3.049   6.462   2.749  2.2656 -1.0821 -1.5333
31302WAT    EPW27015   3.009   6.460   2.671 -0.5319 -0.6948 -0.2487
31303WAT      O27016   6.472   1.030   0.346 -0.0007  0.0361  0.3817
31303WAT     H127017   6.511   1.028   0.434 -1.9491 -0.1341  1.2953
31303WAT     H227018   6.431   0.944   0.336 -1.0314  0.5688 -0.0897
31303WAT    EPW27019   6.472   1.018   0.356 -0.3934  0.0839  0.4400
31304WAT      O27020   1.915   0.219   6.824  0.3252  0.4896  0.5384
31304WAT     H127021   1.854   0.292   6.835 -0.6791 -0.5855  2.7025
31304WAT     H227022   1.985   0.237   6.888  1.0742  0.5078 -0.2697
31304WAT    EPW27023   1.916   0.231   6.834  0.2915  0.3502  0.7172
31305WAT      O27024   3.384   8.049   0.098 -0.3594 -0.9053  0.7198
31305WAT     H127025   3.299   8.010   0.079 -0.7418  0.2326 -0.0151
31305WAT     H227026   3.364   8.123   0.156  0.1644 -0.8447  0.8267
31305WAT    EPW27027   3.370   8.054   0.104 -0.3408 -0.7467  0.6370
31306WAT      O27028   2.960   5.350   8.184 -0.5997  0.4400 -0.4053
31306WAT     H127029   2.997   5.357   8.096  0.2546 -1.2342 -0.2026
31306WAT     H227030   3.028   5.384   8.241  0.5676 -2.2400 -0.0721
31306WAT    EPW27031   2.974   5.356   8.180 -0.3332 -0.1342 -0.3347
31307WAT      O27032   2.990   2.237   7.491 -0.0497  0.4579  0.7566
31307WAT     H127033   2.997   2.324   7.451 -1.0200  1.2684  2.2970
31307WAT     H227034   3.005   2.252   7.584 -1.5424 -0.8091  1.2387
31307WAT    EPW27035   2.993   2.250   7.498 -0.3746  0.3978  1.0233
31308WAT      O27036   4.006   8.808   2.481 -0.1239 -0.0888  0.0651
31308WAT     H127037   4.096   8.776   2.480  0.1847  0.7028 -2.0847
31308WAT     H227038   3.972   8.781   2.567  2.1523 -0.3646  0.9468
31308WAT    EPW27039   4.013   8.800   2.492  0.2174 -0.0215 -0.1020
31309WAT      O27040  10.621   5.748   8.361 -0.4028 -0.0458 -0.2227
31309WAT     H127041  10.671   5.756   8.442  0.6310  2.0320 -0.9782
31309WAT     H227042  10.625   5.835   8.322 -1.0652 -0.9203 -2.3917
31309WAT    EPW27043  10.628   5.760   8.366 -0.3543  0.1128 -0.6084
31310WAT      O27044   5.278   8.082   1.536 -0.3041  0.4105 -0.4234
31310WAT     H127045   5.319   8.091   1.450  1.4535 -0.1860  0.2880
31310WAT     H227046   5.277   7.988   1.552  0.9529  0.5833  0.8766
31310WAT    EPW27047   5.284   8.071   1.527  0.0935  0.3543 -0.1581
31311WAT      O27048   4.816   5.526   3.401  0.1896 -0.2632  0.4466
31311WAT     H127049   4.787   5.615   3.421  3.1076  0.8343  0.3365
31311WAT     H227050   4.808   5.479   3.484 -1.9562 -0.1267  0.3631
31311WAT    EPW27051   4.811   5.531   3.415  0.2913 -0.1004  0.4210
31312WAT      O27052   0.575   5.939   6.634  0.5266 -0.5891  0.2401
31312WAT     H127053   0.618   5.870   6.685  1.9425 -1.5943 -2.1620
31312WAT     H227054   0.485   5.907   6.623  0.7588 -1.3120  0.3966
31312WAT    EPW27055   0.569   5.925   6.639  0.7440 -0.8171 -0.0560
31313WAT      O27056   1.976   1.992   8.727 -0.0033  1.0234  0.2464
31313WAT     H127057   2.022   2.013   8.808  2.4892 -2.3424 -0.0656
31313WAT     H227058   1.883   2.001   8.750  0.6090  0.8585  3.2824
31313WAT    EPW27059   1.970   1.996   8.741  0.4063  0.5577  0.6056
31314WAT      O27060   7.097   0.373   3.283  0.5869  0.7282  0.5001
31314WAT     H127061   7.004   0.368   3.264  0.1507 -1.6305  2.7072
31314WAT     H227062   7.101   0.428   3.362  0.9557  0.1134  0.9131
31314WAT    EPW27063   7.085   0.380   3.291  0.5782  0.3360  0.8457
31315WAT      O27064   0.577   7.467   2.319  0.1321 -0.3060  0.3161
31315WAT     H127065   0.495   7.452   2.367 -0.6839  0.5532 -0.7620
31315WAT     H227066   0.645   7.461   2.386 -0.9346  0.3640  1.4993
31315WAT    EPW27067   0.575   7.464   2.334 -0.1163 -0.1047  0.3300
31316WAT      O27068   9.696   1.237   0.087 -0.0739  0.7328  0.7953
31316WAT     H127069   9.617   1.264   0.039  0.7179  2.3753  0.3478
31316WAT     H227070   9.767   1.249   0.024  0.5613 -0.6847  1.2126
31316WAT    EPW27071   9.695   1.242   0.072  0.1143  0.7622  0.7915
31317WAT      O27072   1.326   5.399   7.994 -0.7932 -0.1137 -0.0494
31317WAT     H127073   1.413   5.420   7.960  1.1864 -1.0733  3.7987
31317WAT     H227074   1.271   5.473   7.968  2.0106  2.1653  0.1040
31317WAT    EPW27075   1.330   5.411   7.986 -0.1622  0.0606  0.4785
31318WAT      O27076   3.750   9.654   2.388  0.1465  0.5222  0.1741
31318WAT     H127077   3.695   9.733   2.389  1.6022  1.5798  0.6420
31318WAT     H227078   3.779   9.646   2.297  0.1431  0.6366  0.1629
31318WAT    EPW27079   3.746   9.664   2.377  0.3381  0.6766  0.2345
31319WAT      O27080   0.790   3.513   8.682 -0.1855 -0.4106 -0.1529
31319WAT     H127081   0.713   3.553   8.723 -0.7301 -0.3841 -1.1645
31319WAT     H227082   0.774   3.523   8.588  0.8311 -0.8387 -0.3758
31319WAT    EPW27083   0.777   3.520   8.675 -0.1233 -0.4636 -0.3161
31320WAT      O27084   7.288   1.427   1.328 -0.2969 -0.2478  0.4438
31320WAT     H127085   7.329   1.351   1.287  1.5853 -0.5833  2.7267
31320WAT     H227086   7.303   1.498   1.267  0.0911 -1.2207 -0.6315
31320WAT    EPW27087   7.295   1.426   1.315  0.0026 -0.4203  0.6030
31321WAT      O27088   0.765   5.224   6.851 -0.3408  0.3375 -0.2124
31321WAT     H127089   0.816   5.284   6.796 -1.4859 -0.6246 -2.4569
31321WAT     H227090   0.674   5.248   6.835 -0.7447 -0.5940  0.5595
31321WAT    EPW27091   0.760   5.235   6.842 -0.5451  0.0877 -0.4065
31322WAT      O27092   7.663   1.914   0.179 -0.6378 -0.5240  0.1818
31322WAT     H127093   7.592   1.853   0.198 -0.3508 -0.9506 -0.0574
31322WAT     H227094   7.678   1.903   0.085  0.8773 -1.7356  0.5154
31322WAT    EPW27095   7.656   1.904   0.169 -0.4003 -0.7401  0.1943
31323WAT      O27096  10.824   4.844   6.680  0.3703 -0.0277 -0.0934
31323WAT     H127097  10.761   4.796   6.733 -0.5818 -0.1430 -1.2907
31323WAT     H227098  10.896   4.863   6.741 -0.1172 -1.2145  0.9098
31323WAT    EPW27099  10.825   4.840   6.695  0.1802 -0.1991 -0.1190
31324WAT      O27100   1.804   2.762   8.225 -0.4537 -0.1195  0.2124
31324WAT     H127101   1.771   2.674   8.238 -1.7677 -0.0147 -1.8961
31324WAT     H227102   1.853   2.782   8.305 -0.2041 -2.6902  0.7731
31324WAT    EPW27103   1.806   2.753   8.237 -0.5941 -0.4448  0.0086
31325WAT      O27104   0.871   6.725   1.192  0.1414  0.6136 -0.4790
31325WAT     H127105   0.861   6.794   1.258 -1.6922 -1.2835  1.3756
31325WAT     H227106   0.955   6.684   1.212  0.0326  0.6558  0.0692
31325WAT    EPW27107   0.881   6.729   1.203 -0.1148  0.3691 -0.1621
31326WAT      O27108   3.558   8.822   1.754 -0.0151 -0.0263  0.9191
31326WAT     H127109   3.614   8.864   1.819  1.2944 -0.3179  0.0191
31326WAT     H227110   3.504   8.762   1.804 -1.5183  2.2238  2.1686
31326WAT    EPW27111   3.558   8.820   1.769 -0.0405  0.2317  0.9651
31327WAT      O27112   0.044   1.571   8.890  0.6430  0.3404  0.1713
31327WAT     H127113  -0.021   1.504   8.907  0.6070  0.5622  0.9153
31327WAT     H227114   0.115   1.524   8.845 -0.0156  0.1021 -0.6535
31327WAT    EPW27115   0.045   1.556   8.886  0.5514  0.3382  0.1607
31328WAT      O27116   7.331   6.644   4.107 -0.2449  0.4820 -0.3203
31328WAT     H127117   7.396   6.591   4.153 -2.9627 -1.2504  1.8230
31328WAT     H227118   7.351   6.630   4.014  1.4247 -1.3244  0.2372
31328WAT    EPW27119   7.342   6.635   4.101 -0.3831  0.0153  0.0360
31329WAT      O27120   0.614   5.112   7.684 -0.3857 -0.1625  0.3414
31329WAT     H127121   0.561   5.172   7.737 -1.7505 -0.6662 -0.4144
31329WAT     H227122   0.667   5.064   7.748  0.8570  1.8953  0.9647
31329WAT    EPW27123   0.614   5.113   7.699 -0.4018  0.0424  0.3240
31330WAT      O27124   0.799   1.427   8.405 -0.1714 -0.6463  0.1223
31330WAT     H127125   0.770   1.437   8.495 -0.2109 -0.9454  0.1443
31330WAT     H227126   0.867   1.494   8.394  0.5863 -1.2964  0.6937
31330WAT    EPW27127   0.804   1.437   8.415 -0.0766 -0.7715  0.2003
31331WAT      O27128   5.898   1.230   1.296  0.1999 -0.1287 -0.1638
31331WAT     H127129   5.962   1.255   1.362  0.4911  0.3109 -0.6118
31331WAT     H227130   5.949   1.219   1.216  0.0183 -1.7200 -0.0937
31331WAT    EPW27131   5.913   1.232   1.294  0.2143 -0.2806 -0.2137
31332WAT      O27132  10.003   5.050   6.197  0.0608  0.2146  0.3453
31332WAT     H127133   9.934   5.089   6.250 -0.4472  0.4131 -0.4594
31332WAT     H227134  10.058   5.004   6.261 -0.0868  1.1084  1.1415
31332WAT    EPW27135  10.001   5.049   6.212 -0.0257  0.3586  0.3443
31333WAT      O27136   6.671   6.652   0.746 -0.5090 -0.5771  0.7862
31333WAT     H127137   6.630   6.607   0.821  0.5779 -1.8060  0.6860
31333WAT     H227138   6.626   6.736   0.742 -0.5010 -0.3927  2.9340
31333WAT    EPW27139   6.659   6.657   0.756 -0.3645 -0.7150  1.0563
31334WAT      O27140   5.819   8.437   1.207  0.9322  0.4625 -0.3468
31334WAT     H127141   5.853   8.366   1.153  1.4325 -0.8959  1.6478
31334WAT     H227142   5.753   8.480   1.152  0.0823 -1.9800 -1.3706
31334WAT    EPW27143   5.815   8.434   1.193  0.8860 -0.0386 -0.2187
31335WAT      O27144   3.797   7.125   0.130 -0.3790  0.6783  0.6485
31335WAT     H127145   3.814   7.174   0.050  1.3179 -2.0717 -0.8197
31335WAT     H227146   3.724   7.067   0.109  1.1087 -1.2355  0.4100
31335WAT    EPW27147   3.790   7.124   0.117  0.0411  0.0632  0.4234
31336WAT      O27148   2.781   8.045   1.525 -0.7353 -0.5403 -0.3652
31336WAT     H127149   2.697   8.082   1.550  0.1236  2.8124 -1.8832
31336WAT     H227150   2.842   8.119   1.527  2.1291 -2.7086  0.1867
31336WAT    EPW27151   2.778   8.060   1.528 -0.2443 -0.3839 -0.4926
31337WAT      O27152   2.567   4.252   8.313 -0.8453 -0.2342 -0.1249
31337WAT     H127153   2.515   4.267   8.235 -1.3592  1.9796  0.5791
31337WAT     H227154   2.567   4.336   8.359  0.0111 -1.2715  1.9111
31337WAT    EPW27155   2.560   4.265   8.309 -0.8000 -0.0789  0.2365
31338WAT      O27156   7.340   2.258   3.079 -0.1109 -0.1924 -0.2873
31338WAT     H127157   7.302   2.343   3.058  1.9695  0.6249 -0.9785
31338WAT     H227158   7.312   2.201   3.007  1.0156  0.7379 -1.5044
31338WAT    EPW27159   7.331   2.262   3.066  0.3121  0.0381 -0.5389
31339WAT      O27160   5.219   7.631   0.184 -0.0598 -0.6336 -0.4815
31339WAT     H127161   5.289   7.612   0.246 -1.4292 -1.2667  0.9454
31339WAT     H227162   5.248   7.592   0.101  1.5921 -0.1898 -0.1351
31339WAT    EPW27163   5.232   7.623   0.181 -0.0226 -0.6588 -0.2476
31340WAT      O27164   5.585  10.367   1.599  0.4670  0.4796  0.0281
31340WAT     H127165   5.563  10.327   1.514 -0.0801 -0.2595  0.5055
31340WAT     H227166   5.680  10.360   1.605  0.6551  1.6530 -1.0608
31340WAT    EPW27167   5.595  10.361   1.588  0.4196  0.5369 -0.0526
31341WAT      O27168   6.982   7.162   1.225  0.2498 -0.1247  0.5869
31341WAT     H127169   7.060   7.206   1.261  1.2416 -2.1487  1.0613
31341WAT     H227170   6.965   7.091   1.287  0.7112 -2.4340 -1.7984
31341WAT    EPW27171   6.990   7.159   1.238  0.4416 -0.6964  0.3348
31342WAT      O27172   0.835   0.250   2.294  0.5222  0.2516  0.0066
31342WAT     H127173   0.838   0.155   2.289  0.3968  0.1999  0.7856
31342WAT     H227174   0.770   0.268   2.362 -2.4437  0.9515 -2.7582
31342WAT    EPW27175   0.827   0.240   2.303  0.1144  0.3371 -0.2552
31343WAT      O27176   9.022   0.910   0.707  0.9687 -0.0092 -1.1200
31343WAT     H127177   8.938   0.946   0.733 -0.2794 -2.5966 -1.2734
31343WAT     H227178   9.042   0.953   0.624 -0.0899  0.7584 -0.9997
31343WAT    EPW27179   9.014   0.921   0.700  0.6642 -0.2492 -1.1244
31344WAT      O27180   1.247   4.962   6.985 -0.4457 -0.0165  0.0745
31344WAT     H127181   1.254   5.049   6.945 -0.1820  0.4141  1.0191
31344WAT     H227182   1.192   4.976   7.061 -0.2411 -0.6445  0.3395
31344WAT    EPW27183   1.241   4.976   6.990 -0.3839 -0.0429  0.2337
31345WAT      O27184   4.831   7.526   0.771 -0.0205  0.5286 -0.7103
31345WAT     H127185   4.786   7.546   0.853  1.9110  0.4067  0.4287
31345WAT     H227186   4.859   7.611   0.737  3.7896  0.4002  1.5622
31345WAT    EPW27187   4.829   7.539   0.777  0.7367  0.4957 -0.2604
31346WAT      O27188   1.826   2.031   8.375  0.3326 -0.0192  0.0863
31346WAT     H127189   1.794   1.963   8.434 -2.0392  0.1086 -0.9411
31346WAT     H227190   1.866   2.097   8.432  0.4980 -1.1272  1.2811
31346WAT    EPW27191   1.827   2.031   8.390  0.0415 -0.1484  0.1087
31347WAT      O27192   4.919   7.848   1.614  0.1953 -0.3679  0.6944
31347WAT     H127193   4.969   7.813   1.540 -1.6010 -0.3635 -0.5848
31347WAT     H227194   4.985   7.890   1.670  2.0164 -2.8890  0.6436
31347WAT    EPW27195   4.935   7.849   1.612  0.1988 -0.6998  0.5190
31348WAT      O27196   4.980   7.846   0.906  0.4404  0.7071 -0.9609
31348WAT     H127197   5.022   7.866   0.989 -0.0668 -1.2493 -0.1742
31348WAT     H227198   5.046   7.796   0.857  1.0835  2.6352 -2.1852
31348WAT    EPW27199   4.994   7.842   0.910  0.4582  0.7033 -1.0186
31349WAT      O27200   6.444   9.832   2.334 -0.6292  0.7438  0.3549
31349WAT     H127201   6.415   9.772   2.403  0.3758  1.0461  1.0677
31349WAT     H227202   6.363   9.862   2.292 -1.1635 -1.3821 -0.2788
31349WAT    EPW27203   6.429   9.828   2.337 -0.5672  0.5035  0.3653
31350WAT      O27204   7.998   7.727   2.093 -0.3365 -0.4878  0.7688
31350WAT     H127205   7.957   7.757   2.174 -0.6190  1.0995  0.0701
31350WAT     H227206   8.088   7.757   2.098 -0.6943  0.8031 -0.0606
31350WAT    EPW27207   8.004   7.735   2.104 -0.4210 -0.1082  0.5673
31351WAT      O27208   3.524   1.893   8.728 -0.7051 -0.1272  0.6766
31351WAT     H127209   3.604   1.846   8.750 -1.2566 -1.2591  0.3407
31351WAT     H227210   3.455   1.827   8.735 -1.6552  0.8855  1.2324
31351WAT    EPW27211   3.525   1.878   8.732 -0.9031 -0.1429  0.7057
31352WAT      O27212   2.018   2.433   7.564  0.6769  0.3427 -0.5990
31352WAT     H127213   1.975   2.371   7.506  2.0289 -2.3647  1.0865
31352WAT     H227214   2.108   2.401   7.571  0.8182  1.0682  2.1580
31352WAT    EPW27215   2.024   2.420   7.557  0.8738  0.0814 -0.0129
31353WAT      O27216   7.934   2.544   8.639  0.2720 -0.3051 -0.0607
31353WAT     H127217   7.888   2.465   8.610 -0.7123 -0.0599  0.7966
31353WAT     H227218   7.915   2.550   8.732  0.5802  0.7828 -0.0577
31353WAT    EPW27219   7.925   2.534   8.647  0.1824 -0.1292  0.0529
31354WAT      O27220   7.190   0.256   2.271  0.1373 -0.5076 -0.4968
31354WAT     H127221   7.135   0.322   2.229  0.2943  0.5681  0.8843
31354WAT     H227222   7.170   0.265   2.365  1.2658 -1.3866 -0.1497
31354WAT    EPW27223   7.180   0.266   2.278  0.3068 -0.4817 -0.2688
31355WAT      O27224   8.863   2.054   7.917 -0.0453  1.2325 -0.1244
31355WAT     H127225   8.770   2.031   7.912  0.0947  0.6039  0.0102
31355WAT     H227226   8.866   2.138   7.962 -0.6713  2.1108 -1.6387
31355WAT    EPW27227   8.851   2.062   7.922 -0.1092  1.2655 -0.3064
31356WAT      O27228   5.789   5.059   1.090 -0.5810  0.1487  0.1080
31356WAT     H127229   5.786   4.977   1.040  0.3619 -0.5865  1.1924
31356WAT     H227230   5.702   5.096   1.081 -0.4819  0.0028 -1.9769
31356WAT    EPW27231   5.777   5.053   1.082 -0.4437  0.0324 -0.0240
31357WAT      O27232   4.391   9.526   0.472  0.3421  0.7656 -0.1375
31357WAT     H127233   4.348   9.443   0.493 -0.7750  1.7783  1.7732
31357WAT     H227234   4.451   9.503   0.400  1.9899 -2.2742  1.9650
31357WAT    EPW27235   4.393   9.512   0.465  0.4117  0.4983  0.3918
31358WAT      O27236   5.425   9.090   7.259 -0.6964  0.7770 -0.1161
31358WAT     H127237   5.433   9.127   7.347  3.6586  2.2629 -0.8943
31358WAT     H227238   5.414   9.166   7.202 -3.0141 -0.1389 -1.0229
31358WAT    EPW27239   5.425   9.105   7.263 -0.4277  0.8521 -0.3386
31359WAT      O27240   2.999   6.274   2.125  0.3893  0.3693  0.8006
31359WAT     H127241   2.928   6.336   2.143  1.8732  1.8279  1.9276
31359WAT     H227242   2.996   6.213   2.198 -0.3560 -0.2356  0.2815
31359WAT    EPW27243   2.989   6.275   2.137  0.4867  0.4816  0.8808
31360WAT      O27244   2.557   4.163   5.297 -0.2069 -0.3722  0.3633
31360WAT     H127245   2.486   4.222   5.273 -0.0328 -0.1623  0.3640
31360WAT     H227246   2.514   4.079   5.314 -0.2798 -0.6787 -1.2362
31360WAT    EPW27247   2.542   4.159   5.296 -0.1935 -0.3848  0.1521
31361WAT      O27248   0.960   3.103   7.745 -0.2312 -0.0944 -0.6498
31361WAT     H127249   0.876   3.120   7.788 -0.7881  0.3579 -1.8559
31361WAT     H227250   0.952   3.147   7.661  1.4235  0.3867 -0.5819
31361WAT    EPW27251   0.948   3.111   7.740 -0.0864  0.0288 -0.7999
31362WAT      O27252   5.493   8.679   3.120  0.1561 -0.2542 -0.5155
31362WAT     H127253   5.546   8.675   3.040  0.7138 -1.7865 -0.1034
31362WAT     H227254   5.487   8.772   3.139  0.8733  0.0837 -1.7864
31362WAT    EPW27255   5.499   8.691   3.112  0.3240 -0.4120 -0.6287
31363WAT      O27256   7.711  10.309   1.957 -0.3131 -0.7968 -0.2007
31363WAT     H127257   7.723  10.224   1.915  0.0103 -0.7496 -0.2071
31363WAT     H227258   7.719  10.372   1.885  0.0907 -0.7248 -0.0932
31363WAT    EPW27259   7.713  10.306   1.942 -0.2174 -0.7815 -0.1873
31364WAT      O27260   8.640   3.379   0.605  1.1195  0.3373  0.3960
31364WAT     H127261   8.624   3.338   0.520 -2.6530  0.5572  0.8600
31364WAT     H227262   8.694   3.315   0.652  0.9004 -1.0721 -1.1851
31364WAT    EPW27263   8.645   3.365   0.600  0.5922  0.1805  0.2486
31365WAT      O27264   6.365  10.062   4.221 -1.3421 -0.2952 -0.2736
31365WAT     H127265   6.352  10.129   4.289 -0.6649 -0.6946  0.2611
31365WAT     H227266   6.276  10.040   4.193 -1.9200 -2.3077  2.6564
31365WAT    EPW27267   6.352  10.068   4.226 -1.3289 -0.6137  0.1833
31366WAT      O27268   7.449  10.226   0.162 -0.4927  0.0572  0.3545
31366WAT     H127269   7.358  10.206   0.183 -0.8998  1.3402 -0.1030
31366WAT     H227270   7.479  10.281   0.235  0.5799 -1.9834  1.5514
31366WAT    EPW27271   7.441  10.231   0.175 -0.4051 -0.0424  0.4520
31367WAT      O27272   1.918   1.903   2.226 -0.1537  0.1178 -0.0388
31367WAT     H127273   1.905   1.992   2.192  1.2111  0.9145  1.3632
31367WAT     H227274   2.011   1.900   2.249 -0.5647 -1.0462  1.6305
31367WAT    EPW27275   1.928   1.915   2.225 -0.0280  0.0693  0.3662
31368WAT      O27276   2.243   5.027   2.368 -0.3000 -0.2475  0.2299
31368WAT     H127277   2.182   4.962   2.333 -0.7291  1.0860 -1.6866
31368WAT     H227278   2.309   5.038   2.299  0.6490  0.1989  1.1846
31368WAT    EPW27279   2.244   5.020   2.354 -0.2314 -0.0126  0.1031
31369WAT      O27280   0.861   0.414   7.659 -0.1526  0.2954  0.4569
31369WAT     H127281   0.905   0.411   7.574 -0.9756 -0.1595  0.0326
31369WAT     H227282   0.859   0.323   7.688 -1.2238  0.2321  0.2370
31369WAT    EPW27283   0.866   0.401   7.652 -0.4025  0.2271  0.3719
31370WAT      O27284   0.649   6.668   5.623 -0.3521  0.0926  0.2611
31370WAT     H127285   0.610   6.756   5.615 -0.1990  0.1055 -0.3841
31370WAT     H227286   0.725   6.671   5.565 -0.8963 -0.7755 -0.5171
31370WAT    EPW27287   0.654   6.680   5.615 -0.4037 -0.0200  0.0734
31371WAT      O27288   4.505   8.307   7.936  0.0131 -0.4842  0.0244
31371WAT     H127289   4.463   8.372   7.992  0.0685 -1.1141  0.8050
31371WAT     H227290   4.567   8.358   7.883  0.2158  0.0693  0.7772
31371WAT    EPW27291   4.507   8.323   7.936  0.0474 -0.4945  0.2265
31372WAT      O27292   1.230   4.510   2.577 -0.7285 -0.6135  0.3286
31372WAT     H127293   1.246   4.524   2.670  1.3941  3.0825 -0.4031
31372WAT     H227294   1.173   4.432   2.574  0.6193 -2.0259  4.5077
31372WAT    EPW27295   1.224   4.501   2.589 -0.2708 -0.3121  0.7831
31373WAT      O27296   0.975   5.878   0.941  0.3208 -0.4354  0.3821
31373WAT     H127297   1.000   5.798   0.895 -1.3612 -1.2651  0.8295
31373WAT     H227298   0.937   5.847   1.024 -2.0653  0.6803 -0.2282
31373WAT    EPW27299   0.973   5.863   0.946 -0.2158 -0.3979  0.3607
31374WAT      O27300   7.139   7.457   3.120  0.1432  0.2842 -0.1352
31374WAT     H127301   7.151   7.428   3.030  4.6282  0.7546  0.1052
31374WAT     H227302   7.184   7.391   3.173  1.2160  2.0830  1.3161
31374WAT    EPW27303   7.146   7.445   3.115  0.8764  0.5834  0.0880
31375WAT      O27304   0.955   3.696   6.684  0.5230 -0.0026 -0.3394
31375WAT     H127305   0.989   3.781   6.711 -1.6400  0.3249  1.5967
31375WAT     H227306   0.937   3.650   6.766 -1.1929 -1.1417 -1.3018
31375WAT    EPW27307   0.957   3.701   6.698  0.0114 -0.1097 -0.2110
31376WAT      O27308   4.177   2.924   8.098 -0.0191 -0.6025  0.0497
31376WAT     H127309   4.257   2.918   8.149  0.3757  0.0462 -0.4715
31376WAT     H227310   4.109   2.891   8.156  0.5662 -0.7941  0.6375
31376WAT    EPW27311   4.178   2.919   8.112  0.1099 -0.5423  0.0591
31377WAT      O27312   2.544   1.855   5.642  0.7573 -0.2555 -0.4476
31377WAT     H127313   2.604   1.883   5.573 -0.6926  1.2456 -1.1769
31377WAT     H227314   2.504   1.936   5.673  1.5983 -0.8352  2.4451
31377WAT    EPW27315   2.547   1.869   5.637  0.6770 -0.1339 -0.1624
31378WAT      O27316   8.864   8.648   0.420 -0.0601 -0.0112 -0.1916
31378WAT     H127317   8.850   8.571   0.476  0.0689  1.3576  1.8557
31378WAT     H227318   8.918   8.706   0.474  1.6484  0.6501 -2.5060
31378WAT    EPW27319   8.869   8.646   0.435  0.1822  0.2561 -0.2268
31379WAT      O27320  10.132   0.754   6.440 -0.1301 -0.4253  0.0420
31379WAT     H127321  10.130   0.848   6.459 -1.7591 -0.3815 -0.1703
31379WAT     H227322  10.195   0.718   6.503 -1.8194  0.3864  2.3301
31379WAT    EPW27323  10.140   0.762   6.451 -0.5679 -0.3125  0.3157
31380WAT      O27324   1.747   0.259   7.392  0.8468 -0.7884  0.3308
31380WAT     H127325   1.810   0.252   7.321  1.6107 -0.4496  0.9662
31380WAT     H227326   1.771   0.340   7.437  0.5414 -1.1497  1.1459
31380WAT    EPW27327   1.758   0.269   7.388  0.9072 -0.7914  0.5219
31381WAT      O27328   9.634   5.200   8.227 -0.0299 -0.1852 -0.0141
31381WAT     H127329   9.547   5.181   8.262 -0.3216  1.4499  0.2189
31381WAT     H227330   9.692   5.138   8.272 -0.9486 -0.7600  0.4162
31381WAT    EPW27331   9.630   5.189   8.238 -0.1898 -0.0453  0.0734
31382WAT      O27332   0.805   0.856   6.505 -0.4780 -0.5395  0.8718
31382WAT     H127333   0.785   0.766   6.533  0.5773 -0.3413  2.4187
31382WAT     H227334   0.872   0.846   6.438  0.0405 -0.8967  1.4344
31382WAT    EPW27335   0.811   0.843   6.500 -0.2704 -0.5604  1.1501
31383WAT      O27336   6.600   7.197   0.359 -0.2332 -0.0491 -0.4680
31383WAT     H127337   6.579   7.275   0.308 -2.5619 -0.7297 -0.6598
31383WAT     H227338   6.581   7.123   0.300  4.3517 -0.9342 -1.2510
31383WAT    EPW27339   6.594   7.197   0.345  0.0644 -0.2556 -0.5965
31384WAT      O27340   3.748   7.926   1.724 -0.3366 -0.0997  0.6838
31384WAT     H127341   3.793   7.878   1.794 -0.6147 -0.8721  0.3409
31384WAT     H227342   3.734   7.860   1.656  0.1948  0.7128 -0.2259
31384WAT    EPW27343   3.752   7.911   1.725 -0.3031 -0.0947  0.5186
31385WAT      O27344   6.108  10.287   8.097  0.0348 -0.3744  0.1987
31385WAT     H127345   6.024  10.271   8.140  0.0831 -0.7893  0.1491
31385WAT     H227346   6.124  10.207   8.046  0.8127 -0.6163  0.7967
31385WAT    EPW27347   6.099  10.274   8.096  0.1440 -0.4611  0.2718
31386WAT      O27348   6.575   7.675   3.103  0.4644 -0.3397  0.6565
31386WAT     H127349   6.549   7.611   3.037 -1.6108 -0.0536  1.1359
31386WAT     H227350   6.671   7.670   3.105  0.5183 -1.2173 -1.4911
31386WAT    EPW27351   6.584   7.666   3.094  0.1976 -0.4175  0.4365
31387WAT      O27352   6.499   5.374   1.646 -0.3003  0.1909  0.0249
31387WAT     H127353   6.523   5.455   1.599 -0.2832  2.6479  3.8150
31387WAT     H227354   6.582   5.326   1.653 -0.0330  0.4370 -1.1843
31387WAT    EPW27355   6.513   5.379   1.641 -0.2627  0.5476  0.3653
31388WAT      O27356   5.783   6.945   2.409  0.5087 -1.1492 -0.2385
31388WAT     H127357   5.795   7.035   2.380  2.0652 -1.0805  0.4992
31388WAT     H227358   5.710   6.912   2.357 -2.6249  1.6193  2.0036
31388WAT    EPW27359   5.775   6.952   2.398  0.3009 -0.7749  0.1546
31389WAT      O27360   4.604   5.729   1.323 -0.2538 -0.2017  0.8734
31389WAT     H127361   4.644   5.788   1.260 -0.9829  1.1310  1.5989
31389WAT     H227362   4.677   5.692   1.373  0.1714  2.6753  2.6213
31389WAT    EPW27363   4.619   5.732   1.322 -0.2940  0.3533  1.1995
31390WAT      O27364   2.844   5.511   2.659 -0.2541 -0.9613  0.0841
31390WAT     H127365   2.758   5.526   2.619 -0.5970 -0.5443  0.9432
31390WAT     H227366   2.891   5.457   2.595 -0.9512 -0.7265 -0.6473
31390WAT    EPW27367   2.839   5.506   2.645 -0.3912 -0.8752  0.1010
31391WAT      O27368   8.588   1.187   2.110 -0.3140  0.5130  0.5483
31391WAT     H127369   8.578   1.189   2.015 -0.2171 -2.4133  0.3920
31391WAT     H227370   8.641   1.264   2.130  2.7345 -0.6279 -2.2215
31391WAT    EPW27371   8.594   1.197   2.100  0.1011 -0.0235  0.1624
31392WAT      O27372   2.677   5.228   3.025  0.5158 -0.0934  0.1827
31392WAT     H127373   2.617   5.233   3.099 -1.6296 -0.1155 -1.4577
31392WAT     H227374   2.746   5.167   3.054 -0.4124 -0.3328  2.0163
31392WAT    EPW27375   2.678   5.220   3.039  0.1104 -0.1278  0.2083
31393WAT      O27376   5.425   7.960   6.945 -0.4870  0.4651 -0.9387
31393WAT     H127377   5.441   7.990   7.035  0.7515  1.9421 -1.6146
31393WAT     H227378   5.491   7.892   6.931 -0.0953  0.8613 -1.0257
31393WAT    EPW27379   5.436   7.955   6.955 -0.2720  0.7122 -1.0390
31394WAT      O27380  10.774   1.562   6.501 -0.8604  0.2047 -0.3424
31394WAT     H127381  10.763   1.556   6.406 -0.0785 -1.3512 -0.3709
31394WAT     H227382  10.811   1.477   6.526 -0.7569  0.7038  1.3144
31394WAT    EPW27383  10.778   1.550   6.492 -0.7439  0.0653 -0.1276
31395WAT      O27384  10.799   1.407   7.610  0.2678  0.5993  0.6288
31395WAT     H127385  10.776   1.480   7.667  0.8790  2.9377 -1.9153
31395WAT     H227386  10.828   1.448   7.528  0.5675 -2.5076 -0.9858
31395WAT    EPW27387  10.800   1.422   7.607  0.3881  0.4979  0.0803
31396WAT      O27388   0.419   1.006   7.532 -0.3741 -0.4220  0.0098
31396WAT     H127389   0.390   1.087   7.573 -0.5527 -0.0517 -0.8309
31396WAT     H227390   0.488   0.974   7.590  0.2618  0.7569 -0.0573
31396WAT    EPW27391   0.425   1.013   7.545 -0.3138 -0.2177 -0.1099
31397WAT      O27392   4.856   8.842   6.035 -0.1731  0.2193  0.0025
31397WAT     H127393   4.927   8.887   6.082  1.4661 -0.6863 -1.4707
31397WAT     H227394   4.881   8.848   5.943 -0.8237 -2.0902 -0.3871
31397WAT    EPW27395   4.869   8.849   6.029 -0.0424 -0.2046 -0.2434
31398WAT      O27396   6.751   2.892   7.818 -0.1580  0.0866  0.0283
31398WAT     H127397   6.843   2.865   7.807 -0.5173 -0.6469 -1.3405
31398WAT     H227398   6.756   2.986   7.833  0.7684  0.2566 -1.1797
31398WAT    EPW27399   6.764   2.901   7.819 -0.0832  0.0123 -0.3116
31399WAT      O27400   5.562   6.983   1.217  0.4061  0.3323  0.0780
31399WAT     H127401   5.572   6.947   1.305  0.6483  1.4521  0.5196
31399WAT     H227402   5.634   7.045   1.207  0.4789  0.1020 -0.9741
31399WAT    EPW27403   5.573   6.987   1.227  0.4475  0.4497 -0.0025
31400WAT      O27404   4.987   8.292   0.372  0.1667 -0.6401  0.1815
31400WAT     H127405   4.947   8.263   0.290 -1.7766  0.3140  0.7506
31400WAT     H227406   5.077   8.258   0.367 -0.2271 -1.5630 -1.8188
31400WAT    EPW27407   4.994   8.283   0.360 -0.1416 -0.6356 -0.0073
31401WAT      O27408   5.597   4.885   1.359 -0.1282  0.0287  0.0432
31401WAT     H127409   5.678   4.885   1.409  1.0078  0.8822 -1.6788
31401WAT     H227410   5.534   4.933   1.413  0.7392  0.0535  1.0533
31401WAT    EPW27411   5.599   4.891   1.373  0.1359  0.1445 -0.0506
31402WAT      O27412   4.406   6.233   1.346  1.2611  0.1808 -0.1053
31402WAT     H127413   4.424   6.252   1.253  1.4709  0.5943  0.0159
31402WAT     H227414   4.312   6.247   1.355  1.1428 -0.4153 -0.3816
31402WAT    EPW27415   4.396   6.237   1.335  1.2732  0.1566 -0.1257
31403WAT      O27416   3.864   8.137   0.891  0.6480 -0.3272  0.1499
31403WAT     H127417   3.821   8.058   0.860  0.9442  0.0595 -1.3297
31403WAT     H227418   3.918   8.165   0.818 -1.1579  2.4974 -0.2626
31403WAT    EPW27419   3.866   8.130   0.878  0.4489  0.0963 -0.0997
31404WAT      O27420   0.475   1.200   8.411  0.6690  0.5446 -0.0414
31404WAT     H127421   0.470   1.268   8.344 -1.5819  0.6223  0.1396
31404WAT     H227422   0.455   1.119   8.365 -3.3260  0.8592  0.7738
31404WAT    EPW27423   0.472   1.198   8.396 -0.1548  0.5963  0.0896
31405WAT      O27424   4.734   5.901   0.895 -0.4572  0.8273  0.1209
31405WAT     H127425   4.801   5.926   0.831 -0.8647  0.1981 -0.5732
31405WAT     H227426   4.653   5.894   0.843 -0.9373  0.9728  0.8303
31405WAT    EPW27427   4.732   5.903   0.880 -0.5744  0.7634  0.1229
31406WAT      O27428   8.707   8.093   7.079  0.0153 -0.3443 -0.1279
31406WAT     H127429   8.634   8.146   7.112 -0.1288  0.1481 -1.1912
31406WAT     H227430   8.786   8.142   7.106 -0.1316  1.1935 -2.2620
31406WAT    EPW27431   8.708   8.107   7.087 -0.0234 -0.0763 -0.5496
31407WAT      O27432   4.219   5.405   2.731 -0.2448  0.2071 -0.2113
31407WAT     H127433   4.127   5.393   2.758 -0.4637  0.1942 -0.9346
31407WAT     H227434   4.235   5.332   2.671  1.0354 -1.2808  1.8334
31407WAT    EPW27435   4.209   5.394   2.727 -0.1049  0.0091 -0.0370
31408WAT      O27436   5.046   9.070   6.915  0.7628  0.2558 -0.4943
31408WAT     H127437   5.002   9.004   6.861 -1.3123  0.8594  0.3620
31408WAT     H227438   5.080   9.021   6.990  2.0607 -0.2953 -1.4006
31408WAT    EPW27439   5.045   9.055   6.918  0.6602  0.2627 -0.5009
31409WAT      O27440   6.236   3.208   0.928  0.4806 -0.9288 -0.8442
31409WAT     H127441   6.259   3.289   0.882 -3.3607 -1.6505 -4.7685
31409WAT     H227442   6.260   3.138   0.867  0.7314 -2.5251  1.0022
31409WAT    EPW27443   6.242   3.210   0.914  0.0072 -1.2344 -1.1183
31410WAT      O27444   5.989   9.596   4.847  0.2524  0.5649  0.2408
31410WAT     H127445   5.948   9.644   4.775  2.9691  2.8837  0.0906
31410WAT     H227446   5.931   9.610   4.922  0.2233  2.9478 -0.1689
31410WAT    EPW27447   5.976   9.604   4.848  0.6070  1.1849  0.1669
31411WAT      O27448   0.846   2.626   8.688 -0.5342  0.4426  0.0475
31411WAT     H127449   0.825   2.719   8.681 -0.7718  0.3794 -0.1069
31411WAT     H227450   0.938   2.624   8.712 -0.3311  0.7042 -0.6827
31411WAT    EPW27451   0.855   2.638   8.690 -0.5388  0.4690 -0.0691
31412WAT      O27452   0.857   3.955   8.437  0.1870  0.8230 -0.7732
31412WAT     H127453   0.824   3.976   8.525  1.1300 -0.6369 -0.0309
31412WAT     H227454   0.943   3.996   8.434  0.9849 -0.7730 -0.2537
31412WAT    EPW27455   0.864   3.963   8.448  0.4166  0.4199 -0.6065
31413WAT      O27456   6.753   6.781   2.474 -0.3140  0.4976 -0.2413
31413WAT     H127457   6.797   6.862   2.450 -0.6588  1.1603  1.2641
31413WAT     H227458   6.782   6.763   2.563 -2.4710  0.5383  0.5319
31413WAT    EPW27459   6.763   6.789   2.482 -0.6437  0.5906  0.0592
31414WAT      O27460   1.295  10.149   0.916 -0.7468 -0.0998  0.6352
31414WAT     H127461   1.365  10.202   0.954  0.2055 -2.8487  3.2185
31414WAT     H227462   1.230  10.141   0.987 -0.8861 -2.1656  0.3420
31414WAT    EPW27463   1.296  10.155   0.930 -0.6396 -0.7348  0.9373
31415WAT      O27464   5.646   2.398   0.009 -0.2824 -0.4958  0.4945
31415WAT     H127465   5.606   2.350  -0.064 -1.6578  0.0954  0.8268
31415WAT     H227466   5.666   2.332   0.074  2.2715 -1.2572 -0.9094
31415WAT    EPW27467   5.644   2.383   0.008 -0.1268 -0.5183  0.3532
31416WAT      O27468  10.023   9.819   8.926  0.2072  0.5533  0.3291
31416WAT     H127469  10.094   9.875   8.895  0.7388 -0.2722  0.0202
31416WAT     H227470  10.025   9.743   8.868 -2.6513  1.6693 -1.4472
31416WAT    EPW27471  10.033   9.816   8.914 -0.0997  0.5913  0.0534
31417WAT      O27472   4.149   7.481   2.057 -0.3836  0.5982 -0.1871
31417WAT     H127473   4.204   7.548   2.098 -1.2035  1.4008 -0.3644
31417WAT     H227474   4.088   7.531   2.001 -2.0880 -0.1339  0.9263
31417WAT    EPW27475   4.148   7.497   2.055 -0.7164  0.6077 -0.0637
31418WAT      O27476   8.323   8.727   7.096  0.3395  0.0979 -0.3570
31418WAT     H127477   8.314   8.709   7.003  0.2827  2.6463 -0.9029
31418WAT     H227478   8.415   8.708   7.116  0.3284 -0.5328 -0.8811
31418WAT    EPW27479   8.334   8.722   7.087  0.3304  0.3510 -0.4981
31419WAT      O27480   4.809   6.901   1.720 -0.1038 -0.8245 -0.5758
31419WAT     H127481   4.860   6.982   1.711 -3.0615  1.2450 -0.4794
31419WAT     H227482   4.819   6.877   1.811 -0.9168  0.8050 -0.0082
31419WAT    EPW27483   4.817   6.909   1.730 -0.6008 -0.3366 -0.4882
31420WAT      O27484   4.691   6.793   0.810 -0.5115 -0.0413  0.1928
31420WAT     H127485   4.675   6.720   0.870 -0.4745 -1.1320 -1.0842
31420WAT     H227486   4.785   6.810   0.818 -0.5606  0.0281  0.6655
31420WAT    EPW27487   4.701   6.786   0.819 -0.5128 -0.1757  0.0867
31421WAT      O27488   0.715   4.882   8.356  0.2469 -0.9771  0.1981
31421WAT     H127489   0.708   4.821   8.429  3.8768  1.2903  2.7488
31421WAT     H227490   0.806   4.874   8.327 -0.4369  0.0034 -2.5025
31421WAT    EPW27491   0.726   4.873   8.362  0.6355 -0.5484  0.1783
31422WAT      O27492   4.010   9.815   0.321  0.4285 -0.3910  0.1425
31422WAT     H127493   3.955   9.835   0.246 -0.6630 -2.5626  0.2907
31422WAT     H227494   3.999   9.890   0.379 -3.1950 -1.0277  0.5632
31422WAT    EPW27495   4.001   9.827   0.319 -0.1934 -0.7610  0.2175
31423WAT      O27496   3.637   8.468   1.220  0.2985  0.2612  0.2124
31423WAT     H127497   3.657   8.378   1.195  0.2453 -0.5052  2.6766
31423WAT     H227498   3.721   8.506   1.244  0.3932  1.0816 -1.2855
31423WAT    EPW27499   3.650   8.461   1.220  0.3039  0.2685  0.3399
31424WAT      O27500   1.529   4.075   1.827  0.0754 -0.9287 -0.3706
31424WAT     H127501   1.463   4.134   1.864  0.5328  1.2400 -2.7322
31424WAT     H227502   1.521   3.995   1.879 -3.4616 -0.3006  0.3161
31424WAT    EPW27503   1.519   4.073   1.839 -0.3308 -0.5600 -0.5916
31425WAT      O27504   1.923   6.153   1.676  0.0246  0.5788 -0.4989
31425WAT     H127505   1.901   6.246   1.682 -0.8326  0.4063 -0.8334
31425WAT     H227506   2.013   6.152   1.642  0.3581  1.2911  0.3273
31425WAT    EPW27507   1.932   6.165   1.673 -0.0445  0.6499 -0.4341
31426WAT      O27508   7.033   8.637   2.477 -0.1870 -0.6632 -0.0236
31426WAT     H127509   7.129   8.637   2.476 -0.1881 -0.0239 -0.2679
31426WAT     H227510   7.010   8.548   2.505  0.4658 -1.4805 -1.8827
31426WAT    EPW27511   7.043   8.625   2.481 -0.1011 -0.6871 -0.3010
31427WAT      O27512   3.978   5.809   0.970 -0.0378 -0.0941  0.1788
31427WAT     H127513   3.986   5.893   0.924 -0.3388  0.5280  1.2154
31427WAT     H227514   4.005   5.829   1.060 -1.7098 -0.7120  0.8515
31427WAT    EPW27515   3.983   5.823   0.976 -0.2980 -0.0935  0.4042
31428WAT      O27516  10.831   4.138   7.515 -0.2663  0.3391 -0.0269
31428WAT     H127517  10.909   4.181   7.480 -0.1323  0.2792  0.1973
31428WAT     H227518  10.842   4.046   7.491 -0.3390  0.3546 -0.1215
31428WAT    EPW27519  10.843   4.131   7.507 -0.2580  0.3333 -0.0098
31429WAT      O27520   9.701   2.622   8.495  0.4503 -0.7352 -0.7022
31429WAT     H127521   9.749   2.558   8.547 -2.1020 -1.4852  0.9105
31429WAT     H227522   9.695   2.583   8.408 -0.4456 -2.3801  0.0616
31429WAT    EPW27523   9.707   2.609   8.490 -0.0043 -1.0511 -0.3886
31430WAT      O27524   1.988   0.008   7.634 -0.5241 -0.0587 -0.5551
31430WAT     H127525   2.057   0.063   7.597 -1.3246  1.6330  0.3643
31430WAT     H227526   1.912   0.066   7.641 -1.0760 -0.9412  1.5313
31430WAT    EPW27527   1.987   0.023   7.630 -0.7024  0.0477 -0.1588
31431WAT      O27528   3.558   7.853   0.711  0.8102 -0.7226 -0.2069
31431WAT     H127529   3.617   7.811   0.649  3.0654 -1.8366  2.4683
31431WAT     H227530   3.474   7.811   0.698  1.4830 -1.6533 -1.7682
31431WAT    EPW27531   3.555   7.842   0.701  1.1964 -0.9921 -0.0600
31432WAT      O27532   8.949   6.830   1.674 -0.0962 -0.2138  0.5741
31432WAT     H127533   9.005   6.850   1.598 -2.1811 -0.5954 -1.1684
31432WAT     H227534   9.000   6.768   1.725  0.9946 -0.7389 -1.0568
31432WAT    EPW27535   8.963   6.825   1.671 -0.2275 -0.3333  0.1292
31433WAT      O27536   5.584   7.306   2.416 -0.9225  0.1825  0.5018
31433WAT     H127537   5.581   7.354   2.499 -0.5357  0.5489  0.3066
31433WAT     H227538   5.507   7.250   2.419 -1.6121  1.1056  0.5549
31433WAT    EPW27539   5.574   7.305   2.428 -0.9625  0.3526  0.4830
31434WAT      O27540   3.665   7.598   1.746  0.1215  0.5932  0.7597
31434WAT     H127541   3.690   7.610   1.654  1.0028  0.4768  0.9810
31434WAT     H227542   3.744   7.618   1.796 -0.3018  0.4874  1.4888
31434WAT    EPW27543   3.679   7.602   1.740  0.1818  0.5636  0.8851
31435WAT      O27544   3.287   6.658   1.503  0.0638  0.1820 -0.4811
31435WAT     H127545   3.211   6.601   1.508 -1.2118  1.9125  2.4176
31435WAT     H227546   3.360   6.603   1.533 -0.9722 -0.2173  1.4398
31435WAT    EPW27547   3.287   6.643   1.507 -0.2410  0.3576  0.1546
31436WAT      O27548   4.358   5.986   1.666  0.1800 -0.1079  0.2867
31436WAT     H127549   4.342   5.991   1.572 -0.0997  1.8572  0.3985
31436WAT     H227550   4.446   6.023   1.677  0.0216  0.1133  0.8409
31436WAT    EPW27551   4.368   5.992   1.655  0.1223  0.1802  0.3746
31437WAT      O27552   9.187   0.781   8.473 -0.0108 -0.7038  0.1066
31437WAT     H127553   9.160   0.702   8.426 -0.5352  0.1574 -1.1016
31437WAT     H227554   9.201   0.846   8.404 -1.9031  0.9422  1.1468
31437WAT    EPW27555   9.185   0.779   8.458 -0.3295 -0.3731  0.0849
31438WAT      O27556   5.439   8.055   0.791 -0.4880 -0.3324  0.3246
31438WAT     H127557   5.396   7.970   0.780  0.6244 -0.6908 -1.8600
31438WAT     H227558   5.390   8.114   0.733 -1.7241  0.7742  2.3789
31438WAT    EPW27559   5.427   8.052   0.782 -0.5040 -0.2337  0.3074
31439WAT      O27560   6.443   8.120   0.117 -0.5110 -0.1620 -0.5818
31439WAT     H127561   6.491   8.200   0.097  2.7454 -1.7283  0.2727
31439WAT     H227562   6.427   8.080   0.031 -0.1927  0.3545 -0.8855
31439WAT    EPW27563   6.447   8.125   0.103 -0.0398 -0.3004 -0.5092
31440WAT      O27564  10.858   0.394   8.920 -0.5452 -0.5497  0.6966
31440WAT     H127565  10.914   0.317   8.918 -1.2783 -1.0824  0.2585
31440WAT     H227566  10.780   0.369   8.871  0.0764  1.1418 -1.3211
31440WAT    EPW27567  10.855   0.381   8.913 -0.5603 -0.3969  0.3724
31441WAT      O27568   3.537   1.220   8.678  0.1390 -0.0064 -0.0931
31441WAT     H127569   3.537   1.180   8.591  1.5322  0.9454 -0.5773
31441WAT     H227570   3.494   1.305   8.665 -0.4991 -0.2525  0.3651
31441WAT    EPW27571   3.531   1.226   8.664  0.2385  0.0867 -0.0963
31442WAT      O27572   3.228   0.455   6.494  0.2043 -0.3549  0.2380
31442WAT     H127573   3.198   0.508   6.568  2.0992 -0.6291  1.2728
31442WAT     H227574   3.266   0.518   6.433 -3.5785  0.2114 -1.8646
31442WAT    EPW27575   3.229   0.470   6.496 -0.0448 -0.3164  0.0973
31443WAT      O27576   9.124   1.398   7.084  0.2148  0.1209  0.4109
31443WAT     H127577   9.118   1.408   7.179  3.5774  1.5412  0.6335
31443WAT     H227578   9.181   1.322   7.072  1.0973  0.8847 -0.3809
31443WAT    EPW27579   9.131   1.389   7.095  0.7749  0.4089  0.3359
31444WAT      O27580   2.687   3.890   7.319  0.4579  0.0035 -0.1337
31444WAT     H127581   2.747   3.948   7.271  0.5816 -0.0771 -0.0752
31444WAT     H227582   2.742   3.844   7.381  0.1263  0.9179  0.8674
31444WAT    EPW27583   2.702   3.892   7.321  0.4305  0.1135  0.0062
31445WAT      O27584   5.392   6.850   2.932  0.2300  0.1006 -0.4894
31445WAT     H127585   5.307   6.876   2.899  0.1433  0.4523 -0.0119
31445WAT     H227586   5.421   6.780   2.874 -1.8841 -2.4641  1.2901
31445WAT    EPW27587   5.385   6.844   2.920 -0.0606 -0.1912 -0.1917
31446WAT      O27588   4.403   5.373   2.225 -0.3586 -0.0443 -0.0389
31446WAT     H127589   4.341   5.304   2.199 -0.2497 -1.1913  2.4488
31446WAT     H227590   4.476   5.363   2.164 -0.1686 -2.4719  0.4670
31446WAT    EPW27591   4.405   5.362   2.214 -0.3192 -0.5157  0.3560
31447WAT      O27592   7.160   8.547   7.964  1.1303 -0.0940 -0.0245
31447WAT     H127593   7.126   8.458   7.974  0.6510  0.2400  1.6270
31447WAT     H227594   7.243   8.536   7.917 -0.4287 -1.0700 -2.8166
31447WAT    EPW27595   7.166   8.534   7.959  0.8614 -0.1788 -0.1752
  11.00017  10.37106   8.98161   0.00000   0.00000  -3.66672   0.00000  -3.66672  -5.18553
